<event>
 8    1  0.6239251E-010  0.9118800E+02  0.7816164E-02  0.1184000E+00
        -11   -1    0    0    0    0  0.00000000000E+00  0.00000000000E+00  0.45593999997E+02  0.45594000000E+02  0.51100000000E-03 0. -1.
         11   -1    0    0    0    0 -0.00000000000E+00 -0.00000000000E+00 -0.45593999997E+02  0.45594000000E+02  0.51100000000E-03 0.  1.
         23    2    1    2    0    0  0.22204460493E-15  0.00000000000E+00  0.00000000000E+00  0.91188000000E+02  0.91188000000E+02 0.  0.
    9900012    2    3    3    0    0 -0.19278514160E+01  0.25372415260E+02 -0.35158885361E+02  0.47787270893E+02  0.19999999309E+02 0.  0.
         12    1    3    3    0    0  0.19278514160E+01 -0.25372415260E+02  0.35158885361E+02  0.43400729107E+02  0.00000000000E+00 0. -1.
         11    1    4    4    0    0  0.21392352708E+01  0.18052466476E+02 -0.97243319667E+01  0.20616267991E+02  0.51100000000E-03 0. -1.
        -11    1    4    4    0    0 -0.17471425361E+01  0.68268831361E+01 -0.16834880485E+02  0.18250261412E+02  0.51100000000E-03 0.  1.
         12    1    4    4    0    0 -0.23199441507E+01  0.49306564806E+00 -0.85996729088E+01  0.89207414901E+01  0.00000000000E+00 0. -1.
</event>
<event>
 8    1  0.6239251E-010  0.9118800E+02  0.7816164E-02  0.1184000E+00
        -11   -1    0    0    0    0  0.00000000000E+00  0.00000000000E+00  0.45593999997E+02  0.45594000000E+02  0.51100000000E-03 0. -1.
         11   -1    0    0    0    0 -0.00000000000E+00 -0.00000000000E+00 -0.45593999997E+02  0.45594000000E+02  0.51100000000E-03 0.  1.
         23    2    1    2    0    0  0.00000000000E+00  0.00000000000E+00  0.00000000000E+00  0.91188000000E+02  0.91188000000E+02 0.  0.
    9900012    2    3    3    0    0 -0.18522559583E+02  0.14555807660E+02 -0.36450879495E+02  0.47787269982E+02  0.19999995156E+02 0.  0.
         12    1    3    3    0    0  0.18522559583E+02 -0.14555807660E+02  0.36450879495E+02  0.43400730018E+02  0.00000000000E+00 0. -1.
         11    1    4    4    0    0 -0.11485139128E+02  0.13895708690E+02 -0.27586152640E+02  0.32954437615E+02  0.51100000000E-03 0.  1.
        -11    1    4    4    0    0 -0.57775540045E+01 -0.39142911006E+01 -0.64769361533E+01  0.95211610264E+01  0.51100000000E-03 0. -1.
         12    1    4    4    0    0 -0.12598664505E+01  0.45743900714E+01 -0.23877907014E+01  0.53116713408E+01  0.00000000000E+00 0. -1.
</event>
<event>
 8    1  0.6239251E-010  0.9118800E+02  0.7816164E-02  0.1184000E+00
        -11   -1    0    0    0    0  0.00000000000E+00  0.00000000000E+00  0.45593999997E+02  0.45594000000E+02  0.51100000000E-03 0. -1.
         11   -1    0    0    0    0 -0.00000000000E+00 -0.00000000000E+00 -0.45593999997E+02  0.45594000000E+02  0.51100000000E-03 0.  1.
         23    2    1    2    0    0  0.35527136788E-14  0.17763568394E-14  0.00000000000E+00  0.91188000000E+02  0.91188000000E+02 0.  0.
    9900012    2    3    3    0    0  0.30076065589E+02  0.10645561216E+02 -0.29423218971E+02  0.47787268329E+02  0.19999987621E+02 0.  0.
         12    1    3    3    0    0 -0.30076065589E+02 -0.10645561216E+02  0.29423218971E+02  0.43400731671E+02  0.00000000000E+00 0. -1.
         11    1    4    4    0    0  0.61722210101E+01  0.47551358461E+01 -0.16222670732E+02  0.17996740679E+02  0.51100000000E-03 0. -1.
        -11    1    4    4    0    0  0.15102249221E+02  0.39573352845E+01 -0.25165244355E+01  0.15813643779E+02  0.51100000000E-03 0.  1.
        -12    1    4    4    0    0  0.88015953579E+01  0.19330900856E+01 -0.10684023804E+02  0.13976883872E+02  0.00000000000E+00 0.  1.
</event>
<event>
 8    1  0.6239251E-010  0.9118800E+02  0.7816164E-02  0.1184000E+00
        -11   -1    0    0    0    0  0.00000000000E+00  0.00000000000E+00  0.45593999997E+02  0.45594000000E+02  0.51100000000E-03 0. -1.
         11   -1    0    0    0    0 -0.00000000000E+00 -0.00000000000E+00 -0.45593999997E+02  0.45594000000E+02  0.51100000000E-03 0.  1.
         23    2    1    2    0    0 -0.35527136788E-14  0.00000000000E+00  0.00000000000E+00  0.91188000000E+02  0.91188000000E+02 0.  0.
    9900012    2    3    3    0    0 -0.20113800780E+02 -0.97969202078E+01 -0.37189764270E+02  0.47787271966E+02  0.20000004203E+02 0.  0.
         12    1    3    3    0    0  0.20113800780E+02  0.97969202078E+01  0.37189764270E+02  0.43400728034E+02  0.00000000000E+00 0. -1.
         11    1    4    4    0    0 -0.48246152142E+01 -0.11403690601E+02 -0.19656253253E+02  0.23231215282E+02  0.51100000000E-03 0. -1.
        -11    1    4    4    0    0 -0.12867720688E+02  0.21800668598E+01 -0.17779613329E+02  0.22055511275E+02  0.51100000000E-03 0.  1.
        -12    1    4    4    0    0 -0.24214648782E+01 -0.57329646705E+00  0.24610231158E+00  0.25005454092E+01  0.00000000000E+00 0.  1.
</event>
<event>
 8    1  0.6239251E-010  0.9118800E+02  0.7816164E-02  0.1184000E+00
        -11   -1    0    0    0    0  0.00000000000E+00  0.00000000000E+00  0.45593999997E+02  0.45594000000E+02  0.51100000000E-03 0. -1.
         11   -1    0    0    0    0 -0.00000000000E+00 -0.00000000000E+00 -0.45593999997E+02  0.45594000000E+02  0.51100000000E-03 0.  1.
         23    2    1    2    0    0  0.00000000000E+00  0.00000000000E+00 -0.35527136788E-14  0.91188000000E+02  0.91188000000E+02 0.  0.
    9900012    2    3    3    0    0  0.19091878633E+02 -0.30629455568E+02 -0.24103106558E+02  0.47787272773E+02  0.20000007881E+02 0.  0.
         12    1    3    3    0    0 -0.19091878633E+02  0.30629455568E+02  0.24103106558E+02  0.43400727227E+02  0.00000000000E+00 0. -1.
         11    1    4    4    0    0 -0.70762748306E+00 -0.57364628932E+01 -0.67830593669E+01  0.89116574113E+01  0.51100000000E-03 0. -1.
        -11    1    4    4    0    0  0.15432586289E+02 -0.88528325735E+01 -0.60520536091E+01  0.18792677225E+02  0.51100000000E-03 0.  1.
        -12    1    4    4    0    0  0.43669198269E+01 -0.16040160101E+02 -0.11267993582E+02  0.20082938137E+02  0.00000000000E+00 0.  1.
</event>
<event>
 8    1  0.6239251E-010  0.9118800E+02  0.7816164E-02  0.1184000E+00
        -11   -1    0    0    0    0  0.00000000000E+00  0.00000000000E+00  0.45593999997E+02  0.45594000000E+02  0.51100000000E-03 0. -1.
         11   -1    0    0    0    0 -0.00000000000E+00 -0.00000000000E+00 -0.45593999997E+02  0.45594000000E+02  0.51100000000E-03 0.  1.
         23    2    1    2    0    0  0.00000000000E+00 -0.35527136788E-14  0.00000000000E+00  0.91188000000E+02  0.91188000000E+02 0.  0.
    9900012    2    3    3    0    0 -0.13857648230E+02 -0.25782805554E+02 -0.32044278495E+02  0.47787271193E+02  0.20000000678E+02 0.  0.
         12    1    3    3    0    0  0.13857648230E+02  0.25782805554E+02  0.32044278495E+02  0.43400728807E+02  0.00000000000E+00 0. -1.
         11    1    4    4    0    0 -0.27292995724E+01 -0.17418464399E+02 -0.12815491295E+02  0.21796531732E+02  0.51100000000E-03 0. -1.
        -11    1    4    4    0    0 -0.70811318698E+00 -0.62520774874E+01 -0.41385499382E+01  0.75311017153E+01  0.51100000000E-03 0.  1.
         12    1    4    4    0    0 -0.10420235471E+02 -0.21122636673E+01 -0.15090237262E+02  0.18459637746E+02  0.00000000000E+00 0. -1.
</event>
<event>
 8    1  0.6239251E-010  0.9118800E+02  0.7816164E-02  0.1184000E+00
        -11   -1    0    0    0    0  0.00000000000E+00  0.00000000000E+00  0.45593999997E+02  0.45594000000E+02  0.51100000000E-03 0.  1.
         11   -1    0    0    0    0 -0.00000000000E+00 -0.00000000000E+00 -0.45593999997E+02  0.45594000000E+02  0.51100000000E-03 0. -1.
         23    2    1    2    0    0 -0.35527136788E-14  0.00000000000E+00  0.00000000000E+00  0.91188000000E+02  0.91188000000E+02 0.  0.
    9900012    2    3    3    0    0 -0.21328523141E+02 -0.24628979295E+02  0.28672826989E+02  0.47787268117E+02  0.19999986653E+02 0.  0.
        -12    1    3    3    0    0  0.21328523141E+02  0.24628979295E+02 -0.28672826989E+02  0.43400731883E+02  0.00000000000E+00 0.  1.
         11    1    4    4    0    0 -0.16048944814E+02 -0.11978353010E+02  0.14912064151E+02  0.24968364544E+02  0.51100000000E-03 0. -1.
        -11    1    4    4    0    0  0.23330048596E+01  0.53977796966E+00  0.42070384171E+01  0.48408103078E+01  0.51100000000E-03 0.  1.
        -12    1    4    4    0    0 -0.76125831860E+01 -0.13190404254E+02  0.95537244208E+01  0.17978093266E+02  0.00000000000E+00 0.  1.
</event>
<event>
 8    1  0.6239251E-010  0.9118800E+02  0.7816164E-02  0.1184000E+00
        -11   -1    0    0    0    0  0.00000000000E+00  0.00000000000E+00  0.45593999997E+02  0.45594000000E+02  0.51100000000E-03 0. -1.
         11   -1    0    0    0    0 -0.00000000000E+00 -0.00000000000E+00 -0.45593999997E+02  0.45594000000E+02  0.51100000000E-03 0.  1.
         23    2    1    2    0    0  0.00000000000E+00  0.66613381478E-15  0.00000000000E+00  0.91188000000E+02  0.91188000000E+02 0.  0.
    9900012    2    3    3    0    0 -0.38489967962E+02  0.15283067330E+01 -0.19995246795E+02  0.47787271324E+02  0.20000001274E+02 0.  0.
         12    1    3    3    0    0  0.38489967962E+02 -0.15283067330E+01  0.19995246795E+02  0.43400728676E+02  0.00000000000E+00 0. -1.
         11    1    4    4    0    0 -0.36087475159E+02 -0.61704871384E+00 -0.16222635152E+02  0.39570955308E+02  0.51100000000E-03 0. -1.
        -11    1    4    4    0    0 -0.17253745404E+01  0.43482360661E+01 -0.36044294893E+01  0.59055894199E+01  0.51100000000E-03 0.  1.
         12    1    4    4    0    0 -0.67711826347E+00 -0.22028806192E+01 -0.16818215375E+00  0.23107265962E+01  0.00000000000E+00 0. -1.
</event>
<event>
 8    1  0.6239251E-010  0.9118800E+02  0.7816164E-02  0.1184000E+00
        -11   -1    0    0    0    0  0.00000000000E+00  0.00000000000E+00  0.45593999997E+02  0.45594000000E+02  0.51100000000E-03 0. -1.
         11   -1    0    0    0    0 -0.00000000000E+00 -0.00000000000E+00 -0.45593999997E+02  0.45594000000E+02  0.51100000000E-03 0.  1.
         23    2    1    2    0    0 -0.88817841970E-15 -0.88817841970E-15  0.71054273576E-14  0.91188000000E+02  0.91188000000E+02 0.  0.
    9900012    2    3    3    0    0 -0.42410535196E+01 -0.55368966474E+01  0.42836664001E+02  0.47787267953E+02  0.19999985905E+02 0.  0.
        -12    1    3    3    0    0  0.42410535196E+01  0.55368966474E+01 -0.42836664001E+02  0.43400732047E+02  0.00000000000E+00 0.  1.
         11    1    4    4    0    0 -0.25654393611E+01 -0.17762999358E+01 -0.80722581424E+00  0.32230939102E+01  0.51100000000E-03 0. -1.
        -11    1    4    4    0    0  0.13630402124E+01  0.14384026341E+01  0.39830116117E+01  0.44487371824E+01  0.51100000000E-03 0.  1.
         12    1    4    4    0    0 -0.30386543708E+01 -0.51989993457E+01  0.39660878204E+02  0.40115436860E+02  0.00000000000E+00 0. -1.
</event>
<event>
 8    1  0.6239251E-010  0.9118800E+02  0.7816164E-02  0.1184000E+00
        -11   -1    0    0    0    0  0.00000000000E+00  0.00000000000E+00  0.45593999997E+02  0.45594000000E+02  0.51100000000E-03 0.  1.
         11   -1    0    0    0    0 -0.00000000000E+00 -0.00000000000E+00 -0.45593999997E+02  0.45594000000E+02  0.51100000000E-03 0. -1.
         23    2    1    2    0    0  0.00000000000E+00  0.35527136788E-14  0.00000000000E+00  0.91188000000E+02  0.91188000000E+02 0.  0.
    9900012    2    3    3    0    0 -0.36893839859E+02  0.21867076805E+02 -0.66557973324E+01  0.47787261462E+02  0.19999956310E+02 0.  0.
        -12    1    3    3    0    0  0.36893839859E+02 -0.21867076805E+02  0.66557973324E+01  0.43400738538E+02  0.00000000000E+00 0.  1.
         11    1    4    4    0    0 -0.15525045080E+02  0.14304804969E+01  0.16908021501E+01  0.15682222781E+02  0.51100000000E-03 0. -1.
        -11    1    4    4    0    0 -0.16459256140E+02  0.14469500193E+02 -0.18203681067E+01  0.21990618200E+02  0.51100000000E-03 0.  1.
         12    1    4    4    0    0 -0.49095386387E+01  0.59670961142E+01 -0.65262313758E+01  0.10114420480E+02  0.00000000000E+00 0. -1.
</event>
<event>
 8    1  0.6239251E-010  0.9118800E+02  0.7816164E-02  0.1184000E+00
        -11   -1    0    0    0    0  0.00000000000E+00  0.00000000000E+00  0.45593999997E+02  0.45594000000E+02  0.51100000000E-03 0. -1.
         11   -1    0    0    0    0 -0.00000000000E+00 -0.00000000000E+00 -0.45593999997E+02  0.45594000000E+02  0.51100000000E-03 0.  1.
         23    2    1    2    0    0  0.00000000000E+00 -0.71054273576E-14  0.00000000000E+00  0.91188000000E+02  0.91188000000E+02 0.  0.
    9900012    2    3    3    0    0  0.54512161759E+01  0.42000095044E+02  0.94815602475E+01  0.47787265833E+02  0.19999976239E+02 0.  0.
        -12    1    3    3    0    0 -0.54512161759E+01 -0.42000095044E+02 -0.94815602475E+01  0.43400734167E+02  0.00000000000E+00 0.  1.
         11    1    4    4    0    0  0.63157886878E+01  0.48795421683E+01  0.47638199452E+01  0.92947888224E+01  0.51100000000E-03 0. -1.
        -11    1    4    4    0    0 -0.11264950890E+01  0.12443545039E+01  0.18544021899E+01  0.25012431029E+01  0.51100000000E-03 0.  1.
         12    1    4    4    0    0  0.26192257700E+00  0.35876198372E+02  0.28633381125E+01  0.35991233908E+02  0.00000000000E+00 0. -1.
</event>
<event>
 8    1  0.6239251E-010  0.9118800E+02  0.7816164E-02  0.1184000E+00
        -11   -1    0    0    0    0  0.00000000000E+00  0.00000000000E+00  0.45593999997E+02  0.45594000000E+02  0.51100000000E-03 0. -1.
         11   -1    0    0    0    0 -0.00000000000E+00 -0.00000000000E+00 -0.45593999997E+02  0.45594000000E+02  0.51100000000E-03 0.  1.
         23    2    1    2    0    0  0.00000000000E+00  0.00000000000E+00  0.00000000000E+00  0.91188000000E+02  0.91188000000E+02 0.  0.
    9900012    2    3    3    0    0  0.62873556222E+01 -0.40227794856E+02 -0.15027195144E+02  0.47787275195E+02  0.20000018925E+02 0.  0.
         12    1    3    3    0    0 -0.62873556222E+01  0.40227794856E+02  0.15027195144E+02  0.43400724805E+02  0.00000000000E+00 0. -1.
         11    1    4    4    0    0  0.23995449850E+01  0.54847022093E+00  0.12528545861E+01  0.27619342123E+01  0.51100000000E-03 0. -1.
        -11    1    4    4    0    0  0.16473464506E+01 -0.27496806086E+02 -0.15330459619E+02  0.31524769430E+02  0.51100000000E-03 0.  1.
         12    1    4    4    0    0  0.22404641867E+01 -0.13279458991E+02 -0.94959011110E+00  0.13500571553E+02  0.00000000000E+00 0. -1.
</event>
<event>
 8    1  0.6239251E-010  0.9118800E+02  0.7816164E-02  0.1184000E+00
        -11   -1    0    0    0    0  0.00000000000E+00  0.00000000000E+00  0.45593999997E+02  0.45594000000E+02  0.51100000000E-03 0. -1.
         11   -1    0    0    0    0 -0.00000000000E+00 -0.00000000000E+00 -0.45593999997E+02  0.45594000000E+02  0.51100000000E-03 0.  1.
         23    2    1    2    0    0  0.71054273576E-14  0.00000000000E+00  0.00000000000E+00  0.91188000000E+02  0.91188000000E+02 0.  0.
    9900012    2    3    3    0    0 -0.35728361659E+02 -0.12486615669E+02 -0.21241279945E+02  0.47787269921E+02  0.19999994876E+02 0.  0.
         12    1    3    3    0    0  0.35728361659E+02  0.12486615669E+02  0.21241279945E+02  0.43400730079E+02  0.00000000000E+00 0. -1.
         11    1    4    4    0    0 -0.12200725865E+01 -0.39508889256E+01 -0.56250525242E+01  0.69813549244E+01  0.51100000000E-03 0. -1.
        -11    1    4    4    0    0 -0.27196956246E+02 -0.44300947087E+01 -0.16896925704E+02  0.32323463098E+02  0.51100000000E-03 0.  1.
        -12    1    4    4    0    0 -0.73113328265E+01 -0.41056320350E+01  0.12806982830E+01  0.84824518979E+01  0.00000000000E+00 0.  1.
</event>
<event>
 8    1  0.6239251E-010  0.9118800E+02  0.7816164E-02  0.1184000E+00
        -11   -1    0    0    0    0  0.00000000000E+00  0.00000000000E+00  0.45593999997E+02  0.45594000000E+02  0.51100000000E-03 0. -1.
         11   -1    0    0    0    0 -0.00000000000E+00 -0.00000000000E+00 -0.45593999997E+02  0.45594000000E+02  0.51100000000E-03 0.  1.
         23    2    1    2    0    0 -0.66613381478E-15  0.00000000000E+00  0.00000000000E+00  0.91188000000E+02  0.91188000000E+02 0.  0.
    9900012    2    3    3    0    0 -0.19271355030E+01 -0.48745660877E+01 -0.43083033083E+02  0.47787274367E+02  0.20000015151E+02 0.  0.
         12    1    3    3    0    0  0.19271355030E+01  0.48745660877E+01  0.43083033083E+02  0.43400725633E+02  0.00000000000E+00 0. -1.
         11    1    4    4    0    0 -0.76038813742E+01 -0.63147345054E+00 -0.17319690595E+02  0.18925893723E+02  0.51100000000E-03 0. -1.
        -11    1    4    4    0    0  0.30285741817E+01 -0.78074832707E+01 -0.14351990486E+02  0.16616518521E+02  0.51100000000E-03 0.  1.
         12    1    4    4    0    0  0.26481716895E+01  0.35643906335E+01 -0.11411352002E+02  0.12244862123E+02  0.00000000000E+00 0. -1.
</event>
<event>
 8    1  0.6239251E-010  0.9118800E+02  0.7816164E-02  0.1184000E+00
        -11   -1    0    0    0    0  0.00000000000E+00  0.00000000000E+00  0.45593999997E+02  0.45594000000E+02  0.51100000000E-03 0. -1.
         11   -1    0    0    0    0 -0.00000000000E+00 -0.00000000000E+00 -0.45593999997E+02  0.45594000000E+02  0.51100000000E-03 0.  1.
         23    2    1    2    0    0  0.00000000000E+00 -0.35527136788E-14  0.00000000000E+00  0.91188000000E+02  0.91188000000E+02 0.  0.
    9900012    2    3    3    0    0 -0.16279847581E+02  0.16610787754E+02 -0.36642484452E+02  0.47787269892E+02  0.19999994746E+02 0.  0.
         12    1    3    3    0    0  0.16279847581E+02 -0.16610787754E+02  0.36642484452E+02  0.43400730108E+02  0.00000000000E+00 0. -1.
         11    1    4    4    0    0 -0.47888821035E+01  0.53651059676E+01 -0.67331885900E+00  0.72229573162E+01  0.51100000000E-03 0. -1.
        -11    1    4    4    0    0 -0.52622719517E+01  0.56737628179E+01 -0.27877788247E+02  0.28931888435E+02  0.51100000000E-03 0.  1.
         12    1    4    4    0    0 -0.62286935262E+01  0.55719189689E+01 -0.80913773457E+01  0.11632424141E+02  0.00000000000E+00 0. -1.
</event>
<event>
 8    1  0.6239251E-010  0.9118800E+02  0.7816164E-02  0.1184000E+00
        -11   -1    0    0    0    0  0.00000000000E+00  0.00000000000E+00  0.45593999997E+02  0.45594000000E+02  0.51100000000E-03 0. -1.
         11   -1    0    0    0    0 -0.00000000000E+00 -0.00000000000E+00 -0.45593999997E+02  0.45594000000E+02  0.51100000000E-03 0.  1.
         23    2    1    2    0    0  0.00000000000E+00  0.00000000000E+00  0.00000000000E+00  0.91188000000E+02  0.91188000000E+02 0.  0.
    9900012    2    3    3    0    0 -0.79478940058E+01  0.32648741008E+01 -0.42541681136E+02  0.47787273555E+02  0.20000011448E+02 0.  0.
         12    1    3    3    0    0  0.79478940058E+01 -0.32648741008E+01  0.42541681136E+02  0.43400726445E+02  0.00000000000E+00 0. -1.
         11    1    4    4    0    0 -0.77707655085E+01  0.71928824957E+01 -0.12027499645E+02  0.16024453287E+02  0.51100000000E-03 0. -1.
        -11    1    4    4    0    0  0.24140652144E+01 -0.16120242138E+00 -0.21690220645E+02  0.21824742128E+02  0.51100000000E-03 0.  1.
        -12    1    4    4    0    0 -0.25911937117E+01 -0.37668059735E+01 -0.88239608463E+01  0.99380781397E+01  0.00000000000E+00 0.  1.
</event>
<event>
 8    1  0.6239251E-010  0.9118800E+02  0.7816164E-02  0.1184000E+00
        -11   -1    0    0    0    0  0.00000000000E+00  0.00000000000E+00  0.45593999997E+02  0.45594000000E+02  0.51100000000E-03 0. -1.
         11   -1    0    0    0    0 -0.00000000000E+00 -0.00000000000E+00 -0.45593999997E+02  0.45594000000E+02  0.51100000000E-03 0.  1.
         23    2    1    2    0    0 -0.17763568394E-14  0.00000000000E+00  0.00000000000E+00  0.91188000000E+02  0.91188000000E+02 0.  0.
    9900012    2    3    3    0    0 -0.13166909600E+02 -0.54896327143E+01 -0.40989261899E+02  0.47787272279E+02  0.20000005627E+02 0.  0.
         12    1    3    3    0    0  0.13166909600E+02  0.54896327143E+01  0.40989261899E+02  0.43400727721E+02  0.00000000000E+00 0. -1.
         11    1    4    4    0    0 -0.28570065520E+01  0.17793530448E+00  0.94637437593E+00  0.30149248965E+01  0.51100000000E-03 0. -1.
        -11    1    4    4    0    0 -0.12160942701E+02 -0.34753314364E+01 -0.36444797663E+02  0.38577062264E+02  0.51100000000E-03 0.  1.
        -12    1    4    4    0    0  0.18510396536E+01 -0.21922365824E+01 -0.54908386121E+01  0.61952851183E+01  0.00000000000E+00 0.  1.
</event>
<event>
 8    1  0.6239251E-010  0.9118800E+02  0.7816164E-02  0.1184000E+00
        -11   -1    0    0    0    0  0.00000000000E+00  0.00000000000E+00  0.45593999997E+02  0.45594000000E+02  0.51100000000E-03 0. -1.
         11   -1    0    0    0    0 -0.00000000000E+00 -0.00000000000E+00 -0.45593999997E+02  0.45594000000E+02  0.51100000000E-03 0.  1.
         23    2    1    2    0    0  0.35527136788E-14  0.35527136788E-14  0.35527136788E-14  0.91188000000E+02  0.91188000000E+02 0.  0.
    9900012    2    3    3    0    0 -0.20872985642E+02 -0.21657744201E+02 -0.31287093115E+02  0.47787290224E+02  0.20000087449E+02 0.  0.
         12    1    3    3    0    0  0.20872985642E+02  0.21657744201E+02  0.31287093115E+02  0.43400709776E+02  0.00000000000E+00 0. -1.
         11    1    4    4    0    0 -0.35048984582E+01  0.12418514106E+01 -0.92678598231E+01  0.99859768721E+01  0.51100000000E-03 0. -1.
        -11    1    4    4    0    0 -0.17480949813E+01 -0.14775841399E+01 -0.69252107445E+01  0.72936708913E+01  0.51100000000E-03 0.  1.
         12    1    4    4    0    0 -0.15619992202E+02 -0.21422011472E+02 -0.15094022547E+02  0.30507642461E+02  0.00000000000E+00 0. -1.
</event>
<event>
 8    1  0.6239251E-010  0.9118800E+02  0.7816164E-02  0.1184000E+00
        -11   -1    0    0    0    0  0.00000000000E+00  0.00000000000E+00  0.45593999997E+02  0.45594000000E+02  0.51100000000E-03 0. -1.
         11   -1    0    0    0    0 -0.00000000000E+00 -0.00000000000E+00 -0.45593999997E+02  0.45594000000E+02  0.51100000000E-03 0.  1.
         23    2    1    2    0    0  0.00000000000E+00 -0.11102230246E-15 -0.71054273576E-14  0.91188000000E+02  0.91188000000E+02 0.  0.
    9900012    2    3    3    0    0  0.97533662028E+01 -0.87177704297E+00 -0.42281615736E+02  0.47787272163E+02  0.20000005101E+02 0.  0.
         12    1    3    3    0    0 -0.97533662028E+01  0.87177704297E+00  0.42281615736E+02  0.43400727837E+02  0.00000000000E+00 0. -1.
         11    1    4    4    0    0 -0.51753471791E+01 -0.16739284710E+01 -0.10221168120E+02  0.11578364866E+02  0.51100000000E-03 0. -1.
        -11    1    4    4    0    0  0.64364957022E+01  0.11203883571E+01 -0.62730351859E+01  0.90573018996E+01  0.51100000000E-03 0.  1.
         12    1    4    4    0    0  0.84922176797E+01 -0.31823692907E+00 -0.25787412430E+02  0.27151605398E+02  0.00000000000E+00 0. -1.
</event>
<event>
 8    1  0.6239251E-010  0.9118800E+02  0.7816164E-02  0.1184000E+00
        -11   -1    0    0    0    0  0.00000000000E+00  0.00000000000E+00  0.45593999997E+02  0.45594000000E+02  0.51100000000E-03 0. -1.
         11   -1    0    0    0    0 -0.00000000000E+00 -0.00000000000E+00 -0.45593999997E+02  0.45594000000E+02  0.51100000000E-03 0.  1.
         23    2    1    2    0    0  0.00000000000E+00  0.00000000000E+00 -0.17763568394E-14  0.91188000000E+02  0.91188000000E+02 0.  0.
    9900012    2    3    3    0    0  0.46346266911E+01 -0.41633329003E+02 -0.11349404174E+02  0.47787276232E+02  0.20000023653E+02 0.  0.
         12    1    3    3    0    0 -0.46346266911E+01  0.41633329003E+02  0.11349404174E+02  0.43400723768E+02  0.00000000000E+00 0. -1.
         11    1    4    4    0    0  0.75546475963E+00 -0.26580450686E-01  0.25736240898E+01  0.26823450077E+01  0.51100000000E-03 0. -1.
        -11    1    4    4    0    0 -0.99383436724E+00 -0.32969521602E+02 -0.10594323610E+02  0.34644144591E+02  0.51100000000E-03 0.  1.
        -12    1    4    4    0    0  0.48729962987E+01 -0.86372269505E+01 -0.33287046536E+01  0.10460786633E+02  0.00000000000E+00 0.  1.
</event>
<event>
 8    1  0.6239251E-010  0.9118800E+02  0.7816164E-02  0.1184000E+00
        -11   -1    0    0    0    0  0.00000000000E+00  0.00000000000E+00  0.45593999997E+02  0.45594000000E+02  0.51100000000E-03 0.  1.
         11   -1    0    0    0    0 -0.00000000000E+00 -0.00000000000E+00 -0.45593999997E+02  0.45594000000E+02  0.51100000000E-03 0. -1.
         23    2    1    2    0    0  0.17763568394E-14  0.00000000000E+00  0.35527136788E-14  0.91188000000E+02  0.91188000000E+02 0.  0.
    9900012    2    3    3    0    0 -0.12690442980E+02 -0.33571698018E+02 -0.24403216236E+02  0.47787271740E+02  0.20000003171E+02 0.  0.
         12    1    3    3    0    0  0.12690442980E+02  0.33571698018E+02  0.24403216236E+02  0.43400728260E+02  0.00000000000E+00 0. -1.
         11    1    4    4    0    0  0.21975135897E+01 -0.14869149511E+02 -0.38995346854E+01  0.15528265974E+02  0.51100000000E-03 0.  1.
        -11    1    4    4    0    0 -0.12693739922E+02 -0.11302717500E+02 -0.12197455711E+02  0.20920334180E+02  0.51100000000E-03 0. -1.
        -12    1    4    4    0    0 -0.21942166472E+01 -0.73998310074E+01 -0.83062258396E+01  0.11338671586E+02  0.00000000000E+00 0.  1.
</event>
<event>
 8    1  0.6239251E-010  0.9118800E+02  0.7816164E-02  0.1184000E+00
        -11   -1    0    0    0    0  0.00000000000E+00  0.00000000000E+00  0.45593999997E+02  0.45594000000E+02  0.51100000000E-03 0.  1.
         11   -1    0    0    0    0 -0.00000000000E+00 -0.00000000000E+00 -0.45593999997E+02  0.45594000000E+02  0.51100000000E-03 0. -1.
         23    2    1    2    0    0 -0.35527136788E-14 -0.71054273576E-14  0.88817841970E-15  0.91188000000E+02  0.91188000000E+02 0.  0.
    9900012    2    3    3    0    0  0.25506908981E+02  0.34524790472E+02  0.64078989706E+01  0.47787254245E+02  0.19999923403E+02 0.  0.
        -12    1    3    3    0    0 -0.25506908981E+02 -0.34524790472E+02 -0.64078989706E+01  0.43400745755E+02  0.00000000000E+00 0.  1.
         11    1    4    4    0    0  0.14091538927E+02  0.15770275430E+02  0.73336477492E+01  0.22384267824E+02  0.51100000000E-03 0. -1.
        -11    1    4    4    0    0  0.79586401013E+01  0.17727775117E+02 -0.48960050631E+01  0.20039581550E+02  0.51100000000E-03 0.  1.
        -12    1    4    4    0    0  0.34567299525E+01  0.10267399253E+01  0.39702562844E+01  0.53634048703E+01  0.00000000000E+00 0.  1.
</event>
<event>
 8    1  0.6239251E-010  0.9118800E+02  0.7816164E-02  0.1184000E+00
        -11   -1    0    0    0    0  0.00000000000E+00  0.00000000000E+00  0.45593999997E+02  0.45594000000E+02  0.51100000000E-03 0. -1.
         11   -1    0    0    0    0 -0.00000000000E+00 -0.00000000000E+00 -0.45593999997E+02  0.45594000000E+02  0.51100000000E-03 0.  1.
         23    2    1    2    0    0  0.00000000000E+00  0.00000000000E+00  0.00000000000E+00  0.91188000000E+02  0.91188000000E+02 0.  0.
    9900012    2    3    3    0    0  0.26000656652E+02 -0.22401301354E+02  0.26566302763E+02  0.47787298495E+02  0.20000125156E+02 0.  0.
        -12    1    3    3    0    0 -0.26000656652E+02  0.22401301354E+02 -0.26566302763E+02  0.43400701505E+02  0.00000000000E+00 0.  1.
         11    1    4    4    0    0  0.96125659871E+01 -0.16359556214E+02  0.75603698089E+01  0.20425368939E+02  0.51100000000E-03 0. -1.
        -11    1    4    4    0    0  0.50673769648E+01 -0.22981837596E+01  0.12717996755E+02  0.13881909077E+02  0.51100000000E-03 0.  1.
         12    1    4    4    0    0  0.11320713700E+02 -0.37435613811E+01  0.62879361988E+01  0.13480020479E+02  0.00000000000E+00 0. -1.
</event>
<event>
 8    1  0.6239251E-010  0.9118800E+02  0.7816164E-02  0.1184000E+00
        -11   -1    0    0    0    0  0.00000000000E+00  0.00000000000E+00  0.45593999997E+02  0.45594000000E+02  0.51100000000E-03 0. -1.
         11   -1    0    0    0    0 -0.00000000000E+00 -0.00000000000E+00 -0.45593999997E+02  0.45594000000E+02  0.51100000000E-03 0.  1.
         23    2    1    2    0    0  0.00000000000E+00  0.88817841970E-15  0.35527136788E-14  0.91188000000E+02  0.91188000000E+02 0.  0.
    9900012    2    3    3    0    0  0.37811899640E+02  0.38506162641E+01 -0.20953676015E+02  0.47787267995E+02  0.19999986098E+02 0.  0.
         12    1    3    3    0    0 -0.37811899640E+02 -0.38506162641E+01  0.20953676015E+02  0.43400732005E+02  0.00000000000E+00 0. -1.
         11    1    4    4    0    0  0.27313585515E+00  0.14368368415E+00 -0.34694623850E+01  0.34831620259E+01  0.51100000000E-03 0. -1.
        -11    1    4    4    0    0  0.10851257269E+02 -0.25190565311E+01  0.10981859906E+01  0.11193812704E+02  0.51100000000E-03 0.  1.
        -12    1    4    4    0    0  0.26687506516E+02  0.62259891110E+01 -0.18582399621E+02  0.33110293265E+02  0.00000000000E+00 0.  1.
</event>
<event>
 8    1  0.6239251E-010  0.9118800E+02  0.7816164E-02  0.1184000E+00
        -11   -1    0    0    0    0  0.00000000000E+00  0.00000000000E+00  0.45593999997E+02  0.45594000000E+02  0.51100000000E-03 0. -1.
         11   -1    0    0    0    0 -0.00000000000E+00 -0.00000000000E+00 -0.45593999997E+02  0.45594000000E+02  0.51100000000E-03 0.  1.
         23    2    1    2    0    0  0.00000000000E+00  0.00000000000E+00  0.71054273576E-14  0.91188000000E+02  0.91188000000E+02 0.  0.
    9900012    2    3    3    0    0 -0.10123864439E+02  0.22995352256E+02 -0.35388481551E+02  0.47787268635E+02  0.19999989013E+02 0.  0.
         12    1    3    3    0    0  0.10123864439E+02 -0.22995352256E+02  0.35388481551E+02  0.43400731365E+02  0.00000000000E+00 0. -1.
         11    1    4    4    0    0 -0.25001420068E+01 -0.35068373864E+01 -0.41240170210E+01  0.59628965411E+01  0.51100000000E-03 0. -1.
        -11    1    4    4    0    0 -0.67720321216E+01  0.17941489903E+02 -0.21379001093E+02  0.28719665162E+02  0.51100000000E-03 0.  1.
         12    1    4    4    0    0 -0.85169031112E+00  0.85606997389E+01 -0.98854634369E+01  0.13104706932E+02  0.00000000000E+00 0. -1.
</event>
<event>
 8    1  0.6239251E-010  0.9118800E+02  0.7816164E-02  0.1184000E+00
        -11   -1    0    0    0    0  0.00000000000E+00  0.00000000000E+00  0.45593999997E+02  0.45594000000E+02  0.51100000000E-03 0. -1.
         11   -1    0    0    0    0 -0.00000000000E+00 -0.00000000000E+00 -0.45593999997E+02  0.45594000000E+02  0.51100000000E-03 0.  1.
         23    2    1    2    0    0 -0.35527136788E-14  0.00000000000E+00  0.00000000000E+00  0.91188000000E+02  0.91188000000E+02 0.  0.
    9900012    2    3    3    0    0 -0.20484487913E+02 -0.27878536623E+02 -0.26206798514E+02  0.47787270310E+02  0.19999996650E+02 0.  0.
         12    1    3    3    0    0  0.20484487913E+02  0.27878536623E+02  0.26206798514E+02  0.43400729690E+02  0.00000000000E+00 0. -1.
         11    1    4    4    0    0 -0.34491188540E+01 -0.11001194653E+01 -0.10806184669E+01  0.37781503727E+01  0.51100000000E-03 0. -1.
        -11    1    4    4    0    0 -0.66747377029E+01 -0.46428133484E+00 -0.86197315565E+00  0.67461602814E+01  0.51100000000E-03 0.  1.
        -12    1    4    4    0    0 -0.10360631356E+02 -0.26314135823E+02 -0.24264206892E+02  0.37262959655E+02  0.00000000000E+00 0.  1.
</event>
<event>
 8    1  0.6239251E-010  0.9118800E+02  0.7816164E-02  0.1184000E+00
        -11   -1    0    0    0    0  0.00000000000E+00  0.00000000000E+00  0.45593999997E+02  0.45594000000E+02  0.51100000000E-03 0. -1.
         11   -1    0    0    0    0 -0.00000000000E+00 -0.00000000000E+00 -0.45593999997E+02  0.45594000000E+02  0.51100000000E-03 0.  1.
         23    2    1    2    0    0  0.00000000000E+00 -0.71054273576E-14 -0.17763568394E-14  0.91188000000E+02  0.91188000000E+02 0.  0.
    9900012    2    3    3    0    0 -0.17090746695E+02 -0.39044387281E+02 -0.81893544374E+01  0.47787270434E+02  0.19999997218E+02 0.  0.
         12    1    3    3    0    0  0.17090746695E+02  0.39044387281E+02  0.81893544374E+01  0.43400729566E+02  0.00000000000E+00 0. -1.
         11    1    4    4    0    0 -0.24331544280E+01 -0.41795211134E+00  0.21862590132E+01  0.32976739032E+01  0.51100000000E-03 0. -1.
        -11    1    4    4    0    0 -0.10773603690E+02 -0.37776883299E+02 -0.95933583431E+01  0.40437556464E+02  0.51100000000E-03 0.  1.
        -12    1    4    4    0    0 -0.38839885773E+01 -0.84955187069E+00 -0.78225510739E+00  0.40520400667E+01  0.00000000000E+00 0.  1.
</event>
<event>
 8    1  0.6239251E-010  0.9118800E+02  0.7816164E-02  0.1184000E+00
        -11   -1    0    0    0    0  0.00000000000E+00  0.00000000000E+00  0.45593999997E+02  0.45594000000E+02  0.51100000000E-03 0. -1.
         11   -1    0    0    0    0 -0.00000000000E+00 -0.00000000000E+00 -0.45593999997E+02  0.45594000000E+02  0.51100000000E-03 0.  1.
         23    2    1    2    0    0  0.00000000000E+00  0.00000000000E+00  0.00000000000E+00  0.91188000000E+02  0.91188000000E+02 0.  0.
    9900012    2    3    3    0    0 -0.10659820621E+02 -0.20102423279E+02  0.36957870774E+02  0.47787269482E+02  0.19999992877E+02 0.  0.
        -12    1    3    3    0    0  0.10659820621E+02  0.20102423279E+02 -0.36957870774E+02  0.43400730518E+02  0.00000000000E+00 0.  1.
         11    1    4    4    0    0 -0.31810139895E+01 -0.17569451592E+02  0.31309758859E+02  0.36043105850E+02  0.51100000000E-03 0. -1.
        -11    1    4    4    0    0 -0.68596272167E+01 -0.13040595241E+01  0.69485960922E+01  0.98507890399E+01  0.51100000000E-03 0.  1.
         12    1    4    4    0    0 -0.61917941489E+00 -0.12289121627E+01 -0.13004841773E+01  0.18933745924E+01  0.00000000000E+00 0. -1.
</event>
<event>
 8    1  0.6239251E-010  0.9118800E+02  0.7816164E-02  0.1184000E+00
        -11   -1    0    0    0    0  0.00000000000E+00  0.00000000000E+00  0.45593999997E+02  0.45594000000E+02  0.51100000000E-03 0. -1.
         11   -1    0    0    0    0 -0.00000000000E+00 -0.00000000000E+00 -0.45593999997E+02  0.45594000000E+02  0.51100000000E-03 0.  1.
         23    2    1    2    0    0  0.00000000000E+00  0.00000000000E+00  0.35527136788E-14  0.91188000000E+02  0.91188000000E+02 0.  0.
    9900012    2    3    3    0    0  0.33216245384E+02 -0.18975774488E+02  0.20499367162E+02  0.47787273867E+02  0.20000012869E+02 0.  0.
        -12    1    3    3    0    0 -0.33216245384E+02  0.18975774488E+02 -0.20499367162E+02  0.43400726133E+02  0.00000000000E+00 0.  1.
         11    1    4    4    0    0  0.67026857809E+01 -0.25650748065E+01  0.37955593931E+01  0.81186129855E+01  0.51100000000E-03 0. -1.
        -11    1    4    4    0    0  0.10890285493E+02 -0.15293033049E+02  0.33188046951E+01  0.19065404345E+02  0.51100000000E-03 0.  1.
        -12    1    4    4    0    0  0.15623274110E+02 -0.11176666322E+01  0.13385003074E+02  0.20603256536E+02  0.00000000000E+00 0.  1.
</event>
<event>
 8    1  0.6239251E-010  0.9118800E+02  0.7816164E-02  0.1184000E+00
        -11   -1    0    0    0    0  0.00000000000E+00  0.00000000000E+00  0.45593999997E+02  0.45594000000E+02  0.51100000000E-03 0. -1.
         11   -1    0    0    0    0 -0.00000000000E+00 -0.00000000000E+00 -0.45593999997E+02  0.45594000000E+02  0.51100000000E-03 0.  1.
         23    2    1    2    0    0  0.00000000000E+00  0.17763568394E-14 -0.35527136788E-14  0.91188000000E+02  0.91188000000E+02 0.  0.
    9900012    2    3    3    0    0  0.30200550896E+02  0.91899381991E+01  0.29784136434E+02  0.47787273951E+02  0.20000013250E+02 0.  0.
        -12    1    3    3    0    0 -0.30200550896E+02 -0.91899381991E+01 -0.29784136434E+02  0.43400726049E+02  0.00000000000E+00 0.  1.
         11    1    4    4    0    0  0.29145619302E+02  0.50556541035E+01  0.20623093938E+02  0.36060210298E+02  0.51100000000E-03 0. -1.
        -11    1    4    4    0    0 -0.66972554338E-01 -0.11944639134E+01  0.41771780337E+01  0.43451174840E+01  0.51100000000E-03 0.  1.
         12    1    4    4    0    0  0.11219041486E+01  0.53287480090E+01  0.49838644621E+01  0.73819461688E+01  0.00000000000E+00 0. -1.
</event>
<event>
 8    1  0.6239251E-010  0.9118800E+02  0.7816164E-02  0.1184000E+00
        -11   -1    0    0    0    0  0.00000000000E+00  0.00000000000E+00  0.45593999997E+02  0.45594000000E+02  0.51100000000E-03 0. -1.
         11   -1    0    0    0    0 -0.00000000000E+00 -0.00000000000E+00 -0.45593999997E+02  0.45594000000E+02  0.51100000000E-03 0.  1.
         23    2    1    2    0    0 -0.71054273576E-14  0.00000000000E+00  0.00000000000E+00  0.91188000000E+02  0.91188000000E+02 0.  0.
    9900012    2    3    3    0    0 -0.37753878350E+02  0.94481239019E+01  0.19209396677E+02  0.47787270785E+02  0.19999998816E+02 0.  0.
        -12    1    3    3    0    0  0.37753878350E+02 -0.94481239019E+01 -0.19209396677E+02  0.43400729215E+02  0.00000000000E+00 0.  1.
         11    1    4    4    0    0 -0.34865649391E+02  0.11412464970E+02  0.16566460878E+02  0.40253018401E+02  0.51100000000E-03 0. -1.
        -11    1    4    4    0    0 -0.21473156204E+01  0.16632141643E+01  0.27021948541E+01  0.38313317555E+01  0.51100000000E-03 0.  1.
         12    1    4    4    0    0 -0.74091333902E+00 -0.36275552325E+01 -0.59259055506E-01  0.37029206279E+01  0.00000000000E+00 0. -1.
</event>
<event>
 8    1  0.6239251E-010  0.9118800E+02  0.7816164E-02  0.1184000E+00
        -11   -1    0    0    0    0  0.00000000000E+00  0.00000000000E+00  0.45593999997E+02  0.45594000000E+02  0.51100000000E-03 0. -1.
         11   -1    0    0    0    0 -0.00000000000E+00 -0.00000000000E+00 -0.45593999997E+02  0.45594000000E+02  0.51100000000E-03 0.  1.
         23    2    1    2    0    0  0.00000000000E+00  0.00000000000E+00  0.00000000000E+00  0.91188000000E+02  0.91188000000E+02 0.  0.
    9900012    2    3    3    0    0  0.64561283782E+01 -0.21805241345E+02 -0.36965839377E+02  0.47787269308E+02  0.19999992084E+02 0.  0.
         12    1    3    3    0    0 -0.64561283782E+01  0.21805241345E+02  0.36965839377E+02  0.43400730692E+02  0.00000000000E+00 0. -1.
         11    1    4    4    0    0  0.11472045926E+01 -0.38540955717E+01 -0.14424119834E+01  0.42720818864E+01  0.51100000000E-03 0. -1.
        -11    1    4    4    0    0 -0.13733506511E+01 -0.10664501138E+02 -0.58561353510E+01  0.12243855522E+02  0.51100000000E-03 0.  1.
        -12    1    4    4    0    0  0.66822744367E+01 -0.72866446356E+01 -0.29667292042E+02  0.31271331900E+02  0.00000000000E+00 0.  1.
</event>
<event>
 8    1  0.6239251E-010  0.9118800E+02  0.7816164E-02  0.1184000E+00
        -11   -1    0    0    0    0  0.00000000000E+00  0.00000000000E+00  0.45593999997E+02  0.45594000000E+02  0.51100000000E-03 0. -1.
         11   -1    0    0    0    0 -0.00000000000E+00 -0.00000000000E+00 -0.45593999997E+02  0.45594000000E+02  0.51100000000E-03 0.  1.
         23    2    1    2    0    0 -0.35527136788E-14  0.35527136788E-14 -0.35527136788E-14  0.91188000000E+02  0.91188000000E+02 0.  0.
    9900012    2    3    3    0    0 -0.28234946687E+02  0.19518053591E+02 -0.26560432889E+02  0.47787271600E+02  0.20000002534E+02 0.  0.
         12    1    3    3    0    0  0.28234946687E+02 -0.19518053591E+02  0.26560432889E+02  0.43400728400E+02  0.00000000000E+00 0. -1.
         11    1    4    4    0    0 -0.15530691724E+02  0.16053776277E+02 -0.22487975992E+02  0.31695980544E+02  0.51100000000E-03 0. -1.
        -11    1    4    4    0    0 -0.69828688204E+01  0.59816281948E+01 -0.14305494852E+01  0.93052031098E+01  0.51100000000E-03 0.  1.
         12    1    4    4    0    0 -0.57213861424E+01 -0.25173508804E+01 -0.26419074113E+01  0.67860879463E+01  0.00000000000E+00 0. -1.
</event>
<event>
 8    1  0.6239251E-010  0.9118800E+02  0.7816164E-02  0.1184000E+00
        -11   -1    0    0    0    0  0.00000000000E+00  0.00000000000E+00  0.45593999997E+02  0.45594000000E+02  0.51100000000E-03 0. -1.
         11   -1    0    0    0    0 -0.00000000000E+00 -0.00000000000E+00 -0.45593999997E+02  0.45594000000E+02  0.51100000000E-03 0.  1.
         23    2    1    2    0    0  0.00000000000E+00  0.00000000000E+00 -0.71054273576E-14  0.91188000000E+02  0.91188000000E+02 0.  0.
    9900012    2    3    3    0    0  0.12858912478E+02  0.17863264008E+02 -0.37405555286E+02  0.47787269621E+02  0.19999993510E+02 0.  0.
         12    1    3    3    0    0 -0.12858912478E+02 -0.17863264008E+02  0.37405555286E+02  0.43400730379E+02  0.00000000000E+00 0. -1.
         11    1    4    4    0    0 -0.39133969047E+01  0.57441510577E+01 -0.89632423211E+01  0.11342383342E+02  0.51100000000E-03 0. -1.
        -11    1    4    4    0    0  0.15780722188E+02  0.77667409841E+01 -0.25900689580E+02  0.31308132797E+02  0.51100000000E-03 0.  1.
        -12    1    4    4    0    0  0.99158719466E+00  0.43523719665E+01 -0.25416233855E+01  0.51367534818E+01  0.00000000000E+00 0.  1.
</event>
<event>
 8    1  0.6239251E-010  0.9118800E+02  0.7816164E-02  0.1184000E+00
        -11   -1    0    0    0    0  0.00000000000E+00  0.00000000000E+00  0.45593999997E+02  0.45594000000E+02  0.51100000000E-03 0.  1.
         11   -1    0    0    0    0 -0.00000000000E+00 -0.00000000000E+00 -0.45593999997E+02  0.45594000000E+02  0.51100000000E-03 0. -1.
         23    2    1    2    0    0  0.00000000000E+00  0.00000000000E+00  0.00000000000E+00  0.91188000000E+02  0.91188000000E+02 0.  0.
    9900012    2    3    3    0    0 -0.34077670540E+02 -0.26520314092E+02 -0.43598347050E+01  0.47787275956E+02  0.20000022392E+02 0.  0.
         12    1    3    3    0    0  0.34077670540E+02  0.26520314092E+02  0.43598347050E+01  0.43400724044E+02  0.00000000000E+00 0. -1.
         11    1    4    4    0    0 -0.18274226608E+02 -0.44705528415E+01  0.97629251932E+00  0.18838427433E+02  0.51100000000E-03 0. -1.
        -11    1    4    4    0    0 -0.47925456249E+01 -0.16527232714E+01  0.35240364644E+00  0.50817493415E+01  0.51100000000E-03 0.  1.
         12    1    4    4    0    0 -0.11010898307E+02 -0.20397037979E+02 -0.56885308708E+01  0.23867099181E+02  0.00000000000E+00 0. -1.
</event>
<event>
 8    1  0.6239251E-010  0.9118800E+02  0.7816164E-02  0.1184000E+00
        -11   -1    0    0    0    0  0.00000000000E+00  0.00000000000E+00  0.45593999997E+02  0.45594000000E+02  0.51100000000E-03 0. -1.
         11   -1    0    0    0    0 -0.00000000000E+00 -0.00000000000E+00 -0.45593999997E+02  0.45594000000E+02  0.51100000000E-03 0.  1.
         23    2    1    2    0    0  0.00000000000E+00 -0.66613381478E-15  0.71054273576E-14  0.91188000000E+02  0.91188000000E+02 0.  0.
    9900012    2    3    3    0    0  0.28845139004E+02 -0.18449080839E+01 -0.32375569908E+02  0.47787271240E+02  0.20000000893E+02 0.  0.
         12    1    3    3    0    0 -0.28845139004E+02  0.18449080839E+01  0.32375569908E+02  0.43400728760E+02  0.00000000000E+00 0. -1.
         11    1    4    4    0    0  0.54329299728E+01  0.74579462187E+01 -0.78955281233E+01  0.12144013113E+02  0.51100000000E-03 0. -1.
        -11    1    4    4    0    0  0.15544672426E+02 -0.44679593339E+01 -0.18807719326E+02  0.24805842214E+02  0.51100000000E-03 0.  1.
         12    1    4    4    0    0  0.78675366051E+01 -0.48348949687E+01 -0.56723224587E+01  0.10837415913E+02  0.00000000000E+00 0. -1.
</event>
<event>
 8    1  0.6239251E-010  0.9118800E+02  0.7816164E-02  0.1184000E+00
        -11   -1    0    0    0    0  0.00000000000E+00  0.00000000000E+00  0.45593999997E+02  0.45594000000E+02  0.51100000000E-03 0. -1.
         11   -1    0    0    0    0 -0.00000000000E+00 -0.00000000000E+00 -0.45593999997E+02  0.45594000000E+02  0.51100000000E-03 0.  1.
         23    2    1    2    0    0  0.00000000000E+00 -0.22204460493E-15  0.00000000000E+00  0.91188000000E+02  0.91188000000E+02 0.  0.
    9900012    2    3    3    0    0 -0.34853981173E+02 -0.18031620779E+01 -0.25798684826E+02  0.47787268027E+02  0.19999986243E+02 0.  0.
         12    1    3    3    0    0  0.34853981173E+02  0.18031620779E+01  0.25798684826E+02  0.43400731973E+02  0.00000000000E+00 0. -1.
         11    1    4    4    0    0  0.18574451918E+01  0.57643892596E-01  0.72975545841E+00  0.19964891057E+01  0.51100000000E-03 0. -1.
        -11    1    4    4    0    0 -0.30199958111E+02 -0.14386621967E+01 -0.24625346263E+02  0.38993780243E+02  0.51100000000E-03 0.  1.
         12    1    4    4    0    0 -0.65114682532E+01 -0.42214377372E+00 -0.19030940209E+01  0.67969986782E+01  0.00000000000E+00 0. -1.
</event>
<event>
 8    1  0.6239251E-010  0.9118800E+02  0.7816164E-02  0.1184000E+00
        -11   -1    0    0    0    0  0.00000000000E+00  0.00000000000E+00  0.45593999997E+02  0.45594000000E+02  0.51100000000E-03 0. -1.
         11   -1    0    0    0    0 -0.00000000000E+00 -0.00000000000E+00 -0.45593999997E+02  0.45594000000E+02  0.51100000000E-03 0.  1.
         23    2    1    2    0    0 -0.17763568394E-14  0.00000000000E+00  0.44408920985E-15  0.91188000000E+02  0.91188000000E+02 0.  0.
    9900012    2    3    3    0    0 -0.91987569725E+01  0.42314627279E+02 -0.29116891896E+01  0.47787277131E+02  0.20000027750E+02 0.  0.
         12    1    3    3    0    0  0.91987569725E+01 -0.42314627279E+02  0.29116891896E+01  0.43400722869E+02  0.00000000000E+00 0. -1.
         11    1    4    4    0    0 -0.93039805407E+01  0.32195319529E+02  0.62348642927E+01  0.34087771802E+02  0.51100000000E-03 0. -1.
        -11    1    4    4    0    0 -0.31027289537E-01  0.61820114276E+01 -0.47509574926E+01  0.77967830123E+01  0.51100000000E-03 0.  1.
         12    1    4    4    0    0  0.13625085778E+00  0.39372963233E+01 -0.43955959897E+01  0.59027223159E+01  0.00000000000E+00 0. -1.
</event>
<event>
 8    1  0.6239251E-010  0.9118800E+02  0.7816164E-02  0.1184000E+00
        -11   -1    0    0    0    0  0.00000000000E+00  0.00000000000E+00  0.45593999997E+02  0.45594000000E+02  0.51100000000E-03 0. -1.
         11   -1    0    0    0    0 -0.00000000000E+00 -0.00000000000E+00 -0.45593999997E+02  0.45594000000E+02  0.51100000000E-03 0.  1.
         23    2    1    2    0    0  0.00000000000E+00  0.00000000000E+00 -0.35527136788E-14  0.91188000000E+02  0.91188000000E+02 0.  0.
    9900012    2    3    3    0    0 -0.22642056931E+02 -0.24891581592E+02  0.27411120381E+02  0.47787273085E+02  0.20000009304E+02 0.  0.
        -12    1    3    3    0    0  0.22642056931E+02  0.24891581592E+02 -0.27411120381E+02  0.43400726915E+02  0.00000000000E+00 0.  1.
         11    1    4    4    0    0 -0.24983431700E+02 -0.21454176360E+02  0.25439109606E+02  0.41612520238E+02  0.51100000000E-03 0. -1.
        -11    1    4    4    0    0  0.28991870374E+01 -0.39036971789E+01  0.22977438206E+01  0.53780818206E+01  0.51100000000E-03 0.  1.
         12    1    4    4    0    0 -0.55781226840E+00  0.46629194706E+00 -0.32573304580E+00  0.79667102608E+00  0.00000000000E+00 0. -1.
</event>
<event>
 8    1  0.6239251E-010  0.9118800E+02  0.7816164E-02  0.1184000E+00
        -11   -1    0    0    0    0  0.00000000000E+00  0.00000000000E+00  0.45593999997E+02  0.45594000000E+02  0.51100000000E-03 0. -1.
         11   -1    0    0    0    0 -0.00000000000E+00 -0.00000000000E+00 -0.45593999997E+02  0.45594000000E+02  0.51100000000E-03 0.  1.
         23    2    1    2    0    0  0.00000000000E+00 -0.88817841970E-15  0.00000000000E+00  0.91188000000E+02  0.91188000000E+02 0.  0.
    9900012    2    3    3    0    0  0.13286895996E+02 -0.65378433825E+01 -0.40796301604E+02  0.47787271597E+02  0.20000002521E+02 0.  0.
         12    1    3    3    0    0 -0.13286895996E+02  0.65378433825E+01  0.40796301604E+02  0.43400728403E+02  0.00000000000E+00 0. -1.
         11    1    4    4    0    0  0.49253034002E+01 -0.78021139962E+01 -0.16063414798E+02  0.18524710298E+02  0.51100000000E-03 0. -1.
        -11    1    4    4    0    0  0.95139644145E+01 -0.36218497947E+01 -0.13082849326E+02  0.16576919543E+02  0.51100000000E-03 0.  1.
         12    1    4    4    0    0 -0.11523718191E+01  0.48861204085E+01 -0.11650037480E+02  0.12685641755E+02  0.00000000000E+00 0. -1.
</event>
<event>
 8    1  0.6239251E-010  0.9118800E+02  0.7816164E-02  0.1184000E+00
        -11   -1    0    0    0    0  0.00000000000E+00  0.00000000000E+00  0.45593999997E+02  0.45594000000E+02  0.51100000000E-03 0. -1.
         11   -1    0    0    0    0 -0.00000000000E+00 -0.00000000000E+00 -0.45593999997E+02  0.45594000000E+02  0.51100000000E-03 0.  1.
         23    2    1    2    0    0  0.35527136788E-14  0.17763568394E-14  0.14210854715E-13  0.91188000000E+02  0.91188000000E+02 0.  0.
    9900012    2    3    3    0    0  0.14306932883E+02  0.90332309268E+01  0.39966682973E+02  0.47787270313E+02  0.19999996664E+02 0.  0.
        -12    1    3    3    0    0 -0.14306932883E+02 -0.90332309268E+01 -0.39966682973E+02  0.43400729687E+02  0.00000000000E+00 0.  1.
         11    1    4    4    0    0  0.29943747992E+01 -0.27855101870E+00 -0.86623318661E+00  0.31295736615E+01  0.51100000000E-03 0. -1.
        -11    1    4    4    0    0  0.25707018166E+01  0.16000038478E+01  0.10544497708E+01  0.32063039038E+01  0.51100000000E-03 0.  1.
         12    1    4    4    0    0  0.87418562668E+01  0.77117780977E+01  0.39778466389E+02  0.41451392747E+02  0.00000000000E+00 0. -1.
</event>
<event>
 8    1  0.6239251E-010  0.9118800E+02  0.7816164E-02  0.1184000E+00
        -11   -1    0    0    0    0  0.00000000000E+00  0.00000000000E+00  0.45593999997E+02  0.45594000000E+02  0.51100000000E-03 0.  1.
         11   -1    0    0    0    0 -0.00000000000E+00 -0.00000000000E+00 -0.45593999997E+02  0.45594000000E+02  0.51100000000E-03 0. -1.
         23    2    1    2    0    0 -0.35527136788E-14  0.00000000000E+00  0.17763568394E-14  0.91188000000E+02  0.91188000000E+02 0.  0.
    9900012    2    3    3    0    0 -0.31636682514E+02  0.26421708599E+02 -0.13588127129E+02  0.47787267694E+02  0.19999984725E+02 0.  0.
         12    1    3    3    0    0  0.31636682514E+02 -0.26421708599E+02  0.13588127129E+02  0.43400732306E+02  0.00000000000E+00 0. -1.
         11    1    4    4    0    0 -0.43706234190E+01  0.10022792385E+02  0.24304986810E+01  0.11201162456E+02  0.51100000000E-03 0. -1.
        -11    1    4    4    0    0 -0.23184654039E+02  0.12559883892E+02 -0.16258605394E+02  0.30977751950E+02  0.51100000000E-03 0.  1.
        -12    1    4    4    0    0 -0.40814050562E+01  0.38390323227E+01  0.23997958346E+00  0.56083532884E+01  0.00000000000E+00 0.  1.
</event>
<event>
 8    1  0.6239251E-010  0.9118800E+02  0.7816164E-02  0.1184000E+00
        -11   -1    0    0    0    0  0.00000000000E+00  0.00000000000E+00  0.45593999997E+02  0.45594000000E+02  0.51100000000E-03 0. -1.
         11   -1    0    0    0    0 -0.00000000000E+00 -0.00000000000E+00 -0.45593999997E+02  0.45594000000E+02  0.51100000000E-03 0.  1.
         23    2    1    2    0    0  0.35527136788E-14  0.00000000000E+00 -0.35527136788E-14  0.91188000000E+02  0.91188000000E+02 0.  0.
    9900012    2    3    3    0    0 -0.30196664862E+02 -0.15628311214E+02  0.26972955312E+02  0.47787274218E+02  0.20000014469E+02 0.  0.
        -12    1    3    3    0    0  0.30196664862E+02  0.15628311214E+02 -0.26972955312E+02  0.43400725782E+02  0.00000000000E+00 0.  1.
         11    1    4    4    0    0 -0.27135162495E+02 -0.11027133135E+02  0.15096729404E+02  0.32951873206E+02  0.51100000000E-03 0. -1.
        -11    1    4    4    0    0  0.16577290309E+01 -0.24104614636E+00  0.56322842853E+01  0.58761207711E+01  0.51100000000E-03 0.  1.
        -12    1    4    4    0    0 -0.47192313977E+01 -0.43601319325E+01  0.62439416226E+01  0.89592802412E+01  0.00000000000E+00 0.  1.
</event>
<event>
 8    1  0.6239251E-010  0.9118800E+02  0.7816164E-02  0.1184000E+00
        -11   -1    0    0    0    0  0.00000000000E+00  0.00000000000E+00  0.45593999997E+02  0.45594000000E+02  0.51100000000E-03 0. -1.
         11   -1    0    0    0    0 -0.00000000000E+00 -0.00000000000E+00 -0.45593999997E+02  0.45594000000E+02  0.51100000000E-03 0.  1.
         23    2    1    2    0    0  0.71054273576E-14 -0.44408920985E-15 -0.44408920985E-15  0.91188000000E+02  0.91188000000E+02 0.  0.
    9900012    2    3    3    0    0 -0.43221603247E+02  0.33208912449E+01  0.21184494088E+01  0.47787272658E+02  0.20000007357E+02 0.  0.
         12    1    3    3    0    0  0.43221603247E+02 -0.33208912449E+01 -0.21184494088E+01  0.43400727342E+02  0.00000000000E+00 0. -1.
         11    1    4    4    0    0 -0.36354259920E+02  0.31901635086E+01 -0.12088661761E+01  0.36513979723E+02  0.51100000000E-03 0. -1.
        -11    1    4    4    0    0 -0.64670171271E+01  0.32842549335E+01  0.35720332131E+01  0.80850517949E+01  0.51100000000E-03 0.  1.
         12    1    4    4    0    0 -0.40032620020E+00 -0.31535271972E+01 -0.24471762818E+00  0.31882411401E+01  0.00000000000E+00 0. -1.
</event>
<event>
 8    1  0.6239251E-010  0.9118800E+02  0.7816164E-02  0.1184000E+00
        -11   -1    0    0    0    0  0.00000000000E+00  0.00000000000E+00  0.45593999997E+02  0.45594000000E+02  0.51100000000E-03 0. -1.
         11   -1    0    0    0    0 -0.00000000000E+00 -0.00000000000E+00 -0.45593999997E+02  0.45594000000E+02  0.51100000000E-03 0.  1.
         23    2    1    2    0    0  0.00000000000E+00  0.00000000000E+00  0.00000000000E+00  0.91188000000E+02  0.91188000000E+02 0.  0.
    9900012    2    3    3    0    0  0.42365449800E+01 -0.30576407451E+02  0.30508411183E+02  0.47787214766E+02  0.19999743405E+02 0.  0.
        -12    1    3    3    0    0 -0.42365449800E+01  0.30576407451E+02 -0.30508411183E+02  0.43400785234E+02  0.00000000000E+00 0.  1.
         11    1    4    4    0    0  0.44909067702E+01 -0.27319120047E+02  0.20827144822E+02  0.34644949494E+02  0.51100000000E-03 0. -1.
        -11    1    4    4    0    0  0.37484010694E+01 -0.34123533716E-01  0.41043680082E+01  0.55585530492E+01  0.51100000000E-03 0.  1.
         12    1    4    4    0    0 -0.40027628596E+01 -0.32231638701E+01  0.55768983534E+01  0.75837122234E+01  0.00000000000E+00 0. -1.
</event>
<event>
 8    1  0.6239251E-010  0.9118800E+02  0.7816164E-02  0.1184000E+00
        -11   -1    0    0    0    0  0.00000000000E+00  0.00000000000E+00  0.45593999997E+02  0.45594000000E+02  0.51100000000E-03 0. -1.
         11   -1    0    0    0    0 -0.00000000000E+00 -0.00000000000E+00 -0.45593999997E+02  0.45594000000E+02  0.51100000000E-03 0.  1.
         23    2    1    2    0    0  0.00000000000E+00  0.00000000000E+00 -0.71054273576E-14  0.91188000000E+02  0.91188000000E+02 0.  0.
    9900012    2    3    3    0    0 -0.21021871151E+02 -0.41009037364E+01  0.37747670515E+02  0.47787272962E+02  0.20000008744E+02 0.  0.
        -12    1    3    3    0    0  0.21021871151E+02  0.41009037364E+01 -0.37747670515E+02  0.43400727038E+02  0.00000000000E+00 0.  1.
         11    1    4    4    0    0 -0.20544478846E+00 -0.34988656446E+01  0.36058251348E+00  0.35233916005E+01  0.51100000000E-03 0. -1.
        -11    1    4    4    0    0 -0.19218121967E+02  0.22759767268E+00  0.37809694153E+02  0.42414160193E+02  0.51100000000E-03 0.  1.
        -12    1    4    4    0    0 -0.15983043950E+01 -0.82963576448E+00 -0.42260615245E+00  0.18497211684E+01  0.00000000000E+00 0.  1.
</event>
<event>
 8    1  0.6239251E-010  0.9118800E+02  0.7816164E-02  0.1184000E+00
        -11   -1    0    0    0    0  0.00000000000E+00  0.00000000000E+00  0.45593999997E+02  0.45594000000E+02  0.51100000000E-03 0. -1.
         11   -1    0    0    0    0 -0.00000000000E+00 -0.00000000000E+00 -0.45593999997E+02  0.45594000000E+02  0.51100000000E-03 0.  1.
         23    2    1    2    0    0  0.00000000000E+00  0.00000000000E+00  0.00000000000E+00  0.91188000000E+02  0.91188000000E+02 0.  0.
    9900012    2    3    3    0    0 -0.18318382745E+02  0.38071379749E+02 -0.99313425392E+01  0.47787254995E+02  0.19999926824E+02 0.  0.
         12    1    3    3    0    0  0.18318382745E+02 -0.38071379749E+02  0.99313425392E+01  0.43400745005E+02  0.00000000000E+00 0. -1.
         11    1    4    4    0    0 -0.67704434239E+01  0.26594018509E+02 -0.13166868584E+02  0.30437594405E+02  0.51100000000E-03 0. -1.
        -11    1    4    4    0    0 -0.91960577551E+01  0.62784202291E+01  0.33959424226E+01  0.11641239797E+02  0.51100000000E-03 0.  1.
        -12    1    4    4    0    0 -0.23518815657E+01  0.51989410108E+01 -0.16041637767E+00  0.57084207928E+01  0.00000000000E+00 0.  1.
</event>
<event>
 8    1  0.6239251E-010  0.9118800E+02  0.7816164E-02  0.1184000E+00
        -11   -1    0    0    0    0  0.00000000000E+00  0.00000000000E+00  0.45593999997E+02  0.45594000000E+02  0.51100000000E-03 0. -1.
         11   -1    0    0    0    0 -0.00000000000E+00 -0.00000000000E+00 -0.45593999997E+02  0.45594000000E+02  0.51100000000E-03 0.  1.
         23    2    1    2    0    0 -0.88817841970E-15  0.00000000000E+00  0.00000000000E+00  0.91188000000E+02  0.91188000000E+02 0.  0.
    9900012    2    3    3    0    0 -0.17538071979E+01  0.21345542659E+02 -0.37748053135E+02  0.47787267903E+02  0.19999985675E+02 0.  0.
         12    1    3    3    0    0  0.17538071979E+01 -0.21345542659E+02  0.37748053135E+02  0.43400732097E+02  0.00000000000E+00 0. -1.
         11    1    4    4    0    0  0.96473642632E+00  0.74901138672E+01 -0.95916087544E+01  0.12207845055E+02  0.51100000000E-03 0. -1.
        -11    1    4    4    0    0 -0.91503372869E+01  0.11107705951E+02 -0.15730927347E+02  0.21320691345E+02  0.51100000000E-03 0.  1.
        -12    1    4    4    0    0  0.64317936626E+01  0.27477228400E+01 -0.12425517034E+02  0.14258731503E+02  0.00000000000E+00 0.  1.
</event>
<event>
 8    1  0.6239251E-010  0.9118800E+02  0.7816164E-02  0.1184000E+00
        -11   -1    0    0    0    0  0.00000000000E+00  0.00000000000E+00  0.45593999997E+02  0.45594000000E+02  0.51100000000E-03 0. -1.
         11   -1    0    0    0    0 -0.00000000000E+00 -0.00000000000E+00 -0.45593999997E+02  0.45594000000E+02  0.51100000000E-03 0.  1.
         23    2    1    2    0    0  0.00000000000E+00  0.00000000000E+00  0.00000000000E+00  0.91188000000E+02  0.91188000000E+02 0.  0.
    9900012    2    3    3    0    0 -0.11938732415E+02 -0.17995678891E+02 -0.37646324607E+02  0.47787267899E+02  0.19999985660E+02 0.  0.
         12    1    3    3    0    0  0.11938732415E+02  0.17995678891E+02  0.37646324607E+02  0.43400732101E+02  0.00000000000E+00 0. -1.
         11    1    4    4    0    0 -0.11898105783E+01  0.10908776939E+01  0.10465507048E+01  0.19237806513E+01  0.51100000000E-03 0. -1.
        -11    1    4    4    0    0 -0.12700510474E+02 -0.13457728326E+02 -0.26882666107E+02  0.32635734330E+02  0.51100000000E-03 0.  1.
        -12    1    4    4    0    0  0.19515886369E+01 -0.56288282597E+01 -0.11810209206E+02  0.13227752918E+02  0.00000000000E+00 0.  1.
</event>
<event>
 8    1  0.6239251E-010  0.9118800E+02  0.7816164E-02  0.1184000E+00
        -11   -1    0    0    0    0  0.00000000000E+00  0.00000000000E+00  0.45593999997E+02  0.45594000000E+02  0.51100000000E-03 0. -1.
         11   -1    0    0    0    0 -0.00000000000E+00 -0.00000000000E+00 -0.45593999997E+02  0.45594000000E+02  0.51100000000E-03 0.  1.
         23    2    1    2    0    0  0.00000000000E+00  0.00000000000E+00  0.00000000000E+00  0.91188000000E+02  0.91188000000E+02 0.  0.
    9900012    2    3    3    0    0  0.16981482705E+02  0.25364657273E+02 -0.30852663667E+02  0.47787269029E+02  0.19999990811E+02 0.  0.
         12    1    3    3    0    0 -0.16981482705E+02 -0.25364657273E+02  0.30852663667E+02  0.43400730971E+02  0.00000000000E+00 0. -1.
         11    1    4    4    0    0 -0.10956904843E+00  0.11549639785E+01 -0.65851422292E+01  0.66865570818E+01  0.51100000000E-03 0. -1.
        -11    1    4    4    0    0  0.18920113753E+02  0.18948648658E+02 -0.16197259966E+02  0.31294939224E+02  0.51100000000E-03 0.  1.
        -12    1    4    4    0    0 -0.18290619993E+01  0.52610446366E+01 -0.80702614721E+01  0.98057727229E+01  0.00000000000E+00 0.  1.
</event>
<event>
 8    1  0.6239251E-010  0.9118800E+02  0.7816164E-02  0.1184000E+00
        -11   -1    0    0    0    0  0.00000000000E+00  0.00000000000E+00  0.45593999997E+02  0.45594000000E+02  0.51100000000E-03 0. -1.
         11   -1    0    0    0    0 -0.00000000000E+00 -0.00000000000E+00 -0.45593999997E+02  0.45594000000E+02  0.51100000000E-03 0.  1.
         23    2    1    2    0    0  0.00000000000E+00  0.88817841970E-15  0.00000000000E+00  0.91188000000E+02  0.91188000000E+02 0.  0.
    9900012    2    3    3    0    0  0.34320636868E+02 -0.38147416825E+01 -0.26290068046E+02  0.47787239096E+02  0.19999854334E+02 0.  0.
         12    1    3    3    0    0 -0.34320636868E+02  0.38147416825E+01  0.26290068046E+02  0.43400760904E+02  0.00000000000E+00 0. -1.
         11    1    4    4    0    0  0.81437486185E+01 -0.34205643609E+01 -0.53107958179E+01  0.10306573368E+02  0.51100000000E-03 0. -1.
        -11    1    4    4    0    0  0.12111365106E+02 -0.44232727778E+01 -0.13012588534E+01  0.12959312546E+02  0.51100000000E-03 0.  1.
        -12    1    4    4    0    0  0.14065523144E+02  0.40290954563E+01 -0.19678013375E+02  0.24521353183E+02  0.00000000000E+00 0.  1.
</event>
<event>
 8    1  0.6239251E-010  0.9118800E+02  0.7816164E-02  0.1184000E+00
        -11   -1    0    0    0    0  0.00000000000E+00  0.00000000000E+00  0.45593999997E+02  0.45594000000E+02  0.51100000000E-03 0. -1.
         11   -1    0    0    0    0 -0.00000000000E+00 -0.00000000000E+00 -0.45593999997E+02  0.45594000000E+02  0.51100000000E-03 0.  1.
         23    2    1    2    0    0  0.17763568394E-14  0.00000000000E+00 -0.71054273576E-14  0.91188000000E+02  0.91188000000E+02 0.  0.
    9900012    2    3    3    0    0  0.55917105572E+01  0.93531899764E+01 -0.42010418548E+02  0.47787255118E+02  0.19999927386E+02 0.  0.
         12    1    3    3    0    0 -0.55917105572E+01 -0.93531899764E+01  0.42010418548E+02  0.43400744882E+02  0.00000000000E+00 0. -1.
         11    1    4    4    0    0 -0.49225543048E+01 -0.58528643559E+00 -0.19195191401E+02  0.19824970978E+02  0.51100000000E-03 0. -1.
        -11    1    4    4    0    0  0.11258586403E+02  0.73186778604E+01 -0.18507689867E+02  0.22865987796E+02  0.51100000000E-03 0.  1.
         12    1    4    4    0    0 -0.74432154087E+00  0.26197985515E+01 -0.43075372804E+01  0.50962963443E+01  0.00000000000E+00 0. -1.
</event>
<event>
 8    1  0.6239251E-010  0.9118800E+02  0.7816164E-02  0.1184000E+00
        -11   -1    0    0    0    0  0.00000000000E+00  0.00000000000E+00  0.45593999997E+02  0.45594000000E+02  0.51100000000E-03 0. -1.
         11   -1    0    0    0    0 -0.00000000000E+00 -0.00000000000E+00 -0.45593999997E+02  0.45594000000E+02  0.51100000000E-03 0.  1.
         23    2    1    2    0    0  0.00000000000E+00  0.00000000000E+00  0.00000000000E+00  0.91188000000E+02  0.91188000000E+02 0.  0.
    9900012    2    3    3    0    0  0.37359666758E+02  0.11021466755E+02 -0.19141741895E+02  0.47787265992E+02  0.19999976962E+02 0.  0.
         12    1    3    3    0    0 -0.37359666758E+02 -0.11021466755E+02  0.19141741895E+02  0.43400734008E+02  0.00000000000E+00 0. -1.
         11    1    4    4    0    0  0.15511502455E+02  0.38865246350E+00 -0.11381861842E+02  0.19243298532E+02  0.51100000000E-03 0. -1.
        -11    1    4    4    0    0  0.54005815642E+01  0.68934563507E+01  0.21012216366E+01  0.90056179309E+01  0.51100000000E-03 0.  1.
        -12    1    4    4    0    0  0.16447582739E+02  0.37393579403E+01 -0.98611016896E+01  0.19538349529E+02  0.00000000000E+00 0.  1.
</event>
<event>
 8    1  0.6239251E-010  0.9118800E+02  0.7816164E-02  0.1184000E+00
        -11   -1    0    0    0    0  0.00000000000E+00  0.00000000000E+00  0.45593999997E+02  0.45594000000E+02  0.51100000000E-03 0. -1.
         11   -1    0    0    0    0 -0.00000000000E+00 -0.00000000000E+00 -0.45593999997E+02  0.45594000000E+02  0.51100000000E-03 0.  1.
         23    2    1    2    0    0  0.00000000000E+00  0.00000000000E+00  0.71054273576E-14  0.91188000000E+02  0.91188000000E+02 0.  0.
    9900012    2    3    3    0    0  0.33952712489E+01 -0.29031799593E+02  0.32081926498E+02  0.47787271178E+02  0.20000000608E+02 0.  0.
        -12    1    3    3    0    0 -0.33952712489E+01  0.29031799593E+02 -0.32081926498E+02  0.43400728822E+02  0.00000000000E+00 0.  1.
         11    1    4    4    0    0  0.29947123384E+01 -0.95383416357E+01  0.15678492829E+02  0.18594714324E+02  0.51100000000E-03 0. -1.
        -11    1    4    4    0    0  0.71956989981E+00 -0.15972124566E+02  0.42618127902E+01  0.16546588546E+02  0.51100000000E-03 0.  1.
        -12    1    4    4    0    0 -0.31901098922E+00 -0.35213333910E+01  0.12141620879E+02  0.12645968308E+02  0.00000000000E+00 0.  1.
</event>
<event>
 8    1  0.6239251E-010  0.9118800E+02  0.7816164E-02  0.1184000E+00
        -11   -1    0    0    0    0  0.00000000000E+00  0.00000000000E+00  0.45593999997E+02  0.45594000000E+02  0.51100000000E-03 0.  1.
         11   -1    0    0    0    0 -0.00000000000E+00 -0.00000000000E+00 -0.45593999997E+02  0.45594000000E+02  0.51100000000E-03 0. -1.
         23    2    1    2    0    0  0.11102230246E-15  0.00000000000E+00  0.00000000000E+00  0.91188000000E+02  0.91188000000E+02 0.  0.
    9900012    2    3    3    0    0 -0.57416340051E+00 -0.34638188463E+02  0.26143650879E+02  0.47787259857E+02  0.19999948993E+02 0.  0.
        -12    1    3    3    0    0  0.57416340051E+00  0.34638188463E+02 -0.26143650879E+02  0.43400740143E+02  0.00000000000E+00 0.  1.
         11    1    4    4    0    0 -0.17436822025E+01 -0.23794922433E+02  0.18866430492E+02  0.30416787487E+02  0.51100000000E-03 0. -1.
        -11    1    4    4    0    0  0.33235397439E+00 -0.10770109753E+02  0.98899663919E+01  0.14625907109E+02  0.51100000000E-03 0.  1.
         12    1    4    4    0    0  0.83716482759E+00 -0.73156277386E-01 -0.26127460052E+01  0.27445652620E+01  0.00000000000E+00 0. -1.
</event>
<event>
 8    1  0.6239251E-010  0.9118800E+02  0.7816164E-02  0.1184000E+00
        -11   -1    0    0    0    0  0.00000000000E+00  0.00000000000E+00  0.45593999997E+02  0.45594000000E+02  0.51100000000E-03 0. -1.
         11   -1    0    0    0    0 -0.00000000000E+00 -0.00000000000E+00 -0.45593999997E+02  0.45594000000E+02  0.51100000000E-03 0.  1.
         23    2    1    2    0    0  0.00000000000E+00  0.00000000000E+00  0.00000000000E+00  0.91188000000E+02  0.91188000000E+02 0.  0.
    9900012    2    3    3    0    0 -0.41864587133E+01  0.26963768154E+02  0.33749844275E+02  0.47787271685E+02  0.20000002923E+02 0.  0.
        -12    1    3    3    0    0  0.41864587133E+01 -0.26963768154E+02 -0.33749844275E+02  0.43400728315E+02  0.00000000000E+00 0.  1.
         11    1    4    4    0    0 -0.59279906295E+01  0.27490661255E+01  0.18285672062E+01  0.67854326137E+01  0.51100000000E-03 0. -1.
        -11    1    4    4    0    0  0.73336377884E+00 -0.50646210443E+00  0.19027651371E+01  0.21011524750E+01  0.51100000000E-03 0.  1.
         12    1    4    4    0    0  0.10081681373E+01  0.24721164133E+02  0.30018511932E+02  0.38900686597E+02  0.00000000000E+00 0. -1.
</event>
<event>
 8    1  0.6239251E-010  0.9118800E+02  0.7816164E-02  0.1184000E+00
        -11   -1    0    0    0    0  0.00000000000E+00  0.00000000000E+00  0.45593999997E+02  0.45594000000E+02  0.51100000000E-03 0. -1.
         11   -1    0    0    0    0 -0.00000000000E+00 -0.00000000000E+00 -0.45593999997E+02  0.45594000000E+02  0.51100000000E-03 0.  1.
         23    2    1    2    0    0 -0.17763568394E-14  0.00000000000E+00  0.71054273576E-14  0.91188000000E+02  0.91188000000E+02 0.  0.
    9900012    2    3    3    0    0 -0.83216423585E+01  0.27125137491E+01  0.42509008794E+02  0.47787270846E+02  0.19999999097E+02 0.  0.
        -12    1    3    3    0    0  0.83216423585E+01 -0.27125137491E+01 -0.42509008794E+02  0.43400729154E+02  0.00000000000E+00 0.  1.
         11    1    4    4    0    0  0.11877182248E+01  0.51051509086E+01  0.79564873314E+01  0.95277978199E+01  0.51100000000E-03 0. -1.
        -11    1    4    4    0    0 -0.67197039125E+01  0.48347642808E+01  0.13609073194E+02  0.15929100407E+02  0.51100000000E-03 0.  1.
         12    1    4    4    0    0 -0.27896566708E+01 -0.72274014403E+01  0.20943448269E+02  0.22330372619E+02  0.00000000000E+00 0. -1.
</event>
<event>
 8    1  0.6239251E-010  0.9118800E+02  0.7816164E-02  0.1184000E+00
        -11   -1    0    0    0    0  0.00000000000E+00  0.00000000000E+00  0.45593999997E+02  0.45594000000E+02  0.51100000000E-03 0. -1.
         11   -1    0    0    0    0 -0.00000000000E+00 -0.00000000000E+00 -0.45593999997E+02  0.45594000000E+02  0.51100000000E-03 0.  1.
         23    2    1    2    0    0  0.35527136788E-14  0.00000000000E+00  0.00000000000E+00  0.91188000000E+02  0.91188000000E+02 0.  0.
    9900012    2    3    3    0    0  0.17330324386E+02  0.18579218903E+02  0.35186584894E+02  0.47787271033E+02  0.19999999949E+02 0.  0.
        -12    1    3    3    0    0 -0.17330324386E+02 -0.18579218903E+02 -0.35186584894E+02  0.43400728967E+02  0.00000000000E+00 0.  1.
         11    1    4    4    0    0 -0.27479592386E+00  0.56067199179E+01  0.17347296598E+02  0.18232924081E+02  0.51100000000E-03 0. -1.
        -11    1    4    4    0    0  0.82018708542E+01  0.77885409313E+01  0.39112884917E+01  0.11967883408E+02  0.51100000000E-03 0.  1.
         12    1    4    4    0    0  0.94032494559E+01  0.51839580533E+01  0.13927999804E+02  0.17586463544E+02  0.00000000000E+00 0. -1.
</event>
<event>
 8    1  0.6239251E-010  0.9118800E+02  0.7816164E-02  0.1184000E+00
        -11   -1    0    0    0    0  0.00000000000E+00  0.00000000000E+00  0.45593999997E+02  0.45594000000E+02  0.51100000000E-03 0. -1.
         11   -1    0    0    0    0 -0.00000000000E+00 -0.00000000000E+00 -0.45593999997E+02  0.45594000000E+02  0.51100000000E-03 0.  1.
         23    2    1    2    0    0  0.00000000000E+00  0.00000000000E+00  0.00000000000E+00  0.91188000000E+02  0.91188000000E+02 0.  0.
    9900012    2    3    3    0    0 -0.35763198849E+02 -0.13475619652E+02 -0.20567560142E+02  0.47787271353E+02  0.20000001406E+02 0.  0.
         12    1    3    3    0    0  0.35763198849E+02  0.13475619652E+02  0.20567560142E+02  0.43400728647E+02  0.00000000000E+00 0. -1.
         11    1    4    4    0    0 -0.22929228666E+02 -0.13595706416E+02 -0.14522252632E+02  0.30356030405E+02  0.51100000000E-03 0.  1.
        -11    1    4    4    0    0 -0.10523946101E+02  0.18984586397E+01 -0.84681129933E+01  0.13640620392E+02  0.51100000000E-03 0. -1.
         12    1    4    4    0    0 -0.23100240815E+01 -0.17783718759E+01  0.24228054837E+01  0.37906205558E+01  0.00000000000E+00 0. -1.
</event>
<event>
 8    1  0.6239251E-010  0.9118800E+02  0.7816164E-02  0.1184000E+00
        -11   -1    0    0    0    0  0.00000000000E+00  0.00000000000E+00  0.45593999997E+02  0.45594000000E+02  0.51100000000E-03 0. -1.
         11   -1    0    0    0    0 -0.00000000000E+00 -0.00000000000E+00 -0.45593999997E+02  0.45594000000E+02  0.51100000000E-03 0.  1.
         23    2    1    2    0    0  0.00000000000E+00  0.00000000000E+00  0.00000000000E+00  0.91188000000E+02  0.91188000000E+02 0.  0.
    9900012    2    3    3    0    0  0.25105291079E+02  0.26225891491E+02 -0.23781298735E+02  0.47787271962E+02  0.20000004185E+02 0.  0.
         12    1    3    3    0    0 -0.25105291079E+02 -0.26225891491E+02  0.23781298735E+02  0.43400728038E+02  0.00000000000E+00 0. -1.
         11    1    4    4    0    0  0.10289223384E+02  0.36853371181E+00 -0.14783830924E+01  0.10401420661E+02  0.51100000000E-03 0. -1.
        -11    1    4    4    0    0  0.10770626267E+02  0.15420169123E+02 -0.13790722546E+02  0.23323208068E+02  0.51100000000E-03 0.  1.
         12    1    4    4    0    0  0.40454414278E+01  0.10437188656E+02 -0.85121930968E+01  0.14062643233E+02  0.00000000000E+00 0. -1.
</event>
<event>
 8    1  0.6239251E-010  0.9118800E+02  0.7816164E-02  0.1184000E+00
        -11   -1    0    0    0    0  0.00000000000E+00  0.00000000000E+00  0.45593999997E+02  0.45594000000E+02  0.51100000000E-03 0. -1.
         11   -1    0    0    0    0 -0.00000000000E+00 -0.00000000000E+00 -0.45593999997E+02  0.45594000000E+02  0.51100000000E-03 0.  1.
         23    2    1    2    0    0  0.00000000000E+00  0.00000000000E+00  0.00000000000E+00  0.91188000000E+02  0.91188000000E+02 0.  0.
    9900012    2    3    3    0    0  0.21932206762E+02 -0.37073980522E+02 -0.53029581900E+01  0.47787273154E+02  0.20000009619E+02 0.  0.
        -12    1    3    3    0    0 -0.21932206762E+02  0.37073980522E+02  0.53029581900E+01  0.43400726846E+02  0.00000000000E+00 0.  1.
         11    1    4    4    0    0  0.19884324160E+02 -0.16974263641E+02 -0.41163272227E+01  0.26466131631E+02  0.51100000000E-03 0. -1.
        -11    1    4    4    0    0  0.99417589452E+00 -0.15404468972E+02 -0.37264955265E+01  0.15879950227E+02  0.51100000000E-03 0.  1.
         12    1    4    4    0    0  0.10537067078E+01 -0.46952479080E+01  0.25398645592E+01  0.54411912963E+01  0.00000000000E+00 0. -1.
</event>
<event>
 8    1  0.6239251E-010  0.9118800E+02  0.7816164E-02  0.1184000E+00
        -11   -1    0    0    0    0  0.00000000000E+00  0.00000000000E+00  0.45593999997E+02  0.45594000000E+02  0.51100000000E-03 0. -1.
         11   -1    0    0    0    0 -0.00000000000E+00 -0.00000000000E+00 -0.45593999997E+02  0.45594000000E+02  0.51100000000E-03 0.  1.
         23    2    1    2    0    0  0.00000000000E+00  0.00000000000E+00  0.00000000000E+00  0.91188000000E+02  0.91188000000E+02 0.  0.
    9900012    2    3    3    0    0 -0.39855072835E+02  0.16696508975E+02  0.40526074115E+01  0.47787264183E+02  0.19999968718E+02 0.  0.
        -12    1    3    3    0    0  0.39855072835E+02 -0.16696508975E+02 -0.40526074115E+01  0.43400735817E+02  0.00000000000E+00 0.  1.
         11    1    4    4    0    0 -0.17920642066E+02  0.10321703485E+01 -0.29524071130E+01  0.18191522633E+02  0.51100000000E-03 0. -1.
        -11    1    4    4    0    0 -0.38825669328E+01  0.84610547187E+01  0.19139403021E+01  0.95040486468E+01  0.51100000000E-03 0.  1.
        -12    1    4    4    0    0 -0.18051863836E+02  0.72032839074E+01  0.50910742225E+01  0.20091692904E+02  0.00000000000E+00 0.  1.
</event>
<event>
 8    1  0.6239251E-010  0.9118800E+02  0.7816164E-02  0.1184000E+00
        -11   -1    0    0    0    0  0.00000000000E+00  0.00000000000E+00  0.45593999997E+02  0.45594000000E+02  0.51100000000E-03 0. -1.
         11   -1    0    0    0    0 -0.00000000000E+00 -0.00000000000E+00 -0.45593999997E+02  0.45594000000E+02  0.51100000000E-03 0.  1.
         23    2    1    2    0    0  0.00000000000E+00 -0.22204460493E-15  0.00000000000E+00  0.91188000000E+02  0.91188000000E+02 0.  0.
    9900012    2    3    3    0    0  0.16519563253E+02 -0.12998823364E+01 -0.40112811294E+02  0.47787270812E+02  0.19999998939E+02 0.  0.
         12    1    3    3    0    0 -0.16519563253E+02  0.12998823364E+01  0.40112811294E+02  0.43400729188E+02  0.00000000000E+00 0. -1.
         11    1    4    4    0    0 -0.32012674404E+00 -0.20818020596E+01 -0.38927120107E+01  0.44260126533E+01  0.51100000000E-03 0. -1.
        -11    1    4    4    0    0  0.14981605555E+02 -0.27140866516E+01 -0.36339680314E+02  0.39400344376E+02  0.51100000000E-03 0.  1.
        -12    1    4    4    0    0  0.18580844423E+01  0.34960063748E+01  0.11958103094E+00  0.39609137823E+01  0.00000000000E+00 0.  1.
</event>
<event>
 8    1  0.6239251E-010  0.9118800E+02  0.7816164E-02  0.1184000E+00
        -11   -1    0    0    0    0  0.00000000000E+00  0.00000000000E+00  0.45593999997E+02  0.45594000000E+02  0.51100000000E-03 0. -1.
         11   -1    0    0    0    0 -0.00000000000E+00 -0.00000000000E+00 -0.45593999997E+02  0.45594000000E+02  0.51100000000E-03 0.  1.
         23    2    1    2    0    0  0.17763568394E-14  0.00000000000E+00  0.00000000000E+00  0.91188000000E+02  0.91188000000E+02 0.  0.
    9900012    2    3    3    0    0  0.15584581558E+02 -0.22411491232E+01 -0.40444051643E+02  0.47787271376E+02  0.20000001514E+02 0.  0.
         12    1    3    3    0    0 -0.15584581558E+02  0.22411491232E+01  0.40444051643E+02  0.43400728624E+02  0.00000000000E+00 0. -1.
         11    1    4    4    0    0  0.13701804002E+02 -0.92192841361E+01 -0.22407677801E+02  0.27835923868E+02  0.51100000000E-03 0. -1.
        -11    1    4    4    0    0  0.24807717895E+01  0.68424396167E+01 -0.17900060320E+02  0.19323182147E+02  0.51100000000E-03 0.  1.
         12    1    4    4    0    0 -0.59799423411E+00  0.13569539613E+00 -0.13631352283E+00  0.62816536125E+00  0.00000000000E+00 0. -1.
</event>
<event>
 8    1  0.6239251E-010  0.9118800E+02  0.7816164E-02  0.1184000E+00
        -11   -1    0    0    0    0  0.00000000000E+00  0.00000000000E+00  0.45593999997E+02  0.45594000000E+02  0.51100000000E-03 0.  1.
         11   -1    0    0    0    0 -0.00000000000E+00 -0.00000000000E+00 -0.45593999997E+02  0.45594000000E+02  0.51100000000E-03 0. -1.
         23    2    1    2    0    0  0.00000000000E+00  0.00000000000E+00  0.00000000000E+00  0.91188000000E+02  0.91188000000E+02 0.  0.
    9900012    2    3    3    0    0  0.27623936372E+02  0.21409944414E+02  0.25732381400E+02  0.47787273820E+02  0.20000012654E+02 0.  0.
        -12    1    3    3    0    0 -0.27623936372E+02 -0.21409944414E+02 -0.25732381400E+02  0.43400726180E+02  0.00000000000E+00 0.  1.
         11    1    4    4    0    0  0.14154237961E+02  0.16334801502E+02  0.61116920781E+01  0.22461544308E+02  0.51100000000E-03 0. -1.
        -11    1    4    4    0    0  0.28456631277E+01  0.22985321192E+01  0.10273355080E+02  0.10905176450E+02  0.51100000000E-03 0.  1.
        -12    1    4    4    0    0  0.10624035284E+02  0.27766107923E+01  0.93473342412E+01  0.14420553062E+02  0.00000000000E+00 0.  1.
</event>
<event>
 8    1  0.6603811E-010  0.9118800E+02  0.7816164E-02  0.1184000E+00
        -11   -1    0    0    0    0  0.00000000000E+00  0.00000000000E+00  0.45593999997E+02  0.45594000000E+02  0.51100000000E-03 0. -1.
         11   -1    0    0    0    0 -0.00000000000E+00 -0.00000000000E+00 -0.45593999997E+02  0.45594000000E+02  0.51100000000E-03 0.  1.
         23    2    1    2    0    0 -0.17763568394E-14  0.00000000000E+00  0.00000000000E+00  0.91188000000E+02  0.91188000000E+02 0.  0.
    9900012    2    3    3    0    0 -0.84005023427E+01  0.29190273726E+02  0.30999722778E+02  0.47787270373E+02  0.19999996940E+02 0.  0.
        -12    1    3    3    0    0  0.84005023427E+01 -0.29190273726E+02 -0.30999722778E+02  0.43400729627E+02  0.00000000000E+00 0.  1.
         11    1    4    4    0    0 -0.30991626169E+01  0.10195355630E+02  0.93852480651E+01  0.14199752352E+02  0.51100000000E-03 0. -1.
        -11    1    4    4    0    0  0.13739445911E+01  0.16267879638E+02  0.20632237878E+02  0.26310090683E+02  0.51100000000E-03 0.  1.
        -12    1    4    4    0    0 -0.66752843170E+01  0.27270384585E+01  0.98223683561E+00  0.72774273386E+01  0.00000000000E+00 0.  1.
</event>
<event>
 8    1  0.6239251E-010  0.9118800E+02  0.7816164E-02  0.1184000E+00
        -11   -1    0    0    0    0  0.00000000000E+00  0.00000000000E+00  0.45593999997E+02  0.45594000000E+02  0.51100000000E-03 0. -1.
         11   -1    0    0    0    0 -0.00000000000E+00 -0.00000000000E+00 -0.45593999997E+02  0.45594000000E+02  0.51100000000E-03 0.  1.
         23    2    1    2    0    0  0.00000000000E+00  0.00000000000E+00  0.00000000000E+00  0.91188000000E+02  0.91188000000E+02 0.  0.
    9900012    2    3    3    0    0  0.18857088615E+02 -0.18036870954E+02 -0.34680037487E+02  0.47787268382E+02  0.19999987860E+02 0.  0.
         12    1    3    3    0    0 -0.18857088615E+02  0.18036870954E+02  0.34680037487E+02  0.43400731618E+02  0.00000000000E+00 0. -1.
         11    1    4    4    0    0  0.73506853266E+01 -0.23997173814E+01 -0.84209515950E+00  0.77781966290E+01  0.51100000000E-03 0. -1.
        -11    1    4    4    0    0  0.10197137318E+02 -0.67249877796E+01 -0.17311167303E+02  0.21186872911E+02  0.51100000000E-03 0.  1.
         12    1    4    4    0    0  0.13092659713E+01 -0.89121657930E+01 -0.16526775025E+02  0.18822198842E+02  0.00000000000E+00 0. -1.
</event>
<event>
 8    1  0.6239251E-010  0.9118800E+02  0.7816164E-02  0.1184000E+00
        -11   -1    0    0    0    0  0.00000000000E+00  0.00000000000E+00  0.45593999997E+02  0.45594000000E+02  0.51100000000E-03 0. -1.
         11   -1    0    0    0    0 -0.00000000000E+00 -0.00000000000E+00 -0.45593999997E+02  0.45594000000E+02  0.51100000000E-03 0.  1.
         23    2    1    2    0    0  0.00000000000E+00  0.00000000000E+00  0.35527136788E-14  0.91188000000E+02  0.91188000000E+02 0.  0.
    9900012    2    3    3    0    0 -0.20493049875E+02 -0.26197834540E+02  0.27880673336E+02  0.47787267594E+02  0.19999984266E+02 0.  0.
        -12    1    3    3    0    0  0.20493049875E+02  0.26197834540E+02 -0.27880673336E+02  0.43400732406E+02  0.00000000000E+00 0.  1.
         11    1    4    4    0    0 -0.40905600119E+01 -0.80827628720E+01  0.54707723818E+01  0.10582678658E+02  0.51100000000E-03 0. -1.
        -11    1    4    4    0    0 -0.17958453739E+02 -0.15544369036E+02  0.12481361174E+02  0.26831284845E+02  0.51100000000E-03 0.  1.
        -12    1    4    4    0    0  0.15559638761E+01 -0.25707026326E+01  0.99285397794E+01  0.10373304091E+02  0.00000000000E+00 0.  1.
</event>
<event>
 8    1  0.6239251E-010  0.9118800E+02  0.7816164E-02  0.1184000E+00
        -11   -1    0    0    0    0  0.00000000000E+00  0.00000000000E+00  0.45593999997E+02  0.45594000000E+02  0.51100000000E-03 0. -1.
         11   -1    0    0    0    0 -0.00000000000E+00 -0.00000000000E+00 -0.45593999997E+02  0.45594000000E+02  0.51100000000E-03 0.  1.
         23    2    1    2    0    0 -0.35527136788E-14 -0.71054273576E-14  0.00000000000E+00  0.91188000000E+02  0.91188000000E+02 0.  0.
    9900012    2    3    3    0    0  0.16889942860E+02  0.38487469028E+02  0.10819783864E+02  0.47787272300E+02  0.20000005727E+02 0.  0.
        -12    1    3    3    0    0 -0.16889942860E+02 -0.38487469028E+02 -0.10819783864E+02  0.43400727700E+02  0.00000000000E+00 0.  1.
         11    1    4    4    0    0  0.95073923987E+01  0.18246775602E+02  0.11332913399E+02  0.23489790473E+02  0.51100000000E-03 0. -1.
        -11    1    4    4    0    0  0.45095655610E+01  0.52577218700E+01 -0.48277506054E+01  0.84431627357E+01  0.51100000000E-03 0.  1.
         12    1    4    4    0    0  0.28729849003E+01  0.14982971556E+02  0.43146210705E+01  0.15854319092E+02  0.00000000000E+00 0. -1.
</event>
<event>
 8    1  0.6239251E-010  0.9118800E+02  0.7816164E-02  0.1184000E+00
        -11   -1    0    0    0    0  0.00000000000E+00  0.00000000000E+00  0.45593999997E+02  0.45594000000E+02  0.51100000000E-03 0. -1.
         11   -1    0    0    0    0 -0.00000000000E+00 -0.00000000000E+00 -0.45593999997E+02  0.45594000000E+02  0.51100000000E-03 0.  1.
         23    2    1    2    0    0  0.88817841970E-15  0.00000000000E+00  0.00000000000E+00  0.91188000000E+02  0.91188000000E+02 0.  0.
    9900012    2    3    3    0    0 -0.59942308023E+01  0.29745225045E+01  0.42881745304E+02  0.47787278032E+02  0.20000031860E+02 0.  0.
        -12    1    3    3    0    0  0.59942308023E+01 -0.29745225045E+01 -0.42881745304E+02  0.43400721968E+02  0.00000000000E+00 0.  1.
         11    1    4    4    0    0  0.56563324229E+01  0.27773176042E+01  0.16504726676E+02  0.17666736894E+02  0.51100000000E-03 0. -1.
        -11    1    4    4    0    0 -0.67122419777E+01  0.14546201580E+01  0.60120931190E+01  0.91277256807E+01  0.51100000000E-03 0.  1.
         12    1    4    4    0    0 -0.49383212476E+01 -0.12574152576E+01  0.20364925509E+02  0.20992815458E+02  0.00000000000E+00 0. -1.
</event>
<event>
 8    1  0.6239251E-010  0.9118800E+02  0.7816164E-02  0.1184000E+00
        -11   -1    0    0    0    0  0.00000000000E+00  0.00000000000E+00  0.45593999997E+02  0.45594000000E+02  0.51100000000E-03 0.  1.
         11   -1    0    0    0    0 -0.00000000000E+00 -0.00000000000E+00 -0.45593999997E+02  0.45594000000E+02  0.51100000000E-03 0. -1.
         23    2    1    2    0    0  0.00000000000E+00  0.00000000000E+00  0.11102230246E-14  0.91188000000E+02  0.91188000000E+02 0.  0.
    9900012    2    3    3    0    0 -0.36965439900E+02 -0.22725004790E+02 -0.86837425691E+00  0.47787266555E+02  0.19999979531E+02 0.  0.
         12    1    3    3    0    0  0.36965439900E+02  0.22725004790E+02  0.86837425691E+00  0.43400733445E+02  0.00000000000E+00 0. -1.
         11    1    4    4    0    0 -0.11155329788E+01 -0.18384371890E+01 -0.26658887687E+01  0.34250880737E+01  0.51100000000E-03 0. -1.
        -11    1    4    4    0    0 -0.24053742593E+02 -0.13976753872E+02  0.85644594962E+01  0.29108111383E+02  0.51100000000E-03 0.  1.
        -12    1    4    4    0    0 -0.11796164328E+02 -0.69098137289E+01 -0.67669449844E+01  0.15254067099E+02  0.00000000000E+00 0.  1.
</event>
<event>
 8    1  0.6239251E-010  0.9118800E+02  0.7816164E-02  0.1184000E+00
        -11   -1    0    0    0    0  0.00000000000E+00  0.00000000000E+00  0.45593999997E+02  0.45594000000E+02  0.51100000000E-03 0. -1.
         11   -1    0    0    0    0 -0.00000000000E+00 -0.00000000000E+00 -0.45593999997E+02  0.45594000000E+02  0.51100000000E-03 0.  1.
         23    2    1    2    0    0  0.00000000000E+00  0.71054273576E-14  0.00000000000E+00  0.91188000000E+02  0.91188000000E+02 0.  0.
    9900012    2    3    3    0    0 -0.27957301192E+02  0.32087626650E+02  0.85086074692E+01  0.47787275639E+02  0.20000020949E+02 0.  0.
        -12    1    3    3    0    0  0.27957301192E+02 -0.32087626650E+02 -0.85086074692E+01  0.43400724361E+02  0.00000000000E+00 0.  1.
         11    1    4    4    0    0 -0.16931859234E+02  0.10380871909E+02  0.25350431417E+00  0.19862392187E+02  0.51100000000E-03 0. -1.
        -11    1    4    4    0    0 -0.22745681507E+01  0.14364490893E+02  0.14189989908E+01  0.14612522618E+02  0.51100000000E-03 0.  1.
        -12    1    4    4    0    0 -0.87508738072E+01  0.73422638486E+01  0.68361041642E+01  0.13312360833E+02  0.00000000000E+00 0.  1.
</event>
<event>
 8    1  0.6239251E-010  0.9118800E+02  0.7816164E-02  0.1184000E+00
        -11   -1    0    0    0    0  0.00000000000E+00  0.00000000000E+00  0.45593999997E+02  0.45594000000E+02  0.51100000000E-03 0. -1.
         11   -1    0    0    0    0 -0.00000000000E+00 -0.00000000000E+00 -0.45593999997E+02  0.45594000000E+02  0.51100000000E-03 0.  1.
         23    2    1    2    0    0  0.00000000000E+00  0.00000000000E+00 -0.22204460493E-15  0.91188000000E+02  0.91188000000E+02 0.  0.
    9900012    2    3    3    0    0  0.37816705265E+02  0.21292333778E+02  0.39553964493E+00  0.47787272743E+02  0.20000007744E+02 0.  0.
         12    1    3    3    0    0 -0.37816705265E+02 -0.21292333778E+02 -0.39553964493E+00  0.43400727257E+02  0.00000000000E+00 0. -1.
         11    1    4    4    0    0  0.16286731953E+02  0.41755067736E+01 -0.44588824184E+01  0.17394658008E+02  0.51100000000E-03 0. -1.
        -11    1    4    4    0    0  0.85218123979E+01  0.56476420535E+01 -0.39296520123E+01  0.10952593871E+02  0.51100000000E-03 0.  1.
         12    1    4    4    0    0  0.13008160914E+02  0.11469184951E+02  0.87840740756E+01  0.19440020863E+02  0.00000000000E+00 0. -1.
</event>
<event>
 8    1  0.6239251E-010  0.9118800E+02  0.7816164E-02  0.1184000E+00
        -11   -1    0    0    0    0  0.00000000000E+00  0.00000000000E+00  0.45593999997E+02  0.45594000000E+02  0.51100000000E-03 0. -1.
         11   -1    0    0    0    0 -0.00000000000E+00 -0.00000000000E+00 -0.45593999997E+02  0.45594000000E+02  0.51100000000E-03 0.  1.
         23    2    1    2    0    0  0.00000000000E+00 -0.71054273576E-14  0.00000000000E+00  0.91188000000E+02  0.91188000000E+02 0.  0.
    9900012    2    3    3    0    0  0.22922829052E+02  0.33153363458E+02 -0.16094141901E+02  0.47787274155E+02  0.20000014183E+02 0.  0.
         12    1    3    3    0    0 -0.22922829052E+02 -0.33153363458E+02  0.16094141901E+02  0.43400725845E+02  0.00000000000E+00 0. -1.
         11    1    4    4    0    0  0.11002244288E+02  0.25800792755E+02 -0.12386893626E+02  0.30662117020E+02  0.51100000000E-03 0. -1.
        -11    1    4    4    0    0  0.29303313601E+00 -0.10818879583E+01 -0.24639418866E+01  0.27069096502E+01  0.51100000000E-03 0.  1.
         12    1    4    4    0    0  0.11627551628E+02  0.84344586608E+01 -0.12433063884E+01  0.14418247485E+02  0.00000000000E+00 0. -1.
</event>
<event>
 8    1  0.6239251E-010  0.9118800E+02  0.7816164E-02  0.1184000E+00
        -11   -1    0    0    0    0  0.00000000000E+00  0.00000000000E+00  0.45593999997E+02  0.45594000000E+02  0.51100000000E-03 0. -1.
         11   -1    0    0    0    0 -0.00000000000E+00 -0.00000000000E+00 -0.45593999997E+02  0.45594000000E+02  0.51100000000E-03 0.  1.
         23    2    1    2    0    0  0.88817841970E-15 -0.35527136788E-14  0.00000000000E+00  0.91188000000E+02  0.91188000000E+02 0.  0.
    9900012    2    3    3    0    0 -0.69276187903E+01 -0.29019460261E+02 -0.31519882452E+02  0.47787263074E+02  0.19999963660E+02 0.  0.
         12    1    3    3    0    0  0.69276187903E+01  0.29019460261E+02  0.31519882452E+02  0.43400736926E+02  0.00000000000E+00 0. -1.
         11    1    4    4    0    0 -0.94269991999E+01 -0.13318785589E+02 -0.85901258182E+01  0.18440407406E+02  0.51100000000E-03 0. -1.
        -11    1    4    4    0    0 -0.24778629111E+01 -0.22890297299E+01 -0.79374764011E+01  0.86245575880E+01  0.51100000000E-03 0.  1.
         12    1    4    4    0    0  0.49772433207E+01 -0.13411644942E+02 -0.14992280232E+02  0.20722298080E+02  0.00000000000E+00 0. -1.
</event>
<event>
 8    1  0.6239251E-010  0.9118800E+02  0.7816164E-02  0.1184000E+00
        -11   -1    0    0    0    0  0.00000000000E+00  0.00000000000E+00  0.45593999997E+02  0.45594000000E+02  0.51100000000E-03 0. -1.
         11   -1    0    0    0    0 -0.00000000000E+00 -0.00000000000E+00 -0.45593999997E+02  0.45594000000E+02  0.51100000000E-03 0.  1.
         23    2    1    2    0    0  0.88817841970E-15  0.00000000000E+00  0.00000000000E+00  0.91188000000E+02  0.91188000000E+02 0.  0.
    9900012    2    3    3    0    0  0.18647907847E+01  0.88979186204E+01 -0.42437867606E+02  0.47787274115E+02  0.20000014000E+02 0.  0.
         12    1    3    3    0    0 -0.18647907847E+01 -0.88979186204E+01  0.42437867606E+02  0.43400725885E+02  0.00000000000E+00 0. -1.
         11    1    4    4    0    0  0.55646373234E+01 -0.33121853350E+01 -0.16588126977E+02  0.17807350087E+02  0.51100000000E-03 0. -1.
        -11    1    4    4    0    0 -0.42764695963E+01  0.11900955051E+02 -0.17427297163E+02  0.21532106492E+02  0.51100000000E-03 0.  1.
        -12    1    4    4    0    0  0.57662305754E+00  0.30914890495E+00 -0.84224434653E+01  0.84478175360E+01  0.00000000000E+00 0.  1.
</event>
<event>
 8    1  0.6239251E-010  0.9118800E+02  0.7816164E-02  0.1184000E+00
        -11   -1    0    0    0    0  0.00000000000E+00  0.00000000000E+00  0.45593999997E+02  0.45594000000E+02  0.51100000000E-03 0.  1.
         11   -1    0    0    0    0 -0.00000000000E+00 -0.00000000000E+00 -0.45593999997E+02  0.45594000000E+02  0.51100000000E-03 0. -1.
         23    2    1    2    0    0  0.00000000000E+00  0.00000000000E+00  0.00000000000E+00  0.91188000000E+02  0.91188000000E+02 0.  0.
    9900012    2    3    3    0    0  0.26374502036E+02 -0.19048678692E+02 -0.28725526360E+02  0.47787281317E+02  0.20000046835E+02 0.  0.
         12    1    3    3    0    0 -0.26374502036E+02  0.19048678692E+02  0.28725526360E+02  0.43400718683E+02  0.00000000000E+00 0. -1.
         11    1    4    4    0    0  0.14718715377E+02 -0.11614902352E+01 -0.12633985420E+02  0.19432118510E+02  0.51100000000E-03 0. -1.
        -11    1    4    4    0    0 -0.94604459406E+00 -0.57168944149E+01 -0.33587901181E+01  0.66977125531E+01  0.51100000000E-03 0.  1.
         12    1    4    4    0    0  0.12601831253E+02 -0.12170294042E+02 -0.12732750822E+02  0.21657450254E+02  0.00000000000E+00 0. -1.
</event>
<event>
 8    1  0.6239251E-010  0.9118800E+02  0.7816164E-02  0.1184000E+00
        -11   -1    0    0    0    0  0.00000000000E+00  0.00000000000E+00  0.45593999997E+02  0.45594000000E+02  0.51100000000E-03 0. -1.
         11   -1    0    0    0    0 -0.00000000000E+00 -0.00000000000E+00 -0.45593999997E+02  0.45594000000E+02  0.51100000000E-03 0.  1.
         23    2    1    2    0    0  0.00000000000E+00  0.17763568394E-14  0.00000000000E+00  0.91188000000E+02  0.91188000000E+02 0.  0.
    9900012    2    3    3    0    0 -0.39619447045E+02 -0.11516190655E+02  0.13464774926E+02  0.47787269647E+02  0.19999993628E+02 0.  0.
         12    1    3    3    0    0  0.39619447045E+02  0.11516190655E+02 -0.13464774926E+02  0.43400730353E+02  0.00000000000E+00 0. -1.
         11    1    4    4    0    0 -0.35208387227E+01  0.23527693113E+01  0.17561119379E+01  0.45842947269E+01  0.51100000000E-03 0. -1.
        -11    1    4    4    0    0 -0.28859045898E+02 -0.73138813349E+01  0.14402206839E+02  0.33072056973E+02  0.51100000000E-03 0.  1.
        -12    1    4    4    0    0 -0.72395624243E+01 -0.65550786315E+01 -0.26935438514E+01  0.10130917947E+02  0.00000000000E+00 0.  1.
</event>
<event>
 8    1  0.7355697E-010  0.9118800E+02  0.7816164E-02  0.1184000E+00
        -11   -1    0    0    0    0  0.00000000000E+00  0.00000000000E+00  0.45593999997E+02  0.45594000000E+02  0.51100000000E-03 0. -1.
         11   -1    0    0    0    0 -0.00000000000E+00 -0.00000000000E+00 -0.45593999997E+02  0.45594000000E+02  0.51100000000E-03 0.  1.
         23    2    1    2    0    0  0.17763568394E-14  0.00000000000E+00  0.00000000000E+00  0.91188000000E+02  0.91188000000E+02 0.  0.
    9900012    2    3    3    0    0 -0.12844630646E+02  0.60798102721E+01  0.41008224167E+02  0.47787273293E+02  0.20000010253E+02 0.  0.
        -12    1    3    3    0    0  0.12844630646E+02 -0.60798102721E+01 -0.41008224167E+02  0.43400726707E+02  0.00000000000E+00 0.  1.
         11    1    4    4    0    0 -0.10079645516E+02  0.17806822206E+01  0.30324437515E+02  0.32005336957E+02  0.51100000000E-03 0. -1.
        -11    1    4    4    0    0  0.28885491157E+01  0.36054306148E+01  0.12906449318E+01  0.47967291474E+01  0.51100000000E-03 0.  1.
        -12    1    4    4    0    0 -0.56535342459E+01  0.69369743668E+00  0.93931417201E+01  0.10985207189E+02  0.00000000000E+00 0.  1.
</event>
<event>
 8    1  0.6239251E-010  0.9118800E+02  0.7816164E-02  0.1184000E+00
        -11   -1    0    0    0    0  0.00000000000E+00  0.00000000000E+00  0.45593999997E+02  0.45594000000E+02  0.51100000000E-03 0. -1.
         11   -1    0    0    0    0 -0.00000000000E+00 -0.00000000000E+00 -0.45593999997E+02  0.45594000000E+02  0.51100000000E-03 0.  1.
         23    2    1    2    0    0  0.71054273576E-14 -0.35527136788E-14 -0.17763568394E-14  0.91188000000E+02  0.91188000000E+02 0.  0.
    9900012    2    3    3    0    0  0.37199563772E+02 -0.19905871225E+02 -0.10177030661E+02  0.47787271813E+02  0.20000003504E+02 0.  0.
         12    1    3    3    0    0 -0.37199563772E+02  0.19905871225E+02  0.10177030661E+02  0.43400728187E+02  0.00000000000E+00 0. -1.
         11    1    4    4    0    0  0.18692054000E+01  0.99717221515E+00 -0.13098012107E+01  0.24907550515E+01  0.51100000000E-03 0. -1.
        -11    1    4    4    0    0  0.36162770686E+01 -0.50125211192E+00  0.40342777276E+01  0.54409659584E+01  0.51100000000E-03 0.  1.
        -12    1    4    4    0    0  0.31714081304E+02 -0.20401791328E+02 -0.12901507178E+02  0.39855550803E+02  0.00000000000E+00 0.  1.
</event>
<event>
 8    1  0.6239251E-010  0.9118800E+02  0.7816164E-02  0.1184000E+00
        -11   -1    0    0    0    0  0.00000000000E+00  0.00000000000E+00  0.45593999997E+02  0.45594000000E+02  0.51100000000E-03 0.  1.
         11   -1    0    0    0    0 -0.00000000000E+00 -0.00000000000E+00 -0.45593999997E+02  0.45594000000E+02  0.51100000000E-03 0. -1.
         23    2    1    2    0    0 -0.17763568394E-14  0.00000000000E+00 -0.44408920985E-15  0.91188000000E+02  0.91188000000E+02 0.  0.
    9900012    2    3    3    0    0 -0.12566925781E+02 -0.41484128788E+02 -0.21822573604E+01  0.47787276365E+02  0.20000024259E+02 0.  0.
        -12    1    3    3    0    0  0.12566925781E+02  0.41484128788E+02  0.21822573604E+01  0.43400723635E+02  0.00000000000E+00 0.  1.
         11    1    4    4    0    0 -0.49673962658E+00  0.17964284704E+00 -0.13128289177E+01  0.14151119522E+01  0.51100000000E-03 0. -1.
        -11    1    4    4    0    0 -0.15995099007E+02 -0.34367733478E+02  0.82211677966E+00  0.37916489459E+02  0.51100000000E-03 0.  1.
        -12    1    4    4    0    0  0.39249128524E+01 -0.72960381570E+01 -0.16915452224E+01  0.84556749539E+01  0.00000000000E+00 0.  1.
</event>
<event>
 8    1  0.6239251E-010  0.9118800E+02  0.7816164E-02  0.1184000E+00
        -11   -1    0    0    0    0  0.00000000000E+00  0.00000000000E+00  0.45593999997E+02  0.45594000000E+02  0.51100000000E-03 0. -1.
         11   -1    0    0    0    0 -0.00000000000E+00 -0.00000000000E+00 -0.45593999997E+02  0.45594000000E+02  0.51100000000E-03 0.  1.
         23    2    1    2    0    0  0.00000000000E+00  0.00000000000E+00  0.17763568394E-14  0.91188000000E+02  0.91188000000E+02 0.  0.
    9900012    2    3    3    0    0  0.40216115636E+01 -0.40619966374E+02 -0.14746787102E+02  0.47787276992E+02  0.20000027115E+02 0.  0.
         12    1    3    3    0    0 -0.40216115636E+01  0.40619966374E+02  0.14746787102E+02  0.43400723008E+02  0.00000000000E+00 0. -1.
         11    1    4    4    0    0 -0.38139687172E+01 -0.56563342121E+01 -0.36166308728E+01  0.77214307758E+01  0.51100000000E-03 0. -1.
        -11    1    4    4    0    0  0.29553574797E+01 -0.19926450728E+02  0.95415517680E+00  0.20167002475E+02  0.51100000000E-03 0.  1.
        -12    1    4    4    0    0  0.48802228011E+01 -0.15037181434E+02 -0.12084311406E+02  0.19898843741E+02  0.00000000000E+00 0.  1.
</event>
<event>
 8    1  0.6239251E-010  0.9118800E+02  0.7816164E-02  0.1184000E+00
        -11   -1    0    0    0    0  0.00000000000E+00  0.00000000000E+00  0.45593999997E+02  0.45594000000E+02  0.51100000000E-03 0. -1.
         11   -1    0    0    0    0 -0.00000000000E+00 -0.00000000000E+00 -0.45593999997E+02  0.45594000000E+02  0.51100000000E-03 0.  1.
         23    2    1    2    0    0  0.00000000000E+00  0.66613381478E-15  0.00000000000E+00  0.91188000000E+02  0.91188000000E+02 0.  0.
    9900012    2    3    3    0    0 -0.16116682618E+02  0.16016339695E+01 -0.40265443158E+02  0.47787324859E+02  0.20000245359E+02 0.  0.
         12    1    3    3    0    0  0.16116682618E+02 -0.16016339695E+01  0.40265443158E+02  0.43400675141E+02  0.00000000000E+00 0. -1.
         11    1    4    4    0    0 -0.14473713237E+02 -0.51506555246E+01 -0.19514690186E+02  0.24836279120E+02  0.51100000000E-03 0. -1.
        -11    1    4    4    0    0  0.20949270707E+01  0.40240858082E+01 -0.14368024170E+02  0.15067252730E+02  0.51100000000E-03 0.  1.
         12    1    4    4    0    0 -0.37378964518E+01  0.27282036860E+01 -0.63827288027E+01  0.78837930088E+01  0.00000000000E+00 0. -1.
</event>
<event>
 8    1  0.7312230E-010  0.9118800E+02  0.7816164E-02  0.1184000E+00
        -11   -1    0    0    0    0  0.00000000000E+00  0.00000000000E+00  0.45593999997E+02  0.45594000000E+02  0.51100000000E-03 0. -1.
         11   -1    0    0    0    0 -0.00000000000E+00 -0.00000000000E+00 -0.45593999997E+02  0.45594000000E+02  0.51100000000E-03 0.  1.
         23    2    1    2    0    0  0.00000000000E+00  0.00000000000E+00  0.00000000000E+00  0.91188000000E+02  0.91188000000E+02 0.  0.
    9900012    2    3    3    0    0  0.37238756009E+02  0.11731642411E+02  0.18954371848E+02  0.47787255825E+02  0.19999930609E+02 0.  0.
        -12    1    3    3    0    0 -0.37238756009E+02 -0.11731642411E+02 -0.18954371848E+02  0.43400744175E+02  0.00000000000E+00 0.  1.
         11    1    4    4    0    0  0.65873708706E+01  0.18565754440E+01  0.49613546272E+01  0.84531276676E+01  0.51100000000E-03 0. -1.
        -11    1    4    4    0    0  0.23004053280E+02  0.78266512272E+01  0.18208986206E+02  0.30364619471E+02  0.51100000000E-03 0.  1.
        -12    1    4    4    0    0  0.76473318582E+01  0.20484157399E+01 -0.42159689845E+01  0.89695086862E+01  0.00000000000E+00 0.  1.
</event>
<event>
 8    1  0.6239251E-010  0.9118800E+02  0.7816164E-02  0.1184000E+00
        -11   -1    0    0    0    0  0.00000000000E+00  0.00000000000E+00  0.45593999997E+02  0.45594000000E+02  0.51100000000E-03 0. -1.
         11   -1    0    0    0    0 -0.00000000000E+00 -0.00000000000E+00 -0.45593999997E+02  0.45594000000E+02  0.51100000000E-03 0.  1.
         23    2    1    2    0    0  0.00000000000E+00  0.00000000000E+00 -0.71054273576E-14  0.91188000000E+02  0.91188000000E+02 0.  0.
    9900012    2    3    3    0    0 -0.19664711442E+02  0.19880313094E+02  0.33191802250E+02  0.47787268884E+02  0.19999990152E+02 0.  0.
        -12    1    3    3    0    0  0.19664711442E+02 -0.19880313094E+02 -0.33191802250E+02  0.43400731116E+02  0.00000000000E+00 0.  1.
         11    1    4    4    0    0 -0.62628074349E+01  0.14599990435E+02  0.76423368646E+01  0.17629174419E+02  0.51100000000E-03 0. -1.
        -11    1    4    4    0    0 -0.99228956547E-01 -0.25796842698E+00  0.52881962716E+01  0.52954144468E+01  0.51100000000E-03 0.  1.
         12    1    4    4    0    0 -0.13302675050E+02  0.55382910857E+01  0.20261269113E+02  0.24862680019E+02  0.00000000000E+00 0. -1.
</event>
<event>
 8    1  0.6239251E-010  0.9118800E+02  0.7816164E-02  0.1184000E+00
        -11   -1    0    0    0    0  0.00000000000E+00  0.00000000000E+00  0.45593999997E+02  0.45594000000E+02  0.51100000000E-03 0. -1.
         11   -1    0    0    0    0 -0.00000000000E+00 -0.00000000000E+00 -0.45593999997E+02  0.45594000000E+02  0.51100000000E-03 0.  1.
         23    2    1    2    0    0  0.00000000000E+00 -0.35527136788E-14  0.00000000000E+00  0.91188000000E+02  0.91188000000E+02 0.  0.
    9900012    2    3    3    0    0 -0.10668710878E+02  0.27325067118E+02  0.31986600388E+02  0.47787270868E+02  0.19999999197E+02 0.  0.
        -12    1    3    3    0    0  0.10668710878E+02 -0.27325067118E+02 -0.31986600388E+02  0.43400729132E+02  0.00000000000E+00 0.  1.
         11    1    4    4    0    0 -0.69997260834E+01  0.19365462341E+02  0.26990960700E+02  0.33948921289E+02  0.51100000000E-03 0. -1.
        -11    1    4    4    0    0 -0.37016341893E+01  0.98717372174E+01  0.27636794581E+01  0.10899138304E+02  0.51100000000E-03 0.  1.
         12    1    4    4    0    0  0.32649394262E-01 -0.19121324406E+01  0.22319602297E+01  0.29392112752E+01  0.00000000000E+00 0. -1.
</event>
<event>
 8    1  0.6239251E-010  0.9118800E+02  0.7816164E-02  0.1184000E+00
        -11   -1    0    0    0    0  0.00000000000E+00  0.00000000000E+00  0.45593999997E+02  0.45594000000E+02  0.51100000000E-03 0. -1.
         11   -1    0    0    0    0 -0.00000000000E+00 -0.00000000000E+00 -0.45593999997E+02  0.45594000000E+02  0.51100000000E-03 0.  1.
         23    2    1    2    0    0  0.00000000000E+00  0.00000000000E+00  0.00000000000E+00  0.91188000000E+02  0.91188000000E+02 0.  0.
    9900012    2    3    3    0    0 -0.14421700452E+02 -0.41704157671E+01  0.40721572723E+02  0.47787259262E+02  0.19999946277E+02 0.  0.
        -12    1    3    3    0    0  0.14421700452E+02  0.41704157671E+01 -0.40721572723E+02  0.43400740738E+02  0.00000000000E+00 0.  1.
         11    1    4    4    0    0 -0.13767505783E+02 -0.31116036754E+01  0.14089216665E+02  0.19943227407E+02  0.51100000000E-03 0. -1.
        -11    1    4    4    0    0  0.27009697135E+01 -0.24958961980E+01  0.19370237724E+02  0.19716258392E+02  0.51100000000E-03 0.  1.
        -12    1    4    4    0    0 -0.33551643822E+01  0.14370841064E+01  0.72621183338E+01  0.81277734624E+01  0.00000000000E+00 0.  1.
</event>
<event>
 8    1  0.6239251E-010  0.9118800E+02  0.7816164E-02  0.1184000E+00
        -11   -1    0    0    0    0  0.00000000000E+00  0.00000000000E+00  0.45593999997E+02  0.45594000000E+02  0.51100000000E-03 0. -1.
         11   -1    0    0    0    0 -0.00000000000E+00 -0.00000000000E+00 -0.45593999997E+02  0.45594000000E+02  0.51100000000E-03 0.  1.
         23    2    1    2    0    0  0.00000000000E+00  0.44408920985E-15  0.71054273576E-14  0.91188000000E+02  0.91188000000E+02 0.  0.
    9900012    2    3    3    0    0 -0.19173695414E+02 -0.34016532380E+01 -0.38786868480E+02  0.47787274118E+02  0.20000014015E+02 0.  0.
         12    1    3    3    0    0  0.19173695414E+02  0.34016532380E+01  0.38786868480E+02  0.43400725882E+02  0.00000000000E+00 0. -1.
         11    1    4    4    0    0 -0.47851135204E+01 -0.48525930373E-01  0.97491130608E+00  0.48836583096E+01  0.51100000000E-03 0. -1.
        -11    1    4    4    0    0 -0.13137341593E+02 -0.49695428244E+01 -0.35473969487E+02  0.38153487540E+02  0.51100000000E-03 0.  1.
         12    1    4    4    0    0 -0.12512402999E+01  0.16164155167E+01 -0.42878102988E+01  0.47501282687E+01  0.00000000000E+00 0. -1.
</event>
<event>
 8    1  0.6239251E-010  0.9118800E+02  0.7816164E-02  0.1184000E+00
        -11   -1    0    0    0    0  0.00000000000E+00  0.00000000000E+00  0.45593999997E+02  0.45594000000E+02  0.51100000000E-03 0. -1.
         11   -1    0    0    0    0 -0.00000000000E+00 -0.00000000000E+00 -0.45593999997E+02  0.45594000000E+02  0.51100000000E-03 0.  1.
         23    2    1    2    0    0  0.00000000000E+00 -0.35527136788E-14  0.71054273576E-14  0.91188000000E+02  0.91188000000E+02 0.  0.
    9900012    2    3    3    0    0  0.84286515636E+01  0.14298707497E+02 -0.40101470482E+02  0.47787272609E+02  0.20000007134E+02 0.  0.
         12    1    3    3    0    0 -0.84286515636E+01 -0.14298707497E+02  0.40101470482E+02  0.43400727391E+02  0.00000000000E+00 0. -1.
         11    1    4    4    0    0  0.56086993736E+01 -0.24102536629E+01 -0.50919218581E+01  0.79494968301E+01  0.51100000000E-03 0. -1.
        -11    1    4    4    0    0 -0.11852110412E+00  0.46346157014E+01 -0.19075961485E+02  0.19631251024E+02  0.51100000000E-03 0.  1.
        -12    1    4    4    0    0  0.29384732942E+01  0.12074345459E+02 -0.15933587139E+02  0.20206524755E+02  0.00000000000E+00 0.  1.
</event>
<event>
 8    1  0.6239251E-010  0.9118800E+02  0.7816164E-02  0.1184000E+00
        -11   -1    0    0    0    0  0.00000000000E+00  0.00000000000E+00  0.45593999997E+02  0.45594000000E+02  0.51100000000E-03 0. -1.
         11   -1    0    0    0    0 -0.00000000000E+00 -0.00000000000E+00 -0.45593999997E+02  0.45594000000E+02  0.51100000000E-03 0.  1.
         23    2    1    2    0    0  0.88817841970E-15  0.17763568394E-14  0.00000000000E+00  0.91188000000E+02  0.91188000000E+02 0.  0.
    9900012    2    3    3    0    0  0.79905352264E+01 -0.12560362504E+02 -0.40767780097E+02  0.47787271280E+02  0.20000001074E+02 0.  0.
         12    1    3    3    0    0 -0.79905352264E+01  0.12560362504E+02  0.40767780097E+02  0.43400728720E+02  0.00000000000E+00 0. -1.
         11    1    4    4    0    0  0.71069508442E+00  0.36051726791E+00 -0.71965481119E+00  0.10737613850E+01  0.51100000000E-03 0. -1.
        -11    1    4    4    0    0  0.71598770721E+01  0.14458886170E+01 -0.50471649810E+01  0.88785307448E+01  0.51100000000E-03 0.  1.
        -12    1    4    4    0    0  0.11996306986E+00 -0.14366768389E+02 -0.35000960304E+02  0.37834979150E+02  0.00000000000E+00 0.  1.
</event>
<event>
 8    1  0.6239251E-010  0.9118800E+02  0.7816164E-02  0.1184000E+00
        -11   -1    0    0    0    0  0.00000000000E+00  0.00000000000E+00  0.45593999997E+02  0.45594000000E+02  0.51100000000E-03 0. -1.
         11   -1    0    0    0    0 -0.00000000000E+00 -0.00000000000E+00 -0.45593999997E+02  0.45594000000E+02  0.51100000000E-03 0.  1.
         23    2    1    2    0    0 -0.88817841970E-15  0.00000000000E+00 -0.17763568394E-14  0.91188000000E+02  0.91188000000E+02 0.  0.
    9900012    2    3    3    0    0  0.63615343757E+01 -0.42204036818E+02 -0.78723112448E+01  0.47787272729E+02  0.20000007680E+02 0.  0.
         12    1    3    3    0    0 -0.63615343757E+01  0.42204036818E+02  0.78723112448E+01  0.43400727271E+02  0.00000000000E+00 0. -1.
         11    1    4    4    0    0  0.90886147896E+01 -0.11314301712E+02  0.30559377614E+01  0.14830883247E+02  0.51100000000E-03 0. -1.
        -11    1    4    4    0    0 -0.12288136105E+01 -0.24204783130E+02 -0.87639673276E+01  0.25771857380E+02  0.51100000000E-03 0.  1.
         12    1    4    4    0    0 -0.14982668034E+01 -0.66849519760E+01 -0.21642816786E+01  0.71845321017E+01  0.00000000000E+00 0. -1.
</event>
<event>
 8    1  0.6995850E-010  0.9118800E+02  0.7816164E-02  0.1184000E+00
        -11   -1    0    0    0    0  0.00000000000E+00  0.00000000000E+00  0.45593999997E+02  0.45594000000E+02  0.51100000000E-03 0. -1.
         11   -1    0    0    0    0 -0.00000000000E+00 -0.00000000000E+00 -0.45593999997E+02  0.45594000000E+02  0.51100000000E-03 0.  1.
         23    2    1    2    0    0 -0.35527136788E-14  0.00000000000E+00  0.35527136788E-14  0.91188000000E+02  0.91188000000E+02 0.  0.
    9900012    2    3    3    0    0 -0.28343807062E+02  0.16067906013E+02  0.28671837739E+02  0.47787270954E+02  0.19999999586E+02 0.  0.
        -12    1    3    3    0    0  0.28343807062E+02 -0.16067906013E+02 -0.28671837739E+02  0.43400729046E+02  0.00000000000E+00 0.  1.
         11    1    4    4    0    0 -0.13259559485E+02  0.82686828114E+01  0.18171930094E+02  0.23966770261E+02  0.51100000000E-03 0. -1.
        -11    1    4    4    0    0 -0.21435357360E+01 -0.24131081422E+01 -0.13703748351E+01  0.35065315923E+01  0.51100000000E-03 0.  1.
        -12    1    4    4    0    0 -0.12940711841E+02  0.10212331344E+02  0.11870282480E+02  0.20313969100E+02  0.00000000000E+00 0.  1.
</event>
<event>
 8    1  0.6239251E-010  0.9118800E+02  0.7816164E-02  0.1184000E+00
        -11   -1    0    0    0    0  0.00000000000E+00  0.00000000000E+00  0.45593999997E+02  0.45594000000E+02  0.51100000000E-03 0. -1.
         11   -1    0    0    0    0 -0.00000000000E+00 -0.00000000000E+00 -0.45593999997E+02  0.45594000000E+02  0.51100000000E-03 0.  1.
         23    2    1    2    0    0  0.71054273576E-14 -0.17763568394E-14  0.00000000000E+00  0.91188000000E+02  0.91188000000E+02 0.  0.
    9900012    2    3    3    0    0 -0.34834636049E+02  0.13763670334E+02 -0.21925570179E+02  0.47787295888E+02  0.20000113270E+02 0.  0.
         12    1    3    3    0    0  0.34834636049E+02 -0.13763670334E+02  0.21925570179E+02  0.43400704112E+02  0.00000000000E+00 0. -1.
         11    1    4    4    0    0 -0.50241847354E+01  0.85754228249E+01 -0.98583795420E+01  0.13998855537E+02  0.51100000000E-03 0. -1.
        -11    1    4    4    0    0 -0.47113193487E+01 -0.24680014079E+01 -0.19540899196E+01  0.56662181947E+01  0.51100000000E-03 0.  1.
         12    1    4    4    0    0 -0.25099131965E+02  0.76562489170E+01 -0.10113100717E+02  0.28122222156E+02  0.00000000000E+00 0. -1.
</event>
<event>
 8    1  0.6239251E-010  0.9118800E+02  0.7816164E-02  0.1184000E+00
        -11   -1    0    0    0    0  0.00000000000E+00  0.00000000000E+00  0.45593999997E+02  0.45594000000E+02  0.51100000000E-03 0. -1.
         11   -1    0    0    0    0 -0.00000000000E+00 -0.00000000000E+00 -0.45593999997E+02  0.45594000000E+02  0.51100000000E-03 0.  1.
         23    2    1    2    0    0 -0.35527136788E-14  0.00000000000E+00  0.00000000000E+00  0.91188000000E+02  0.91188000000E+02 0.  0.
    9900012    2    3    3    0    0  0.17718159094E+02  0.20748720498E+02  0.33751752125E+02  0.47787270334E+02  0.19999996762E+02 0.  0.
        -12    1    3    3    0    0 -0.17718159094E+02 -0.20748720498E+02 -0.33751752125E+02  0.43400729666E+02  0.00000000000E+00 0.  1.
         11    1    4    4    0    0  0.10714008984E+02  0.68437358279E+01  0.25274809411E+02  0.28292096062E+02  0.51100000000E-03 0. -1.
        -11    1    4    4    0    0  0.31266029567E+01  0.51246265017E+01 -0.90758234461E+00  0.60713383042E+01  0.51100000000E-03 0.  1.
        -12    1    4    4    0    0  0.38775471540E+01  0.87803581688E+01  0.93845250587E+01  0.13423835968E+02  0.00000000000E+00 0.  1.
</event>
<event>
 8    1  0.6239251E-010  0.9118800E+02  0.7816164E-02  0.1184000E+00
        -11   -1    0    0    0    0  0.00000000000E+00  0.00000000000E+00  0.45593999997E+02  0.45594000000E+02  0.51100000000E-03 0. -1.
         11   -1    0    0    0    0 -0.00000000000E+00 -0.00000000000E+00 -0.45593999997E+02  0.45594000000E+02  0.51100000000E-03 0.  1.
         23    2    1    2    0    0 -0.17763568394E-14  0.00000000000E+00  0.00000000000E+00  0.91188000000E+02  0.91188000000E+02 0.  0.
    9900012    2    3    3    0    0 -0.10087142634E+02  0.12502981360E+02 -0.40318090641E+02  0.47787269334E+02  0.19999992202E+02 0.  0.
         12    1    3    3    0    0  0.10087142634E+02 -0.12502981360E+02  0.40318090641E+02  0.43400730666E+02  0.00000000000E+00 0. -1.
         11    1    4    4    0    0 -0.38225246727E+01 -0.40739422256E+01 -0.18724365215E+02  0.19539973211E+02  0.51100000000E-03 0. -1.
        -11    1    4    4    0    0 -0.64264818268E+01  0.12762276929E+02 -0.18199305404E+02  0.23138498191E+02  0.51100000000E-03 0.  1.
        -12    1    4    4    0    0  0.16186386587E+00  0.38146466562E+01 -0.33944200217E+01  0.51087979316E+01  0.00000000000E+00 0.  1.
</event>
<event>
 8    1  0.6239251E-010  0.9118800E+02  0.7816164E-02  0.1184000E+00
        -11   -1    0    0    0    0  0.00000000000E+00  0.00000000000E+00  0.45593999997E+02  0.45594000000E+02  0.51100000000E-03 0. -1.
         11   -1    0    0    0    0 -0.00000000000E+00 -0.00000000000E+00 -0.45593999997E+02  0.45594000000E+02  0.51100000000E-03 0.  1.
         23    2    1    2    0    0  0.00000000000E+00 -0.17763568394E-14  0.00000000000E+00  0.91188000000E+02  0.91188000000E+02 0.  0.
    9900012    2    3    3    0    0 -0.41811936385E+02  0.91562504656E+01  0.71797028679E+01  0.47787273276E+02  0.20000010176E+02 0.  0.
         12    1    3    3    0    0  0.41811936385E+02 -0.91562504656E+01 -0.71797028679E+01  0.43400726724E+02  0.00000000000E+00 0. -1.
         11    1    4    4    0    0 -0.59077840126E+00  0.17300243880E+01  0.15003967091E+01  0.23649934562E+01  0.51100000000E-03 0. -1.
        -11    1    4    4    0    0 -0.78210506897E+01 -0.20186079182E-01  0.79174807150E+01  0.11129049488E+02  0.51100000000E-03 0.  1.
        -12    1    4    4    0    0 -0.33400107294E+02  0.74464121568E+01 -0.22381745561E+01  0.34293230332E+02  0.00000000000E+00 0.  1.
</event>
<event>
 8    1  0.6239251E-010  0.9118800E+02  0.7816164E-02  0.1184000E+00
        -11   -1    0    0    0    0  0.00000000000E+00  0.00000000000E+00  0.45593999997E+02  0.45594000000E+02  0.51100000000E-03 0. -1.
         11   -1    0    0    0    0 -0.00000000000E+00 -0.00000000000E+00 -0.45593999997E+02  0.45594000000E+02  0.51100000000E-03 0.  1.
         23    2    1    2    0    0  0.00000000000E+00 -0.35527136788E-14  0.00000000000E+00  0.91188000000E+02  0.91188000000E+02 0.  0.
    9900012    2    3    3    0    0  0.10141390488E+02 -0.22575587526E+02 -0.35652744278E+02  0.47787272729E+02  0.20000007679E+02 0.  0.
         12    1    3    3    0    0 -0.10141390488E+02  0.22575587526E+02  0.35652744278E+02  0.43400727271E+02  0.00000000000E+00 0. -1.
         11    1    4    4    0    0  0.25756282259E+01 -0.15325391470E+02 -0.17856002980E+02  0.23671466518E+02  0.51100000000E-03 0. -1.
        -11    1    4    4    0    0  0.15424394498E+01  0.15705417972E+01 -0.11516920421E+02  0.11725407338E+02  0.51100000000E-03 0.  1.
        -12    1    4    4    0    0  0.60233228121E+01 -0.88207378527E+01 -0.62798208771E+01  0.12390398872E+02  0.00000000000E+00 0.  1.
</event>
<event>
 8    1  0.6239251E-010  0.9118800E+02  0.7816164E-02  0.1184000E+00
        -11   -1    0    0    0    0  0.00000000000E+00  0.00000000000E+00  0.45593999997E+02  0.45594000000E+02  0.51100000000E-03 0. -1.
         11   -1    0    0    0    0 -0.00000000000E+00 -0.00000000000E+00 -0.45593999997E+02  0.45594000000E+02  0.51100000000E-03 0.  1.
         23    2    1    2    0    0 -0.66613381478E-15  0.71054273576E-14  0.00000000000E+00  0.91188000000E+02  0.91188000000E+02 0.  0.
    9900012    2    3    3    0    0  0.89886076165E+00  0.37965552615E+02 -0.21010286775E+02  0.47787270900E+02  0.19999999343E+02 0.  0.
         12    1    3    3    0    0 -0.89886076165E+00 -0.37965552615E+02  0.21010286775E+02  0.43400729100E+02  0.00000000000E+00 0. -1.
         11    1    4    4    0    0 -0.49396313171E+00 -0.59031555397E+00 -0.18068849653E+01  0.19640024357E+01  0.51100000000E-03 0. -1.
        -11    1    4    4    0    0  0.58179717011E+01  0.70671935506E+01 -0.78507443957E+01  0.12059361808E+02  0.51100000000E-03 0.  1.
        -12    1    4    4    0    0 -0.44251478078E+01  0.31488674618E+02 -0.11352657414E+02  0.33763906656E+02  0.00000000000E+00 0.  1.
</event>
<event>
 8    1  0.6239251E-010  0.9118800E+02  0.7816164E-02  0.1184000E+00
        -11   -1    0    0    0    0  0.00000000000E+00  0.00000000000E+00  0.45593999997E+02  0.45594000000E+02  0.51100000000E-03 0. -1.
         11   -1    0    0    0    0 -0.00000000000E+00 -0.00000000000E+00 -0.45593999997E+02  0.45594000000E+02  0.51100000000E-03 0.  1.
         23    2    1    2    0    0 -0.17763568394E-14  0.00000000000E+00  0.00000000000E+00  0.91188000000E+02  0.91188000000E+02 0.  0.
    9900012    2    3    3    0    0  0.54748517453E+01  0.12657580492E+02 -0.41151369607E+02  0.47787267678E+02  0.19999984653E+02 0.  0.
         12    1    3    3    0    0 -0.54748517453E+01 -0.12657580492E+02  0.41151369607E+02  0.43400732322E+02  0.00000000000E+00 0. -1.
         11    1    4    4    0    0 -0.37925173666E+01  0.90335747081E+01 -0.10007394801E+02  0.14004878112E+02  0.51100000000E-03 0. -1.
        -11    1    4    4    0    0  0.43444831575E+01 -0.13442941793E+01 -0.20829410573E+02  0.21320084564E+02  0.51100000000E-03 0.  1.
         12    1    4    4    0    0  0.49228859543E+01  0.49682999631E+01 -0.10314564233E+02  0.12462305002E+02  0.00000000000E+00 0. -1.
</event>
<event>
 8    1  0.6239251E-010  0.9118800E+02  0.7816164E-02  0.1184000E+00
        -11   -1    0    0    0    0  0.00000000000E+00  0.00000000000E+00  0.45593999997E+02  0.45594000000E+02  0.51100000000E-03 0. -1.
         11   -1    0    0    0    0 -0.00000000000E+00 -0.00000000000E+00 -0.45593999997E+02  0.45594000000E+02  0.51100000000E-03 0.  1.
         23    2    1    2    0    0 -0.44408920985E-15  0.00000000000E+00  0.00000000000E+00  0.91188000000E+02  0.91188000000E+02 0.  0.
    9900012    2    3    3    0    0 -0.14974721540E+01  0.29568319995E+02 -0.31734770780E+02  0.47787266750E+02  0.19999980421E+02 0.  0.
         12    1    3    3    0    0  0.14974721540E+01 -0.29568319995E+02  0.31734770780E+02  0.43400733250E+02  0.00000000000E+00 0. -1.
         11    1    4    4    0    0 -0.31854377814E+01  0.84023594847E+01 -0.38458232550E+00  0.89941404589E+01  0.51100000000E-03 0. -1.
        -11    1    4    4    0    0  0.70752087720E+00  0.21596107247E+02 -0.28622153956E+02  0.35862517080E+02  0.51100000000E-03 0.  1.
        -12    1    4    4    0    0  0.98044475019E+00 -0.43014673640E+00 -0.27280344985E+01  0.29306092111E+01  0.00000000000E+00 0.  1.
</event>
<event>
 8    1  0.6239251E-010  0.9118800E+02  0.7816164E-02  0.1184000E+00
        -11   -1    0    0    0    0  0.00000000000E+00  0.00000000000E+00  0.45593999997E+02  0.45594000000E+02  0.51100000000E-03 0. -1.
         11   -1    0    0    0    0 -0.00000000000E+00 -0.00000000000E+00 -0.45593999997E+02  0.45594000000E+02  0.51100000000E-03 0.  1.
         23    2    1    2    0    0  0.00000000000E+00  0.00000000000E+00  0.44408920985E-15  0.91188000000E+02  0.91188000000E+02 0.  0.
    9900012    2    3    3    0    0  0.42678779853E+02 -0.72700189447E+01 -0.30482744349E+01  0.47787269566E+02  0.19999993259E+02 0.  0.
        -12    1    3    3    0    0 -0.42678779853E+02  0.72700189447E+01  0.30482744349E+01  0.43400730434E+02  0.00000000000E+00 0.  1.
         11    1    4    4    0    0  0.34101432726E+02 -0.28500170556E+01 -0.73373315309E+01  0.34998096312E+02  0.51100000000E-03 0. -1.
        -11    1    4    4    0    0  0.45147866984E+01 -0.61319186712E+01  0.31132437613E+01  0.82265431684E+01  0.51100000000E-03 0.  1.
        -12    1    4    4    0    0  0.40625604283E+01  0.17119167821E+01  0.11758133346E+01  0.45626300859E+01  0.00000000000E+00 0.  1.
</event>
<event>
 8    1  0.6239251E-010  0.9118800E+02  0.7816164E-02  0.1184000E+00
        -11   -1    0    0    0    0  0.00000000000E+00  0.00000000000E+00  0.45593999997E+02  0.45594000000E+02  0.51100000000E-03 0. -1.
         11   -1    0    0    0    0 -0.00000000000E+00 -0.00000000000E+00 -0.45593999997E+02  0.45594000000E+02  0.51100000000E-03 0.  1.
         23    2    1    2    0    0  0.00000000000E+00 -0.17763568394E-14  0.00000000000E+00  0.91188000000E+02  0.91188000000E+02 0.  0.
    9900012    2    3    3    0    0  0.55358961245E+01  0.13350801686E+02 -0.40923503926E+02  0.47787271606E+02  0.20000002560E+02 0.  0.
         12    1    3    3    0    0 -0.55358961245E+01 -0.13350801686E+02  0.40923503926E+02  0.43400728394E+02  0.00000000000E+00 0. -1.
         11    1    4    4    0    0 -0.29633551790E+01  0.35398637926E+01 -0.25986896184E+02  0.26393765990E+02  0.51100000000E-03 0. -1.
        -11    1    4    4    0    0  0.67010880412E+01  0.35428841100E+01 -0.37782431949E+01  0.84694586990E+01  0.51100000000E-03 0.  1.
         12    1    4    4    0    0  0.17981632623E+01  0.62680537829E+01 -0.11158364547E+02  0.12924046917E+02  0.00000000000E+00 0. -1.
</event>
<event>
 8    1  0.6239251E-010  0.9118800E+02  0.7816164E-02  0.1184000E+00
        -11   -1    0    0    0    0  0.00000000000E+00  0.00000000000E+00  0.45593999997E+02  0.45594000000E+02  0.51100000000E-03 0. -1.
         11   -1    0    0    0    0 -0.00000000000E+00 -0.00000000000E+00 -0.45593999997E+02  0.45594000000E+02  0.51100000000E-03 0.  1.
         23    2    1    2    0    0  0.00000000000E+00  0.00000000000E+00  0.00000000000E+00  0.91188000000E+02  0.91188000000E+02 0.  0.
    9900012    2    3    3    0    0  0.22367295226E+01 -0.23833984064E+02 -0.36201681831E+02  0.47787268178E+02  0.19999986930E+02 0.  0.
         12    1    3    3    0    0 -0.22367295226E+01  0.23833984064E+02  0.36201681831E+02  0.43400731822E+02  0.00000000000E+00 0. -1.
         11    1    4    4    0    0 -0.62051906378E+00 -0.16568136260E+02 -0.14320123665E+02  0.21907855328E+02  0.51100000000E-03 0. -1.
        -11    1    4    4    0    0  0.28970752298E+01 -0.79777536415E+01 -0.23020718909E+02  0.24535506871E+02  0.51100000000E-03 0.  1.
        -12    1    4    4    0    0 -0.39826643419E-01  0.71190583736E+00  0.11391607429E+01  0.13439059792E+01  0.00000000000E+00 0.  1.
</event>
<event>
 8    1  0.6239251E-010  0.9118800E+02  0.7816164E-02  0.1184000E+00
        -11   -1    0    0    0    0  0.00000000000E+00  0.00000000000E+00  0.45593999997E+02  0.45594000000E+02  0.51100000000E-03 0. -1.
         11   -1    0    0    0    0 -0.00000000000E+00 -0.00000000000E+00 -0.45593999997E+02  0.45594000000E+02  0.51100000000E-03 0.  1.
         23    2    1    2    0    0  0.44408920985E-15  0.00000000000E+00  0.00000000000E+00  0.91188000000E+02  0.91188000000E+02 0.  0.
    9900012    2    3    3    0    0 -0.24283349503E+01 -0.29548601343E+02  0.31695508123E+02  0.47787287021E+02  0.20000072841E+02 0.  0.
        -12    1    3    3    0    0  0.24283349503E+01  0.29548601343E+02 -0.31695508123E+02  0.43400712979E+02  0.00000000000E+00 0.  1.
         11    1    4    4    0    0  0.59261629435E+00 -0.35026770782E+01  0.12757705119E+02  0.13243072942E+02  0.51100000000E-03 0. -1.
        -11    1    4    4    0    0 -0.40114937594E+01 -0.16619432181E+02  0.52303877693E+01  0.17878886002E+02  0.51100000000E-03 0.  1.
        -12    1    4    4    0    0  0.99054251483E+00 -0.94264920839E+01  0.13707415235E+02  0.16665328077E+02  0.00000000000E+00 0.  1.
</event>
<event>
 8    1  0.6239251E-010  0.9118800E+02  0.7816164E-02  0.1184000E+00
        -11   -1    0    0    0    0  0.00000000000E+00  0.00000000000E+00  0.45593999997E+02  0.45594000000E+02  0.51100000000E-03 0. -1.
         11   -1    0    0    0    0 -0.00000000000E+00 -0.00000000000E+00 -0.45593999997E+02  0.45594000000E+02  0.51100000000E-03 0.  1.
         23    2    1    2    0    0 -0.88817841970E-15  0.00000000000E+00  0.00000000000E+00  0.91188000000E+02  0.91188000000E+02 0.  0.
    9900012    2    3    3    0    0  0.77654316353E+01  0.23783840227E+02 -0.35463380810E+02  0.47787258498E+02  0.19999942796E+02 0.  0.
         12    1    3    3    0    0 -0.77654316353E+01 -0.23783840227E+02  0.35463380810E+02  0.43400741502E+02  0.00000000000E+00 0. -1.
         11    1    4    4    0    0 -0.15251673026E+01  0.53828632673E+01 -0.22366859266E+01  0.60252897400E+01  0.51100000000E-03 0. -1.
        -11    1    4    4    0    0  0.10560264043E+02  0.16912577252E+02 -0.34191628380E+02  0.39580574750E+02  0.51100000000E-03 0.  1.
        -12    1    4    4    0    0 -0.12696651047E+01  0.14883997072E+01  0.96493349661E+00  0.21813940083E+01  0.00000000000E+00 0.  1.
</event>
<event>
 8    1  0.6239251E-010  0.9118800E+02  0.7816164E-02  0.1184000E+00
        -11   -1    0    0    0    0  0.00000000000E+00  0.00000000000E+00  0.45593999997E+02  0.45594000000E+02  0.51100000000E-03 0. -1.
         11   -1    0    0    0    0 -0.00000000000E+00 -0.00000000000E+00 -0.45593999997E+02  0.45594000000E+02  0.51100000000E-03 0.  1.
         23    2    1    2    0    0  0.17763568394E-14  0.00000000000E+00 -0.71054273576E-14  0.91188000000E+02  0.91188000000E+02 0.  0.
    9900012    2    3    3    0    0  0.13373423155E+02 -0.11855679240E+02 -0.39550192301E+02  0.47787270879E+02  0.19999999247E+02 0.  0.
         12    1    3    3    0    0 -0.13373423155E+02  0.11855679240E+02  0.39550192301E+02  0.43400729121E+02  0.00000000000E+00 0. -1.
         11    1    4    4    0    0  0.11410274535E+02  0.75936398750E-01 -0.21959508131E+02  0.24747123650E+02  0.51100000000E-03 0. -1.
        -11    1    4    4    0    0  0.65290588502E+00 -0.23563556640E+01 -0.11176479550E+02  0.11440821365E+02  0.51100000000E-03 0.  1.
         12    1    4    4    0    0  0.13102427347E+01 -0.95752599748E+01 -0.64142046201E+01  0.11599325865E+02  0.00000000000E+00 0. -1.
</event>
<event>
 8    1  0.6239251E-010  0.9118800E+02  0.7816164E-02  0.1184000E+00
        -11   -1    0    0    0    0  0.00000000000E+00  0.00000000000E+00  0.45593999997E+02  0.45594000000E+02  0.51100000000E-03 0.  1.
         11   -1    0    0    0    0 -0.00000000000E+00 -0.00000000000E+00 -0.45593999997E+02  0.45594000000E+02  0.51100000000E-03 0. -1.
         23    2    1    2    0    0 -0.88817841970E-15  0.00000000000E+00  0.00000000000E+00  0.91188000000E+02  0.91188000000E+02 0.  0.
    9900012    2    3    3    0    0  0.62216602249E+01  0.41553839013E+02  0.10871678398E+02  0.47787262865E+02  0.19999962705E+02 0.  0.
        -12    1    3    3    0    0 -0.62216602249E+01 -0.41553839013E+02 -0.10871678398E+02  0.43400737135E+02  0.00000000000E+00 0.  1.
         11    1    4    4    0    0 -0.47769407197E+01  0.57664939242E+01  0.94288221050E+00  0.75472274340E+01  0.51100000000E-03 0. -1.
        -11    1    4    4    0    0  0.95149143886E+01  0.14061052699E+02  0.21400350738E+01  0.17112175467E+02  0.51100000000E-03 0.  1.
         12    1    4    4    0    0  0.14836865561E+01  0.21726292390E+02  0.77887611139E+01  0.23127859964E+02  0.00000000000E+00 0. -1.
</event>
<event>
 8    1  0.6239251E-010  0.9118800E+02  0.7816164E-02  0.1184000E+00
        -11   -1    0    0    0    0  0.00000000000E+00  0.00000000000E+00  0.45593999997E+02  0.45594000000E+02  0.51100000000E-03 0. -1.
         11   -1    0    0    0    0 -0.00000000000E+00 -0.00000000000E+00 -0.45593999997E+02  0.45594000000E+02  0.51100000000E-03 0.  1.
         23    2    1    2    0    0 -0.17763568394E-14  0.00000000000E+00  0.35527136788E-14  0.91188000000E+02  0.91188000000E+02 0.  0.
    9900012    2    3    3    0    0 -0.10801737213E+02  0.29793023065E+02  0.29653342614E+02  0.47787280210E+02  0.20000041788E+02 0.  0.
        -12    1    3    3    0    0  0.10801737213E+02 -0.29793023065E+02 -0.29653342614E+02  0.43400719790E+02  0.00000000000E+00 0.  1.
         11    1    4    4    0    0 -0.90000900180E+01  0.70498614377E+01  0.12412502096E+02  0.16875200004E+02  0.51100000000E-03 0. -1.
        -11    1    4    4    0    0 -0.24628110817E+01  0.15973992761E+02  0.50170076577E+01  0.16923482184E+02  0.51100000000E-03 0.  1.
        -12    1    4    4    0    0  0.66116388707E+00  0.67691688666E+01  0.12223832860E+02  0.13988598022E+02  0.00000000000E+00 0.  1.
</event>
<event>
 8    1  0.6239251E-010  0.9118800E+02  0.7816164E-02  0.1184000E+00
        -11   -1    0    0    0    0  0.00000000000E+00  0.00000000000E+00  0.45593999997E+02  0.45594000000E+02  0.51100000000E-03 0. -1.
         11   -1    0    0    0    0 -0.00000000000E+00 -0.00000000000E+00 -0.45593999997E+02  0.45594000000E+02  0.51100000000E-03 0.  1.
         23    2    1    2    0    0 -0.35527136788E-14  0.35527136788E-14  0.00000000000E+00  0.91188000000E+02  0.91188000000E+02 0.  0.
    9900012    2    3    3    0    0 -0.29211859857E+02 -0.30686388462E+02 -0.94146487185E+01  0.47787276462E+02  0.20000024701E+02 0.  0.
         12    1    3    3    0    0  0.29211859857E+02  0.30686388462E+02  0.94146487185E+01  0.43400723538E+02  0.00000000000E+00 0. -1.
         11    1    4    4    0    0 -0.29432740076E+01  0.72158547820E+00  0.10930218689E+01  0.32215282947E+01  0.51100000000E-03 0. -1.
        -11    1    4    4    0    0 -0.19987873934E+02 -0.26797088505E+02 -0.13722159226E+02  0.36137192902E+02  0.51100000000E-03 0.  1.
        -12    1    4    4    0    0 -0.62807119150E+01 -0.46108854351E+01  0.32144886387E+01  0.84285552654E+01  0.00000000000E+00 0.  1.
</event>
<event>
 8    1  0.6239251E-010  0.9118800E+02  0.7816164E-02  0.1184000E+00
        -11   -1    0    0    0    0  0.00000000000E+00  0.00000000000E+00  0.45593999997E+02  0.45594000000E+02  0.51100000000E-03 0.  1.
         11   -1    0    0    0    0 -0.00000000000E+00 -0.00000000000E+00 -0.45593999997E+02  0.45594000000E+02  0.51100000000E-03 0. -1.
         23    2    1    2    0    0  0.00000000000E+00  0.00000000000E+00  0.00000000000E+00  0.91188000000E+02  0.91188000000E+02 0.  0.
    9900012    2    3    3    0    0  0.12499657478E+02 -0.41119081121E+02  0.60500411080E+01  0.47787271127E+02  0.20000000375E+02 0.  0.
         12    1    3    3    0    0 -0.12499657478E+02  0.41119081121E+02 -0.60500411080E+01  0.43400728873E+02  0.00000000000E+00 0. -1.
         11    1    4    4    0    0  0.95265185335E+01 -0.22150776854E+02  0.55350696531E+00  0.24118827518E+02  0.51100000000E-03 0. -1.
        -11    1    4    4    0    0 -0.53838752355E+00 -0.49299985878E+01  0.75699788891E+01  0.90498247411E+01  0.51100000000E-03 0.  1.
        -12    1    4    4    0    0  0.35115264678E+01 -0.14038305680E+02 -0.20734447464E+01  0.14618618868E+02  0.00000000000E+00 0.  1.
</event>
<event>
 8    1  0.6239251E-010  0.9118800E+02  0.7816164E-02  0.1184000E+00
        -11   -1    0    0    0    0  0.00000000000E+00  0.00000000000E+00  0.45593999997E+02  0.45594000000E+02  0.51100000000E-03 0. -1.
         11   -1    0    0    0    0 -0.00000000000E+00 -0.00000000000E+00 -0.45593999997E+02  0.45594000000E+02  0.51100000000E-03 0.  1.
         23    2    1    2    0    0 -0.35527136788E-14 -0.35527136788E-14  0.00000000000E+00  0.91188000000E+02  0.91188000000E+02 0.  0.
    9900012    2    3    3    0    0  0.11020717629E+02  0.25730656710E+02  0.33167780463E+02  0.47787256082E+02  0.19999931780E+02 0.  0.
        -12    1    3    3    0    0 -0.11020717629E+02 -0.25730656710E+02 -0.33167780463E+02  0.43400743918E+02  0.00000000000E+00 0.  1.
         11    1    4    4    0    0  0.48604818179E+00  0.79254226946E+01  0.50780716158E+01  0.94252522151E+01  0.51100000000E-03 0. -1.
        -11    1    4    4    0    0 -0.17914165191E+01  0.91186693880E+00 -0.12240237746E+01  0.23534886702E+01  0.51100000000E-03 0.  1.
        -12    1    4    4    0    0  0.12326085966E+02  0.16893367077E+02  0.29313732622E+02  0.36008515197E+02  0.00000000000E+00 0.  1.
</event>
<event>
 8    1  0.6239251E-010  0.9118800E+02  0.7816164E-02  0.1184000E+00
        -11   -1    0    0    0    0  0.00000000000E+00  0.00000000000E+00  0.45593999997E+02  0.45594000000E+02  0.51100000000E-03 0.  1.
         11   -1    0    0    0    0 -0.00000000000E+00 -0.00000000000E+00 -0.45593999997E+02  0.45594000000E+02  0.51100000000E-03 0. -1.
         23    2    1    2    0    0  0.35527136788E-14 -0.35527136788E-14  0.00000000000E+00  0.91188000000E+02  0.91188000000E+02 0.  0.
    9900012    2    3    3    0    0 -0.31322152251E+02  0.29298461233E+02  0.66442481200E+01  0.47787273216E+02  0.20000009901E+02 0.  0.
        -12    1    3    3    0    0  0.31322152251E+02 -0.29298461233E+02 -0.66442481200E+01  0.43400726784E+02  0.00000000000E+00 0.  1.
         11    1    4    4    0    0 -0.10704620485E+02  0.14138364839E+02  0.11757445824E+01  0.17772581006E+02  0.51100000000E-03 0. -1.
        -11    1    4    4    0    0 -0.16693663394E+02  0.34658105210E+01  0.17927702485E+01  0.17143636297E+02  0.51100000000E-03 0.  1.
        -12    1    4    4    0    0 -0.39238683732E+01  0.11694285874E+02  0.36757332890E+01  0.12871055913E+02  0.00000000000E+00 0.  1.
</event>
<event>
 8    1  0.6239251E-010  0.9118800E+02  0.7816164E-02  0.1184000E+00
        -11   -1    0    0    0    0  0.00000000000E+00  0.00000000000E+00  0.45593999997E+02  0.45594000000E+02  0.51100000000E-03 0. -1.
         11   -1    0    0    0    0 -0.00000000000E+00 -0.00000000000E+00 -0.45593999997E+02  0.45594000000E+02  0.51100000000E-03 0.  1.
         23    2    1    2    0    0  0.44408920985E-15  0.00000000000E+00  0.71054273576E-14  0.91188000000E+02  0.91188000000E+02 0.  0.
    9900012    2    3    3    0    0 -0.18780663947E+01 -0.12244140381E+02  0.41595398583E+02  0.47787270855E+02  0.19999999137E+02 0.  0.
        -12    1    3    3    0    0  0.18780663947E+01  0.12244140381E+02 -0.41595398583E+02  0.43400729145E+02  0.00000000000E+00 0.  1.
         11    1    4    4    0    0  0.31241420461E+01 -0.18624730588E+00  0.11302030988E+02  0.11727355043E+02  0.51100000000E-03 0. -1.
        -11    1    4    4    0    0 -0.59538240030E+01  0.61745418193E+00  0.51924475385E+01  0.79240634543E+01  0.51100000000E-03 0.  1.
        -12    1    4    4    0    0  0.95161556228E+00 -0.12675347257E+02  0.25100920056E+02  0.28135852358E+02  0.00000000000E+00 0.  1.
</event>
<event>
 8    1  0.6239251E-010  0.9118800E+02  0.7816164E-02  0.1184000E+00
        -11   -1    0    0    0    0  0.00000000000E+00  0.00000000000E+00  0.45593999997E+02  0.45594000000E+02  0.51100000000E-03 0. -1.
         11   -1    0    0    0    0 -0.00000000000E+00 -0.00000000000E+00 -0.45593999997E+02  0.45594000000E+02  0.51100000000E-03 0.  1.
         23    2    1    2    0    0 -0.35527136788E-14  0.00000000000E+00 -0.35527136788E-14  0.91188000000E+02  0.91188000000E+02 0.  0.
    9900012    2    3    3    0    0  0.20391840695E+02  0.26958846603E+02  0.27221626097E+02  0.47787268388E+02  0.19999987890E+02 0.  0.
        -12    1    3    3    0    0 -0.20391840695E+02 -0.26958846603E+02 -0.27221626097E+02  0.43400731612E+02  0.00000000000E+00 0.  1.
         11    1    4    4    0    0  0.67832459635E+01 -0.14679716084E+00  0.68385534186E+01  0.96332646765E+01  0.51100000000E-03 0. -1.
        -11    1    4    4    0    0  0.16630317023E+01  0.15374787693E+02  0.87692205295E+01  0.17777767014E+02  0.51100000000E-03 0.  1.
         12    1    4    4    0    0  0.11945563030E+02  0.11730856070E+02  0.11613852148E+02  0.20376236698E+02  0.00000000000E+00 0. -1.
</event>
<event>
 8    1  0.6239251E-010  0.9118800E+02  0.7816164E-02  0.1184000E+00
        -11   -1    0    0    0    0  0.00000000000E+00  0.00000000000E+00  0.45593999997E+02  0.45594000000E+02  0.51100000000E-03 0. -1.
         11   -1    0    0    0    0 -0.00000000000E+00 -0.00000000000E+00 -0.45593999997E+02  0.45594000000E+02  0.51100000000E-03 0.  1.
         23    2    1    2    0    0  0.00000000000E+00  0.00000000000E+00  0.00000000000E+00  0.91188000000E+02  0.91188000000E+02 0.  0.
    9900012    2    3    3    0    0 -0.15992849678E+02 -0.21157414105E+02 -0.34354258617E+02  0.47787279988E+02  0.20000040777E+02 0.  0.
         12    1    3    3    0    0  0.15992849678E+02  0.21157414105E+02  0.34354258617E+02  0.43400720012E+02  0.00000000000E+00 0. -1.
         11    1    4    4    0    0 -0.15071067229E+02 -0.23714194129E+02 -0.33971539283E+02  0.44085888356E+02  0.51100000000E-03 0. -1.
        -11    1    4    4    0    0 -0.12866886172E+01  0.27725847354E+01 -0.74235493655E+00  0.31454546294E+01  0.51100000000E-03 0.  1.
         12    1    4    4    0    0  0.36490616785E+00 -0.21580471147E+00  0.35963560212E+00  0.55593700285E+00  0.00000000000E+00 0. -1.
</event>
<event>
 8    1  0.6239251E-010  0.9118800E+02  0.7816164E-02  0.1184000E+00
        -11   -1    0    0    0    0  0.00000000000E+00  0.00000000000E+00  0.45593999997E+02  0.45594000000E+02  0.51100000000E-03 0. -1.
         11   -1    0    0    0    0 -0.00000000000E+00 -0.00000000000E+00 -0.45593999997E+02  0.45594000000E+02  0.51100000000E-03 0.  1.
         23    2    1    2    0    0  0.88817841970E-15  0.00000000000E+00  0.00000000000E+00  0.91188000000E+02  0.91188000000E+02 0.  0.
    9900012    2    3    3    0    0  0.73484760951E+01 -0.32540862767E+02  0.27761763355E+02  0.47787270109E+02  0.19999995734E+02 0.  0.
        -12    1    3    3    0    0 -0.73484760951E+01  0.32540862767E+02 -0.27761763355E+02  0.43400729891E+02  0.00000000000E+00 0.  1.
         11    1    4    4    0    0  0.12720888814E+02 -0.19171408414E+02  0.16757517611E+02  0.28463631348E+02  0.51100000000E-03 0. -1.
        -11    1    4    4    0    0 -0.25295640128E+01 -0.11379080132E+02  0.10728341051E+02  0.15842331290E+02  0.51100000000E-03 0.  1.
         12    1    4    4    0    0 -0.28428487057E+01 -0.19903742208E+01  0.27590469295E+00  0.34813074702E+01  0.00000000000E+00 0. -1.
</event>
<event>
 8    1  0.6239251E-010  0.9118800E+02  0.7816164E-02  0.1184000E+00
        -11   -1    0    0    0    0  0.00000000000E+00  0.00000000000E+00  0.45593999997E+02  0.45594000000E+02  0.51100000000E-03 0. -1.
         11   -1    0    0    0    0 -0.00000000000E+00 -0.00000000000E+00 -0.45593999997E+02  0.45594000000E+02  0.51100000000E-03 0.  1.
         23    2    1    2    0    0  0.00000000000E+00 -0.17763568394E-14  0.00000000000E+00  0.91188000000E+02  0.91188000000E+02 0.  0.
    9900012    2    3    3    0    0 -0.25066887474E+02 -0.85357896415E+01 -0.34386254512E+02  0.47787273603E+02  0.20000011664E+02 0.  0.
         12    1    3    3    0    0  0.25066887474E+02  0.85357896415E+01  0.34386254512E+02  0.43400726397E+02  0.00000000000E+00 0. -1.
         11    1    4    4    0    0 -0.96046738278E+01  0.41366821842E+01 -0.47730045015E+01  0.11495367374E+02  0.51100000000E-03 0. -1.
        -11    1    4    4    0    0 -0.12351098465E+02 -0.12267167092E+02 -0.27363007831E+02  0.32430960818E+02  0.51100000000E-03 0.  1.
        -12    1    4    4    0    0 -0.31111151814E+01 -0.40530473408E+00 -0.22502421792E+01  0.38609454107E+01  0.00000000000E+00 0.  1.
</event>
<event>
 8    1  0.6239251E-010  0.9118800E+02  0.7816164E-02  0.1184000E+00
        -11   -1    0    0    0    0  0.00000000000E+00  0.00000000000E+00  0.45593999997E+02  0.45594000000E+02  0.51100000000E-03 0. -1.
         11   -1    0    0    0    0 -0.00000000000E+00 -0.00000000000E+00 -0.45593999997E+02  0.45594000000E+02  0.51100000000E-03 0.  1.
         23    2    1    2    0    0 -0.44408920985E-15  0.00000000000E+00  0.00000000000E+00  0.91188000000E+02  0.91188000000E+02 0.  0.
    9900012    2    3    3    0    0  0.93093686462E+00 -0.38678283301E+02 -0.19665900057E+02  0.47787264204E+02  0.19999968813E+02 0.  0.
         12    1    3    3    0    0 -0.93093686462E+00  0.38678283301E+02  0.19665900057E+02  0.43400735796E+02  0.00000000000E+00 0. -1.
         11    1    4    4    0    0  0.60695029097E+01 -0.43454394496E+01 -0.61518496650E+01  0.96730018165E+01  0.51100000000E-03 0. -1.
        -11    1    4    4    0    0 -0.23562730161E+01 -0.18293576121E+02 -0.28755876997E+01  0.18667510673E+02  0.51100000000E-03 0.  1.
         12    1    4    4    0    0 -0.27822930289E+01 -0.16039267730E+02 -0.10638462692E+02  0.19446751715E+02  0.00000000000E+00 0. -1.
</event>
<event>
 8    1  0.6239251E-010  0.9118800E+02  0.7816164E-02  0.1184000E+00
        -11   -1    0    0    0    0  0.00000000000E+00  0.00000000000E+00  0.45593999997E+02  0.45594000000E+02  0.51100000000E-03 0.  1.
         11   -1    0    0    0    0 -0.00000000000E+00 -0.00000000000E+00 -0.45593999997E+02  0.45594000000E+02  0.51100000000E-03 0. -1.
         23    2    1    2    0    0 -0.35527136788E-14  0.00000000000E+00  0.00000000000E+00  0.91188000000E+02  0.91188000000E+02 0.  0.
    9900012    2    3    3    0    0  0.20273667269E+02  0.38340005209E+02  0.16265613927E+01  0.47787270906E+02  0.19999999368E+02 0.  0.
         12    1    3    3    0    0 -0.20273667269E+02 -0.38340005209E+02 -0.16265613927E+01  0.43400729094E+02  0.00000000000E+00 0. -1.
         11    1    4    4    0    0  0.93617367568E-02 -0.11523418791E+00 -0.37847221201E+01  0.37864876004E+01  0.51100000000E-03 0. -1.
        -11    1    4    4    0    0  0.36873166687E+01  0.40821996756E+01  0.88641701114E+00  0.55719290901E+01  0.51100000000E-03 0.  1.
         12    1    4    4    0    0  0.16576988863E+02  0.34373039721E+02  0.45248665017E+01  0.38428854215E+02  0.00000000000E+00 0. -1.
</event>
<event>
 8    1  0.6239251E-010  0.9118800E+02  0.7816164E-02  0.1184000E+00
        -11   -1    0    0    0    0  0.00000000000E+00  0.00000000000E+00  0.45593999997E+02  0.45594000000E+02  0.51100000000E-03 0. -1.
         11   -1    0    0    0    0 -0.00000000000E+00 -0.00000000000E+00 -0.45593999997E+02  0.45594000000E+02  0.51100000000E-03 0.  1.
         23    2    1    2    0    0  0.00000000000E+00 -0.88817841970E-15 -0.71054273576E-14  0.91188000000E+02  0.91188000000E+02 0.  0.
    9900012    2    3    3    0    0 -0.11355905502E+02 -0.66810013637E+01  0.41352522858E+02  0.47787268258E+02  0.19999987297E+02 0.  0.
        -12    1    3    3    0    0  0.11355905502E+02  0.66810013637E+01 -0.41352522858E+02  0.43400731742E+02  0.00000000000E+00 0.  1.
         11    1    4    4    0    0 -0.12323237803E+02  0.23295932111E+01  0.14033778984E+02  0.18821162220E+02  0.51100000000E-03 0. -1.
        -11    1    4    4    0    0  0.63577419541E+00 -0.78991030214E+01  0.26129963448E+02  0.27305219783E+02  0.51100000000E-03 0.  1.
         12    1    4    4    0    0  0.33155810516E+00 -0.11114915534E+01  0.11887804259E+01  0.16608862549E+01  0.00000000000E+00 0. -1.
</event>
<event>
 8    1  0.6239251E-010  0.9118800E+02  0.7816164E-02  0.1184000E+00
        -11   -1    0    0    0    0  0.00000000000E+00  0.00000000000E+00  0.45593999997E+02  0.45594000000E+02  0.51100000000E-03 0. -1.
         11   -1    0    0    0    0 -0.00000000000E+00 -0.00000000000E+00 -0.45593999997E+02  0.45594000000E+02  0.51100000000E-03 0.  1.
         23    2    1    2    0    0 -0.35527136788E-14  0.00000000000E+00 -0.35527136788E-14  0.91188000000E+02  0.91188000000E+02 0.  0.
    9900012    2    3    3    0    0  0.30710023284E+02  0.14291654732E+02 -0.27134231357E+02  0.47787269172E+02  0.19999991461E+02 0.  0.
         12    1    3    3    0    0 -0.30710023284E+02 -0.14291654732E+02  0.27134231357E+02  0.43400730828E+02  0.00000000000E+00 0. -1.
         11    1    4    4    0    0  0.16294094175E+02  0.15212917699E+01 -0.11285685646E+02  0.19879097927E+02  0.51100000000E-03 0. -1.
        -11    1    4    4    0    0 -0.20639608005E+01  0.71548137448E+00 -0.32498853488E+01  0.39158144523E+01  0.51100000000E-03 0.  1.
        -12    1    4    4    0    0  0.16479889909E+02  0.12054881588E+02 -0.12598660363E+02  0.23992356792E+02  0.00000000000E+00 0.  1.
</event>
<event>
 8    1  0.6239251E-010  0.9118800E+02  0.7816164E-02  0.1184000E+00
        -11   -1    0    0    0    0  0.00000000000E+00  0.00000000000E+00  0.45593999997E+02  0.45594000000E+02  0.51100000000E-03 0. -1.
         11   -1    0    0    0    0 -0.00000000000E+00 -0.00000000000E+00 -0.45593999997E+02  0.45594000000E+02  0.51100000000E-03 0.  1.
         23    2    1    2    0    0 -0.17763568394E-14  0.00000000000E+00  0.71054273576E-14  0.91188000000E+02  0.91188000000E+02 0.  0.
    9900012    2    3    3    0    0  0.93709482601E+01  0.17342635249E+02 -0.38665767156E+02  0.47787271683E+02  0.20000002911E+02 0.  0.
         12    1    3    3    0    0 -0.93709482601E+01 -0.17342635249E+02  0.38665767156E+02  0.43400728317E+02  0.00000000000E+00 0. -1.
         11    1    4    4    0    0 -0.44011475685E+01  0.11134032865E+02 -0.12173797612E+02  0.17074487879E+02  0.51100000000E-03 0. -1.
        -11    1    4    4    0    0  0.11226046309E+02  0.41826504842E+01 -0.18033438866E+02  0.21650025367E+02  0.51100000000E-03 0.  1.
         12    1    4    4    0    0  0.25460495200E+01  0.20259519003E+01 -0.84585306780E+01  0.90627584372E+01  0.00000000000E+00 0. -1.
</event>
<event>
 8    1  0.6239251E-010  0.9118800E+02  0.7816164E-02  0.1184000E+00
        -11   -1    0    0    0    0  0.00000000000E+00  0.00000000000E+00  0.45593999997E+02  0.45594000000E+02  0.51100000000E-03 0. -1.
         11   -1    0    0    0    0 -0.00000000000E+00 -0.00000000000E+00 -0.45593999997E+02  0.45594000000E+02  0.51100000000E-03 0.  1.
         23    2    1    2    0    0  0.44408920985E-15  0.00000000000E+00 -0.17763568394E-14  0.91188000000E+02  0.91188000000E+02 0.  0.
    9900012    2    3    3    0    0 -0.14579495840E+01  0.40526126551E+02 -0.15463846042E+02  0.47787273224E+02  0.20000009938E+02 0.  0.
         12    1    3    3    0    0  0.14579495840E+01 -0.40526126551E+02  0.15463846042E+02  0.43400726776E+02  0.00000000000E+00 0. -1.
         11    1    4    4    0    0  0.37433459116E+01  0.35656806014E+02 -0.91505218694E+01  0.37002060814E+02  0.51100000000E-03 0. -1.
        -11    1    4    4    0    0 -0.44997259380E+01  0.57631807449E+01 -0.62957959019E+01  0.96487736068E+01  0.51100000000E-03 0.  1.
         12    1    4    4    0    0 -0.70156955751E+00 -0.89386020718E+00 -0.17528271039E-01  0.11364388036E+01  0.00000000000E+00 0. -1.
</event>
<event>
 8    1  0.6239251E-010  0.9118800E+02  0.7816164E-02  0.1184000E+00
        -11   -1    0    0    0    0  0.00000000000E+00  0.00000000000E+00  0.45593999997E+02  0.45594000000E+02  0.51100000000E-03 0. -1.
         11   -1    0    0    0    0 -0.00000000000E+00 -0.00000000000E+00 -0.45593999997E+02  0.45594000000E+02  0.51100000000E-03 0.  1.
         23    2    1    2    0    0  0.88817841970E-15  0.00000000000E+00  0.71054273576E-14  0.91188000000E+02  0.91188000000E+02 0.  0.
    9900012    2    3    3    0    0  0.34491073824E+01 -0.29024505124E+02 -0.32082791710E+02  0.47787265405E+02  0.19999974290E+02 0.  0.
         12    1    3    3    0    0 -0.34491073824E+01  0.29024505124E+02  0.32082791710E+02  0.43400734595E+02  0.00000000000E+00 0. -1.
         11    1    4    4    0    0 -0.30094787827E+01  0.58506048425E+00 -0.18457932707E+01  0.35785767245E+01  0.51100000000E-03 0. -1.
        -11    1    4    4    0    0  0.83234338774E+01 -0.24247662505E+02 -0.20046733068E+02  0.32543819619E+02  0.51100000000E-03 0.  1.
        -12    1    4    4    0    0 -0.18648477123E+01 -0.53619031034E+01 -0.10190265372E+02  0.11664869062E+02  0.00000000000E+00 0.  1.
</event>
<event>
 8    1  0.6239251E-010  0.9118800E+02  0.7816164E-02  0.1184000E+00
        -11   -1    0    0    0    0  0.00000000000E+00  0.00000000000E+00  0.45593999997E+02  0.45594000000E+02  0.51100000000E-03 0. -1.
         11   -1    0    0    0    0 -0.00000000000E+00 -0.00000000000E+00 -0.45593999997E+02  0.45594000000E+02  0.51100000000E-03 0.  1.
         23    2    1    2    0    0 -0.66613381478E-15  0.00000000000E+00  0.00000000000E+00  0.91188000000E+02  0.91188000000E+02 0.  0.
    9900012    2    3    3    0    0  0.16421484694E+01  0.21788919189E+02 -0.37498921707E+02  0.47787276731E+02  0.20000025930E+02 0.  0.
         12    1    3    3    0    0 -0.16421484694E+01 -0.21788919189E+02  0.37498921707E+02  0.43400723269E+02  0.00000000000E+00 0. -1.
         11    1    4    4    0    0  0.33078071861E+01  0.19130243244E+01 -0.21045284100E+01  0.43623721225E+01  0.51100000000E-03 0. -1.
        -11    1    4    4    0    0 -0.37161538449E+01  0.21936120956E+02 -0.31525434415E+02  0.38585699648E+02  0.51100000000E-03 0.  1.
        -12    1    4    4    0    0  0.20504951283E+01 -0.20602260919E+01 -0.38689588822E+01  0.48392049608E+01  0.00000000000E+00 0.  1.
</event>
<event>
 8    1  0.6239251E-010  0.9118800E+02  0.7816164E-02  0.1184000E+00
        -11   -1    0    0    0    0  0.00000000000E+00  0.00000000000E+00  0.45593999997E+02  0.45594000000E+02  0.51100000000E-03 0. -1.
         11   -1    0    0    0    0 -0.00000000000E+00 -0.00000000000E+00 -0.45593999997E+02  0.45594000000E+02  0.51100000000E-03 0.  1.
         23    2    1    2    0    0 -0.17763568394E-14  0.71054273576E-14  0.00000000000E+00  0.91188000000E+02  0.91188000000E+02 0.  0.
    9900012    2    3    3    0    0  0.15601968447E+02  0.40133411602E+02  0.54324030292E+01  0.47787272484E+02  0.20000006564E+02 0.  0.
         12    1    3    3    0    0 -0.15601968447E+02 -0.40133411602E+02 -0.54324030292E+01  0.43400727516E+02  0.00000000000E+00 0. -1.
         11    1    4    4    0    0  0.93818779229E+01  0.63547902361E+01  0.15530984257E+01  0.11437443215E+02  0.51100000000E-03 0. -1.
        -11    1    4    4    0    0  0.14558528475E+01  0.18246973498E+02  0.73703302775E+01  0.19733051412E+02  0.51100000000E-03 0.  1.
         12    1    4    4    0    0  0.47642376766E+01  0.15531647868E+02 -0.34910256739E+01  0.16616777858E+02  0.00000000000E+00 0. -1.
</event>
<event>
 8    1  0.6239251E-010  0.9118800E+02  0.7816164E-02  0.1184000E+00
        -11   -1    0    0    0    0  0.00000000000E+00  0.00000000000E+00  0.45593999997E+02  0.45594000000E+02  0.51100000000E-03 0. -1.
         11   -1    0    0    0    0 -0.00000000000E+00 -0.00000000000E+00 -0.45593999997E+02  0.45594000000E+02  0.51100000000E-03 0.  1.
         23    2    1    2    0    0  0.00000000000E+00  0.00000000000E+00 -0.71054273576E-14  0.91188000000E+02  0.91188000000E+02 0.  0.
    9900012    2    3    3    0    0  0.16486782630E+02 -0.21596364492E+02 -0.33843852658E+02  0.47787270473E+02  0.19999997394E+02 0.  0.
         12    1    3    3    0    0 -0.16486782630E+02  0.21596364492E+02  0.33843852658E+02  0.43400729527E+02  0.00000000000E+00 0. -1.
         11    1    4    4    0    0  0.37859548577E+01 -0.16692075858E+02 -0.25443369469E+02  0.30664701219E+02  0.51100000000E-03 0. -1.
        -11    1    4    4    0    0  0.11357181392E+02 -0.62698308430E+01 -0.69324243186E+01  0.14709005920E+02  0.51100000000E-03 0.  1.
         12    1    4    4    0    0  0.13436463809E+01  0.13655422089E+01 -0.14680588700E+01  0.24135633339E+01  0.00000000000E+00 0. -1.
</event>
<event>
 8    1  0.6239251E-010  0.9118800E+02  0.7816164E-02  0.1184000E+00
        -11   -1    0    0    0    0  0.00000000000E+00  0.00000000000E+00  0.45593999997E+02  0.45594000000E+02  0.51100000000E-03 0. -1.
         11   -1    0    0    0    0 -0.00000000000E+00 -0.00000000000E+00 -0.45593999997E+02  0.45594000000E+02  0.51100000000E-03 0.  1.
         23    2    1    2    0    0 -0.71054273576E-14  0.44408920985E-15  0.00000000000E+00  0.91188000000E+02  0.91188000000E+02 0.  0.
    9900012    2    3    3    0    0  0.42443342909E+02 -0.39768057868E+01 -0.81468374254E+01  0.47787270725E+02  0.19999998543E+02 0.  0.
         12    1    3    3    0    0 -0.42443342909E+02  0.39768057868E+01  0.81468374254E+01  0.43400729275E+02  0.00000000000E+00 0. -1.
         11    1    4    4    0    0  0.43597218986E+01 -0.40978788346E+01 -0.64133907943E+01  0.87710528283E+01  0.51100000000E-03 0. -1.
        -11    1    4    4    0    0  0.25734642955E+02 -0.26921197377E+01 -0.38985978524E+01  0.26167124836E+02  0.51100000000E-03 0.  1.
         12    1    4    4    0    0  0.12348978056E+02  0.28131927855E+01  0.21651512213E+01  0.12849093060E+02  0.00000000000E+00 0. -1.
</event>
<event>
 8    1  0.6239251E-010  0.9118800E+02  0.7816164E-02  0.1184000E+00
        -11   -1    0    0    0    0  0.00000000000E+00  0.00000000000E+00  0.45593999997E+02  0.45594000000E+02  0.51100000000E-03 0. -1.
         11   -1    0    0    0    0 -0.00000000000E+00 -0.00000000000E+00 -0.45593999997E+02  0.45594000000E+02  0.51100000000E-03 0.  1.
         23    2    1    2    0    0 -0.44408920985E-15  0.00000000000E+00  0.00000000000E+00  0.91188000000E+02  0.91188000000E+02 0.  0.
    9900012    2    3    3    0    0  0.30520466922E+01  0.63231666830E+01 -0.42829026543E+02  0.47787274885E+02  0.20000017510E+02 0.  0.
         12    1    3    3    0    0 -0.30520466922E+01 -0.63231666830E+01  0.42829026543E+02  0.43400725115E+02  0.00000000000E+00 0. -1.
         11    1    4    4    0    0 -0.41732809559E+01  0.72635829513E+01 -0.34303227716E+02  0.35311292007E+02  0.51100000000E-03 0.  1.
        -11    1    4    4    0    0  0.19601327081E+01 -0.50951124718E+00  0.43725159333E+00  0.20719341595E+01  0.51100000000E-03 0. -1.
        -12    1    4    4    0    0  0.52651949401E+01 -0.43090502118E+00 -0.89630504205E+01  0.10404048718E+02  0.00000000000E+00 0.  1.
</event>
<event>
 8    1  0.6239251E-010  0.9118800E+02  0.7816164E-02  0.1184000E+00
        -11   -1    0    0    0    0  0.00000000000E+00  0.00000000000E+00  0.45593999997E+02  0.45594000000E+02  0.51100000000E-03 0.  1.
         11   -1    0    0    0    0 -0.00000000000E+00 -0.00000000000E+00 -0.45593999997E+02  0.45594000000E+02  0.51100000000E-03 0. -1.
         23    2    1    2    0    0  0.00000000000E+00 -0.44408920985E-15  0.00000000000E+00  0.91188000000E+02  0.91188000000E+02 0.  0.
    9900012    2    3    3    0    0  0.41999921477E+02  0.23689109709E+01  0.10677922276E+02  0.47787272271E+02  0.20000005594E+02 0.  0.
        -12    1    3    3    0    0 -0.41999921477E+02 -0.23689109709E+01 -0.10677922276E+02  0.43400727729E+02  0.00000000000E+00 0.  1.
         11    1    4    4    0    0  0.25900902936E+02  0.93358207012E+01  0.29953416373E+01  0.27694519184E+02  0.51100000000E-03 0. -1.
        -11    1    4    4    0    0  0.16568952793E+02 -0.71292697034E+01  0.72735736039E+01  0.19448947436E+02  0.51100000000E-03 0.  1.
         12    1    4    4    0    0 -0.46993425163E+00  0.16235997306E+00  0.40900703465E+00  0.64380565087E+00  0.00000000000E+00 0. -1.
</event>
<event>
 8    1  0.6239251E-010  0.9118800E+02  0.7816164E-02  0.1184000E+00
        -11   -1    0    0    0    0  0.00000000000E+00  0.00000000000E+00  0.45593999997E+02  0.45594000000E+02  0.51100000000E-03 0. -1.
         11   -1    0    0    0    0 -0.00000000000E+00 -0.00000000000E+00 -0.45593999997E+02  0.45594000000E+02  0.51100000000E-03 0.  1.
         23    2    1    2    0    0  0.00000000000E+00 -0.17763568394E-14  0.00000000000E+00  0.91188000000E+02  0.91188000000E+02 0.  0.
    9900012    2    3    3    0    0 -0.40192378560E+02  0.13152686269E+02 -0.97572169987E+01  0.47787265744E+02  0.19999975833E+02 0.  0.
         12    1    3    3    0    0  0.40192378560E+02 -0.13152686269E+02  0.97572169987E+01  0.43400734256E+02  0.00000000000E+00 0. -1.
         11    1    4    4    0    0 -0.34884709295E+02  0.14607881693E+02 -0.18260485721E+01  0.37863803346E+02  0.51100000000E-03 0.  1.
        -11    1    4    4    0    0 -0.24392112364E+01 -0.98580737616E+00 -0.56364006143E+01  0.62201752214E+01  0.51100000000E-03 0. -1.
        -12    1    4    4    0    0 -0.28684580287E+01 -0.46938804827E+00 -0.22947678122E+01  0.37032871768E+01  0.00000000000E+00 0.  1.
</event>
<event>
 8    1  0.6239251E-010  0.9118800E+02  0.7816164E-02  0.1184000E+00
        -11   -1    0    0    0    0  0.00000000000E+00  0.00000000000E+00  0.45593999997E+02  0.45594000000E+02  0.51100000000E-03 0. -1.
         11   -1    0    0    0    0 -0.00000000000E+00 -0.00000000000E+00 -0.45593999997E+02  0.45594000000E+02  0.51100000000E-03 0.  1.
         23    2    1    2    0    0  0.00000000000E+00  0.00000000000E+00  0.00000000000E+00  0.91188000000E+02  0.91188000000E+02 0.  0.
    9900012    2    3    3    0    0 -0.30095358065E+02  0.24323233403E+02  0.19653852465E+02  0.47787260641E+02  0.19999952566E+02 0.  0.
        -12    1    3    3    0    0  0.30095358065E+02 -0.24323233403E+02 -0.19653852465E+02  0.43400739359E+02  0.00000000000E+00 0.  1.
         11    1    4    4    0    0 -0.28753638709E+02  0.15676438683E+02  0.14414399003E+02  0.35781243238E+02  0.51100000000E-03 0. -1.
        -11    1    4    4    0    0 -0.10771865827E+00  0.20849227868E+01  0.48934264596E+01  0.53201625081E+01  0.51100000000E-03 0.  1.
         12    1    4    4    0    0 -0.12340006977E+01  0.65618719332E+01  0.34602700203E+00  0.66858548949E+01  0.00000000000E+00 0. -1.
</event>
<event>
 8    1  0.6239251E-010  0.9118800E+02  0.7816164E-02  0.1184000E+00
        -11   -1    0    0    0    0  0.00000000000E+00  0.00000000000E+00  0.45593999997E+02  0.45594000000E+02  0.51100000000E-03 0. -1.
         11   -1    0    0    0    0 -0.00000000000E+00 -0.00000000000E+00 -0.45593999997E+02  0.45594000000E+02  0.51100000000E-03 0.  1.
         23    2    1    2    0    0 -0.88817841970E-15 -0.35527136788E-14 -0.71054273576E-14  0.91188000000E+02  0.91188000000E+02 0.  0.
    9900012    2    3    3    0    0  0.67649130814E+01  0.29784153608E+02  0.30834459172E+02  0.47787265818E+02  0.19999976171E+02 0.  0.
        -12    1    3    3    0    0 -0.67649130814E+01 -0.29784153608E+02 -0.30834459172E+02  0.43400734182E+02  0.00000000000E+00 0.  1.
         11    1    4    4    0    0 -0.40564285188E+01  0.10351545964E+02  0.10473390464E+02  0.15274194717E+02  0.51100000000E-03 0. -1.
        -11    1    4    4    0    0  0.58993252510E+01  0.10407295355E+01  0.28029583399E+01  0.66137532536E+01  0.51100000000E-03 0.  1.
         12    1    4    4    0    0  0.49220163492E+01  0.18391878109E+02  0.17558110368E+02  0.25899317848E+02  0.00000000000E+00 0. -1.
</event>
<event>
 8    1  0.6239251E-010  0.9118800E+02  0.7816164E-02  0.1184000E+00
        -11   -1    0    0    0    0  0.00000000000E+00  0.00000000000E+00  0.45593999997E+02  0.45594000000E+02  0.51100000000E-03 0. -1.
         11   -1    0    0    0    0 -0.00000000000E+00 -0.00000000000E+00 -0.45593999997E+02  0.45594000000E+02  0.51100000000E-03 0.  1.
         23    2    1    2    0    0  0.00000000000E+00  0.44408920985E-15  0.00000000000E+00  0.91188000000E+02  0.91188000000E+02 0.  0.
    9900012    2    3    3    0    0 -0.38727745999E+01  0.39607926730E+01 -0.43045761386E+02  0.47787264580E+02  0.19999970528E+02 0.  0.
         12    1    3    3    0    0  0.38727745999E+01 -0.39607926730E+01  0.43045761386E+02  0.43400735420E+02  0.00000000000E+00 0. -1.
         11    1    4    4    0    0  0.41235052805E+01  0.55363540447E+01 -0.77149252010E+01  0.10352515782E+02  0.51100000000E-03 0. -1.
        -11    1    4    4    0    0 -0.56221341543E+01 -0.41190483695E+01 -0.12256221289E+02  0.14099287658E+02  0.51100000000E-03 0.  1.
         12    1    4    4    0    0 -0.23741457261E+01  0.25434869978E+01 -0.23074614896E+02  0.23335461140E+02  0.00000000000E+00 0. -1.
</event>
<event>
 8    1  0.6239251E-010  0.9118800E+02  0.7816164E-02  0.1184000E+00
        -11   -1    0    0    0    0  0.00000000000E+00  0.00000000000E+00  0.45593999997E+02  0.45594000000E+02  0.51100000000E-03 0.  1.
         11   -1    0    0    0    0 -0.00000000000E+00 -0.00000000000E+00 -0.45593999997E+02  0.45594000000E+02  0.51100000000E-03 0. -1.
         23    2    1    2    0    0  0.71054273576E-14 -0.17763568394E-14  0.00000000000E+00  0.91188000000E+02  0.91188000000E+02 0.  0.
    9900012    2    3    3    0    0 -0.37655615163E+02  0.72672436453E+01  0.20319039813E+02  0.47787290761E+02  0.20000089897E+02 0.  0.
        -12    1    3    3    0    0  0.37655615163E+02 -0.72672436453E+01 -0.20319039813E+02  0.43400709239E+02  0.00000000000E+00 0.  1.
         11    1    4    4    0    0 -0.85791786193E+01 -0.55859520068E+01  0.41608308137E+01  0.11050686808E+02  0.51100000000E-03 0. -1.
        -11    1    4    4    0    0 -0.19579763601E+01  0.23344079706E+01 -0.68774868707E+00  0.31234805134E+01  0.51100000000E-03 0.  1.
         12    1    4    4    0    0 -0.27118460183E+02  0.10518787682E+02  0.16845957687E+02  0.33613123440E+02  0.00000000000E+00 0. -1.
</event>
<event>
 8    1  0.6239251E-010  0.9118800E+02  0.7816164E-02  0.1184000E+00
        -11   -1    0    0    0    0  0.00000000000E+00  0.00000000000E+00  0.45593999997E+02  0.45594000000E+02  0.51100000000E-03 0. -1.
         11   -1    0    0    0    0 -0.00000000000E+00 -0.00000000000E+00 -0.45593999997E+02  0.45594000000E+02  0.51100000000E-03 0.  1.
         23    2    1    2    0    0  0.00000000000E+00  0.00000000000E+00  0.17763568394E-14  0.91188000000E+02  0.91188000000E+02 0.  0.
    9900012    2    3    3    0    0  0.38476243188E+02 -0.17882529066E+02  0.91333231903E+01  0.47787265811E+02  0.19999976137E+02 0.  0.
        -12    1    3    3    0    0 -0.38476243188E+02  0.17882529066E+02 -0.91333231903E+01  0.43400734189E+02  0.00000000000E+00 0.  1.
         11    1    4    4    0    0  0.19796208264E+02 -0.64060470244E+01 -0.23137512415E+01  0.20935155724E+02  0.51100000000E-03 0. -1.
        -11    1    4    4    0    0  0.17042176110E+02 -0.12642150185E+02  0.12453598240E+02  0.24603898822E+02  0.51100000000E-03 0.  1.
        -12    1    4    4    0    0  0.16378588135E+01  0.11656681430E+01 -0.10065238080E+01  0.22482112643E+01  0.00000000000E+00 0.  1.
</event>
<event>
 8    1  0.6239251E-010  0.9118800E+02  0.7816164E-02  0.1184000E+00
        -11   -1    0    0    0    0  0.00000000000E+00  0.00000000000E+00  0.45593999997E+02  0.45594000000E+02  0.51100000000E-03 0. -1.
         11   -1    0    0    0    0 -0.00000000000E+00 -0.00000000000E+00 -0.45593999997E+02  0.45594000000E+02  0.51100000000E-03 0.  1.
         23    2    1    2    0    0  0.00000000000E+00  0.00000000000E+00  0.71054273576E-14  0.91188000000E+02  0.91188000000E+02 0.  0.
    9900012    2    3    3    0    0  0.16296920798E+02 -0.11801698700E+02 -0.38454561605E+02  0.47787273878E+02  0.20000012922E+02 0.  0.
         12    1    3    3    0    0 -0.16296920798E+02  0.11801698700E+02  0.38454561605E+02  0.43400726122E+02  0.00000000000E+00 0. -1.
         11    1    4    4    0    0  0.13700194011E+02 -0.61485757251E+01 -0.27122764511E+02  0.31002333048E+02  0.51100000000E-03 0.  1.
        -11    1    4    4    0    0 -0.27469878122E+01 -0.32242771778E+01 -0.98631052149E+01  0.10734186047E+02  0.51100000000E-03 0. -1.
         12    1    4    4    0    0  0.53437145988E+01 -0.24288457966E+01 -0.14686918782E+01  0.60507547835E+01  0.00000000000E+00 0. -1.
</event>
<event>
 8    1  0.6239251E-010  0.9118800E+02  0.7816164E-02  0.1184000E+00
        -11   -1    0    0    0    0  0.00000000000E+00  0.00000000000E+00  0.45593999997E+02  0.45594000000E+02  0.51100000000E-03 0.  1.
         11   -1    0    0    0    0 -0.00000000000E+00 -0.00000000000E+00 -0.45593999997E+02  0.45594000000E+02  0.51100000000E-03 0. -1.
         23    2    1    2    0    0  0.00000000000E+00 -0.13322676296E-14 -0.88817841970E-15  0.91188000000E+02  0.91188000000E+02 0.  0.
    9900012    2    3    3    0    0  0.42960240643E+02  0.36594859790E+01  0.49647338480E+01  0.47787277703E+02  0.20000030360E+02 0.  0.
        -12    1    3    3    0    0 -0.42960240643E+02 -0.36594859790E+01 -0.49647338480E+01  0.43400722297E+02  0.00000000000E+00 0.  1.
         11    1    4    4    0    0  0.17209953632E+02  0.28160633766E+00  0.51618487580E+01  0.17969599021E+02  0.51100000000E-03 0. -1.
        -11    1    4    4    0    0  0.97218832906E+01  0.84047524789E+01  0.14789493868E+01  0.12936080183E+02  0.51100000000E-03 0.  1.
        -12    1    4    4    0    0  0.16028403721E+02 -0.50268728376E+01 -0.16760642968E+01  0.16881598499E+02  0.00000000000E+00 0.  1.
</event>
<event>
 8    1  0.6239251E-010  0.9118800E+02  0.7816164E-02  0.1184000E+00
        -11   -1    0    0    0    0  0.00000000000E+00  0.00000000000E+00  0.45593999997E+02  0.45594000000E+02  0.51100000000E-03 0. -1.
         11   -1    0    0    0    0 -0.00000000000E+00 -0.00000000000E+00 -0.45593999997E+02  0.45594000000E+02  0.51100000000E-03 0.  1.
         23    2    1    2    0    0  0.00000000000E+00 -0.17763568394E-14  0.00000000000E+00  0.91188000000E+02  0.91188000000E+02 0.  0.
    9900012    2    3    3    0    0  0.47815594927E+01 -0.12252406311E+02 -0.41359864663E+02  0.47787272166E+02  0.20000005115E+02 0.  0.
         12    1    3    3    0    0 -0.47815594927E+01  0.12252406311E+02  0.41359864663E+02  0.43400727834E+02  0.00000000000E+00 0. -1.
         11    1    4    4    0    0 -0.19348052670E+01 -0.13628353638E+02 -0.27574167546E+02  0.30818991067E+02  0.51100000000E-03 0. -1.
        -11    1    4    4    0    0  0.18066148831E+01  0.39225180342E+01 -0.68437406495E+01  0.80923909571E+01  0.51100000000E-03 0.  1.
        -12    1    4    4    0    0  0.49097498766E+01 -0.25465707077E+01 -0.69419564673E+01  0.88758901421E+01  0.00000000000E+00 0.  1.
</event>
<event>
 8    1  0.6239251E-010  0.9118800E+02  0.7816164E-02  0.1184000E+00
        -11   -1    0    0    0    0  0.00000000000E+00  0.00000000000E+00  0.45593999997E+02  0.45594000000E+02  0.51100000000E-03 0.  1.
         11   -1    0    0    0    0 -0.00000000000E+00 -0.00000000000E+00 -0.45593999997E+02  0.45594000000E+02  0.51100000000E-03 0. -1.
         23    2    1    2    0    0  0.00000000000E+00  0.00000000000E+00 -0.17763568394E-14  0.91188000000E+02  0.91188000000E+02 0.  0.
    9900012    2    3    3    0    0  0.29713036364E+02  0.28920114993E+02 -0.12821276558E+02  0.47787277498E+02  0.20000029422E+02 0.  0.
         12    1    3    3    0    0 -0.29713036364E+02 -0.28920114993E+02  0.12821276558E+02  0.43400722502E+02  0.00000000000E+00 0. -1.
         11    1    4    4    0    0  0.12961413209E+02  0.17114755906E+02 -0.14766974228E+02  0.26057180013E+02  0.51100000000E-03 0. -1.
        -11    1    4    4    0    0  0.31119987906E+01  0.51606355741E+01 -0.14151124683E+01  0.61902535942E+01  0.51100000000E-03 0.  1.
         12    1    4    4    0    0  0.13639624364E+02  0.66447235128E+01  0.33608101388E+01  0.15539843890E+02  0.00000000000E+00 0. -1.
</event>
<event>
 8    1  0.6239251E-010  0.9118800E+02  0.7816164E-02  0.1184000E+00
        -11   -1    0    0    0    0  0.00000000000E+00  0.00000000000E+00  0.45593999997E+02  0.45594000000E+02  0.51100000000E-03 0.  1.
         11   -1    0    0    0    0 -0.00000000000E+00 -0.00000000000E+00 -0.45593999997E+02  0.45594000000E+02  0.51100000000E-03 0. -1.
         23    2    1    2    0    0  0.18873791419E-14  0.00000000000E+00 -0.35527136788E-14  0.91188000000E+02  0.91188000000E+02 0.  0.
    9900012    2    3    3    0    0  0.91227313982E+00  0.39449535994E+02  0.18070007547E+02  0.47787270684E+02  0.19999998355E+02 0.  0.
        -12    1    3    3    0    0 -0.91227313982E+00 -0.39449535994E+02 -0.18070007547E+02  0.43400729316E+02  0.00000000000E+00 0.  1.
         11    1    4    4    0    0 -0.72826526495E+01  0.14046485890E+02  0.94427235922E+00  0.15850313751E+02  0.51100000000E-03 0. -1.
        -11    1    4    4    0    0  0.44266276189E+01  0.19160194449E+02  0.12526555470E+02  0.23315717352E+02  0.51100000000E-03 0.  1.
         12    1    4    4    0    0  0.37682981705E+01  0.62428556551E+01  0.45991797180E+01  0.86212395808E+01  0.00000000000E+00 0. -1.
</event>
<event>
 8    1  0.6239251E-010  0.9118800E+02  0.7816164E-02  0.1184000E+00
        -11   -1    0    0    0    0  0.00000000000E+00  0.00000000000E+00  0.45593999997E+02  0.45594000000E+02  0.51100000000E-03 0. -1.
         11   -1    0    0    0    0 -0.00000000000E+00 -0.00000000000E+00 -0.45593999997E+02  0.45594000000E+02  0.51100000000E-03 0.  1.
         23    2    1    2    0    0  0.00000000000E+00 -0.17763568394E-14  0.00000000000E+00  0.91188000000E+02  0.91188000000E+02 0.  0.
    9900012    2    3    3    0    0  0.92966614962E+01 -0.15767269530E+02  0.39352107821E+02  0.47787273124E+02  0.20000009480E+02 0.  0.
        -12    1    3    3    0    0 -0.92966614962E+01  0.15767269530E+02 -0.39352107821E+02  0.43400726876E+02  0.00000000000E+00 0.  1.
         11    1    4    4    0    0  0.80011255081E+01 -0.16320492920E+02  0.16681604965E+02  0.24670882494E+02  0.51100000000E-03 0. -1.
        -11    1    4    4    0    0 -0.15266875085E+01  0.70982418414E+00  0.91460345130E+01  0.92997082049E+01  0.51100000000E-03 0.  1.
         12    1    4    4    0    0  0.28222234966E+01 -0.15660079437E+00  0.13524468343E+02  0.13816682425E+02  0.00000000000E+00 0. -1.
</event>
<event>
 8    1  0.6239251E-010  0.9118800E+02  0.7816164E-02  0.1184000E+00
        -11   -1    0    0    0    0  0.00000000000E+00  0.00000000000E+00  0.45593999997E+02  0.45594000000E+02  0.51100000000E-03 0.  1.
         11   -1    0    0    0    0 -0.00000000000E+00 -0.00000000000E+00 -0.45593999997E+02  0.45594000000E+02  0.51100000000E-03 0. -1.
         23    2    1    2    0    0 -0.35527136788E-14  0.00000000000E+00  0.88817841970E-15  0.91188000000E+02  0.91188000000E+02 0.  0.
    9900012    2    3    3    0    0  0.19080730307E+02 -0.38173814139E+02 -0.78936073775E+01  0.47787269679E+02  0.19999993772E+02 0.  0.
        -12    1    3    3    0    0 -0.19080730307E+02  0.38173814139E+02  0.78936073775E+01  0.43400730321E+02  0.00000000000E+00 0.  1.
         11    1    4    4    0    0  0.59401864373E+01 -0.11237251212E+02  0.30926851536E+01  0.13081526342E+02  0.51100000000E-03 0. -1.
        -11    1    4    4    0    0  0.12064105050E+02 -0.19495727214E+02 -0.13705522118E+02  0.26710809554E+02  0.51100000000E-03 0.  1.
        -12    1    4    4    0    0  0.10764388203E+01 -0.74408357127E+01  0.27192295866E+01  0.79949337822E+01  0.00000000000E+00 0.  1.
</event>
<event>
 8    1  0.6239251E-010  0.9118800E+02  0.7816164E-02  0.1184000E+00
        -11   -1    0    0    0    0  0.00000000000E+00  0.00000000000E+00  0.45593999997E+02  0.45594000000E+02  0.51100000000E-03 0. -1.
         11   -1    0    0    0    0 -0.00000000000E+00 -0.00000000000E+00 -0.45593999997E+02  0.45594000000E+02  0.51100000000E-03 0.  1.
         23    2    1    2    0    0  0.00000000000E+00 -0.88817841970E-15  0.00000000000E+00  0.91188000000E+02  0.91188000000E+02 0.  0.
    9900012    2    3    3    0    0  0.19410107062E+02 -0.72395249122E+01 -0.38137391168E+02  0.47787267492E+02  0.19999983803E+02 0.  0.
         12    1    3    3    0    0 -0.19410107062E+02  0.72395249122E+01  0.38137391168E+02  0.43400732508E+02  0.00000000000E+00 0. -1.
         11    1    4    4    0    0  0.27406943503E+01 -0.36276402253E+01 -0.61877558195E+00  0.45884706175E+01  0.51100000000E-03 0. -1.
        -11    1    4    4    0    0  0.14832036052E+02 -0.77021788209E+01 -0.31875139795E+02  0.35990795896E+02  0.51100000000E-03 0.  1.
        -12    1    4    4    0    0  0.18373766598E+01  0.40902941340E+01 -0.56434757913E+01  0.72080009780E+01  0.00000000000E+00 0.  1.
</event>
<event>
 8    1  0.6239251E-010  0.9118800E+02  0.7816164E-02  0.1184000E+00
        -11   -1    0    0    0    0  0.00000000000E+00  0.00000000000E+00  0.45593999997E+02  0.45594000000E+02  0.51100000000E-03 0. -1.
         11   -1    0    0    0    0 -0.00000000000E+00 -0.00000000000E+00 -0.45593999997E+02  0.45594000000E+02  0.51100000000E-03 0.  1.
         23    2    1    2    0    0  0.00000000000E+00  0.00000000000E+00  0.00000000000E+00  0.91188000000E+02  0.91188000000E+02 0.  0.
    9900012    2    3    3    0    0  0.36679578247E+02  0.18912595151E+02  0.13436730330E+02  0.47787269157E+02  0.19999991394E+02 0.  0.
        -12    1    3    3    0    0 -0.36679578247E+02 -0.18912595151E+02 -0.13436730330E+02  0.43400730843E+02  0.00000000000E+00 0.  1.
         11    1    4    4    0    0  0.15990537760E+02  0.18167504664E+02  0.65155259693E+01  0.25064069951E+02  0.51100000000E-03 0. -1.
        -11    1    4    4    0    0  0.19326611369E+02  0.85901122409E+00  0.43766164460E+01  0.19834580386E+02  0.51100000000E-03 0.  1.
         12    1    4    4    0    0  0.13624291176E+01 -0.11392073671E+00  0.25445879142E+01  0.28886188200E+01  0.00000000000E+00 0. -1.
</event>
<event>
 8    1  0.6239251E-010  0.9118800E+02  0.7816164E-02  0.1184000E+00
        -11   -1    0    0    0    0  0.00000000000E+00  0.00000000000E+00  0.45593999997E+02  0.45594000000E+02  0.51100000000E-03 0. -1.
         11   -1    0    0    0    0 -0.00000000000E+00 -0.00000000000E+00 -0.45593999997E+02  0.45594000000E+02  0.51100000000E-03 0.  1.
         23    2    1    2    0    0 -0.44408920985E-15  0.35527136788E-14  0.00000000000E+00  0.91188000000E+02  0.91188000000E+02 0.  0.
    9900012    2    3    3    0    0 -0.24076808739E+01  0.19776419536E+02 -0.38558003568E+02  0.47787270328E+02  0.19999996735E+02 0.  0.
         12    1    3    3    0    0  0.24076808739E+01 -0.19776419536E+02  0.38558003568E+02  0.43400729672E+02  0.00000000000E+00 0. -1.
         11    1    4    4    0    0  0.30728948203E+01  0.17340439250E+02 -0.36835335787E+02  0.40828611031E+02  0.51100000000E-03 0. -1.
        -11    1    4    4    0    0 -0.41430507886E+01  0.30139717370E+01 -0.19540046299E+01  0.54833411186E+01  0.51100000000E-03 0.  1.
         12    1    4    4    0    0 -0.13375249056E+01 -0.57799145138E+00  0.23133684807E+00  0.14753181787E+01  0.00000000000E+00 0. -1.
</event>
<event>
 8    1  0.6239251E-010  0.9118800E+02  0.7816164E-02  0.1184000E+00
        -11   -1    0    0    0    0  0.00000000000E+00  0.00000000000E+00  0.45593999997E+02  0.45594000000E+02  0.51100000000E-03 0. -1.
         11   -1    0    0    0    0 -0.00000000000E+00 -0.00000000000E+00 -0.45593999997E+02  0.45594000000E+02  0.51100000000E-03 0.  1.
         23    2    1    2    0    0  0.00000000000E+00 -0.17763568394E-14  0.00000000000E+00  0.91188000000E+02  0.91188000000E+02 0.  0.
    9900012    2    3    3    0    0 -0.18137570958E+02  0.12887496436E+02 -0.37263453066E+02  0.47787262920E+02  0.19999962959E+02 0.  0.
         12    1    3    3    0    0  0.18137570958E+02 -0.12887496436E+02  0.37263453066E+02  0.43400737080E+02  0.00000000000E+00 0. -1.
         11    1    4    4    0    0  0.10347576027E+01  0.19343758438E+01 -0.63974815317E+01  0.67631577988E+01  0.51100000000E-03 0. -1.
        -11    1    4    4    0    0 -0.12283023925E+02  0.10429723160E+02 -0.30009545696E+02  0.34062070329E+02  0.51100000000E-03 0.  1.
        -12    1    4    4    0    0 -0.68893046358E+01  0.52339743195E+00 -0.85642583830E+00  0.69620347926E+01  0.00000000000E+00 0.  1.
</event>
<event>
 8    1  0.6239251E-010  0.9118800E+02  0.7816164E-02  0.1184000E+00
        -11   -1    0    0    0    0  0.00000000000E+00  0.00000000000E+00  0.45593999997E+02  0.45594000000E+02  0.51100000000E-03 0. -1.
         11   -1    0    0    0    0 -0.00000000000E+00 -0.00000000000E+00 -0.45593999997E+02  0.45594000000E+02  0.51100000000E-03 0.  1.
         23    2    1    2    0    0  0.35527136788E-14 -0.35527136788E-14  0.00000000000E+00  0.91188000000E+02  0.91188000000E+02 0.  0.
    9900012    2    3    3    0    0  0.24100142338E+02  0.28856123217E+02 -0.21682496526E+02  0.47787270013E+02  0.19999995297E+02 0.  0.
         12    1    3    3    0    0 -0.24100142338E+02 -0.28856123217E+02  0.21682496526E+02  0.43400729987E+02  0.00000000000E+00 0. -1.
         11    1    4    4    0    0  0.52394645783E+01  0.50343326801E+01 -0.14900460119E+02  0.16577702091E+02  0.51100000000E-03 0. -1.
        -11    1    4    4    0    0  0.17642530381E+02  0.22089564805E+02 -0.68592562535E+01  0.29090499276E+02  0.51100000000E-03 0.  1.
         12    1    4    4    0    0  0.12181473785E+01  0.17322257317E+01  0.77219846281E-01  0.21190686459E+01  0.00000000000E+00 0. -1.
</event>
<event>
 8    1  0.6239251E-010  0.9118800E+02  0.7816164E-02  0.1184000E+00
        -11   -1    0    0    0    0  0.00000000000E+00  0.00000000000E+00  0.45593999997E+02  0.45594000000E+02  0.51100000000E-03 0. -1.
         11   -1    0    0    0    0 -0.00000000000E+00 -0.00000000000E+00 -0.45593999997E+02  0.45594000000E+02  0.51100000000E-03 0.  1.
         23    2    1    2    0    0 -0.35527136788E-14  0.00000000000E+00  0.00000000000E+00  0.91188000000E+02  0.91188000000E+02 0.  0.
    9900012    2    3    3    0    0 -0.30274562520E+02 -0.14567550567E+02 -0.27474729996E+02  0.47787268973E+02  0.19999990555E+02 0.  0.
         12    1    3    3    0    0  0.30274562520E+02  0.14567550567E+02  0.27474729996E+02  0.43400731027E+02  0.00000000000E+00 0. -1.
         11    1    4    4    0    0 -0.99894910799E+01  0.10607841205E+01 -0.68864116019E+00  0.10069231445E+02  0.51100000000E-03 0. -1.
        -11    1    4    4    0    0 -0.14459187117E+02 -0.68136270100E+01 -0.16469610315E+02  0.22950853346E+02  0.51100000000E-03 0.  1.
        -12    1    4    4    0    0 -0.58258843231E+01 -0.88147076776E+01 -0.10316478521E+02  0.14767184182E+02  0.00000000000E+00 0.  1.
</event>
<event>
 8    1  0.6239251E-010  0.9118800E+02  0.7816164E-02  0.1184000E+00
        -11   -1    0    0    0    0  0.00000000000E+00  0.00000000000E+00  0.45593999997E+02  0.45594000000E+02  0.51100000000E-03 0. -1.
         11   -1    0    0    0    0 -0.00000000000E+00 -0.00000000000E+00 -0.45593999997E+02  0.45594000000E+02  0.51100000000E-03 0.  1.
         23    2    1    2    0    0  0.00000000000E+00  0.00000000000E+00 -0.71054273576E-14  0.91188000000E+02  0.91188000000E+02 0.  0.
    9900012    2    3    3    0    0 -0.11126869810E+02  0.10817852001E+02 -0.40531344703E+02  0.47787273542E+02  0.20000011387E+02 0.  0.
         12    1    3    3    0    0  0.11126869810E+02 -0.10817852001E+02  0.40531344703E+02  0.43400726458E+02  0.00000000000E+00 0. -1.
         11    1    4    4    0    0 -0.77981554821E+01  0.77257029725E+00 -0.63432723111E+01  0.10081924303E+02  0.51100000000E-03 0. -1.
        -11    1    4    4    0    0 -0.10848212434E+01  0.55378896153E+01 -0.31492600058E+02  0.31994201306E+02  0.51100000000E-03 0.  1.
         12    1    4    4    0    0 -0.22438930842E+01  0.45073920880E+01 -0.26954723340E+01  0.57111479329E+01  0.00000000000E+00 0. -1.
</event>
<event>
 8    1  0.6239251E-010  0.9118800E+02  0.7816164E-02  0.1184000E+00
        -11   -1    0    0    0    0  0.00000000000E+00  0.00000000000E+00  0.45593999997E+02  0.45594000000E+02  0.51100000000E-03 0. -1.
         11   -1    0    0    0    0 -0.00000000000E+00 -0.00000000000E+00 -0.45593999997E+02  0.45594000000E+02  0.51100000000E-03 0.  1.
         23    2    1    2    0    0  0.00000000000E+00  0.00000000000E+00  0.00000000000E+00  0.91188000000E+02  0.91188000000E+02 0.  0.
    9900012    2    3    3    0    0 -0.33245372084E+02  0.11630730417E+02 -0.25359315762E+02  0.47787267852E+02  0.19999985446E+02 0.  0.
         12    1    3    3    0    0  0.33245372084E+02 -0.11630730417E+02  0.25359315762E+02  0.43400732148E+02  0.00000000000E+00 0. -1.
         11    1    4    4    0    0 -0.14901219915E+02  0.84665200258E+01 -0.25357245834E+01  0.17325074768E+02  0.51100000000E-03 0. -1.
        -11    1    4    4    0    0 -0.16394836868E+02  0.28675898435E+01 -0.15039067411E+02  0.22431836668E+02  0.51100000000E-03 0.  1.
         12    1    4    4    0    0 -0.19493153010E+01  0.29662054814E+00 -0.77845237670E+01  0.80303564163E+01  0.00000000000E+00 0. -1.
</event>
<event>
 8    1  0.6239251E-010  0.9118800E+02  0.7816164E-02  0.1184000E+00
        -11   -1    0    0    0    0  0.00000000000E+00  0.00000000000E+00  0.45593999997E+02  0.45594000000E+02  0.51100000000E-03 0. -1.
         11   -1    0    0    0    0 -0.00000000000E+00 -0.00000000000E+00 -0.45593999997E+02  0.45594000000E+02  0.51100000000E-03 0.  1.
         23    2    1    2    0    0  0.88817841970E-15 -0.35527136788E-14  0.35527136788E-14  0.91188000000E+02  0.91188000000E+02 0.  0.
    9900012    2    3    3    0    0  0.51093515937E+01  0.30829187962E+02 -0.30117751832E+02  0.47787270980E+02  0.19999999705E+02 0.  0.
         12    1    3    3    0    0 -0.51093515937E+01 -0.30829187962E+02  0.30117751832E+02  0.43400729020E+02  0.00000000000E+00 0. -1.
         11    1    4    4    0    0 -0.36074484231E+01 -0.10203005770E+00 -0.50149825539E+01  0.61785228442E+01  0.51100000000E-03 0. -1.
        -11    1    4    4    0    0 -0.11923975236E+01  0.42435260873E+01 -0.15889472899E+01  0.46855180353E+01  0.51100000000E-03 0.  1.
         12    1    4    4    0    0  0.99091975404E+01  0.26687691932E+02 -0.23513821988E+02  0.36923230100E+02  0.00000000000E+00 0. -1.
</event>
<event>
 8    1  0.6239251E-010  0.9118800E+02  0.7816164E-02  0.1184000E+00
        -11   -1    0    0    0    0  0.00000000000E+00  0.00000000000E+00  0.45593999997E+02  0.45594000000E+02  0.51100000000E-03 0. -1.
         11   -1    0    0    0    0 -0.00000000000E+00 -0.00000000000E+00 -0.45593999997E+02  0.45594000000E+02  0.51100000000E-03 0.  1.
         23    2    1    2    0    0  0.88817841970E-15 -0.35527136788E-14  0.00000000000E+00  0.91188000000E+02  0.91188000000E+02 0.  0.
    9900012    2    3    3    0    0 -0.32128181521E+01  0.31850692497E+02 -0.29305882502E+02  0.47787267723E+02  0.19999984854E+02 0.  0.
         12    1    3    3    0    0  0.32128181521E+01 -0.31850692497E+02  0.29305882502E+02  0.43400732277E+02  0.00000000000E+00 0. -1.
         11    1    4    4    0    0  0.16590281170E+01  0.34846685893E+01 -0.75759194892E+01  0.85023435498E+01  0.51100000000E-03 0. -1.
        -11    1    4    4    0    0 -0.84262113219E+01  0.88929726221E+01 -0.12294818875E+02  0.17356513784E+02  0.51100000000E-03 0.  1.
        -12    1    4    4    0    0  0.35543650528E+01  0.19473051285E+02 -0.94351441381E+01  0.21928410389E+02  0.00000000000E+00 0.  1.
</event>
<event>
 8    1  0.6239251E-010  0.9118800E+02  0.7816164E-02  0.1184000E+00
        -11   -1    0    0    0    0  0.00000000000E+00  0.00000000000E+00  0.45593999997E+02  0.45594000000E+02  0.51100000000E-03 0. -1.
         11   -1    0    0    0    0 -0.00000000000E+00 -0.00000000000E+00 -0.45593999997E+02  0.45594000000E+02  0.51100000000E-03 0.  1.
         23    2    1    2    0    0  0.00000000000E+00 -0.35527136788E-14 -0.35527136788E-14  0.91188000000E+02  0.91188000000E+02 0.  0.
    9900012    2    3    3    0    0 -0.26810415433E+02 -0.14023114462E+02  0.31115529986E+02  0.47787282020E+02  0.20000050040E+02 0.  0.
        -12    1    3    3    0    0  0.26810415433E+02  0.14023114462E+02 -0.31115529986E+02  0.43400717980E+02  0.00000000000E+00 0.  1.
         11    1    4    4    0    0 -0.14181210701E+02 -0.17394046449E+02  0.23742413173E+02  0.32670503093E+02  0.51100000000E-03 0. -1.
        -11    1    4    4    0    0 -0.93519828124E+01  0.32907880243E+01  0.53696172863E+01  0.11274824096E+02  0.51100000000E-03 0.  1.
         12    1    4    4    0    0 -0.32772219193E+01  0.80143962453E-01  0.20034995262E+01  0.38419548299E+01  0.00000000000E+00 0. -1.
</event>
<event>
 8    1  0.6239251E-010  0.9118800E+02  0.7816164E-02  0.1184000E+00
        -11   -1    0    0    0    0  0.00000000000E+00  0.00000000000E+00  0.45593999997E+02  0.45594000000E+02  0.51100000000E-03 0. -1.
         11   -1    0    0    0    0 -0.00000000000E+00 -0.00000000000E+00 -0.45593999997E+02  0.45594000000E+02  0.51100000000E-03 0.  1.
         23    2    1    2    0    0  0.00000000000E+00  0.44408920985E-15  0.71054273576E-14  0.91188000000E+02  0.91188000000E+02 0.  0.
    9900012    2    3    3    0    0  0.19293008730E+02  0.18784394222E+01 -0.38831356676E+02  0.47787274409E+02  0.20000015341E+02 0.  0.
         12    1    3    3    0    0 -0.19293008730E+02 -0.18784394222E+01  0.38831356676E+02  0.43400725591E+02  0.00000000000E+00 0. -1.
         11    1    4    4    0    0  0.84748166095E+01  0.32853342078E+00 -0.28145900131E+01  0.89360152180E+01  0.51100000000E-03 0. -1.
        -11    1    4    4    0    0  0.11139441552E+02  0.41077429123E+01 -0.27515155521E+02  0.29967390503E+02  0.51100000000E-03 0.  1.
        -12    1    4    4    0    0 -0.32124943222E+00 -0.25578369109E+01 -0.85016111417E+01  0.88838686880E+01  0.00000000000E+00 0.  1.
</event>
<event>
 8    1  0.6239251E-010  0.9118800E+02  0.7816164E-02  0.1184000E+00
        -11   -1    0    0    0    0  0.00000000000E+00  0.00000000000E+00  0.45593999997E+02  0.45594000000E+02  0.51100000000E-03 0. -1.
         11   -1    0    0    0    0 -0.00000000000E+00 -0.00000000000E+00 -0.45593999997E+02  0.45594000000E+02  0.51100000000E-03 0.  1.
         23    2    1    2    0    0  0.00000000000E+00  0.00000000000E+00  0.00000000000E+00  0.91188000000E+02  0.91188000000E+02 0.  0.
    9900012    2    3    3    0    0 -0.36688027466E+02 -0.19986471478E+02 -0.11753831159E+02  0.47787274794E+02  0.20000017098E+02 0.  0.
        -12    1    3    3    0    0  0.36688027466E+02  0.19986471478E+02  0.11753831159E+02  0.43400725206E+02  0.00000000000E+00 0.  1.
         11    1    4    4    0    0 -0.32595753509E+02 -0.14974608659E+02 -0.53348399498E+01  0.36265445935E+02  0.51100000000E-03 0. -1.
        -11    1    4    4    0    0  0.16131384046E+01 -0.13663286291E+00 -0.26953631426E+01  0.31441798268E+01  0.51100000000E-03 0.  1.
         12    1    4    4    0    0 -0.57054123610E+01 -0.48752299562E+01 -0.37236280662E+01  0.83776490324E+01  0.00000000000E+00 0. -1.
</event>
<event>
 8    1  0.6239251E-010  0.9118800E+02  0.7816164E-02  0.1184000E+00
        -11   -1    0    0    0    0  0.00000000000E+00  0.00000000000E+00  0.45593999997E+02  0.45594000000E+02  0.51100000000E-03 0.  1.
         11   -1    0    0    0    0 -0.00000000000E+00 -0.00000000000E+00 -0.45593999997E+02  0.45594000000E+02  0.51100000000E-03 0. -1.
         23    2    1    2    0    0  0.71054273576E-14  0.00000000000E+00 -0.35527136788E-14  0.91188000000E+02  0.91188000000E+02 0.  0.
    9900012    2    3    3    0    0  0.34249252784E+02  0.54278718114E+01 -0.26098841651E+02  0.47787278299E+02  0.20000033075E+02 0.  0.
         12    1    3    3    0    0 -0.34249252784E+02 -0.54278718114E+01  0.26098841651E+02  0.43400721701E+02  0.00000000000E+00 0. -1.
         11    1    4    4    0    0  0.95327900836E+00 -0.10449670981E+01  0.59116508529E+00  0.15330275676E+01  0.51100000000E-03 0. -1.
        -11    1    4    4    0    0  0.61093959770E+00 -0.32995774981E+01 -0.86015449698E+00  0.34641485069E+01  0.51100000000E-03 0.  1.
        -12    1    4    4    0    0  0.32685034178E+02  0.97724164076E+01 -0.25829852239E+02  0.42790102224E+02  0.00000000000E+00 0.  1.
</event>
<event>
 8    1  0.6239251E-010  0.9118800E+02  0.7816164E-02  0.1184000E+00
        -11   -1    0    0    0    0  0.00000000000E+00  0.00000000000E+00  0.45593999997E+02  0.45594000000E+02  0.51100000000E-03 0. -1.
         11   -1    0    0    0    0 -0.00000000000E+00 -0.00000000000E+00 -0.45593999997E+02  0.45594000000E+02  0.51100000000E-03 0.  1.
         23    2    1    2    0    0 -0.17763568394E-14  0.00000000000E+00  0.35527136788E-14  0.91188000000E+02  0.91188000000E+02 0.  0.
    9900012    2    3    3    0    0 -0.13063132245E+02 -0.31778778457E+02 -0.26515792555E+02  0.47787269141E+02  0.19999991321E+02 0.  0.
         12    1    3    3    0    0  0.13063132245E+02  0.31778778457E+02  0.26515792555E+02  0.43400730859E+02  0.00000000000E+00 0. -1.
         11    1    4    4    0    0 -0.90050115897E+01 -0.85048334160E+01 -0.32734102107E+01  0.12811621280E+02  0.51100000000E-03 0. -1.
        -11    1    4    4    0    0 -0.25360774013E+01 -0.23931808024E+02 -0.23019578717E+02  0.33302614439E+02  0.51100000000E-03 0.  1.
        -12    1    4    4    0    0 -0.15220432545E+01  0.65786298344E+00 -0.22280362772E+00  0.16730334217E+01  0.00000000000E+00 0.  1.
</event>
<event>
 8    1  0.6239251E-010  0.9118800E+02  0.7816164E-02  0.1184000E+00
        -11   -1    0    0    0    0  0.00000000000E+00  0.00000000000E+00  0.45593999997E+02  0.45594000000E+02  0.51100000000E-03 0. -1.
         11   -1    0    0    0    0 -0.00000000000E+00 -0.00000000000E+00 -0.45593999997E+02  0.45594000000E+02  0.51100000000E-03 0.  1.
         23    2    1    2    0    0  0.00000000000E+00 -0.71470607210E-15  0.00000000000E+00  0.91188000000E+02  0.91188000000E+02 0.  0.
    9900012    2    3    3    0    0 -0.27009374383E+02  0.42929234796E-01 -0.33972270752E+02  0.47787270426E+02  0.19999997182E+02 0.  0.
         12    1    3    3    0    0  0.27009374383E+02 -0.42929234796E-01  0.33972270752E+02  0.43400729574E+02  0.00000000000E+00 0. -1.
         11    1    4    4    0    0  0.38835331542E+00  0.30559691266E+01 -0.83047752979E+00  0.31905264125E+01  0.51100000000E-03 0. -1.
        -11    1    4    4    0    0 -0.28368939697E+02 -0.37530918402E+01 -0.31637842611E+02  0.42659530274E+02  0.51100000000E-03 0.  1.
        -12    1    4    4    0    0  0.97121199852E+00  0.74005194843E+00 -0.15039506110E+01  0.19372137395E+01  0.00000000000E+00 0.  1.
</event>
<event>
 8    1  0.6239251E-010  0.9118800E+02  0.7816164E-02  0.1184000E+00
        -11   -1    0    0    0    0  0.00000000000E+00  0.00000000000E+00  0.45593999997E+02  0.45594000000E+02  0.51100000000E-03 0. -1.
         11   -1    0    0    0    0 -0.00000000000E+00 -0.00000000000E+00 -0.45593999997E+02  0.45594000000E+02  0.51100000000E-03 0.  1.
         23    2    1    2    0    0  0.97144514655E-16 -0.35527136788E-14  0.00000000000E+00  0.91188000000E+02  0.91188000000E+02 0.  0.
    9900012    2    3    3    0    0  0.70930836915E-01  0.20653162710E+02 -0.38171516218E+02  0.47787276371E+02  0.20000024285E+02 0.  0.
         12    1    3    3    0    0 -0.70930836915E-01 -0.20653162710E+02  0.38171516218E+02  0.43400723629E+02  0.00000000000E+00 0. -1.
         11    1    4    4    0    0 -0.95956240546E-01  0.16051584186E+00  0.19248870150E+01  0.19339501590E+01  0.51100000000E-03 0. -1.
        -11    1    4    4    0    0  0.13576108075E+01  0.67864698233E+00 -0.77870330541E+01  0.79335712563E+01  0.51100000000E-03 0.  1.
         12    1    4    4    0    0 -0.11907237300E+01  0.19813999886E+02 -0.32309370179E+02  0.37919754955E+02  0.00000000000E+00 0. -1.
</event>
<event>
 8    1  0.6239251E-010  0.9118800E+02  0.7816164E-02  0.1184000E+00
        -11   -1    0    0    0    0  0.00000000000E+00  0.00000000000E+00  0.45593999997E+02  0.45594000000E+02  0.51100000000E-03 0. -1.
         11   -1    0    0    0    0 -0.00000000000E+00 -0.00000000000E+00 -0.45593999997E+02  0.45594000000E+02  0.51100000000E-03 0.  1.
         23    2    1    2    0    0  0.00000000000E+00  0.17763568394E-14  0.00000000000E+00  0.91188000000E+02  0.91188000000E+02 0.  0.
    9900012    2    3    3    0    0  0.34759204422E+02 -0.15903914613E+02  0.20554475899E+02  0.47787271071E+02  0.20000000122E+02 0.  0.
        -12    1    3    3    0    0 -0.34759204422E+02  0.15903914613E+02 -0.20554475899E+02  0.43400728929E+02  0.00000000000E+00 0.  1.
         11    1    4    4    0    0  0.65135913909E+01 -0.33587536136E+01 -0.13920611192E+01  0.74596201690E+01  0.51100000000E-03 0.  1.
        -11    1    4    4    0    0  0.24798573300E+02 -0.12451044251E+02  0.23669816727E+02  0.36472701638E+02  0.51100000000E-03 0. -1.
         12    1    4    4    0    0  0.34470397316E+01 -0.94116748328E-01 -0.17232797087E+01  0.38549492640E+01  0.00000000000E+00 0. -1.
</event>
<event>
 8    1  0.6239251E-010  0.9118800E+02  0.7816164E-02  0.1184000E+00
        -11   -1    0    0    0    0  0.00000000000E+00  0.00000000000E+00  0.45593999997E+02  0.45594000000E+02  0.51100000000E-03 0. -1.
         11   -1    0    0    0    0 -0.00000000000E+00 -0.00000000000E+00 -0.45593999997E+02  0.45594000000E+02  0.51100000000E-03 0.  1.
         23    2    1    2    0    0  0.00000000000E+00  0.00000000000E+00  0.00000000000E+00  0.91188000000E+02  0.91188000000E+02 0.  0.
    9900012    2    3    3    0    0  0.31200712353E+02  0.20687131897E+02 -0.21958635742E+02  0.47787267736E+02  0.19999984913E+02 0.  0.
         12    1    3    3    0    0 -0.31200712353E+02 -0.20687131897E+02  0.21958635742E+02  0.43400732264E+02  0.00000000000E+00 0. -1.
         11    1    4    4    0    0  0.30603740414E+00  0.45352130182E+01  0.98874299181E+00  0.46518199641E+01  0.51100000000E-03 0.  1.
        -11    1    4    4    0    0  0.18772712977E+02  0.67767724751E+01 -0.18412066755E+02  0.27154071520E+02  0.51100000000E-03 0. -1.
        -12    1    4    4    0    0  0.12121961972E+02  0.93751464033E+01 -0.45353119793E+01  0.15981376251E+02  0.00000000000E+00 0.  1.
</event>
<event>
 8    1  0.6239251E-010  0.9118800E+02  0.7816164E-02  0.1184000E+00
        -11   -1    0    0    0    0  0.00000000000E+00  0.00000000000E+00  0.45593999997E+02  0.45594000000E+02  0.51100000000E-03 0. -1.
         11   -1    0    0    0    0 -0.00000000000E+00 -0.00000000000E+00 -0.45593999997E+02  0.45594000000E+02  0.51100000000E-03 0.  1.
         23    2    1    2    0    0  0.00000000000E+00  0.00000000000E+00  0.35527136788E-14  0.91188000000E+02  0.91188000000E+02 0.  0.
    9900012    2    3    3    0    0  0.16805193545E+02  0.32235265961E+02  0.23708577139E+02  0.47787268075E+02  0.19999986461E+02 0.  0.
        -12    1    3    3    0    0 -0.16805193545E+02 -0.32235265961E+02 -0.23708577139E+02  0.43400731925E+02  0.00000000000E+00 0.  1.
         11    1    4    4    0    0  0.97144101703E+01  0.15759361437E+02  0.11678145371E+02  0.21888497377E+02  0.51100000000E-03 0. -1.
        -11    1    4    4    0    0 -0.12467633660E+01 -0.54011100320E+00  0.57922447521E+01  0.59494737848E+01  0.51100000000E-03 0.  1.
        -12    1    4    4    0    0  0.83375467407E+01  0.17016015528E+02  0.62381870157E+01  0.19949296914E+02  0.00000000000E+00 0.  1.
</event>
<event>
 8    1  0.6239251E-010  0.9118800E+02  0.7816164E-02  0.1184000E+00
        -11   -1    0    0    0    0  0.00000000000E+00  0.00000000000E+00  0.45593999997E+02  0.45594000000E+02  0.51100000000E-03 0. -1.
         11   -1    0    0    0    0 -0.00000000000E+00 -0.00000000000E+00 -0.45593999997E+02  0.45594000000E+02  0.51100000000E-03 0.  1.
         23    2    1    2    0    0  0.00000000000E+00  0.00000000000E+00  0.17763568394E-14  0.91188000000E+02  0.91188000000E+02 0.  0.
    9900012    2    3    3    0    0  0.36818572944E+02  0.20418852359E+02  0.10539774604E+02  0.47787266205E+02  0.19999977934E+02 0.  0.
        -12    1    3    3    0    0 -0.36818572944E+02 -0.20418852359E+02 -0.10539774604E+02  0.43400733795E+02  0.00000000000E+00 0.  1.
         11    1    4    4    0    0  0.21545222016E+01  0.94511700837E+00  0.33821028930E+01  0.41199311058E+01  0.51100000000E-03 0. -1.
        -11    1    4    4    0    0  0.20685790876E+02  0.19051484826E+02  0.90786930176E+01  0.29551373664E+02  0.51100000000E-03 0.  1.
        -12    1    4    4    0    0  0.13978259866E+02  0.42225052491E+00 -0.19210213070E+01  0.14115961435E+02  0.00000000000E+00 0.  1.
</event>
<event>
 8    1  0.6239251E-010  0.9118800E+02  0.7816164E-02  0.1184000E+00
        -11   -1    0    0    0    0  0.00000000000E+00  0.00000000000E+00  0.45593999997E+02  0.45594000000E+02  0.51100000000E-03 0. -1.
         11   -1    0    0    0    0 -0.00000000000E+00 -0.00000000000E+00 -0.45593999997E+02  0.45594000000E+02  0.51100000000E-03 0.  1.
         23    2    1    2    0    0  0.00000000000E+00  0.00000000000E+00  0.00000000000E+00  0.91188000000E+02  0.91188000000E+02 0.  0.
    9900012    2    3    3    0    0 -0.27133781352E+02 -0.36579816121E+01 -0.33674925061E+02  0.47787268465E+02  0.19999988239E+02 0.  0.
         12    1    3    3    0    0  0.27133781352E+02  0.36579816121E+01  0.33674925061E+02  0.43400731535E+02  0.00000000000E+00 0. -1.
         11    1    4    4    0    0 -0.82233541389E+01  0.31721126842E+01 -0.21426823887E+02  0.23168828937E+02  0.51100000000E-03 0. -1.
        -11    1    4    4    0    0 -0.15081399577E+02 -0.72642032782E+01 -0.12286381828E+02  0.20764692176E+02  0.51100000000E-03 0.  1.
        -12    1    4    4    0    0 -0.38290276358E+01  0.43410898183E+00  0.38280654304E-01  0.38537473519E+01  0.00000000000E+00 0.  1.
</event>
<event>
 8    1  0.6239251E-010  0.9118800E+02  0.7816164E-02  0.1184000E+00
        -11   -1    0    0    0    0  0.00000000000E+00  0.00000000000E+00  0.45593999997E+02  0.45594000000E+02  0.51100000000E-03 0. -1.
         11   -1    0    0    0    0 -0.00000000000E+00 -0.00000000000E+00 -0.45593999997E+02  0.45594000000E+02  0.51100000000E-03 0.  1.
         23    2    1    2    0    0  0.35527136788E-14  0.00000000000E+00  0.00000000000E+00  0.91188000000E+02  0.91188000000E+02 0.  0.
    9900012    2    3    3    0    0 -0.21787511162E+02  0.16091204235E+02 -0.33911664058E+02  0.47787268951E+02  0.19999990457E+02 0.  0.
         12    1    3    3    0    0  0.21787511162E+02 -0.16091204235E+02  0.33911664058E+02  0.43400731049E+02  0.00000000000E+00 0. -1.
         11    1    4    4    0    0 -0.16847297397E+02  0.54222590265E+01 -0.21432934962E+02  0.27795737513E+02  0.51100000000E-03 0.  1.
        -11    1    4    4    0    0 -0.60503753130E+01  0.12253472029E+02 -0.10602554538E+02  0.17296496211E+02  0.51100000000E-03 0. -1.
        -12    1    4    4    0    0  0.11101615477E+01 -0.15845268204E+01 -0.18761745571E+01  0.26950352271E+01  0.00000000000E+00 0.  1.
</event>
<event>
 8    1  0.6539631E-010  0.9118800E+02  0.7816164E-02  0.1184000E+00
        -11   -1    0    0    0    0  0.00000000000E+00  0.00000000000E+00  0.45593999997E+02  0.45594000000E+02  0.51100000000E-03 0. -1.
         11   -1    0    0    0    0 -0.00000000000E+00 -0.00000000000E+00 -0.45593999997E+02  0.45594000000E+02  0.51100000000E-03 0.  1.
         23    2    1    2    0    0  0.00000000000E+00 -0.35527136788E-14 -0.71054273576E-14  0.91188000000E+02  0.91188000000E+02 0.  0.
    9900012    2    3    3    0    0 -0.20941951582E+01  0.22977520297E+02  0.36759644434E+02  0.47787267848E+02  0.19999985428E+02 0.  0.
        -12    1    3    3    0    0  0.20941951582E+01 -0.22977520297E+02 -0.36759644434E+02  0.43400732152E+02  0.00000000000E+00 0.  1.
         11    1    4    4    0    0 -0.21993511771E+01  0.14550345587E+02  0.17258276330E+02  0.22680339602E+02  0.51100000000E-03 0. -1.
        -11    1    4    4    0    0 -0.38903024493E+00  0.12182127773E+01  0.17584741207E+02  0.17631180065E+02  0.51100000000E-03 0.  1.
        -12    1    4    4    0    0  0.49418626382E+00  0.72089619328E+01  0.19166268970E+01  0.74757481815E+01  0.00000000000E+00 0.  1.
</event>
<event>
 8    1  0.6239251E-010  0.9118800E+02  0.7816164E-02  0.1184000E+00
        -11   -1    0    0    0    0  0.00000000000E+00  0.00000000000E+00  0.45593999997E+02  0.45594000000E+02  0.51100000000E-03 0.  1.
         11   -1    0    0    0    0 -0.00000000000E+00 -0.00000000000E+00 -0.45593999997E+02  0.45594000000E+02  0.51100000000E-03 0. -1.
         23    2    1    2    0    0  0.00000000000E+00  0.00000000000E+00  0.00000000000E+00  0.91188000000E+02  0.91188000000E+02 0.  0.
    9900012    2    3    3    0    0 -0.26248499535E+02 -0.34494394099E+02 -0.21848089997E+01  0.47787304816E+02  0.20000153979E+02 0.  0.
        -12    1    3    3    0    0  0.26248499535E+02  0.34494394099E+02  0.21848089997E+01  0.43400695184E+02  0.00000000000E+00 0.  1.
         11    1    4    4    0    0 -0.13795233809E+02 -0.17241991427E+02  0.56933974058E+00  0.22088886170E+02  0.51100000000E-03 0. -1.
        -11    1    4    4    0    0 -0.53576914604E+01  0.10696947430E+01  0.13466981974E+01  0.56269619623E+01  0.51100000000E-03 0.  1.
        -12    1    4    4    0    0 -0.70955742654E+01 -0.18322097414E+02 -0.41008469377E+01  0.20071456684E+02  0.00000000000E+00 0.  1.
</event>
<event>
 8    1  0.6239251E-010  0.9118800E+02  0.7816164E-02  0.1184000E+00
        -11   -1    0    0    0    0  0.00000000000E+00  0.00000000000E+00  0.45593999997E+02  0.45594000000E+02  0.51100000000E-03 0. -1.
         11   -1    0    0    0    0 -0.00000000000E+00 -0.00000000000E+00 -0.45593999997E+02  0.45594000000E+02  0.51100000000E-03 0.  1.
         23    2    1    2    0    0  0.88817841970E-15  0.88817841970E-15  0.00000000000E+00  0.91188000000E+02  0.91188000000E+02 0.  0.
    9900012    2    3    3    0    0 -0.75526995261E+01  0.42897699865E+01 -0.42522674778E+02  0.47787271124E+02  0.20000000365E+02 0.  0.
         12    1    3    3    0    0  0.75526995261E+01 -0.42897699865E+01  0.42522674778E+02  0.43400728876E+02  0.00000000000E+00 0. -1.
         11    1    4    4    0    0 -0.68423573713E+00 -0.59429190523E+01 -0.10823844696E+02  0.12366975365E+02  0.51100000000E-03 0. -1.
        -11    1    4    4    0    0 -0.39246620810E+01  0.11463186809E+02 -0.28156807037E+02  0.30653114149E+02  0.51100000000E-03 0.  1.
        -12    1    4    4    0    0 -0.29438017080E+01 -0.12304977701E+01 -0.35420230449E+01  0.47671816106E+01  0.00000000000E+00 0.  1.
</event>
<event>
 8    1  0.6239251E-010  0.9118800E+02  0.7816164E-02  0.1184000E+00
        -11   -1    0    0    0    0  0.00000000000E+00  0.00000000000E+00  0.45593999997E+02  0.45594000000E+02  0.51100000000E-03 0. -1.
         11   -1    0    0    0    0 -0.00000000000E+00 -0.00000000000E+00 -0.45593999997E+02  0.45594000000E+02  0.51100000000E-03 0.  1.
         23    2    1    2    0    0  0.00000000000E+00 -0.35527136788E-14  0.00000000000E+00  0.91188000000E+02  0.91188000000E+02 0.  0.
    9900012    2    3    3    0    0 -0.23696430193E+02  0.31834980583E+02 -0.17568045231E+02  0.47787274132E+02  0.20000014079E+02 0.  0.
         12    1    3    3    0    0  0.23696430193E+02 -0.31834980583E+02  0.17568045231E+02  0.43400725868E+02  0.00000000000E+00 0. -1.
         11    1    4    4    0    0 -0.24325249270E+01  0.31231574815E+01  0.21597294553E+01  0.45095145810E+01  0.51100000000E-03 0. -1.
        -11    1    4    4    0    0 -0.17969643527E+02  0.17977884510E+02 -0.19517792283E+02  0.32047724346E+02  0.51100000000E-03 0.  1.
        -12    1    4    4    0    0 -0.32942617393E+01  0.10733938592E+02 -0.20998240333E+00  0.11230035205E+02  0.00000000000E+00 0.  1.
</event>
<event>
 8    1  0.6239251E-010  0.9118800E+02  0.7816164E-02  0.1184000E+00
        -11   -1    0    0    0    0  0.00000000000E+00  0.00000000000E+00  0.45593999997E+02  0.45594000000E+02  0.51100000000E-03 0. -1.
         11   -1    0    0    0    0 -0.00000000000E+00 -0.00000000000E+00 -0.45593999997E+02  0.45594000000E+02  0.51100000000E-03 0.  1.
         23    2    1    2    0    0  0.00000000000E+00  0.00000000000E+00  0.00000000000E+00  0.91188000000E+02  0.91188000000E+02 0.  0.
    9900012    2    3    3    0    0  0.10404666405E+02  0.14802964415E+02  0.39449185162E+02  0.47787273642E+02  0.20000011842E+02 0.  0.
        -12    1    3    3    0    0 -0.10404666405E+02 -0.14802964415E+02 -0.39449185162E+02  0.43400726358E+02  0.00000000000E+00 0.  1.
         11    1    4    4    0    0  0.55740234419E+01  0.81316169120E+01  0.65532220806E+01  0.11837974946E+02  0.51100000000E-03 0. -1.
        -11    1    4    4    0    0  0.41186340159E+01  0.52430911166E+01  0.33563575434E+02  0.34219391386E+02  0.51100000000E-03 0.  1.
        -12    1    4    4    0    0  0.71200894721E+00  0.14282563863E+01 -0.66761235288E+00  0.17299073095E+01  0.00000000000E+00 0.  1.
</event>
<event>
 8    1  0.6239251E-010  0.9118800E+02  0.7816164E-02  0.1184000E+00
        -11   -1    0    0    0    0  0.00000000000E+00  0.00000000000E+00  0.45593999997E+02  0.45594000000E+02  0.51100000000E-03 0. -1.
         11   -1    0    0    0    0 -0.00000000000E+00 -0.00000000000E+00 -0.45593999997E+02  0.45594000000E+02  0.51100000000E-03 0.  1.
         23    2    1    2    0    0 -0.35527136788E-14  0.00000000000E+00  0.00000000000E+00  0.91188000000E+02  0.91188000000E+02 0.  0.
    9900012    2    3    3    0    0  0.20740792383E+02  0.35921812251E+02 -0.12769702201E+02  0.47787281591E+02  0.20000048086E+02 0.  0.
        -12    1    3    3    0    0 -0.20740792383E+02 -0.35921812251E+02  0.12769702201E+02  0.43400718409E+02  0.00000000000E+00 0.  1.
         11    1    4    4    0    0  0.18293489778E+02  0.14881443698E+02 -0.91206426899E+01  0.25284288761E+02  0.51100000000E-03 0. -1.
        -11    1    4    4    0    0  0.24295470547E+01  0.18642739319E+02 -0.85308098187E+00  0.18819728362E+02  0.51100000000E-03 0.  1.
         12    1    4    4    0    0  0.17755550711E-01  0.23976292343E+01 -0.27959785297E+01  0.36832644683E+01  0.00000000000E+00 0. -1.
</event>
<event>
 8    1  0.6239251E-010  0.9118800E+02  0.7816164E-02  0.1184000E+00
        -11   -1    0    0    0    0  0.00000000000E+00  0.00000000000E+00  0.45593999997E+02  0.45594000000E+02  0.51100000000E-03 0. -1.
         11   -1    0    0    0    0 -0.00000000000E+00 -0.00000000000E+00 -0.45593999997E+02  0.45594000000E+02  0.51100000000E-03 0.  1.
         23    2    1    2    0    0  0.00000000000E+00 -0.35527136788E-14  0.00000000000E+00  0.91188000000E+02  0.91188000000E+02 0.  0.
    9900012    2    3    3    0    0 -0.22045891566E+02  0.11675757077E+02  0.35514494030E+02  0.47787263549E+02  0.19999965825E+02 0.  0.
        -12    1    3    3    0    0  0.22045891566E+02 -0.11675757077E+02 -0.35514494030E+02  0.43400736451E+02  0.00000000000E+00 0.  1.
         11    1    4    4    0    0 -0.18075301805E+02  0.99349863642E+01  0.21312948350E+02  0.29659100746E+02  0.51100000000E-03 0. -1.
        -11    1    4    4    0    0  0.22778311391E+01  0.98583761914E+00  0.10578955102E+02  0.10866217457E+02  0.51100000000E-03 0.  1.
        -12    1    4    4    0    0 -0.62484208998E+01  0.75493309407E+00  0.36225905779E+01  0.72619453463E+01  0.00000000000E+00 0.  1.
</event>
<event>
 8    1  0.6239251E-010  0.9118800E+02  0.7816164E-02  0.1184000E+00
        -11   -1    0    0    0    0  0.00000000000E+00  0.00000000000E+00  0.45593999997E+02  0.45594000000E+02  0.51100000000E-03 0. -1.
         11   -1    0    0    0    0 -0.00000000000E+00 -0.00000000000E+00 -0.45593999997E+02  0.45594000000E+02  0.51100000000E-03 0.  1.
         23    2    1    2    0    0  0.00000000000E+00  0.00000000000E+00  0.35527136788E-14  0.91188000000E+02  0.91188000000E+02 0.  0.
    9900012    2    3    3    0    0  0.20813876065E+02  0.28809437426E+02  0.24908275645E+02  0.47787270545E+02  0.19999997721E+02 0.  0.
        -12    1    3    3    0    0 -0.20813876065E+02 -0.28809437426E+02 -0.24908275645E+02  0.43400729455E+02  0.00000000000E+00 0.  1.
         11    1    4    4    0    0  0.82123642879E+01  0.61694644570E+01  0.43574360125E+01  0.11157619269E+02  0.51100000000E-03 0. -1.
        -11    1    4    4    0    0  0.14044657213E+02  0.22574014708E+02  0.22055355440E+02  0.34543845184E+02  0.51100000000E-03 0.  1.
        -12    1    4    4    0    0 -0.14431454350E+01  0.65958261096E-01 -0.15045158073E+01  0.20858060919E+01  0.00000000000E+00 0.  1.
</event>
<event>
 8    1  0.6239251E-010  0.9118800E+02  0.7816164E-02  0.1184000E+00
        -11   -1    0    0    0    0  0.00000000000E+00  0.00000000000E+00  0.45593999997E+02  0.45594000000E+02  0.51100000000E-03 0. -1.
         11   -1    0    0    0    0 -0.00000000000E+00 -0.00000000000E+00 -0.45593999997E+02  0.45594000000E+02  0.51100000000E-03 0.  1.
         23    2    1    2    0    0 -0.44408920985E-15  0.00000000000E+00  0.00000000000E+00  0.91188000000E+02  0.91188000000E+02 0.  0.
    9900012    2    3    3    0    0 -0.39543852137E+01 -0.38919237532E+01  0.43044610534E+02  0.47787277322E+02  0.20000028621E+02 0.  0.
        -12    1    3    3    0    0  0.39543852137E+01  0.38919237532E+01 -0.43044610534E+02  0.43400722678E+02  0.00000000000E+00 0.  1.
         11    1    4    4    0    0  0.43466625842E+01  0.30835480212E+01  0.71495779508E+01  0.89172983103E+01  0.51100000000E-03 0. -1.
        -11    1    4    4    0    0 -0.31682790927E+01 -0.87555461065E+01  0.19736442794E+02  0.21822574423E+02  0.51100000000E-03 0.  1.
        -12    1    4    4    0    0 -0.51327687052E+01  0.17800743322E+01  0.16158589789E+02  0.17047404588E+02  0.00000000000E+00 0.  1.
</event>
<event>
 8    1  0.6239251E-010  0.9118800E+02  0.7816164E-02  0.1184000E+00
        -11   -1    0    0    0    0  0.00000000000E+00  0.00000000000E+00  0.45593999997E+02  0.45594000000E+02  0.51100000000E-03 0. -1.
         11   -1    0    0    0    0 -0.00000000000E+00 -0.00000000000E+00 -0.45593999997E+02  0.45594000000E+02  0.51100000000E-03 0.  1.
         23    2    1    2    0    0  0.13322676296E-14  0.00000000000E+00  0.00000000000E+00  0.91188000000E+02  0.91188000000E+02 0.  0.
    9900012    2    3    3    0    0  0.36650315164E+01  0.31002338468E+02  0.30150387236E+02  0.47787270779E+02  0.19999998788E+02 0.  0.
        -12    1    3    3    0    0 -0.36650315164E+01 -0.31002338468E+02 -0.30150387236E+02  0.43400729221E+02  0.00000000000E+00 0.  1.
         11    1    4    4    0    0  0.10475512952E+02  0.23936304215E+02  0.22551454506E+02  0.34514506106E+02  0.51100000000E-03 0. -1.
        -11    1    4    4    0    0 -0.32781705809E+01  0.84578349268E+00  0.97368393428E+00  0.35227564121E+01  0.51100000000E-03 0.  1.
         12    1    4    4    0    0 -0.35323108548E+01  0.62202507601E+01  0.66252487947E+01  0.97500082608E+01  0.00000000000E+00 0. -1.
</event>
<event>
 8    1  0.6239251E-010  0.9118800E+02  0.7816164E-02  0.1184000E+00
        -11   -1    0    0    0    0  0.00000000000E+00  0.00000000000E+00  0.45593999997E+02  0.45594000000E+02  0.51100000000E-03 0. -1.
         11   -1    0    0    0    0 -0.00000000000E+00 -0.00000000000E+00 -0.45593999997E+02  0.45594000000E+02  0.51100000000E-03 0.  1.
         23    2    1    2    0    0  0.00000000000E+00  0.00000000000E+00  0.00000000000E+00  0.91188000000E+02  0.91188000000E+02 0.  0.
    9900012    2    3    3    0    0  0.20846060958E+01  0.19851686250E+02 -0.38538137268E+02  0.47787273582E+02  0.20000011569E+02 0.  0.
         12    1    3    3    0    0 -0.20846060958E+01 -0.19851686250E+02  0.38538137268E+02  0.43400726418E+02  0.00000000000E+00 0. -1.
         11    1    4    4    0    0  0.19109179784E+01  0.22646920442E+00  0.16847859304E+00  0.19316524320E+01  0.51100000000E-03 0. -1.
        -11    1    4    4    0    0  0.46795769614E+00  0.19135228673E+02 -0.22089944116E+02  0.29229122328E+02  0.51100000000E-03 0.  1.
        -12    1    4    4    0    0 -0.29426957875E+00  0.48998837314E+00 -0.16616671745E+02  0.16626498822E+02  0.00000000000E+00 0.  1.
</event>
<event>
 8    1  0.6239251E-010  0.9118800E+02  0.7816164E-02  0.1184000E+00
        -11   -1    0    0    0    0  0.00000000000E+00  0.00000000000E+00  0.45593999997E+02  0.45594000000E+02  0.51100000000E-03 0.  1.
         11   -1    0    0    0    0 -0.00000000000E+00 -0.00000000000E+00 -0.45593999997E+02  0.45594000000E+02  0.51100000000E-03 0. -1.
         23    2    1    2    0    0  0.00000000000E+00  0.00000000000E+00  0.17763568394E-14  0.91188000000E+02  0.91188000000E+02 0.  0.
    9900012    2    3    3    0    0  0.14074760793E+02  0.39292788856E+02 -0.11899611859E+02  0.47787275238E+02  0.20000019119E+02 0.  0.
        -12    1    3    3    0    0 -0.14074760793E+02 -0.39292788856E+02  0.11899611859E+02  0.43400724762E+02  0.00000000000E+00 0.  1.
         11    1    4    4    0    0  0.18733894831E+01  0.46143086094E+01 -0.54526207310E+01  0.73846127316E+01  0.51100000000E-03 0. -1.
        -11    1    4    4    0    0  0.21333329926E+01  0.22351297827E+02 -0.91736044590E+01  0.24254621070E+02  0.51100000000E-03 0.  1.
        -12    1    4    4    0    0  0.10068038317E+02  0.12327182420E+02  0.27266133308E+01  0.16148041436E+02  0.00000000000E+00 0.  1.
</event>
<event>
 8    1  0.6239251E-010  0.9118800E+02  0.7816164E-02  0.1184000E+00
        -11   -1    0    0    0    0  0.00000000000E+00  0.00000000000E+00  0.45593999997E+02  0.45594000000E+02  0.51100000000E-03 0. -1.
         11   -1    0    0    0    0 -0.00000000000E+00 -0.00000000000E+00 -0.45593999997E+02  0.45594000000E+02  0.51100000000E-03 0.  1.
         23    2    1    2    0    0  0.00000000000E+00  0.35527136788E-14  0.00000000000E+00  0.91188000000E+02  0.91188000000E+02 0.  0.
    9900012    2    3    3    0    0 -0.28434964178E+02 -0.20460778930E+02  0.25620939594E+02  0.47787271804E+02  0.20000003465E+02 0.  0.
        -12    1    3    3    0    0  0.28434964178E+02  0.20460778930E+02 -0.25620939594E+02  0.43400728196E+02  0.00000000000E+00 0.  1.
         11    1    4    4    0    0 -0.12699574002E+02 -0.45814407991E+01  0.20637603001E+02  0.24661294319E+02  0.51100000000E-03 0. -1.
        -11    1    4    4    0    0 -0.95639204762E+01 -0.97417820171E+01  0.14362215615E+01  0.13727112747E+02  0.51100000000E-03 0.  1.
         12    1    4    4    0    0 -0.61714697004E+01 -0.61375561140E+01  0.35471150319E+01  0.93988647380E+01  0.00000000000E+00 0. -1.
</event>
<event>
 8    1  0.6239251E-010  0.9118800E+02  0.7816164E-02  0.1184000E+00
        -11   -1    0    0    0    0  0.00000000000E+00  0.00000000000E+00  0.45593999997E+02  0.45594000000E+02  0.51100000000E-03 0. -1.
         11   -1    0    0    0    0 -0.00000000000E+00 -0.00000000000E+00 -0.45593999997E+02  0.45594000000E+02  0.51100000000E-03 0.  1.
         23    2    1    2    0    0  0.00000000000E+00 -0.88817841970E-15  0.00000000000E+00  0.91188000000E+02  0.91188000000E+02 0.  0.
    9900012    2    3    3    0    0 -0.22133447295E+02 -0.67820681300E+01  0.36711579041E+02  0.47787239949E+02  0.19999858225E+02 0.  0.
        -12    1    3    3    0    0  0.22133447295E+02  0.67820681300E+01 -0.36711579041E+02  0.43400760051E+02  0.00000000000E+00 0.  1.
         11    1    4    4    0    0 -0.87562219999E+00 -0.16119532985E+01  0.29123961637E+01  0.34419702714E+01  0.51100000000E-03 0. -1.
        -11    1    4    4    0    0 -0.10974268852E+02 -0.49532697197E+00  0.30737304609E+02  0.32641412662E+02  0.51100000000E-03 0.  1.
        -12    1    4    4    0    0 -0.10283556243E+02 -0.46747878595E+01  0.30618782681E+01  0.11703857016E+02  0.00000000000E+00 0.  1.
</event>
<event>
 8    1  0.6239251E-010  0.9118800E+02  0.7816164E-02  0.1184000E+00
        -11   -1    0    0    0    0  0.00000000000E+00  0.00000000000E+00  0.45593999997E+02  0.45594000000E+02  0.51100000000E-03 0. -1.
         11   -1    0    0    0    0 -0.00000000000E+00 -0.00000000000E+00 -0.45593999997E+02  0.45594000000E+02  0.51100000000E-03 0.  1.
         23    2    1    2    0    0  0.00000000000E+00  0.00000000000E+00  0.00000000000E+00  0.91188000000E+02  0.91188000000E+02 0.  0.
    9900012    2    3    3    0    0  0.26522686409E+02  0.24945251867E+02  0.23620008058E+02  0.47787271139E+02  0.20000000429E+02 0.  0.
        -12    1    3    3    0    0 -0.26522686409E+02 -0.24945251867E+02 -0.23620008058E+02  0.43400728861E+02  0.00000000000E+00 0.  1.
         11    1    4    4    0    0  0.22000313868E+02  0.24976415678E+02  0.18986408316E+02  0.38318648873E+02  0.51100000000E-03 0. -1.
        -11    1    4    4    0    0 -0.42859661420E+00  0.24138428293E+01  0.34229351764E+00  0.24753782288E+01  0.51100000000E-03 0.  1.
         12    1    4    4    0    0  0.49509691550E+01 -0.24450066410E+01  0.42913062245E+01  0.69932440370E+01  0.00000000000E+00 0. -1.
</event>
<event>
 8    1  0.6239251E-010  0.9118800E+02  0.7816164E-02  0.1184000E+00
        -11   -1    0    0    0    0  0.00000000000E+00  0.00000000000E+00  0.45593999997E+02  0.45594000000E+02  0.51100000000E-03 0.  1.
         11   -1    0    0    0    0 -0.00000000000E+00 -0.00000000000E+00 -0.45593999997E+02  0.45594000000E+02  0.51100000000E-03 0. -1.
         23    2    1    2    0    0 -0.71054273576E-14  0.35527136788E-14  0.44408920985E-15  0.91188000000E+02  0.91188000000E+02 0.  0.
    9900012    2    3    3    0    0  0.34287243989E+02 -0.26392145102E+02  0.33857489978E+01  0.47787265908E+02  0.19999976581E+02 0.  0.
        -12    1    3    3    0    0 -0.34287243989E+02  0.26392145102E+02 -0.33857489978E+01  0.43400734092E+02  0.00000000000E+00 0.  1.
         11    1    4    4    0    0  0.25089279126E+02 -0.17159161750E+02 -0.16468896080E+01  0.30440450139E+02  0.51100000000E-03 0. -1.
        -11    1    4    4    0    0  0.43791733348E+00 -0.70790697763E+01  0.16091410884E+00  0.70944269748E+01  0.51100000000E-03 0.  1.
        -12    1    4    4    0    0  0.87600475298E+01 -0.21539135755E+01  0.48717244970E+01  0.10252388794E+02  0.00000000000E+00 0.  1.
</event>
<event>
 8    1  0.6239251E-010  0.9118800E+02  0.7816164E-02  0.1184000E+00
        -11   -1    0    0    0    0  0.00000000000E+00  0.00000000000E+00  0.45593999997E+02  0.45594000000E+02  0.51100000000E-03 0. -1.
         11   -1    0    0    0    0 -0.00000000000E+00 -0.00000000000E+00 -0.45593999997E+02  0.45594000000E+02  0.51100000000E-03 0.  1.
         23    2    1    2    0    0  0.00000000000E+00  0.35527136788E-14  0.00000000000E+00  0.91188000000E+02  0.91188000000E+02 0.  0.
    9900012    2    3    3    0    0  0.13066673365E+02  0.23309567616E+02 -0.34198676917E+02  0.47787269613E+02  0.19999993475E+02 0.  0.
         12    1    3    3    0    0 -0.13066673365E+02 -0.23309567616E+02  0.34198676917E+02  0.43400730387E+02  0.00000000000E+00 0. -1.
         11    1    4    4    0    0  0.31780134480E+01  0.35921556457E+01 -0.21131133088E+02  0.21668597959E+02  0.51100000000E-03 0. -1.
        -11    1    4    4    0    0  0.96404226635E+01  0.20002993302E+02 -0.13011122239E+02  0.25736099012E+02  0.51100000000E-03 0.  1.
         12    1    4    4    0    0  0.24823725360E+00 -0.28558133182E+00 -0.56421589340E-01  0.38257264265E+00  0.00000000000E+00 0. -1.
</event>
<event>
 8    1  0.6239251E-010  0.9118800E+02  0.7816164E-02  0.1184000E+00
        -11   -1    0    0    0    0  0.00000000000E+00  0.00000000000E+00  0.45593999997E+02  0.45594000000E+02  0.51100000000E-03 0. -1.
         11   -1    0    0    0    0 -0.00000000000E+00 -0.00000000000E+00 -0.45593999997E+02  0.45594000000E+02  0.51100000000E-03 0.  1.
         23    2    1    2    0    0  0.71054273576E-14 -0.17763568394E-14 -0.71054273576E-14  0.91188000000E+02  0.91188000000E+02 0.  0.
    9900012    2    3    3    0    0  0.26010051136E+02 -0.15338120466E+02 -0.31174391127E+02  0.47787270033E+02  0.19999995388E+02 0.  0.
         12    1    3    3    0    0 -0.26010051136E+02  0.15338120466E+02  0.31174391127E+02  0.43400729967E+02  0.00000000000E+00 0. -1.
         11    1    4    4    0    0  0.21601118888E+01  0.32503409609E+01 -0.31264309462E+01  0.50005370169E+01  0.51100000000E-03 0. -1.
        -11    1    4    4    0    0  0.11496304572E+02 -0.14496203887E+02 -0.20997800673E+02  0.27985935384E+02  0.51100000000E-03 0.  1.
         12    1    4    4    0    0  0.12353634675E+02 -0.40922575403E+01 -0.70501595075E+01  0.14800797632E+02  0.00000000000E+00 0. -1.
</event>
<event>
 8    1  0.6239251E-010  0.9118800E+02  0.7816164E-02  0.1184000E+00
        -11   -1    0    0    0    0  0.00000000000E+00  0.00000000000E+00  0.45593999997E+02  0.45594000000E+02  0.51100000000E-03 0. -1.
         11   -1    0    0    0    0 -0.00000000000E+00 -0.00000000000E+00 -0.45593999997E+02  0.45594000000E+02  0.51100000000E-03 0.  1.
         23    2    1    2    0    0  0.17763568394E-14 -0.35527136788E-14  0.00000000000E+00  0.91188000000E+02  0.91188000000E+02 0.  0.
    9900012    2    3    3    0    0 -0.13426643801E+02  0.24966771469E+02  0.32863488753E+02  0.47787270348E+02  0.19999996825E+02 0.  0.
        -12    1    3    3    0    0  0.13426643801E+02 -0.24966771469E+02 -0.32863488753E+02  0.43400729652E+02  0.00000000000E+00 0.  1.
         11    1    4    4    0    0 -0.26175785427E+01  0.35514878697E+01 -0.15167412484E+01  0.46653282619E+01  0.51100000000E-03 0. -1.
        -11    1    4    4    0    0 -0.48999978309E+00  0.61270635138E+01  0.32892093586E+01  0.69713632494E+01  0.51100000000E-03 0.  1.
         12    1    4    4    0    0 -0.10319065475E+02  0.15288220085E+02  0.31091020642E+02  0.36150578837E+02  0.00000000000E+00 0. -1.
</event>
<event>
 8    1  0.6239251E-010  0.9118800E+02  0.7816164E-02  0.1184000E+00
        -11   -1    0    0    0    0  0.00000000000E+00  0.00000000000E+00  0.45593999997E+02  0.45594000000E+02  0.51100000000E-03 0. -1.
         11   -1    0    0    0    0 -0.00000000000E+00 -0.00000000000E+00 -0.45593999997E+02  0.45594000000E+02  0.51100000000E-03 0.  1.
         23    2    1    2    0    0 -0.35527136788E-14  0.88817841970E-15  0.00000000000E+00  0.91188000000E+02  0.91188000000E+02 0.  0.
    9900012    2    3    3    0    0  0.21104231020E+02  0.41545814783E+01 -0.37695814354E+02  0.47787268048E+02  0.19999986338E+02 0.  0.
         12    1    3    3    0    0 -0.21104231020E+02 -0.41545814783E+01  0.37695814354E+02  0.43400731952E+02  0.00000000000E+00 0. -1.
         11    1    4    4    0    0  0.11458634749E+02 -0.13667819441E+01 -0.10024406045E+02  0.15285847049E+02  0.51100000000E-03 0. -1.
        -11    1    4    4    0    0  0.20455044368E+00  0.67964747117E+01 -0.70980213389E+01  0.98293344932E+01  0.51100000000E-03 0.  1.
        -12    1    4    4    0    0  0.94410458269E+01 -0.12751112894E+01 -0.20573386970E+02  0.22672086505E+02  0.00000000000E+00 0.  1.
</event>
<event>
 8    1  0.6239251E-010  0.9118800E+02  0.7816164E-02  0.1184000E+00
        -11   -1    0    0    0    0  0.00000000000E+00  0.00000000000E+00  0.45593999997E+02  0.45594000000E+02  0.51100000000E-03 0. -1.
         11   -1    0    0    0    0 -0.00000000000E+00 -0.00000000000E+00 -0.45593999997E+02  0.45594000000E+02  0.51100000000E-03 0.  1.
         23    2    1    2    0    0  0.00000000000E+00  0.00000000000E+00 -0.88817841970E-15  0.91188000000E+02  0.91188000000E+02 0.  0.
    9900012    2    3    3    0    0 -0.23011375833E+02  0.36555336314E+02  0.42198056955E+01  0.47787276609E+02  0.20000025370E+02 0.  0.
        -12    1    3    3    0    0  0.23011375833E+02 -0.36555336314E+02 -0.42198056955E+01  0.43400723391E+02  0.00000000000E+00 0.  1.
         11    1    4    4    0    0 -0.41549827404E+00  0.41659113775E+01 -0.11991885265E+01  0.43549408497E+01  0.51100000000E-03 0. -1.
        -11    1    4    4    0    0 -0.24032293242E+01 -0.36655009884E+00 -0.31806261614E+01  0.40032803049E+01  0.51100000000E-03 0.  1.
        -12    1    4    4    0    0 -0.20192648235E+02  0.32755975036E+02  0.85996203834E+01  0.39429055454E+02  0.00000000000E+00 0.  1.
</event>
<event>
 8    1  0.6239251E-010  0.9118800E+02  0.7816164E-02  0.1184000E+00
        -11   -1    0    0    0    0  0.00000000000E+00  0.00000000000E+00  0.45593999997E+02  0.45594000000E+02  0.51100000000E-03 0.  1.
         11   -1    0    0    0    0 -0.00000000000E+00 -0.00000000000E+00 -0.45593999997E+02  0.45594000000E+02  0.51100000000E-03 0. -1.
         23    2    1    2    0    0  0.00000000000E+00 -0.17763568394E-14  0.00000000000E+00  0.91188000000E+02  0.91188000000E+02 0.  0.
    9900012    2    3    3    0    0  0.38875206949E+02 -0.12611990477E+02 -0.14604086090E+02  0.47787270172E+02  0.19999996022E+02 0.  0.
         12    1    3    3    0    0 -0.38875206949E+02  0.12611990477E+02  0.14604086090E+02  0.43400729828E+02  0.00000000000E+00 0. -1.
         11    1    4    4    0    0  0.11067794608E+02 -0.15867732863E+01  0.84193874461E+00  0.11212617360E+02  0.51100000000E-03 0. -1.
        -11    1    4    4    0    0  0.62400075283E+01 -0.70588365333E+00 -0.10384645793E+02  0.12135766733E+02  0.51100000000E-03 0.  1.
        -12    1    4    4    0    0  0.21567404812E+02 -0.10319333537E+02 -0.50613790413E+01  0.24438886079E+02  0.00000000000E+00 0.  1.
</event>
<event>
 8    1  0.6239251E-010  0.9118800E+02  0.7816164E-02  0.1184000E+00
        -11   -1    0    0    0    0  0.00000000000E+00  0.00000000000E+00  0.45593999997E+02  0.45594000000E+02  0.51100000000E-03 0. -1.
         11   -1    0    0    0    0 -0.00000000000E+00 -0.00000000000E+00 -0.45593999997E+02  0.45594000000E+02  0.51100000000E-03 0.  1.
         23    2    1    2    0    0  0.00000000000E+00  0.00000000000E+00  0.00000000000E+00  0.91188000000E+02  0.91188000000E+02 0.  0.
    9900012    2    3    3    0    0  0.80352964957E+01  0.29747240025E+01 -0.42546542839E+02  0.47787270971E+02  0.19999999665E+02 0.  0.
         12    1    3    3    0    0 -0.80352964957E+01 -0.29747240025E+01  0.42546542839E+02  0.43400729029E+02  0.00000000000E+00 0. -1.
         11    1    4    4    0    0  0.91654812894E+01  0.59740799870E+01 -0.10611258379E+02  0.15241210044E+02  0.51100000000E-03 0. -1.
        -11    1    4    4    0    0 -0.10290637089E+01  0.14400919077E+01 -0.71280525596E+01  0.73445197510E+01  0.51100000000E-03 0.  1.
         12    1    4    4    0    0 -0.10112108473E+00 -0.44394478923E+01 -0.24807231901E+02  0.25201541176E+02  0.00000000000E+00 0. -1.
</event>
<event>
 8    1  0.6239251E-010  0.9118800E+02  0.7816164E-02  0.1184000E+00
        -11   -1    0    0    0    0  0.00000000000E+00  0.00000000000E+00  0.45593999997E+02  0.45594000000E+02  0.51100000000E-03 0. -1.
         11   -1    0    0    0    0 -0.00000000000E+00 -0.00000000000E+00 -0.45593999997E+02  0.45594000000E+02  0.51100000000E-03 0.  1.
         23    2    1    2    0    0  0.00000000000E+00  0.00000000000E+00  0.00000000000E+00  0.91188000000E+02  0.91188000000E+02 0.  0.
    9900012    2    3    3    0    0 -0.38278442484E+02  0.13394418207E+02 -0.15458776663E+02  0.47787269891E+02  0.19999994740E+02 0.  0.
         12    1    3    3    0    0  0.38278442484E+02 -0.13394418207E+02  0.15458776663E+02  0.43400730109E+02  0.00000000000E+00 0. -1.
         11    1    4    4    0    0 -0.20313842916E+02  0.48894576997E+01 -0.16818919563E+02  0.26822286743E+02  0.51100000000E-03 0. -1.
        -11    1    4    4    0    0 -0.81238964714E+01  0.24971251482E+01 -0.24107542480E+01  0.88343117553E+01  0.51100000000E-03 0.  1.
         12    1    4    4    0    0 -0.98407030961E+01  0.60078353593E+01  0.37708971473E+01  0.12130671392E+02  0.00000000000E+00 0. -1.
</event>
<event>
 8    1  0.6239251E-010  0.9118800E+02  0.7816164E-02  0.1184000E+00
        -11   -1    0    0    0    0  0.00000000000E+00  0.00000000000E+00  0.45593999997E+02  0.45594000000E+02  0.51100000000E-03 0. -1.
         11   -1    0    0    0    0 -0.00000000000E+00 -0.00000000000E+00 -0.45593999997E+02  0.45594000000E+02  0.51100000000E-03 0.  1.
         23    2    1    2    0    0 -0.13322676296E-14  0.88817841970E-15  0.00000000000E+00  0.91188000000E+02  0.91188000000E+02 0.  0.
    9900012    2    3    3    0    0  0.28600651876E+01 -0.60434329587E+01 -0.42882632222E+02  0.47787271883E+02  0.20000003823E+02 0.  0.
         12    1    3    3    0    0 -0.28600651876E+01  0.60434329587E+01  0.42882632222E+02  0.43400728117E+02  0.00000000000E+00 0. -1.
         11    1    4    4    0    0 -0.55729118372E+00  0.34899244530E+00  0.22358687540E+00  0.69452180837E+00  0.51100000000E-03 0. -1.
        -11    1    4    4    0    0  0.10160327233E+02 -0.10001776594E+01 -0.25960579929E+02  0.27895955179E+02  0.51100000000E-03 0.  1.
        -12    1    4    4    0    0 -0.67429708612E+01 -0.53922477446E+01 -0.17145639169E+02  0.19196794896E+02  0.00000000000E+00 0.  1.
</event>
<event>
 8    1  0.6239251E-010  0.9118800E+02  0.7816164E-02  0.1184000E+00
        -11   -1    0    0    0    0  0.00000000000E+00  0.00000000000E+00  0.45593999997E+02  0.45594000000E+02  0.51100000000E-03 0. -1.
         11   -1    0    0    0    0 -0.00000000000E+00 -0.00000000000E+00 -0.45593999997E+02  0.45594000000E+02  0.51100000000E-03 0.  1.
         23    2    1    2    0    0  0.00000000000E+00 -0.88817841970E-15  0.00000000000E+00  0.91188000000E+02  0.91188000000E+02 0.  0.
    9900012    2    3    3    0    0  0.31963441857E+02  0.45015308444E+01  0.29012032656E+02  0.47787269198E+02  0.19999991581E+02 0.  0.
        -12    1    3    3    0    0 -0.31963441857E+02 -0.45015308444E+01 -0.29012032656E+02  0.43400730802E+02  0.00000000000E+00 0.  1.
         11    1    4    4    0    0  0.73638495879E+01 -0.14384213393E+01  0.16359584698E+02  0.17998092912E+02  0.51100000000E-03 0. -1.
        -11    1    4    4    0    0  0.23128152338E+02  0.65399506798E+01  0.87544735178E+01  0.25579741834E+02  0.51100000000E-03 0.  1.
        -12    1    4    4    0    0  0.14714399312E+01 -0.59999849611E+00  0.38979744402E+01  0.42094344517E+01  0.00000000000E+00 0.  1.
</event>
<event>
 8    1  0.6239251E-010  0.9118800E+02  0.7816164E-02  0.1184000E+00
        -11   -1    0    0    0    0  0.00000000000E+00  0.00000000000E+00  0.45593999997E+02  0.45594000000E+02  0.51100000000E-03 0. -1.
         11   -1    0    0    0    0 -0.00000000000E+00 -0.00000000000E+00 -0.45593999997E+02  0.45594000000E+02  0.51100000000E-03 0.  1.
         23    2    1    2    0    0  0.00000000000E+00  0.00000000000E+00 -0.71054273576E-14  0.91188000000E+02  0.91188000000E+02 0.  0.
    9900012    2    3    3    0    0  0.58463113748E+01 -0.98159213288E+01  0.41869937992E+02  0.47787269872E+02  0.19999994653E+02 0.  0.
        -12    1    3    3    0    0 -0.58463113748E+01  0.98159213288E+01 -0.41869937992E+02  0.43400730128E+02  0.00000000000E+00 0.  1.
         11    1    4    4    0    0  0.15055851455E+01  0.44390068482E+01  0.42685304158E+01  0.63397098199E+01  0.51100000000E-03 0.  1.
        -11    1    4    4    0    0  0.19476863804E+01 -0.29439663990E+00  0.10168291154E+01  0.22167754350E+01  0.51100000000E-03 0. -1.
         12    1    4    4    0    0  0.23930398490E+01 -0.13960531537E+02  0.36584578461E+02  0.39230784617E+02  0.00000000000E+00 0. -1.
</event>
<event>
 8    1  0.6239251E-010  0.9118800E+02  0.7816164E-02  0.1184000E+00
        -11   -1    0    0    0    0  0.00000000000E+00  0.00000000000E+00  0.45593999997E+02  0.45594000000E+02  0.51100000000E-03 0. -1.
         11   -1    0    0    0    0 -0.00000000000E+00 -0.00000000000E+00 -0.45593999997E+02  0.45594000000E+02  0.51100000000E-03 0.  1.
         23    2    1    2    0    0  0.00000000000E+00 -0.44408920985E-15 -0.35527136788E-14  0.91188000000E+02  0.91188000000E+02 0.  0.
    9900012    2    3    3    0    0  0.35882298128E+02 -0.34948436635E+01 -0.24163400877E+02  0.47787271975E+02  0.20000004244E+02 0.  0.
         12    1    3    3    0    0 -0.35882298128E+02  0.34948436635E+01  0.24163400877E+02  0.43400728025E+02  0.00000000000E+00 0. -1.
         11    1    4    4    0    0  0.61582661928E+01 -0.46911994676E+01  0.16999317575E+01  0.79259928834E+01  0.51100000000E-03 0. -1.
        -11    1    4    4    0    0  0.17419298504E+02  0.53238659097E+00 -0.11237492082E+02  0.20736359960E+02  0.51100000000E-03 0.  1.
         12    1    4    4    0    0  0.12304733431E+02  0.66396921313E+00 -0.14625840552E+02  0.19124919132E+02  0.00000000000E+00 0. -1.
</event>
<event>
 8    1  0.6239251E-010  0.9118800E+02  0.7816164E-02  0.1184000E+00
        -11   -1    0    0    0    0  0.00000000000E+00  0.00000000000E+00  0.45593999997E+02  0.45594000000E+02  0.51100000000E-03 0. -1.
         11   -1    0    0    0    0 -0.00000000000E+00 -0.00000000000E+00 -0.45593999997E+02  0.45594000000E+02  0.51100000000E-03 0.  1.
         23    2    1    2    0    0 -0.71054273576E-14  0.00000000000E+00  0.00000000000E+00  0.91188000000E+02  0.91188000000E+02 0.  0.
    9900012    2    3    3    0    0 -0.38104733521E+02 -0.19144750828E+02 -0.80703861173E+01  0.47787270362E+02  0.19999996891E+02 0.  0.
         12    1    3    3    0    0  0.38104733521E+02  0.19144750828E+02  0.80703861173E+01  0.43400729638E+02  0.00000000000E+00 0. -1.
         11    1    4    4    0    0 -0.18369279680E+02 -0.24473264558E+01 -0.80194253957E+01  0.20192350697E+02  0.51100000000E-03 0. -1.
        -11    1    4    4    0    0 -0.12131547972E+02 -0.43303823503E+01 -0.16623847413E+01  0.12988078795E+02  0.51100000000E-03 0.  1.
         12    1    4    4    0    0 -0.76039058694E+01 -0.12367042022E+02  0.16114240198E+01  0.14606840870E+02  0.00000000000E+00 0. -1.
</event>
<event>
 8    1  0.6239251E-010  0.9118800E+02  0.7816164E-02  0.1184000E+00
        -11   -1    0    0    0    0  0.00000000000E+00  0.00000000000E+00  0.45593999997E+02  0.45594000000E+02  0.51100000000E-03 0. -1.
         11   -1    0    0    0    0 -0.00000000000E+00 -0.00000000000E+00 -0.45593999997E+02  0.45594000000E+02  0.51100000000E-03 0.  1.
         23    2    1    2    0    0  0.44408920985E-15  0.00000000000E+00  0.00000000000E+00  0.91188000000E+02  0.91188000000E+02 0.  0.
    9900012    2    3    3    0    0  0.39829707584E+01 -0.12514327563E+01 -0.43199462643E+02  0.47787265989E+02  0.19999976951E+02 0.  0.
         12    1    3    3    0    0 -0.39829707584E+01  0.12514327563E+01  0.43199462643E+02  0.43400734011E+02  0.00000000000E+00 0. -1.
         11    1    4    4    0    0  0.24355266237E+00  0.14359814292E-01  0.31223955053E-01  0.24596605478E+00  0.51100000000E-03 0. -1.
        -11    1    4    4    0    0 -0.44628745285E+01  0.52442587946E+01 -0.69666818396E+01  0.97956191983E+01  0.51100000000E-03 0.  1.
        -12    1    4    4    0    0  0.82022926246E+01 -0.65100513653E+01 -0.36264004759E+02  0.37745680736E+02  0.00000000000E+00 0.  1.
</event>
<event>
 8    1  0.6239251E-010  0.9118800E+02  0.7816164E-02  0.1184000E+00
        -11   -1    0    0    0    0  0.00000000000E+00  0.00000000000E+00  0.45593999997E+02  0.45594000000E+02  0.51100000000E-03 0. -1.
         11   -1    0    0    0    0 -0.00000000000E+00 -0.00000000000E+00 -0.45593999997E+02  0.45594000000E+02  0.51100000000E-03 0.  1.
         23    2    1    2    0    0  0.44408920985E-15  0.35527136788E-14  0.00000000000E+00  0.91188000000E+02  0.91188000000E+02 0.  0.
    9900012    2    3    3    0    0 -0.26393115702E+01  0.25573884299E+02 -0.34966182955E+02  0.47787268737E+02  0.19999989481E+02 0.  0.
         12    1    3    3    0    0  0.26393115702E+01 -0.25573884299E+02  0.34966182955E+02  0.43400731263E+02  0.00000000000E+00 0. -1.
         11    1    4    4    0    0  0.36446897343E+01  0.20040075468E+02 -0.27551272118E+02  0.34263114039E+02  0.51100000000E-03 0.  1.
        -11    1    4    4    0    0 -0.15721790993E+01  0.29230145761E+01 -0.74297105418E+01  0.81373435671E+01  0.51100000000E-03 0. -1.
         12    1    4    4    0    0 -0.47118222052E+01  0.26107942553E+01  0.14799705449E-01  0.53868111317E+01  0.00000000000E+00 0. -1.
</event>
<event>
 8    1  0.6239251E-010  0.9118800E+02  0.7816164E-02  0.1184000E+00
        -11   -1    0    0    0    0  0.00000000000E+00  0.00000000000E+00  0.45593999997E+02  0.45594000000E+02  0.51100000000E-03 0. -1.
         11   -1    0    0    0    0 -0.00000000000E+00 -0.00000000000E+00 -0.45593999997E+02  0.45594000000E+02  0.51100000000E-03 0.  1.
         23    2    1    2    0    0  0.17763568394E-14  0.00000000000E+00  0.00000000000E+00  0.91188000000E+02  0.91188000000E+02 0.  0.
    9900012    2    3    3    0    0  0.11274624775E+02  0.38695338578E+02 -0.16098968653E+02  0.47787272090E+02  0.20000004765E+02 0.  0.
         12    1    3    3    0    0 -0.11274624775E+02 -0.38695338578E+02  0.16098968653E+02  0.43400727910E+02  0.00000000000E+00 0. -1.
         11    1    4    4    0    0  0.81801261616E+01  0.43686033029E+01 -0.37320213436E+01  0.99963564566E+01  0.51100000000E-03 0. -1.
        -11    1    4    4    0    0  0.26074535008E+01  0.28444027234E+02 -0.61496385822E+01  0.29217795160E+02  0.51100000000E-03 0.  1.
        -12    1    4    4    0    0  0.48704511278E+00  0.58827080406E+01 -0.62173087273E+01  0.85731204730E+01  0.00000000000E+00 0.  1.
</event>
<event>
 8    1  0.6239251E-010  0.9118800E+02  0.7816164E-02  0.1184000E+00
        -11   -1    0    0    0    0  0.00000000000E+00  0.00000000000E+00  0.45593999997E+02  0.45594000000E+02  0.51100000000E-03 0. -1.
         11   -1    0    0    0    0 -0.00000000000E+00 -0.00000000000E+00 -0.45593999997E+02  0.45594000000E+02  0.51100000000E-03 0.  1.
         23    2    1    2    0    0  0.00000000000E+00 -0.44408920985E-15  0.71054273576E-14  0.91188000000E+02  0.91188000000E+02 0.  0.
    9900012    2    3    3    0    0 -0.24004358940E+02 -0.25216504672E+01 -0.36070143643E+02  0.47787271531E+02  0.20000002220E+02 0.  0.
         12    1    3    3    0    0  0.24004358940E+02  0.25216504672E+01  0.36070143643E+02  0.43400728469E+02  0.00000000000E+00 0. -1.
         11    1    4    4    0    0 -0.76733691766E+01 -0.78395903634E+01 -0.78128091065E+01  0.13467730246E+02  0.51100000000E-03 0. -1.
        -11    1    4    4    0    0 -0.17272951931E+02  0.51577602929E+01 -0.28048022038E+02  0.33341399193E+02  0.51100000000E-03 0.  1.
         12    1    4    4    0    0  0.94196216737E+00  0.16017960339E+00 -0.20931249797E+00  0.97814209188E+00  0.00000000000E+00 0. -1.
</event>
<event>
 8    1  0.6239251E-010  0.9118800E+02  0.7816164E-02  0.1184000E+00
        -11   -1    0    0    0    0  0.00000000000E+00  0.00000000000E+00  0.45593999997E+02  0.45594000000E+02  0.51100000000E-03 0. -1.
         11   -1    0    0    0    0 -0.00000000000E+00 -0.00000000000E+00 -0.45593999997E+02  0.45594000000E+02  0.51100000000E-03 0.  1.
         23    2    1    2    0    0  0.71054273576E-14  0.00000000000E+00  0.00000000000E+00  0.91188000000E+02  0.91188000000E+02 0.  0.
    9900012    2    3    3    0    0 -0.35881136030E+02  0.24161851071E+02  0.35170095704E+01  0.47787305002E+02  0.20000154825E+02 0.  0.
         12    1    3    3    0    0  0.35881136030E+02 -0.24161851071E+02 -0.35170095704E+01  0.43400694998E+02  0.00000000000E+00 0. -1.
         11    1    4    4    0    0  0.27873262562E+00 -0.12773952014E+01  0.19982701129E+00  0.13226342929E+01  0.51100000000E-03 0. -1.
        -11    1    4    4    0    0 -0.28419688901E+02  0.25650231726E+02  0.69490421946E+00  0.38289633022E+02  0.51100000000E-03 0.  1.
        -12    1    4    4    0    0 -0.77401797547E+01 -0.21098545331E+00  0.26222783397E+01  0.81750376872E+01  0.00000000000E+00 0.  1.
</event>
<event>
 8    1  0.6239251E-010  0.9118800E+02  0.7816164E-02  0.1184000E+00
        -11   -1    0    0    0    0  0.00000000000E+00  0.00000000000E+00  0.45593999997E+02  0.45594000000E+02  0.51100000000E-03 0. -1.
         11   -1    0    0    0    0 -0.00000000000E+00 -0.00000000000E+00 -0.45593999997E+02  0.45594000000E+02  0.51100000000E-03 0.  1.
         23    2    1    2    0    0 -0.17763568394E-14  0.00000000000E+00  0.00000000000E+00  0.91188000000E+02  0.91188000000E+02 0.  0.
    9900012    2    3    3    0    0  0.12642274124E+02  0.17336369137E+02  0.37725939480E+02  0.47787270749E+02  0.19999998651E+02 0.  0.
        -12    1    3    3    0    0 -0.12642274124E+02 -0.17336369137E+02 -0.37725939480E+02  0.43400729251E+02  0.00000000000E+00 0.  1.
         11    1    4    4    0    0  0.73662504098E+01  0.16513031430E+02  0.29247467713E+02  0.34385407079E+02  0.51100000000E-03 0.  1.
        -11    1    4    4    0    0  0.53411260980E+01  0.43275594723E+01  0.56090977300E+01  0.88722813632E+01  0.51100000000E-03 0. -1.
         12    1    4    4    0    0 -0.65102383477E-01 -0.35042217657E+01  0.28693740374E+01  0.45295823063E+01  0.00000000000E+00 0. -1.
</event>
<event>
 8    1  0.6239251E-010  0.9118800E+02  0.7816164E-02  0.1184000E+00
        -11   -1    0    0    0    0  0.00000000000E+00  0.00000000000E+00  0.45593999997E+02  0.45594000000E+02  0.51100000000E-03 0. -1.
         11   -1    0    0    0    0 -0.00000000000E+00 -0.00000000000E+00 -0.45593999997E+02  0.45594000000E+02  0.51100000000E-03 0.  1.
         23    2    1    2    0    0  0.35527136788E-14 -0.17763568394E-14  0.71054273576E-14  0.91188000000E+02  0.91188000000E+02 0.  0.
    9900012    2    3    3    0    0 -0.24865482985E+02  0.82781837292E+01 -0.34594827215E+02  0.47787278348E+02  0.20000033298E+02 0.  0.
         12    1    3    3    0    0  0.24865482985E+02 -0.82781837292E+01  0.34594827215E+02  0.43400721652E+02  0.00000000000E+00 0. -1.
         11    1    4    4    0    0 -0.17428711110E+02 -0.12217431936E+00 -0.26205946467E+02  0.31472631412E+02  0.51100000000E-03 0.  1.
        -11    1    4    4    0    0 -0.69964321365E+01  0.55310762150E+01 -0.17775491454E+01  0.90940941254E+01  0.51100000000E-03 0. -1.
         12    1    4    4    0    0 -0.44033973842E+00  0.28692818336E+01 -0.66113316022E+01  0.72205528099E+01  0.00000000000E+00 0. -1.
</event>
<event>
 8    1  0.6239251E-010  0.9118800E+02  0.7816164E-02  0.1184000E+00
        -11   -1    0    0    0    0  0.00000000000E+00  0.00000000000E+00  0.45593999997E+02  0.45594000000E+02  0.51100000000E-03 0. -1.
         11   -1    0    0    0    0 -0.00000000000E+00 -0.00000000000E+00 -0.45593999997E+02  0.45594000000E+02  0.51100000000E-03 0.  1.
         23    2    1    2    0    0  0.00000000000E+00  0.00000000000E+00  0.35527136788E-14  0.91188000000E+02  0.91188000000E+02 0.  0.
    9900012    2    3    3    0    0  0.43202904217E+01  0.31474297376E+02 -0.29568971653E+02  0.47787304276E+02  0.20000151517E+02 0.  0.
         12    1    3    3    0    0 -0.43202904217E+01 -0.31474297376E+02  0.29568971653E+02  0.43400695724E+02  0.00000000000E+00 0. -1.
         11    1    4    4    0    0 -0.57407551653E+01  0.75514499114E+01 -0.35536276600E+01  0.10129606875E+02  0.51100000000E-03 0. -1.
        -11    1    4    4    0    0  0.10690025095E+02  0.15783065566E+02 -0.18136632245E+02  0.26311959727E+02  0.51100000000E-03 0.  1.
         12    1    4    4    0    0 -0.62897950783E+00  0.81397818984E+01 -0.78787117481E+01  0.11345737675E+02  0.00000000000E+00 0. -1.
</event>
<event>
 8    1  0.6239251E-010  0.9118800E+02  0.7816164E-02  0.1184000E+00
        -11   -1    0    0    0    0  0.00000000000E+00  0.00000000000E+00  0.45593999997E+02  0.45594000000E+02  0.51100000000E-03 0. -1.
         11   -1    0    0    0    0 -0.00000000000E+00 -0.00000000000E+00 -0.45593999997E+02  0.45594000000E+02  0.51100000000E-03 0.  1.
         23    2    1    2    0    0 -0.35527136788E-14  0.00000000000E+00  0.17763568394E-14  0.91188000000E+02  0.91188000000E+02 0.  0.
    9900012    2    3    3    0    0 -0.13144144645E+02 -0.39195343137E+02  0.13212854954E+02  0.47787274222E+02  0.20000014487E+02 0.  0.
        -12    1    3    3    0    0  0.13144144645E+02  0.39195343137E+02 -0.13212854954E+02  0.43400725778E+02  0.00000000000E+00 0.  1.
         11    1    4    4    0    0 -0.15033226111E+02 -0.30361039504E+02  0.11744851811E+02  0.35857107405E+02  0.51100000000E-03 0. -1.
        -11    1    4    4    0    0  0.31090199415E+01 -0.83542935205E+01  0.34461878388E+01  0.95570097889E+01  0.51100000000E-03 0.  1.
        -12    1    4    4    0    0 -0.12199384747E+01 -0.48001011196E+00 -0.19781846960E+01  0.23731570283E+01  0.00000000000E+00 0.  1.
</event>
<event>
 8    1  0.6239251E-010  0.9118800E+02  0.7816164E-02  0.1184000E+00
        -11   -1    0    0    0    0  0.00000000000E+00  0.00000000000E+00  0.45593999997E+02  0.45594000000E+02  0.51100000000E-03 0. -1.
         11   -1    0    0    0    0 -0.00000000000E+00 -0.00000000000E+00 -0.45593999997E+02  0.45594000000E+02  0.51100000000E-03 0.  1.
         23    2    1    2    0    0  0.44408920985E-15  0.00000000000E+00  0.00000000000E+00  0.91188000000E+02  0.91188000000E+02 0.  0.
    9900012    2    3    3    0    0  0.37880783109E+01 -0.33636225399E+02 -0.27163910509E+02  0.47787271544E+02  0.20000002277E+02 0.  0.
         12    1    3    3    0    0 -0.37880783109E+01  0.33636225399E+02  0.27163910509E+02  0.43400728456E+02  0.00000000000E+00 0. -1.
         11    1    4    4    0    0  0.15769541772E+01 -0.27581342764E+01  0.17181943666E+01  0.36119636358E+01  0.51100000000E-03 0. -1.
        -11    1    4    4    0    0  0.18669337899E+00 -0.31152381477E+02 -0.25660030740E+02  0.40360164815E+02  0.51100000000E-03 0.  1.
        -12    1    4    4    0    0  0.20244307547E+01  0.27429035469E+00 -0.32220741360E+01  0.38151430926E+01  0.00000000000E+00 0.  1.
</event>
<event>
 8    1  0.6239251E-010  0.9118800E+02  0.7816164E-02  0.1184000E+00
        -11   -1    0    0    0    0  0.00000000000E+00  0.00000000000E+00  0.45593999997E+02  0.45594000000E+02  0.51100000000E-03 0. -1.
         11   -1    0    0    0    0 -0.00000000000E+00 -0.00000000000E+00 -0.45593999997E+02  0.45594000000E+02  0.51100000000E-03 0.  1.
         23    2    1    2    0    0  0.00000000000E+00  0.17763568394E-14  0.00000000000E+00  0.91188000000E+02  0.91188000000E+02 0.  0.
    9900012    2    3    3    0    0  0.12804591794E+02 -0.95967972468E+01 -0.40343110278E+02  0.47787278401E+02  0.20000033539E+02 0.  0.
         12    1    3    3    0    0 -0.12804591794E+02  0.95967972468E+01  0.40343110278E+02  0.43400721599E+02  0.00000000000E+00 0. -1.
         11    1    4    4    0    0  0.47441753324E-01 -0.63808105104E+01 -0.37354706571E+01  0.73939661062E+01  0.51100000000E-03 0. -1.
        -11    1    4    4    0    0  0.12673721094E+02  0.11080680273E+01 -0.28270798077E+02  0.31001436181E+02  0.51100000000E-03 0.  1.
        -12    1    4    4    0    0  0.83428946994E-01 -0.43240547637E+01 -0.83368415446E+01  0.93918761133E+01  0.00000000000E+00 0.  1.
</event>
<event>
 8    1  0.6239251E-010  0.9118800E+02  0.7816164E-02  0.1184000E+00
        -11   -1    0    0    0    0  0.00000000000E+00  0.00000000000E+00  0.45593999997E+02  0.45594000000E+02  0.51100000000E-03 0. -1.
         11   -1    0    0    0    0 -0.00000000000E+00 -0.00000000000E+00 -0.45593999997E+02  0.45594000000E+02  0.51100000000E-03 0.  1.
         23    2    1    2    0    0  0.00000000000E+00 -0.41633363423E-15  0.00000000000E+00  0.91188000000E+02  0.91188000000E+02 0.  0.
    9900012    2    3    3    0    0 -0.27329540187E+02 -0.13606840272E+00 -0.33714996622E+02  0.47787270990E+02  0.19999999751E+02 0.  0.
         12    1    3    3    0    0  0.27329540187E+02  0.13606840272E+00  0.33714996622E+02  0.43400729010E+02  0.00000000000E+00 0. -1.
         11    1    4    4    0    0 -0.46643578107E+01 -0.33698256307E+01 -0.64555689974E+01  0.86479089906E+01  0.51100000000E-03 0. -1.
        -11    1    4    4    0    0 -0.19912368073E+02  0.27317747137E+01 -0.11546957860E+02  0.23179672807E+02  0.51100000000E-03 0.  1.
        -12    1    4    4    0    0 -0.27528143033E+01  0.50198251432E+00 -0.15712469764E+02  0.15959689193E+02  0.00000000000E+00 0.  1.
</event>
<event>
 8    1  0.6239251E-010  0.9118800E+02  0.7816164E-02  0.1184000E+00
        -11   -1    0    0    0    0  0.00000000000E+00  0.00000000000E+00  0.45593999997E+02  0.45594000000E+02  0.51100000000E-03 0. -1.
         11   -1    0    0    0    0 -0.00000000000E+00 -0.00000000000E+00 -0.45593999997E+02  0.45594000000E+02  0.51100000000E-03 0.  1.
         23    2    1    2    0    0  0.00000000000E+00  0.17763568394E-14  0.00000000000E+00  0.91188000000E+02  0.91188000000E+02 0.  0.
    9900012    2    3    3    0    0  0.12550539440E+02 -0.12917429653E+01 -0.41526356569E+02  0.47787275006E+02  0.20000018064E+02 0.  0.
         12    1    3    3    0    0 -0.12550539440E+02  0.12917429653E+01  0.41526356569E+02  0.43400724994E+02  0.00000000000E+00 0. -1.
         11    1    4    4    0    0  0.24819866936E+01  0.29014971895E+01 -0.95398961146E+00  0.39356118112E+01  0.51100000000E-03 0. -1.
        -11    1    4    4    0    0  0.87445130209E+01 -0.84236036237E+01 -0.31355570258E+02  0.33624327391E+02  0.51100000000E-03 0.  1.
        -12    1    4    4    0    0  0.13240397254E+01  0.42303634688E+01 -0.92167966988E+01  0.10227335805E+02  0.00000000000E+00 0.  1.
</event>
<event>
 8    1  0.6239251E-010  0.9118800E+02  0.7816164E-02  0.1184000E+00
        -11   -1    0    0    0    0  0.00000000000E+00  0.00000000000E+00  0.45593999997E+02  0.45594000000E+02  0.51100000000E-03 0. -1.
         11   -1    0    0    0    0 -0.00000000000E+00 -0.00000000000E+00 -0.45593999997E+02  0.45594000000E+02  0.51100000000E-03 0.  1.
         23    2    1    2    0    0  0.00000000000E+00  0.00000000000E+00  0.00000000000E+00  0.91188000000E+02  0.91188000000E+02 0.  0.
    9900012    2    3    3    0    0  0.29541817053E+02  0.21524966095E+02 -0.23400429413E+02  0.47787271700E+02  0.20000002989E+02 0.  0.
         12    1    3    3    0    0 -0.29541817053E+02 -0.21524966095E+02  0.23400429413E+02  0.43400728300E+02  0.00000000000E+00 0. -1.
         11    1    4    4    0    0  0.11185239447E+02  0.98723476263E+01 -0.29256347652E+00  0.14921743289E+02  0.51100000000E-03 0. -1.
        -11    1    4    4    0    0  0.18605580717E+02  0.91565122144E+01 -0.19454774010E+02  0.28434091893E+02  0.51100000000E-03 0.  1.
        -12    1    4    4    0    0 -0.24900311035E+00  0.24961062547E+01 -0.36530919271E+01  0.44314365178E+01  0.00000000000E+00 0.  1.
</event>
<event>
 8    1  0.6239251E-010  0.9118800E+02  0.7816164E-02  0.1184000E+00
        -11   -1    0    0    0    0  0.00000000000E+00  0.00000000000E+00  0.45593999997E+02  0.45594000000E+02  0.51100000000E-03 0. -1.
         11   -1    0    0    0    0 -0.00000000000E+00 -0.00000000000E+00 -0.45593999997E+02  0.45594000000E+02  0.51100000000E-03 0.  1.
         23    2    1    2    0    0  0.35527136788E-14  0.00000000000E+00  0.00000000000E+00  0.91188000000E+02  0.91188000000E+02 0.  0.
    9900012    2    3    3    0    0  0.26032157755E+02  0.34722015582E+02  0.57610658503E+00  0.47787268414E+02  0.19999988005E+02 0.  0.
        -12    1    3    3    0    0 -0.26032157755E+02 -0.34722015582E+02 -0.57610658503E+00  0.43400731586E+02  0.00000000000E+00 0.  1.
         11    1    4    4    0    0  0.11769995788E+02  0.91726676963E+01  0.61771661255E+01  0.16150170746E+02  0.51100000000E-03 0.  1.
        -11    1    4    4    0    0  0.59646785179E+01  0.11932477689E+02  0.27742359251E+01  0.13625630218E+02  0.51100000000E-03 0. -1.
         12    1    4    4    0    0  0.82974834487E+01  0.13616870197E+02 -0.83752954656E+01  0.18011467449E+02  0.00000000000E+00 0. -1.
</event>
<event>
 8    1  0.6239251E-010  0.9118800E+02  0.7816164E-02  0.1184000E+00
        -11   -1    0    0    0    0  0.00000000000E+00  0.00000000000E+00  0.45593999997E+02  0.45594000000E+02  0.51100000000E-03 0. -1.
         11   -1    0    0    0    0 -0.00000000000E+00 -0.00000000000E+00 -0.45593999997E+02  0.45594000000E+02  0.51100000000E-03 0.  1.
         23    2    1    2    0    0 -0.35527136788E-14  0.00000000000E+00  0.00000000000E+00  0.91188000000E+02  0.91188000000E+02 0.  0.
    9900012    2    3    3    0    0  0.21244009566E+02  0.18527257665E+02  0.33000848772E+02  0.47787271450E+02  0.20000001849E+02 0.  0.
        -12    1    3    3    0    0 -0.21244009566E+02 -0.18527257665E+02 -0.33000848772E+02  0.43400728550E+02  0.00000000000E+00 0.  1.
         11    1    4    4    0    0  0.16248405305E+02  0.87498256523E+01  0.27811785297E+02  0.33377620130E+02  0.51100000000E-03 0. -1.
        -11    1    4    4    0    0 -0.53801251778E+00  0.72900818361E+01  0.35435356256E+01  0.81235088255E+01  0.51100000000E-03 0.  1.
        -12    1    4    4    0    0  0.55336167787E+01  0.24873501764E+01  0.16455278492E+01  0.62861424941E+01  0.00000000000E+00 0.  1.
</event>
<event>
 8    1  0.6239251E-010  0.9118800E+02  0.7816164E-02  0.1184000E+00
        -11   -1    0    0    0    0  0.00000000000E+00  0.00000000000E+00  0.45593999997E+02  0.45594000000E+02  0.51100000000E-03 0. -1.
         11   -1    0    0    0    0 -0.00000000000E+00 -0.00000000000E+00 -0.45593999997E+02  0.45594000000E+02  0.51100000000E-03 0.  1.
         23    2    1    2    0    0  0.00000000000E+00  0.00000000000E+00 -0.35527136788E-14  0.91188000000E+02  0.91188000000E+02 0.  0.
    9900012    2    3    3    0    0 -0.85026661000E+01 -0.33399902360E+02  0.26377524695E+02  0.47787278606E+02  0.20000034474E+02 0.  0.
        -12    1    3    3    0    0  0.85026661000E+01  0.33399902360E+02 -0.26377524695E+02  0.43400721394E+02  0.00000000000E+00 0.  1.
         11    1    4    4    0    0 -0.39012308494E+01 -0.17352586279E+02  0.32594066375E+01  0.18081913190E+02  0.51100000000E-03 0. -1.
        -11    1    4    4    0    0 -0.33808804014E+00 -0.71007091749E-01 -0.65887083175E+00  0.74394661369E+00  0.51100000000E-03 0.  1.
         12    1    4    4    0    0 -0.42633472105E+01 -0.15976308990E+02  0.23776988890E+02  0.28961418802E+02  0.00000000000E+00 0. -1.
</event>
<event>
 8    1  0.6239251E-010  0.9118800E+02  0.7816164E-02  0.1184000E+00
        -11   -1    0    0    0    0  0.00000000000E+00  0.00000000000E+00  0.45593999997E+02  0.45594000000E+02  0.51100000000E-03 0. -1.
         11   -1    0    0    0    0 -0.00000000000E+00 -0.00000000000E+00 -0.45593999997E+02  0.45594000000E+02  0.51100000000E-03 0.  1.
         23    2    1    2    0    0  0.00000000000E+00  0.35527136788E-14  0.35527136788E-14  0.91188000000E+02  0.91188000000E+02 0.  0.
    9900012    2    3    3    0    0  0.14946493338E+02 -0.26403443113E+02 -0.31033592360E+02  0.47787270443E+02  0.19999997257E+02 0.  0.
         12    1    3    3    0    0 -0.14946493338E+02  0.26403443113E+02  0.31033592360E+02  0.43400729557E+02  0.00000000000E+00 0. -1.
         11    1    4    4    0    0  0.24148832183E+01 -0.16477526275E+02 -0.20754205782E+02  0.26609727375E+02  0.51100000000E-03 0.  1.
        -11    1    4    4    0    0  0.13911417778E+02 -0.87119117440E+01 -0.10225890029E+02  0.19338918738E+02  0.51100000000E-03 0. -1.
        -12    1    4    4    0    0 -0.13798076585E+01 -0.12140050945E+01 -0.53496549676E-01  0.18386243295E+01  0.00000000000E+00 0.  1.
</event>
<event>
 8    1  0.6239251E-010  0.9118800E+02  0.7816164E-02  0.1184000E+00
        -11   -1    0    0    0    0  0.00000000000E+00  0.00000000000E+00  0.45593999997E+02  0.45594000000E+02  0.51100000000E-03 0. -1.
         11   -1    0    0    0    0 -0.00000000000E+00 -0.00000000000E+00 -0.45593999997E+02  0.45594000000E+02  0.51100000000E-03 0.  1.
         23    2    1    2    0    0 -0.88817841970E-15  0.35527136788E-14  0.71054273576E-14  0.91188000000E+02  0.91188000000E+02 0.  0.
    9900012    2    3    3    0    0 -0.51222935556E+01  0.28514267202E+02  0.32315977065E+02  0.47787266146E+02  0.19999977668E+02 0.  0.
        -12    1    3    3    0    0  0.51222935556E+01 -0.28514267202E+02 -0.32315977065E+02  0.43400733854E+02  0.00000000000E+00 0.  1.
         11    1    4    4    0    0 -0.31966196730E+01  0.29392653574E+02  0.30807921288E+02  0.42699818218E+02  0.51100000000E-03 0. -1.
        -11    1    4    4    0    0 -0.29607940139E+01 -0.13556454146E+01  0.76182532389E-01  0.32572810321E+01  0.51100000000E-03 0.  1.
         12    1    4    4    0    0  0.10351201313E+01  0.47725904241E+00  0.14318732449E+01  0.18301668965E+01  0.00000000000E+00 0. -1.
</event>
<event>
 8    1  0.6239251E-010  0.9118800E+02  0.7816164E-02  0.1184000E+00
        -11   -1    0    0    0    0  0.00000000000E+00  0.00000000000E+00  0.45593999997E+02  0.45594000000E+02  0.51100000000E-03 0. -1.
         11   -1    0    0    0    0 -0.00000000000E+00 -0.00000000000E+00 -0.45593999997E+02  0.45594000000E+02  0.51100000000E-03 0.  1.
         23    2    1    2    0    0  0.35527136788E-14  0.00000000000E+00 -0.71054273576E-14  0.91188000000E+02  0.91188000000E+02 0.  0.
    9900012    2    3    3    0    0 -0.29045352736E+02 -0.23195984869E+01  0.32165353855E+02  0.47787273723E+02  0.20000012215E+02 0.  0.
        -12    1    3    3    0    0  0.29045352736E+02  0.23195984869E+01 -0.32165353855E+02  0.43400726277E+02  0.00000000000E+00 0.  1.
         11    1    4    4    0    0 -0.11793296877E+02  0.24143884600E+01  0.13612510834E+02  0.18171724583E+02  0.51100000000E-03 0. -1.
        -11    1    4    4    0    0 -0.15035049815E+02 -0.37504755632E+01  0.56608442471E+01  0.16497392150E+02  0.51100000000E-03 0.  1.
        -12    1    4    4    0    0 -0.22170060445E+01 -0.98351138363E+00  0.12891998774E+02  0.13118156991E+02  0.00000000000E+00 0.  1.
</event>
<event>
 8    1  0.6239251E-010  0.9118800E+02  0.7816164E-02  0.1184000E+00
        -11   -1    0    0    0    0  0.00000000000E+00  0.00000000000E+00  0.45593999997E+02  0.45594000000E+02  0.51100000000E-03 0. -1.
         11   -1    0    0    0    0 -0.00000000000E+00 -0.00000000000E+00 -0.45593999997E+02  0.45594000000E+02  0.51100000000E-03 0.  1.
         23    2    1    2    0    0  0.17763568394E-14 -0.17763568394E-14  0.71054273576E-14  0.91188000000E+02  0.91188000000E+02 0.  0.
    9900012    2    3    3    0    0  0.10225545653E+02 -0.13900928184E+02  0.39822427673E+02  0.47787270351E+02  0.19999996838E+02 0.  0.
        -12    1    3    3    0    0 -0.10225545653E+02  0.13900928184E+02 -0.39822427673E+02  0.43400729649E+02  0.00000000000E+00 0.  1.
         11    1    4    4    0    0  0.11295105931E+01 -0.14397706029E+02  0.24819354833E+02  0.28715328793E+02  0.51100000000E-03 0. -1.
        -11    1    4    4    0    0  0.11055701100E+01 -0.23957538437E+00 -0.77456180884E+00  0.13709952187E+01  0.51100000000E-03 0.  1.
         12    1    4    4    0    0  0.79904649502E+01  0.73635322964E+00  0.15777634649E+02  0.17700946340E+02  0.00000000000E+00 0. -1.
</event>
<event>
 8    1  0.6239251E-010  0.9118800E+02  0.7816164E-02  0.1184000E+00
        -11   -1    0    0    0    0  0.00000000000E+00  0.00000000000E+00  0.45593999997E+02  0.45594000000E+02  0.51100000000E-03 0. -1.
         11   -1    0    0    0    0 -0.00000000000E+00 -0.00000000000E+00 -0.45593999997E+02  0.45594000000E+02  0.51100000000E-03 0.  1.
         23    2    1    2    0    0 -0.17763568394E-14  0.00000000000E+00  0.35527136788E-14  0.91188000000E+02  0.91188000000E+02 0.  0.
    9900012    2    3    3    0    0  0.11136121571E+02 -0.27593641716E+02  0.31594294754E+02  0.47787288856E+02  0.20000081212E+02 0.  0.
        -12    1    3    3    0    0 -0.11136121571E+02  0.27593641716E+02 -0.31594294754E+02  0.43400711144E+02  0.00000000000E+00 0.  1.
         11    1    4    4    0    0 -0.39882845157E+01 -0.25586438251E+01  0.63568943506E+01  0.79286302504E+01  0.51100000000E-03 0. -1.
        -11    1    4    4    0    0  0.60362540219E+01 -0.14640667093E+02  0.79065599603E+01  0.17700259496E+02  0.51100000000E-03 0.  1.
         12    1    4    4    0    0  0.90881520647E+01 -0.10394330798E+02  0.17330840443E+02  0.22158399110E+02  0.00000000000E+00 0. -1.
</event>
<event>
 8    1  0.6239251E-010  0.9118800E+02  0.7816164E-02  0.1184000E+00
        -11   -1    0    0    0    0  0.00000000000E+00  0.00000000000E+00  0.45593999997E+02  0.45594000000E+02  0.51100000000E-03 0. -1.
         11   -1    0    0    0    0 -0.00000000000E+00 -0.00000000000E+00 -0.45593999997E+02  0.45594000000E+02  0.51100000000E-03 0.  1.
         23    2    1    2    0    0  0.00000000000E+00 -0.88817841970E-15 -0.35527136788E-14  0.91188000000E+02  0.91188000000E+02 0.  0.
    9900012    2    3    3    0    0 -0.30712422603E+02  0.55247448898E+01  0.30163680038E+02  0.47787270725E+02  0.19999998541E+02 0.  0.
        -12    1    3    3    0    0  0.30712422603E+02 -0.55247448898E+01 -0.30163680038E+02  0.43400729275E+02  0.00000000000E+00 0.  1.
         11    1    4    4    0    0 -0.11498859316E+02  0.92251403190E+01  0.78297609095E+01  0.16692277725E+02  0.51100000000E-03 0. -1.
        -11    1    4    4    0    0 -0.16700976739E+02 -0.57842008022E+01  0.15445052453E+02  0.23471882082E+02  0.51100000000E-03 0.  1.
         12    1    4    4    0    0 -0.25125865480E+01  0.20838053731E+01  0.68888666751E+01  0.76231109176E+01  0.00000000000E+00 0. -1.
</event>
<event>
 8    1  0.7715736E-010  0.9118800E+02  0.7816164E-02  0.1184000E+00
        -11   -1    0    0    0    0  0.00000000000E+00  0.00000000000E+00  0.45593999997E+02  0.45594000000E+02  0.51100000000E-03 0. -1.
         11   -1    0    0    0    0 -0.00000000000E+00 -0.00000000000E+00 -0.45593999997E+02  0.45594000000E+02  0.51100000000E-03 0.  1.
         23    2    1    2    0    0  0.17763568394E-14  0.00000000000E+00  0.00000000000E+00  0.91188000000E+02  0.91188000000E+02 0.  0.
    9900012    2    3    3    0    0 -0.79989798276E+01  0.31583737517E+02  0.28672413330E+02  0.47787269130E+02  0.19999991271E+02 0.  0.
        -12    1    3    3    0    0  0.79989798276E+01 -0.31583737517E+02 -0.28672413330E+02  0.43400730870E+02  0.00000000000E+00 0.  1.
         11    1    4    4    0    0 -0.13386828491E+01  0.10609998618E+02  0.12566326580E+02  0.16500809265E+02  0.51100000000E-03 0. -1.
        -11    1    4    4    0    0  0.36562510584E+01  0.12318891126E+02  0.48477849385E+01  0.13734055098E+02  0.51100000000E-03 0.  1.
        -12    1    4    4    0    0 -0.10316548037E+02  0.86548477735E+01  0.11258301812E+02  0.17552404766E+02  0.00000000000E+00 0.  1.
</event>
<event>
 8    1  0.6239251E-010  0.9118800E+02  0.7816164E-02  0.1184000E+00
        -11   -1    0    0    0    0  0.00000000000E+00  0.00000000000E+00  0.45593999997E+02  0.45594000000E+02  0.51100000000E-03 0. -1.
         11   -1    0    0    0    0 -0.00000000000E+00 -0.00000000000E+00 -0.45593999997E+02  0.45594000000E+02  0.51100000000E-03 0.  1.
         23    2    1    2    0    0 -0.88817841970E-15  0.44408920985E-15  0.71054273576E-14  0.91188000000E+02  0.91188000000E+02 0.  0.
    9900012    2    3    3    0    0 -0.71730455912E+01  0.31132395331E+01 -0.42690492384E+02  0.47787274391E+02  0.20000015256E+02 0.  0.
         12    1    3    3    0    0  0.71730455912E+01 -0.31132395331E+01  0.42690492384E+02  0.43400725609E+02  0.00000000000E+00 0. -1.
         11    1    4    4    0    0 -0.49824420597E+01 -0.41622085199E+01 -0.38046425616E+01  0.75248929510E+01  0.51100000000E-03 0. -1.
        -11    1    4    4    0    0 -0.47635569899E+01  0.45949762131E+01 -0.27517572667E+02  0.28302333603E+02  0.51100000000E-03 0.  1.
         12    1    4    4    0    0  0.25729534584E+01  0.26804718399E+01 -0.11368277155E+02  0.11960047837E+02  0.00000000000E+00 0. -1.
</event>
<event>
 8    1  0.6239251E-010  0.9118800E+02  0.7816164E-02  0.1184000E+00
        -11   -1    0    0    0    0  0.00000000000E+00  0.00000000000E+00  0.45593999997E+02  0.45594000000E+02  0.51100000000E-03 0. -1.
         11   -1    0    0    0    0 -0.00000000000E+00 -0.00000000000E+00 -0.45593999997E+02  0.45594000000E+02  0.51100000000E-03 0.  1.
         23    2    1    2    0    0  0.00000000000E+00  0.00000000000E+00  0.17763568394E-14  0.91188000000E+02  0.91188000000E+02 0.  0.
    9900012    2    3    3    0    0 -0.39058424986E+02  0.12913442768E+02  0.13831344885E+02  0.47787266506E+02  0.19999979305E+02 0.  0.
        -12    1    3    3    0    0  0.39058424986E+02 -0.12913442768E+02 -0.13831344885E+02  0.43400733494E+02  0.00000000000E+00 0.  1.
         11    1    4    4    0    0 -0.13553938997E+02  0.52524511170E+01  0.12896424507E+02  0.19432325398E+02  0.51100000000E-03 0. -1.
        -11    1    4    4    0    0 -0.72557576218E+01  0.56096728548E+01 -0.28525615876E+01  0.96047673619E+01  0.51100000000E-03 0.  1.
        -12    1    4    4    0    0 -0.18248728368E+02  0.20513187960E+01  0.37874819664E+01  0.18750173746E+02  0.00000000000E+00 0.  1.
</event>
<event>
 8    1  0.6239251E-010  0.9118800E+02  0.7816164E-02  0.1184000E+00
        -11   -1    0    0    0    0  0.00000000000E+00  0.00000000000E+00  0.45593999997E+02  0.45594000000E+02  0.51100000000E-03 0. -1.
         11   -1    0    0    0    0 -0.00000000000E+00 -0.00000000000E+00 -0.45593999997E+02  0.45594000000E+02  0.51100000000E-03 0.  1.
         23    2    1    2    0    0  0.22204460493E-15 -0.71054273576E-14  0.00000000000E+00  0.91188000000E+02  0.91188000000E+02 0.  0.
    9900012    2    3    3    0    0  0.14053763279E+01  0.39028362713E+02  0.18932381167E+02  0.47787271488E+02  0.20000002022E+02 0.  0.
        -12    1    3    3    0    0 -0.14053763279E+01 -0.39028362713E+02 -0.18932381167E+02  0.43400728512E+02  0.00000000000E+00 0.  1.
         11    1    4    4    0    0  0.66382746751E+01  0.27218127076E+02  0.14770605106E+02  0.31671184184E+02  0.51100000000E-03 0. -1.
        -11    1    4    4    0    0 -0.41025522664E+01  0.87801741525E+01 -0.12904220833E+01  0.97768902347E+01  0.51100000000E-03 0.  1.
        -12    1    4    4    0    0 -0.11303460809E+01  0.30300614847E+01  0.54521981452E+01  0.63391970688E+01  0.00000000000E+00 0.  1.
</event>
<event>
 8    1  0.6239251E-010  0.9118800E+02  0.7816164E-02  0.1184000E+00
        -11   -1    0    0    0    0  0.00000000000E+00  0.00000000000E+00  0.45593999997E+02  0.45594000000E+02  0.51100000000E-03 0. -1.
         11   -1    0    0    0    0 -0.00000000000E+00 -0.00000000000E+00 -0.45593999997E+02  0.45594000000E+02  0.51100000000E-03 0.  1.
         23    2    1    2    0    0 -0.72164496601E-15  0.00000000000E+00 -0.71054273576E-14  0.91188000000E+02  0.91188000000E+02 0.  0.
    9900012    2    3    3    0    0  0.38692324263E+00  0.18169118809E+02 -0.39412648764E+02  0.47787268780E+02  0.19999989675E+02 0.  0.
         12    1    3    3    0    0 -0.38692324263E+00 -0.18169118809E+02  0.39412648764E+02  0.43400731220E+02  0.00000000000E+00 0. -1.
         11    1    4    4    0    0  0.43811599394E+01 -0.12067541230E+01 -0.97205996480E+01  0.10730371648E+02  0.51100000000E-03 0. -1.
        -11    1    4    4    0    0  0.16443923061E+01  0.14073703989E+02 -0.21820899437E+02  0.26017778970E+02  0.51100000000E-03 0.  1.
         12    1    4    4    0    0 -0.56386290029E+01  0.53021689425E+01 -0.78711496786E+01  0.11039118162E+02  0.00000000000E+00 0. -1.
</event>
<event>
 8    1  0.6239251E-010  0.9118800E+02  0.7816164E-02  0.1184000E+00
        -11   -1    0    0    0    0  0.00000000000E+00  0.00000000000E+00  0.45593999997E+02  0.45594000000E+02  0.51100000000E-03 0. -1.
         11   -1    0    0    0    0 -0.00000000000E+00 -0.00000000000E+00 -0.45593999997E+02  0.45594000000E+02  0.51100000000E-03 0.  1.
         23    2    1    2    0    0  0.00000000000E+00 -0.88817841970E-15  0.00000000000E+00  0.91188000000E+02  0.91188000000E+02 0.  0.
    9900012    2    3    3    0    0  0.19740320780E+02 -0.71338202034E+01  0.37987541471E+02  0.47787251594E+02  0.19999911317E+02 0.  0.
        -12    1    3    3    0    0 -0.19740320780E+02  0.71338202034E+01 -0.37987541471E+02  0.43400748406E+02  0.00000000000E+00 0.  1.
         11    1    4    4    0    0  0.78035554782E+01  0.29440606956E+01  0.15786219401E+02  0.17854066616E+02  0.51100000000E-03 0. -1.
        -11    1    4    4    0    0  0.11201505022E+01 -0.90876749004E+01  0.90183309604E+01  0.12851881801E+02  0.51100000000E-03 0.  1.
         12    1    4    4    0    0  0.10816614800E+02 -0.99020599869E+00  0.13182991109E+02  0.17081303177E+02  0.00000000000E+00 0. -1.
</event>
<event>
 8    1  0.6239251E-010  0.9118800E+02  0.7816164E-02  0.1184000E+00
        -11   -1    0    0    0    0  0.00000000000E+00  0.00000000000E+00  0.45593999997E+02  0.45594000000E+02  0.51100000000E-03 0. -1.
         11   -1    0    0    0    0 -0.00000000000E+00 -0.00000000000E+00 -0.45593999997E+02  0.45594000000E+02  0.51100000000E-03 0.  1.
         23    2    1    2    0    0  0.00000000000E+00  0.00000000000E+00  0.35527136788E-14  0.91188000000E+02  0.91188000000E+02 0.  0.
    9900012    2    3    3    0    0 -0.32319160405E+02 -0.16029250973E+02 -0.24127952981E+02  0.47787272689E+02  0.20000007500E+02 0.  0.
         12    1    3    3    0    0  0.32319160405E+02  0.16029250973E+02  0.24127952981E+02  0.43400727311E+02  0.00000000000E+00 0. -1.
         11    1    4    4    0    0 -0.23593069087E+02 -0.13128709742E+02 -0.67054698833E+01  0.27820123204E+02  0.51100000000E-03 0. -1.
        -11    1    4    4    0    0 -0.87525721554E+01 -0.30478857406E+01 -0.15650677208E+02  0.18189030325E+02  0.51100000000E-03 0.  1.
         12    1    4    4    0    0  0.26480837966E-01  0.14734450957E+00 -0.17718058901E+01  0.17781191612E+01  0.00000000000E+00 0. -1.
</event>
<event>
 8    1  0.6239251E-010  0.9118800E+02  0.7816164E-02  0.1184000E+00
        -11   -1    0    0    0    0  0.00000000000E+00  0.00000000000E+00  0.45593999997E+02  0.45594000000E+02  0.51100000000E-03 0. -1.
         11   -1    0    0    0    0 -0.00000000000E+00 -0.00000000000E+00 -0.45593999997E+02  0.45594000000E+02  0.51100000000E-03 0.  1.
         23    2    1    2    0    0 -0.35527136788E-14 -0.17763568394E-14 -0.35527136788E-14  0.91188000000E+02  0.91188000000E+02 0.  0.
    9900012    2    3    3    0    0 -0.28903052176E+02 -0.93855941695E+01 -0.30986264102E+02  0.47787258462E+02  0.19999942632E+02 0.  0.
         12    1    3    3    0    0  0.28903052176E+02  0.93855941695E+01  0.30986264102E+02  0.43400741538E+02  0.00000000000E+00 0. -1.
         11    1    4    4    0    0 -0.18755944465E+02 -0.10374847255E+02 -0.12731151552E+02  0.24930004582E+02  0.51100000000E-03 0. -1.
        -11    1    4    4    0    0 -0.80365671745E+01 -0.30714640785E+01 -0.14815215619E+02  0.17132160331E+02  0.51100000000E-03 0.  1.
         12    1    4    4    0    0 -0.21105405364E+01  0.40607171640E+01 -0.34398969322E+01  0.57250935491E+01  0.00000000000E+00 0. -1.
</event>
<event>
 8    1  0.6239251E-010  0.9118800E+02  0.7816164E-02  0.1184000E+00
        -11   -1    0    0    0    0  0.00000000000E+00  0.00000000000E+00  0.45593999997E+02  0.45594000000E+02  0.51100000000E-03 0.  1.
         11   -1    0    0    0    0 -0.00000000000E+00 -0.00000000000E+00 -0.45593999997E+02  0.45594000000E+02  0.51100000000E-03 0. -1.
         23    2    1    2    0    0 -0.35527136788E-14  0.00000000000E+00  0.88817841970E-15  0.91188000000E+02  0.91188000000E+02 0.  0.
    9900012    2    3    3    0    0  0.27598716158E+02 -0.33236924194E+02 -0.41522493712E+01  0.47787269151E+02  0.19999991366E+02 0.  0.
         12    1    3    3    0    0 -0.27598716158E+02  0.33236924194E+02  0.41522493712E+01  0.43400730849E+02  0.00000000000E+00 0. -1.
         11    1    4    4    0    0  0.12383733735E+02 -0.81863122129E+01 -0.16845957684E+01  0.14940228647E+02  0.51100000000E-03 0. -1.
        -11    1    4    4    0    0  0.39170124436E+01 -0.17801453297E+02 -0.55896473820E+01  0.19065122189E+02  0.51100000000E-03 0.  1.
        -12    1    4    4    0    0  0.11297969979E+02 -0.72491586833E+01  0.31219937792E+01  0.13781918314E+02  0.00000000000E+00 0.  1.
</event>
<event>
 8    1  0.6239251E-010  0.9118800E+02  0.7816164E-02  0.1184000E+00
        -11   -1    0    0    0    0  0.00000000000E+00  0.00000000000E+00  0.45593999997E+02  0.45594000000E+02  0.51100000000E-03 0. -1.
         11   -1    0    0    0    0 -0.00000000000E+00 -0.00000000000E+00 -0.45593999997E+02  0.45594000000E+02  0.51100000000E-03 0.  1.
         23    2    1    2    0    0  0.00000000000E+00 -0.15543122345E-14  0.00000000000E+00  0.91188000000E+02  0.91188000000E+02 0.  0.
    9900012    2    3    3    0    0  0.17818524834E+02 -0.15345976929E+01 -0.39544510357E+02  0.47787272855E+02  0.20000008257E+02 0.  0.
         12    1    3    3    0    0 -0.17818524834E+02  0.15345976929E+01  0.39544510357E+02  0.43400727145E+02  0.00000000000E+00 0. -1.
         11    1    4    4    0    0 -0.21214995867E+01  0.90865019208E+00 -0.43070240373E+01  0.48863956027E+01  0.51100000000E-03 0. -1.
        -11    1    4    4    0    0  0.13209514221E+02  0.40695711767E+01 -0.13920398992E+02  0.19617089077E+02  0.51100000000E-03 0.  1.
        -12    1    4    4    0    0  0.67305101996E+01 -0.65128190617E+01 -0.21317087327E+02  0.23283788175E+02  0.00000000000E+00 0.  1.
</event>
<event>
 8    1  0.6239251E-010  0.9118800E+02  0.7816164E-02  0.1184000E+00
        -11   -1    0    0    0    0  0.00000000000E+00  0.00000000000E+00  0.45593999997E+02  0.45594000000E+02  0.51100000000E-03 0. -1.
         11   -1    0    0    0    0 -0.00000000000E+00 -0.00000000000E+00 -0.45593999997E+02  0.45594000000E+02  0.51100000000E-03 0.  1.
         23    2    1    2    0    0  0.35527136788E-14  0.00000000000E+00  0.00000000000E+00  0.91188000000E+02  0.91188000000E+02 0.  0.
    9900012    2    3    3    0    0 -0.23160277387E+02  0.33312182055E+02 -0.15411769545E+02  0.47787279241E+02  0.20000037373E+02 0.  0.
         12    1    3    3    0    0  0.23160277387E+02 -0.33312182055E+02  0.15411769545E+02  0.43400720759E+02  0.00000000000E+00 0. -1.
         11    1    4    4    0    0 -0.21000468196E+01  0.52975581079E+01  0.10479212008E+01  0.57941744585E+01  0.51100000000E-03 0. -1.
        -11    1    4    4    0    0 -0.15566180518E+02  0.87856014905E+01 -0.36482191264E+01  0.18242869087E+02  0.51100000000E-03 0.  1.
        -12    1    4    4    0    0 -0.54940500493E+01  0.19229022456E+02 -0.12811471619E+02  0.23750235696E+02  0.00000000000E+00 0.  1.
</event>
<event>
 8    1  0.6239251E-010  0.9118800E+02  0.7816164E-02  0.1184000E+00
        -11   -1    0    0    0    0  0.00000000000E+00  0.00000000000E+00  0.45593999997E+02  0.45594000000E+02  0.51100000000E-03 0. -1.
         11   -1    0    0    0    0 -0.00000000000E+00 -0.00000000000E+00 -0.45593999997E+02  0.45594000000E+02  0.51100000000E-03 0.  1.
         23    2    1    2    0    0 -0.17763568394E-14  0.00000000000E+00  0.00000000000E+00  0.91188000000E+02  0.91188000000E+02 0.  0.
    9900012    2    3    3    0    0  0.11686414651E+02 -0.24853011390E+02  0.33606231592E+02  0.47787271154E+02  0.20000000500E+02 0.  0.
        -12    1    3    3    0    0 -0.11686414651E+02  0.24853011390E+02 -0.33606231592E+02  0.43400728846E+02  0.00000000000E+00 0.  1.
         11    1    4    4    0    0  0.11584488120E+02 -0.24249088890E+02  0.23577163499E+02  0.35750542876E+02  0.51100000000E-03 0. -1.
        -11    1    4    4    0    0 -0.24823600993E+01  0.18318483052E+01  0.42049878799E+01  0.52153334704E+01  0.51100000000E-03 0.  1.
        -12    1    4    4    0    0  0.25842866299E+01 -0.24357708061E+01  0.58240802124E+01  0.68213948079E+01  0.00000000000E+00 0.  1.
</event>
<event>
 8    1  0.6239251E-010  0.9118800E+02  0.7816164E-02  0.1184000E+00
        -11   -1    0    0    0    0  0.00000000000E+00  0.00000000000E+00  0.45593999997E+02  0.45594000000E+02  0.51100000000E-03 0. -1.
         11   -1    0    0    0    0 -0.00000000000E+00 -0.00000000000E+00 -0.45593999997E+02  0.45594000000E+02  0.51100000000E-03 0.  1.
         23    2    1    2    0    0  0.35527136788E-14  0.00000000000E+00  0.00000000000E+00  0.91188000000E+02  0.91188000000E+02 0.  0.
    9900012    2    3    3    0    0  0.17755438557E+02  0.18682667387E+02  0.34918846436E+02  0.47787268492E+02  0.19999988362E+02 0.  0.
        -12    1    3    3    0    0 -0.17755438557E+02 -0.18682667387E+02 -0.34918846436E+02  0.43400731508E+02  0.00000000000E+00 0.  1.
         11    1    4    4    0    0 -0.15060802504E+01 -0.17380326423E+01  0.18656311263E+01  0.29613535667E+01  0.51100000000E-03 0. -1.
        -11    1    4    4    0    0 -0.10253932830E+01 -0.43706701020E+00  0.71342622295E+00  0.13234183741E+01  0.51100000000E-03 0.  1.
         12    1    4    4    0    0  0.20286912090E+02  0.20857767039E+02  0.32339789086E+02  0.43502496551E+02  0.00000000000E+00 0. -1.
</event>
<event>
 8    1  0.6239251E-010  0.9118800E+02  0.7816164E-02  0.1184000E+00
        -11   -1    0    0    0    0  0.00000000000E+00  0.00000000000E+00  0.45593999997E+02  0.45594000000E+02  0.51100000000E-03 0. -1.
         11   -1    0    0    0    0 -0.00000000000E+00 -0.00000000000E+00 -0.45593999997E+02  0.45594000000E+02  0.51100000000E-03 0.  1.
         23    2    1    2    0    0  0.00000000000E+00  0.17763568394E-14  0.00000000000E+00  0.91188000000E+02  0.91188000000E+02 0.  0.
    9900012    2    3    3    0    0  0.38719479481E+02  0.94588232260E+01 -0.17174282741E+02  0.47787269410E+02  0.19999992546E+02 0.  0.
         12    1    3    3    0    0 -0.38719479481E+02 -0.94588232260E+01  0.17174282741E+02  0.43400730590E+02  0.00000000000E+00 0. -1.
         11    1    4    4    0    0  0.94581264869E+01  0.98633975363E+01 -0.57603548821E+01  0.14829850176E+02  0.51100000000E-03 0. -1.
        -11    1    4    4    0    0  0.10999252704E+02  0.45490271437E+01 -0.56591854324E+01  0.13179665702E+02  0.51100000000E-03 0.  1.
         12    1    4    4    0    0  0.18262100291E+02 -0.49536014540E+01 -0.57547424266E+01  0.19777753532E+02  0.00000000000E+00 0. -1.
</event>
<event>
 8    1  0.6239251E-010  0.9118800E+02  0.7816164E-02  0.1184000E+00
        -11   -1    0    0    0    0  0.00000000000E+00  0.00000000000E+00  0.45593999997E+02  0.45594000000E+02  0.51100000000E-03 0.  1.
         11   -1    0    0    0    0 -0.00000000000E+00 -0.00000000000E+00 -0.45593999997E+02  0.45594000000E+02  0.51100000000E-03 0. -1.
         23    2    1    2    0    0  0.00000000000E+00  0.00000000000E+00  0.44408920985E-15  0.91188000000E+02  0.91188000000E+02 0.  0.
    9900012    2    3    3    0    0  0.38056143016E+02 -0.20744704234E+02  0.22380920128E+01  0.47787287668E+02  0.20000075794E+02 0.  0.
         12    1    3    3    0    0 -0.38056143016E+02  0.20744704234E+02 -0.22380920128E+01  0.43400712332E+02  0.00000000000E+00 0. -1.
         11    1    4    4    0    0  0.24389889624E+02 -0.46872692312E+01  0.53487582383E+01  0.25405637636E+02  0.51100000000E-03 0. -1.
        -11    1    4    4    0    0  0.88610715341E+01 -0.11109369765E+02  0.11788719789E+01  0.14259257509E+02  0.51100000000E-03 0.  1.
         12    1    4    4    0    0  0.48051818579E+01 -0.49480652384E+01 -0.42895382044E+01  0.81223925230E+01  0.00000000000E+00 0. -1.
</event>
<event>
 8    1  0.6239251E-010  0.9118800E+02  0.7816164E-02  0.1184000E+00
        -11   -1    0    0    0    0  0.00000000000E+00  0.00000000000E+00  0.45593999997E+02  0.45594000000E+02  0.51100000000E-03 0. -1.
         11   -1    0    0    0    0 -0.00000000000E+00 -0.00000000000E+00 -0.45593999997E+02  0.45594000000E+02  0.51100000000E-03 0.  1.
         23    2    1    2    0    0  0.00000000000E+00  0.00000000000E+00  0.17763568394E-14  0.91188000000E+02  0.91188000000E+02 0.  0.
    9900012    2    3    3    0    0 -0.37147904465E+02  0.17416863619E+02  0.14153068425E+02  0.47787270855E+02  0.19999999135E+02 0.  0.
        -12    1    3    3    0    0  0.37147904465E+02 -0.17416863619E+02 -0.14153068425E+02  0.43400729145E+02  0.00000000000E+00 0.  1.
         11    1    4    4    0    0 -0.21179331345E+02  0.41802540154E+01  0.11527609796E+02  0.24472931735E+02  0.51100000000E-03 0. -1.
        -11    1    4    4    0    0 -0.93339491647E+01  0.12533880083E+02  0.47144626672E+01  0.16323201752E+02  0.51100000000E-03 0.  1.
        -12    1    4    4    0    0 -0.66346239560E+01  0.70272952129E+00 -0.20890040384E+01  0.69911373674E+01  0.00000000000E+00 0.  1.
</event>
<event>
 8    1  0.6239251E-010  0.9118800E+02  0.7816164E-02  0.1184000E+00
        -11   -1    0    0    0    0  0.00000000000E+00  0.00000000000E+00  0.45593999997E+02  0.45594000000E+02  0.51100000000E-03 0.  1.
         11   -1    0    0    0    0 -0.00000000000E+00 -0.00000000000E+00 -0.45593999997E+02  0.45594000000E+02  0.51100000000E-03 0. -1.
         23    2    1    2    0    0  0.00000000000E+00  0.00000000000E+00 -0.17763568394E-14  0.91188000000E+02  0.91188000000E+02 0.  0.
    9900012    2    3    3    0    0  0.41939350083E+02  0.14140047991E+01  0.11077611095E+02  0.47787286152E+02  0.20000068879E+02 0.  0.
        -12    1    3    3    0    0 -0.41939350083E+02 -0.14140047991E+01 -0.11077611095E+02  0.43400713848E+02  0.00000000000E+00 0.  1.
         11    1    4    4    0    0  0.33326868656E+02  0.28432251840E+00  0.73675767912E+01  0.34132714538E+02  0.51100000000E-03 0. -1.
        -11    1    4    4    0    0 -0.78727954077E+00 -0.23716646393E+01 -0.84520505317E+00  0.26379867474E+01  0.51100000000E-03 0.  1.
        -12    1    4    4    0    0  0.93997609683E+01  0.35013469200E+01  0.45552393574E+01  0.11016584866E+02  0.00000000000E+00 0.  1.
</event>
<event>
 8    1  0.6239251E-010  0.9118800E+02  0.7816164E-02  0.1184000E+00
        -11   -1    0    0    0    0  0.00000000000E+00  0.00000000000E+00  0.45593999997E+02  0.45594000000E+02  0.51100000000E-03 0.  1.
         11   -1    0    0    0    0 -0.00000000000E+00 -0.00000000000E+00 -0.45593999997E+02  0.45594000000E+02  0.51100000000E-03 0. -1.
         23    2    1    2    0    0  0.00000000000E+00  0.00000000000E+00  0.00000000000E+00  0.91188000000E+02  0.91188000000E+02 0.  0.
    9900012    2    3    3    0    0 -0.17238230909E+02 -0.35887229494E+02 -0.17279284576E+02  0.47787268196E+02  0.19999987015E+02 0.  0.
         12    1    3    3    0    0  0.17238230909E+02  0.35887229494E+02  0.17279284576E+02  0.43400731804E+02  0.00000000000E+00 0. -1.
         11    1    4    4    0    0 -0.91277689148E+00  0.67026616393E+00 -0.15816483472E+01  0.19452583734E+01  0.51100000000E-03 0. -1.
        -11    1    4    4    0    0 -0.13153813896E+02 -0.19232664490E+02 -0.15933718976E+02  0.28227674436E+02  0.51100000000E-03 0.  1.
        -12    1    4    4    0    0 -0.31716401218E+01 -0.17324831168E+02  0.23608274747E+00  0.17614335387E+02  0.00000000000E+00 0.  1.
</event>
<event>
 8    1  0.6497771E-010  0.9118800E+02  0.7816164E-02  0.1184000E+00
        -11   -1    0    0    0    0  0.00000000000E+00  0.00000000000E+00  0.45593999997E+02  0.45594000000E+02  0.51100000000E-03 0. -1.
         11   -1    0    0    0    0 -0.00000000000E+00 -0.00000000000E+00 -0.45593999997E+02  0.45594000000E+02  0.51100000000E-03 0.  1.
         23    2    1    2    0    0 -0.35527136788E-14 -0.88817841970E-15  0.00000000000E+00  0.91188000000E+02  0.91188000000E+02 0.  0.
    9900012    2    3    3    0    0  0.20203525664E+02 -0.71002034226E+01  0.37749542741E+02  0.47787270570E+02  0.19999997836E+02 0.  0.
        -12    1    3    3    0    0 -0.20203525664E+02  0.71002034226E+01 -0.37749542741E+02  0.43400729430E+02  0.00000000000E+00 0.  1.
         11    1    4    4    0    0  0.73043076799E+01  0.30414619268E+00  0.69799453560E+01  0.10107672978E+02  0.51100000000E-03 0. -1.
        -11    1    4    4    0    0  0.25165233045E+01  0.48094597038E+01  0.53088658560E+01  0.75926180678E+01  0.51100000000E-03 0.  1.
        -12    1    4    4    0    0  0.10382694680E+02 -0.12213809319E+02  0.25460731529E+02  0.30086979524E+02  0.00000000000E+00 0.  1.
</event>
<event>
 8    1  0.6239251E-010  0.9118800E+02  0.7816164E-02  0.1184000E+00
        -11   -1    0    0    0    0  0.00000000000E+00  0.00000000000E+00  0.45593999997E+02  0.45594000000E+02  0.51100000000E-03 0. -1.
         11   -1    0    0    0    0 -0.00000000000E+00 -0.00000000000E+00 -0.45593999997E+02  0.45594000000E+02  0.51100000000E-03 0.  1.
         23    2    1    2    0    0 -0.88817841970E-15  0.00000000000E+00  0.35527136788E-14  0.91188000000E+02  0.91188000000E+02 0.  0.
    9900012    2    3    3    0    0  0.68202253130E+01  0.32766879777E+02  0.27630405486E+02  0.47787272000E+02  0.20000004355E+02 0.  0.
        -12    1    3    3    0    0 -0.68202253130E+01 -0.32766879777E+02 -0.27630405486E+02  0.43400728000E+02  0.00000000000E+00 0.  1.
         11    1    4    4    0    0 -0.30867599433E+01  0.91417416013E+01  0.51110115419E+01  0.10918881156E+02  0.51100000000E-03 0. -1.
        -11    1    4    4    0    0  0.95014553018E+01  0.68256889350E+01  0.13255075342E+02  0.17679499565E+02  0.51100000000E-03 0.  1.
        -12    1    4    4    0    0  0.40552995456E+00  0.16799449241E+02  0.92643186020E+01  0.19188891278E+02  0.00000000000E+00 0.  1.
</event>
<event>
 8    1  0.6239251E-010  0.9118800E+02  0.7816164E-02  0.1184000E+00
        -11   -1    0    0    0    0  0.00000000000E+00  0.00000000000E+00  0.45593999997E+02  0.45594000000E+02  0.51100000000E-03 0. -1.
         11   -1    0    0    0    0 -0.00000000000E+00 -0.00000000000E+00 -0.45593999997E+02  0.45594000000E+02  0.51100000000E-03 0.  1.
         23    2    1    2    0    0 -0.88817841970E-15  0.00000000000E+00  0.00000000000E+00  0.91188000000E+02  0.91188000000E+02 0.  0.
    9900012    2    3    3    0    0  0.69852049995E+01 -0.94902238034E+01 -0.41770395696E+02  0.47787269669E+02  0.19999993728E+02 0.  0.
         12    1    3    3    0    0 -0.69852049995E+01  0.94902238034E+01  0.41770395696E+02  0.43400730331E+02  0.00000000000E+00 0. -1.
         11    1    4    4    0    0  0.67548180791E+01 -0.11730641335E+02 -0.39572393740E+02  0.41823556281E+02  0.51100000000E-03 0. -1.
        -11    1    4    4    0    0 -0.11078096602E+01  0.27680866297E+01 -0.30716487374E+01  0.42807209742E+01  0.51100000000E-03 0.  1.
         12    1    4    4    0    0  0.13381965807E+01 -0.52766909760E+00  0.87364678170E+00  0.16829924136E+01  0.00000000000E+00 0. -1.
</event>
<event>
 8    1  0.6239251E-010  0.9118800E+02  0.7816164E-02  0.1184000E+00
        -11   -1    0    0    0    0  0.00000000000E+00  0.00000000000E+00  0.45593999997E+02  0.45594000000E+02  0.51100000000E-03 0.  1.
         11   -1    0    0    0    0 -0.00000000000E+00 -0.00000000000E+00 -0.45593999997E+02  0.45594000000E+02  0.51100000000E-03 0. -1.
         23    2    1    2    0    0  0.00000000000E+00  0.00000000000E+00  0.00000000000E+00  0.91188000000E+02  0.91188000000E+02 0.  0.
    9900012    2    3    3    0    0  0.35179114160E+02  0.21242348985E+02  0.13957648301E+02  0.47787269481E+02  0.19999992873E+02 0.  0.
        -12    1    3    3    0    0 -0.35179114160E+02 -0.21242348985E+02 -0.13957648301E+02  0.43400730519E+02  0.00000000000E+00 0.  1.
         11    1    4    4    0    0  0.23729646129E+02  0.52391620447E+01  0.92009087909E+01  0.25984642526E+02  0.51100000000E-03 0. -1.
        -11    1    4    4    0    0  0.11657856304E+02  0.15479159918E+02  0.25740870075E+01  0.19548297357E+02  0.51100000000E-03 0.  1.
         12    1    4    4    0    0 -0.20838827353E+00  0.52402702214E+00  0.21826525025E+01  0.22543295986E+01  0.00000000000E+00 0. -1.
</event>
<event>
 8    1  0.6239251E-010  0.9118800E+02  0.7816164E-02  0.1184000E+00
        -11   -1    0    0    0    0  0.00000000000E+00  0.00000000000E+00  0.45593999997E+02  0.45594000000E+02  0.51100000000E-03 0. -1.
         11   -1    0    0    0    0 -0.00000000000E+00 -0.00000000000E+00 -0.45593999997E+02  0.45594000000E+02  0.51100000000E-03 0.  1.
         23    2    1    2    0    0  0.00000000000E+00 -0.35527136788E-14  0.00000000000E+00  0.91188000000E+02  0.91188000000E+02 0.  0.
    9900012    2    3    3    0    0  0.16428780626E+02 -0.24021859220E+02  0.32197330755E+02  0.47787278105E+02  0.20000032193E+02 0.  0.
        -12    1    3    3    0    0 -0.16428780626E+02  0.24021859220E+02 -0.32197330755E+02  0.43400721895E+02  0.00000000000E+00 0.  1.
         11    1    4    4    0    0  0.18918864923E+01 -0.16951812361E+01  0.13135909890E+02  0.13379275123E+02  0.51100000000E-03 0.  1.
        -11    1    4    4    0    0  0.12862745457E+02 -0.12535756212E+02  0.83732022014E+01  0.19816809023E+02  0.51100000000E-03 0. -1.
         12    1    4    4    0    0  0.16741486765E+01 -0.97909217721E+01  0.10688218664E+02  0.14591193959E+02  0.00000000000E+00 0. -1.
</event>
<event>
 8    1  0.6239251E-010  0.9118800E+02  0.7816164E-02  0.1184000E+00
        -11   -1    0    0    0    0  0.00000000000E+00  0.00000000000E+00  0.45593999997E+02  0.45594000000E+02  0.51100000000E-03 0. -1.
         11   -1    0    0    0    0 -0.00000000000E+00 -0.00000000000E+00 -0.45593999997E+02  0.45594000000E+02  0.51100000000E-03 0.  1.
         23    2    1    2    0    0  0.00000000000E+00  0.44408920985E-15  0.35527136788E-14  0.91188000000E+02  0.91188000000E+02 0.  0.
    9900012    2    3    3    0    0  0.29912302802E+02 -0.35927973302E+01 -0.31240523890E+02  0.47787258250E+02  0.19999941664E+02 0.  0.
         12    1    3    3    0    0 -0.29912302802E+02  0.35927973302E+01  0.31240523890E+02  0.43400741750E+02  0.00000000000E+00 0. -1.
         11    1    4    4    0    0  0.17508109141E+02 -0.33785692628E+01 -0.21409141295E+02  0.27862159773E+02  0.51100000000E-03 0.  1.
        -11    1    4    4    0    0  0.76274357427E+00 -0.38565431868E+01  0.47001005567E+00  0.39592439714E+01  0.51100000000E-03 0. -1.
         12    1    4    4    0    0  0.11641450087E+02  0.36423151194E+01 -0.10301392650E+02  0.15965854505E+02  0.00000000000E+00 0. -1.
</event>
<event>
 8    1  0.6239251E-010  0.9118800E+02  0.7816164E-02  0.1184000E+00
        -11   -1    0    0    0    0  0.00000000000E+00  0.00000000000E+00  0.45593999997E+02  0.45594000000E+02  0.51100000000E-03 0.  1.
         11   -1    0    0    0    0 -0.00000000000E+00 -0.00000000000E+00 -0.45593999997E+02  0.45594000000E+02  0.51100000000E-03 0. -1.
         23    2    1    2    0    0  0.00000000000E+00  0.00000000000E+00  0.35527136788E-14  0.91188000000E+02  0.91188000000E+02 0.  0.
    9900012    2    3    3    0    0 -0.12971335303E+02 -0.36089388590E+02  0.20320530018E+02  0.47787269032E+02  0.19999990825E+02 0.  0.
        -12    1    3    3    0    0  0.12971335303E+02  0.36089388590E+02 -0.20320530018E+02  0.43400730968E+02  0.00000000000E+00 0.  1.
         11    1    4    4    0    0  0.33663121805E+01 -0.83303405480E+00  0.20651114749E+01  0.40361725803E+01  0.51100000000E-03 0.  1.
        -11    1    4    4    0    0 -0.98256875540E+01 -0.28701900541E+02  0.12167127335E+02  0.32686116600E+02  0.51100000000E-03 0. -1.
        -12    1    4    4    0    0 -0.65119599291E+01 -0.65544539945E+01  0.60882912076E+01  0.11064979851E+02  0.00000000000E+00 0.  1.
</event>
<event>
 8    1  0.6239251E-010  0.9118800E+02  0.7816164E-02  0.1184000E+00
        -11   -1    0    0    0    0  0.00000000000E+00  0.00000000000E+00  0.45593999997E+02  0.45594000000E+02  0.51100000000E-03 0. -1.
         11   -1    0    0    0    0 -0.00000000000E+00 -0.00000000000E+00 -0.45593999997E+02  0.45594000000E+02  0.51100000000E-03 0.  1.
         23    2    1    2    0    0  0.17763568394E-14  0.00000000000E+00  0.00000000000E+00  0.91188000000E+02  0.91188000000E+02 0.  0.
    9900012    2    3    3    0    0  0.10560223479E+02 -0.34093209616E+02 -0.24693258506E+02  0.47787282523E+02  0.20000052337E+02 0.  0.
         12    1    3    3    0    0 -0.10560223479E+02  0.34093209616E+02  0.24693258506E+02  0.43400717477E+02  0.00000000000E+00 0. -1.
         11    1    4    4    0    0  0.88907658048E+01 -0.11269050799E+02 -0.13424296200E+02  0.19653217325E+02  0.51100000000E-03 0. -1.
        -11    1    4    4    0    0 -0.40773885725E+01 -0.62651081003E+01 -0.34981800067E+00  0.74832512970E+01  0.51100000000E-03 0.  1.
        -12    1    4    4    0    0  0.57468462468E+01 -0.16559050717E+02 -0.10919144305E+02  0.20650813901E+02  0.00000000000E+00 0.  1.
</event>
<event>
 8    1  0.6239251E-010  0.9118800E+02  0.7816164E-02  0.1184000E+00
        -11   -1    0    0    0    0  0.00000000000E+00  0.00000000000E+00  0.45593999997E+02  0.45594000000E+02  0.51100000000E-03 0. -1.
         11   -1    0    0    0    0 -0.00000000000E+00 -0.00000000000E+00 -0.45593999997E+02  0.45594000000E+02  0.51100000000E-03 0.  1.
         23    2    1    2    0    0  0.00000000000E+00  0.00000000000E+00  0.35527136788E-14  0.91188000000E+02  0.91188000000E+02 0.  0.
    9900012    2    3    3    0    0 -0.56305204670E+01 -0.36937721810E+02  0.22079974857E+02  0.47787270249E+02  0.19999996371E+02 0.  0.
        -12    1    3    3    0    0  0.56305204670E+01  0.36937721810E+02 -0.22079974857E+02  0.43400729751E+02  0.00000000000E+00 0.  1.
         11    1    4    4    0    0 -0.63094301770E+01 -0.26164641288E+02  0.21651878549E+02  0.34542744649E+02  0.51100000000E-03 0. -1.
        -11    1    4    4    0    0 -0.10068467370E+01 -0.11394730786E+02  0.44376205675E+00  0.11447731437E+02  0.51100000000E-03 0.  1.
         12    1    4    4    0    0  0.16857564470E+01  0.62165026348E+00 -0.15665748384E-01  0.17967941630E+01  0.00000000000E+00 0. -1.
</event>
<event>
 8    1  0.6239251E-010  0.9118800E+02  0.7816164E-02  0.1184000E+00
        -11   -1    0    0    0    0  0.00000000000E+00  0.00000000000E+00  0.45593999997E+02  0.45594000000E+02  0.51100000000E-03 0. -1.
         11   -1    0    0    0    0 -0.00000000000E+00 -0.00000000000E+00 -0.45593999997E+02  0.45594000000E+02  0.51100000000E-03 0.  1.
         23    2    1    2    0    0  0.00000000000E+00 -0.88817841970E-15  0.00000000000E+00  0.91188000000E+02  0.91188000000E+02 0.  0.
    9900012    2    3    3    0    0  0.31829986830E+02 -0.45187931161E+01  0.29155703766E+02  0.47787278636E+02  0.20000034614E+02 0.  0.
        -12    1    3    3    0    0 -0.31829986830E+02  0.45187931161E+01 -0.29155703766E+02  0.43400721364E+02  0.00000000000E+00 0.  1.
         11    1    4    4    0    0  0.15371507959E+02  0.55573461654E+01  0.10455119448E+02  0.19403012041E+02  0.51100000000E-03 0. -1.
        -11    1    4    4    0    0  0.16867926830E+02 -0.11124058925E+02  0.17987834220E+02  0.27052427298E+02  0.51100000000E-03 0.  1.
        -12    1    4    4    0    0 -0.40944795943E+00  0.10479196437E+01  0.71275009773E+00  0.13318392970E+01  0.00000000000E+00 0.  1.
</event>
<event>
 8    1  0.6239251E-010  0.9118800E+02  0.7816164E-02  0.1184000E+00
        -11   -1    0    0    0    0  0.00000000000E+00  0.00000000000E+00  0.45593999997E+02  0.45594000000E+02  0.51100000000E-03 0. -1.
         11   -1    0    0    0    0 -0.00000000000E+00 -0.00000000000E+00 -0.45593999997E+02  0.45594000000E+02  0.51100000000E-03 0.  1.
         23    2    1    2    0    0  0.17763568394E-14  0.35527136788E-14  0.00000000000E+00  0.91188000000E+02  0.91188000000E+02 0.  0.
    9900012    2    3    3    0    0 -0.14977299948E+02 -0.30041066068E+02  0.27510688343E+02  0.47787272617E+02  0.20000007171E+02 0.  0.
        -12    1    3    3    0    0  0.14977299948E+02  0.30041066068E+02 -0.27510688343E+02  0.43400727383E+02  0.00000000000E+00 0.  1.
         11    1    4    4    0    0 -0.53526135015E+01 -0.76166364947E+01  0.99111787898E+01  0.13597613322E+02  0.51100000000E-03 0. -1.
        -11    1    4    4    0    0 -0.10663890895E+02 -0.24466229476E+02  0.14620225383E+02  0.30431331622E+02  0.51100000000E-03 0.  1.
        -12    1    4    4    0    0  0.10392044486E+01  0.20417999028E+01  0.29792841703E+01  0.37583276728E+01  0.00000000000E+00 0.  1.
</event>
<event>
 8    1  0.6239251E-010  0.9118800E+02  0.7816164E-02  0.1184000E+00
        -11   -1    0    0    0    0  0.00000000000E+00  0.00000000000E+00  0.45593999997E+02  0.45594000000E+02  0.51100000000E-03 0. -1.
         11   -1    0    0    0    0 -0.00000000000E+00 -0.00000000000E+00 -0.45593999997E+02  0.45594000000E+02  0.51100000000E-03 0.  1.
         23    2    1    2    0    0  0.00000000000E+00  0.88817841970E-15  0.00000000000E+00  0.91188000000E+02  0.91188000000E+02 0.  0.
    9900012    2    3    3    0    0  0.29821040348E+01  0.70830669918E+01 -0.42714874161E+02  0.47787271238E+02  0.20000000882E+02 0.  0.
         12    1    3    3    0    0 -0.29821040348E+01 -0.70830669918E+01  0.42714874161E+02  0.43400728762E+02  0.00000000000E+00 0. -1.
         11    1    4    4    0    0  0.69627372602E+01  0.72171688256E+01 -0.34026574763E+02  0.35473582091E+02  0.51100000000E-03 0.  1.
        -11    1    4    4    0    0 -0.44440899760E+01  0.30749140374E+01 -0.46079491635E+01  0.71019875955E+01  0.51100000000E-03 0. -1.
         12    1    4    4    0    0  0.46345675067E+00 -0.32090158712E+01 -0.40803502348E+01  0.52117015514E+01  0.00000000000E+00 0. -1.
</event>
<event>
 8    1  0.6239251E-010  0.9118800E+02  0.7816164E-02  0.1184000E+00
        -11   -1    0    0    0    0  0.00000000000E+00  0.00000000000E+00  0.45593999997E+02  0.45594000000E+02  0.51100000000E-03 0. -1.
         11   -1    0    0    0    0 -0.00000000000E+00 -0.00000000000E+00 -0.45593999997E+02  0.45594000000E+02  0.51100000000E-03 0.  1.
         23    2    1    2    0    0  0.00000000000E+00  0.00000000000E+00 -0.35527136788E-14  0.91188000000E+02  0.91188000000E+02 0.  0.
    9900012    2    3    3    0    0  0.46087286179E+01 -0.39635890487E+02 -0.17069931608E+02  0.47787230890E+02  0.19999816921E+02 0.  0.
         12    1    3    3    0    0 -0.46087286179E+01  0.39635890487E+02  0.17069931608E+02  0.43400769110E+02  0.00000000000E+00 0. -1.
         11    1    4    4    0    0  0.59745196854E+01 -0.75507158529E+01 -0.28957364900E+01  0.10054525620E+02  0.51100000000E-03 0. -1.
        -11    1    4    4    0    0 -0.36108643871E+01 -0.27979982953E+02 -0.16312154178E+02  0.32588405328E+02  0.51100000000E-03 0.  1.
        -12    1    4    4    0    0  0.22450733197E+01 -0.41051916817E+01  0.21379590598E+01  0.51442999422E+01  0.00000000000E+00 0.  1.
</event>
<event>
 8    1  0.6239251E-010  0.9118800E+02  0.7816164E-02  0.1184000E+00
        -11   -1    0    0    0    0  0.00000000000E+00  0.00000000000E+00  0.45593999997E+02  0.45594000000E+02  0.51100000000E-03 0. -1.
         11   -1    0    0    0    0 -0.00000000000E+00 -0.00000000000E+00 -0.45593999997E+02  0.45594000000E+02  0.51100000000E-03 0.  1.
         23    2    1    2    0    0  0.44408920985E-15  0.88817841970E-15 -0.71054273576E-14  0.91188000000E+02  0.91188000000E+02 0.  0.
    9900012    2    3    3    0    0 -0.34947003828E+01  0.54352928610E+01 -0.42916989736E+02  0.47787270199E+02  0.19999996147E+02 0.  0.
         12    1    3    3    0    0  0.34947003828E+01 -0.54352928610E+01  0.42916989736E+02  0.43400729801E+02  0.00000000000E+00 0. -1.
         11    1    4    4    0    0 -0.93706537074E+00  0.12117799594E+02 -0.28445718652E+02  0.30933445789E+02  0.51100000000E-03 0. -1.
        -11    1    4    4    0    0 -0.34535519224E+00 -0.49176111666E+01 -0.52221902756E+01  0.71814651242E+01  0.51100000000E-03 0.  1.
         12    1    4    4    0    0 -0.22122798198E+01 -0.17648955661E+01 -0.92490808080E+01  0.96723592858E+01  0.00000000000E+00 0. -1.
</event>
<event>
 8    1  0.6239251E-010  0.9118800E+02  0.7816164E-02  0.1184000E+00
        -11   -1    0    0    0    0  0.00000000000E+00  0.00000000000E+00  0.45593999997E+02  0.45594000000E+02  0.51100000000E-03 0. -1.
         11   -1    0    0    0    0 -0.00000000000E+00 -0.00000000000E+00 -0.45593999997E+02  0.45594000000E+02  0.51100000000E-03 0.  1.
         23    2    1    2    0    0 -0.44408920985E-15  0.00000000000E+00  0.00000000000E+00  0.91188000000E+02  0.91188000000E+02 0.  0.
    9900012    2    3    3    0    0 -0.29104309185E+01  0.18691215074E+02  0.39061375956E+02  0.47787271657E+02  0.20000002795E+02 0.  0.
        -12    1    3    3    0    0  0.29104309185E+01 -0.18691215074E+02 -0.39061375956E+02  0.43400728343E+02  0.00000000000E+00 0.  1.
         11    1    4    4    0    0  0.31566176530E+01  0.14027328036E+02  0.18508870026E+02  0.23437329983E+02  0.51100000000E-03 0.  1.
        -11    1    4    4    0    0 -0.39567399994E+01 -0.14188152554E+01  0.15794422710E+02  0.16344192154E+02  0.51100000000E-03 0. -1.
        -12    1    4    4    0    0 -0.21103085721E+01  0.60827022934E+01  0.47580832206E+01  0.80057495210E+01  0.00000000000E+00 0.  1.
</event>
<event>
 8    1  0.6239251E-010  0.9118800E+02  0.7816164E-02  0.1184000E+00
        -11   -1    0    0    0    0  0.00000000000E+00  0.00000000000E+00  0.45593999997E+02  0.45594000000E+02  0.51100000000E-03 0. -1.
         11   -1    0    0    0    0 -0.00000000000E+00 -0.00000000000E+00 -0.45593999997E+02  0.45594000000E+02  0.51100000000E-03 0.  1.
         23    2    1    2    0    0  0.35527136788E-14 -0.71054273576E-14  0.00000000000E+00  0.91188000000E+02  0.91188000000E+02 0.  0.
    9900012    2    3    3    0    0 -0.27434189073E+02  0.32428634282E+02  0.89090993376E+01  0.47787273019E+02  0.20000009004E+02 0.  0.
        -12    1    3    3    0    0  0.27434189073E+02 -0.32428634282E+02 -0.89090993376E+01  0.43400726981E+02  0.00000000000E+00 0.  1.
         11    1    4    4    0    0 -0.12059556272E+02  0.17981131245E+01  0.53159758467E+01  0.13301342329E+02  0.51100000000E-03 0. -1.
        -11    1    4    4    0    0 -0.62603342629E+01  0.12473579531E+02  0.21192092181E+01  0.14116409578E+02  0.51100000000E-03 0.  1.
         12    1    4    4    0    0 -0.91142985374E+01  0.18156941627E+02  0.14739142728E+01  0.20369521112E+02  0.00000000000E+00 0. -1.
</event>
<event>
 8    1  0.6239251E-010  0.9118800E+02  0.7816164E-02  0.1184000E+00
        -11   -1    0    0    0    0  0.00000000000E+00  0.00000000000E+00  0.45593999997E+02  0.45594000000E+02  0.51100000000E-03 0. -1.
         11   -1    0    0    0    0 -0.00000000000E+00 -0.00000000000E+00 -0.45593999997E+02  0.45594000000E+02  0.51100000000E-03 0.  1.
         23    2    1    2    0    0  0.00000000000E+00  0.88817841970E-15  0.00000000000E+00  0.91188000000E+02  0.91188000000E+02 0.  0.
    9900012    2    3    3    0    0 -0.25891619174E+01  0.33373508096E+01 -0.43194693678E+02  0.47787271529E+02  0.20000002210E+02 0.  0.
         12    1    3    3    0    0  0.25891619174E+01 -0.33373508096E+01  0.43194693678E+02  0.43400728471E+02  0.00000000000E+00 0. -1.
         11    1    4    4    0    0  0.22512427878E+00 -0.68282771133E+00  0.20550958289E+00  0.74777608549E+00  0.51100000000E-03 0. -1.
        -11    1    4    4    0    0  0.35451912883E+01 -0.54845569133E+01 -0.12747566569E+02  0.14323030388E+02  0.51100000000E-03 0.  1.
        -12    1    4    4    0    0 -0.63594774845E+01  0.95047354342E+01 -0.30652636692E+02  0.32716465056E+02  0.00000000000E+00 0.  1.
</event>
<event>
 8    1  0.6239251E-010  0.9118800E+02  0.7816164E-02  0.1184000E+00
        -11   -1    0    0    0    0  0.00000000000E+00  0.00000000000E+00  0.45593999997E+02  0.45594000000E+02  0.51100000000E-03 0. -1.
         11   -1    0    0    0    0 -0.00000000000E+00 -0.00000000000E+00 -0.45593999997E+02  0.45594000000E+02  0.51100000000E-03 0.  1.
         23    2    1    2    0    0  0.00000000000E+00  0.88817841970E-15  0.00000000000E+00  0.91188000000E+02  0.91188000000E+02 0.  0.
    9900012    2    3    3    0    0  0.22363905891E+02  0.17695574504E+01  0.37153030929E+02  0.47787270427E+02  0.19999997185E+02 0.  0.
        -12    1    3    3    0    0 -0.22363905891E+02 -0.17695574504E+01 -0.37153030929E+02  0.43400729573E+02  0.00000000000E+00 0.  1.
         11    1    4    4    0    0  0.15899185091E+02 -0.75796159418E+01  0.20951461796E+02  0.27371489109E+02  0.51100000000E-03 0. -1.
        -11    1    4    4    0    0  0.30031615973E+01  0.46988208693E+01  0.12072935096E+02  0.13298633736E+02  0.51100000000E-03 0.  1.
         12    1    4    4    0    0  0.34615592027E+01  0.46503525229E+01  0.41286340363E+01  0.71171475822E+01  0.00000000000E+00 0. -1.
</event>
<event>
 8    1  0.6239251E-010  0.9118800E+02  0.7816164E-02  0.1184000E+00
        -11   -1    0    0    0    0  0.00000000000E+00  0.00000000000E+00  0.45593999997E+02  0.45594000000E+02  0.51100000000E-03 0. -1.
         11   -1    0    0    0    0 -0.00000000000E+00 -0.00000000000E+00 -0.45593999997E+02  0.45594000000E+02  0.51100000000E-03 0.  1.
         23    2    1    2    0    0 -0.35527136788E-14  0.00000000000E+00  0.71054273576E-14  0.91188000000E+02  0.91188000000E+02 0.  0.
    9900012    2    3    3    0    0  0.21885750002E+02  0.92421028088E+01 -0.36321076344E+02  0.47787272998E+02  0.20000008909E+02 0.  0.
         12    1    3    3    0    0 -0.21885750002E+02 -0.92421028088E+01  0.36321076344E+02  0.43400727002E+02  0.00000000000E+00 0. -1.
         11    1    4    4    0    0  0.13433601686E+02  0.40822851391E+01 -0.76184808876E+01  0.15973977511E+02  0.51100000000E-03 0. -1.
        -11    1    4    4    0    0 -0.68244275106E+00  0.44362044167E+01 -0.79911933440E+01  0.91654137418E+01  0.51100000000E-03 0.  1.
        -12    1    4    4    0    0  0.91345910664E+01  0.72361325299E+00 -0.20711402113E+02  0.22647881746E+02  0.00000000000E+00 0.  1.
</event>
<event>
 8    1  0.6239251E-010  0.9118800E+02  0.7816164E-02  0.1184000E+00
        -11   -1    0    0    0    0  0.00000000000E+00  0.00000000000E+00  0.45593999997E+02  0.45594000000E+02  0.51100000000E-03 0. -1.
         11   -1    0    0    0    0 -0.00000000000E+00 -0.00000000000E+00 -0.45593999997E+02  0.45594000000E+02  0.51100000000E-03 0.  1.
         23    2    1    2    0    0 -0.35527136788E-14  0.00000000000E+00  0.00000000000E+00  0.91188000000E+02  0.91188000000E+02 0.  0.
    9900012    2    3    3    0    0 -0.31451254397E+02  0.11912849777E+02  0.27432201824E+02  0.47787273165E+02  0.20000009667E+02 0.  0.
        -12    1    3    3    0    0  0.31451254397E+02 -0.11912849777E+02 -0.27432201824E+02  0.43400726835E+02  0.00000000000E+00 0.  1.
         11    1    4    4    0    0 -0.16442670892E+02 -0.23948616083E+01  0.93290078951E+01  0.19055896115E+02  0.51100000000E-03 0. -1.
        -11    1    4    4    0    0 -0.12186977232E+02  0.11313868933E+02  0.18151525341E+02  0.24617146804E+02  0.51100000000E-03 0.  1.
        -12    1    4    4    0    0 -0.28216062728E+01  0.29938424521E+01 -0.48331412968E-01  0.41142302454E+01  0.00000000000E+00 0.  1.
</event>
<event>
 8    1  0.6239251E-010  0.9118800E+02  0.7816164E-02  0.1184000E+00
        -11   -1    0    0    0    0  0.00000000000E+00  0.00000000000E+00  0.45593999997E+02  0.45594000000E+02  0.51100000000E-03 0. -1.
         11   -1    0    0    0    0 -0.00000000000E+00 -0.00000000000E+00 -0.45593999997E+02  0.45594000000E+02  0.51100000000E-03 0.  1.
         23    2    1    2    0    0  0.00000000000E+00  0.00000000000E+00  0.00000000000E+00  0.91188000000E+02  0.91188000000E+02 0.  0.
    9900012    2    3    3    0    0  0.11761556771E+02 -0.13306173951E+02  0.39600944103E+02  0.47787271242E+02  0.20000000899E+02 0.  0.
        -12    1    3    3    0    0 -0.11761556771E+02  0.13306173951E+02 -0.39600944103E+02  0.43400728758E+02  0.00000000000E+00 0.  1.
         11    1    4    4    0    0  0.95686786702E+01 -0.20746810949E+01  0.29936408437E+02  0.31496864344E+02  0.51100000000E-03 0. -1.
        -11    1    4    4    0    0  0.36928972462E+01 -0.10948407361E+02  0.81462718329E+01  0.14137427589E+02  0.51100000000E-03 0.  1.
         12    1    4    4    0    0 -0.15000191454E+01 -0.28308549530E+00  0.15182638335E+01  0.21529793083E+01  0.00000000000E+00 0. -1.
</event>
<event>
 8    1  0.6239251E-010  0.9118800E+02  0.7816164E-02  0.1184000E+00
        -11   -1    0    0    0    0  0.00000000000E+00  0.00000000000E+00  0.45593999997E+02  0.45594000000E+02  0.51100000000E-03 0. -1.
         11   -1    0    0    0    0 -0.00000000000E+00 -0.00000000000E+00 -0.45593999997E+02  0.45594000000E+02  0.51100000000E-03 0.  1.
         23    2    1    2    0    0  0.00000000000E+00  0.35527136788E-14  0.00000000000E+00  0.91188000000E+02  0.91188000000E+02 0.  0.
    9900012    2    3    3    0    0  0.18704774088E+02 -0.29057447461E+02  0.26256788912E+02  0.47787276612E+02  0.20000025385E+02 0.  0.
        -12    1    3    3    0    0 -0.18704774088E+02  0.29057447461E+02 -0.26256788912E+02  0.43400723388E+02  0.00000000000E+00 0.  1.
         11    1    4    4    0    0  0.60422568727E+01  0.32767131659E+00  0.10196194488E+02  0.11856585466E+02  0.51100000000E-03 0. -1.
        -11    1    4    4    0    0  0.63947681605E+01 -0.18507852637E+02  0.10127429685E+02  0.22045373695E+02  0.51100000000E-03 0.  1.
         12    1    4    4    0    0  0.62677490550E+01 -0.10877266140E+02  0.59331647387E+01  0.13885317451E+02  0.00000000000E+00 0. -1.
</event>
<event>
 8    1  0.6239251E-010  0.9118800E+02  0.7816164E-02  0.1184000E+00
        -11   -1    0    0    0    0  0.00000000000E+00  0.00000000000E+00  0.45593999997E+02  0.45594000000E+02  0.51100000000E-03 0. -1.
         11   -1    0    0    0    0 -0.00000000000E+00 -0.00000000000E+00 -0.45593999997E+02  0.45594000000E+02  0.51100000000E-03 0.  1.
         23    2    1    2    0    0  0.00000000000E+00  0.00000000000E+00  0.35527136788E-14  0.91188000000E+02  0.91188000000E+02 0.  0.
    9900012    2    3    3    0    0 -0.10748832856E+02  0.27404543697E+02 -0.31891641134E+02  0.47787271927E+02  0.20000004026E+02 0.  0.
         12    1    3    3    0    0  0.10748832856E+02 -0.27404543697E+02  0.31891641134E+02  0.43400728073E+02  0.00000000000E+00 0. -1.
         11    1    4    4    0    0  0.64847424581E+00 -0.78048752086E+00  0.53421933057E+00  0.11467650901E+01  0.51100000000E-03 0. -1.
        -11    1    4    4    0    0 -0.10233367491E+01  0.20461784281E+02 -0.18066088766E+02  0.27315112989E+02  0.51100000000E-03 0.  1.
        -12    1    4    4    0    0 -0.10373970353E+02  0.77232469365E+01 -0.14359771699E+02  0.19325393848E+02  0.00000000000E+00 0.  1.
</event>
<event>
 8    1  0.7962365E-010  0.9118800E+02  0.7816164E-02  0.1184000E+00
        -11   -1    0    0    0    0  0.00000000000E+00  0.00000000000E+00  0.45593999997E+02  0.45594000000E+02  0.51100000000E-03 0. -1.
         11   -1    0    0    0    0 -0.00000000000E+00 -0.00000000000E+00 -0.45593999997E+02  0.45594000000E+02  0.51100000000E-03 0.  1.
         23    2    1    2    0    0  0.88817841970E-15 -0.35527136788E-14 -0.71054273576E-14  0.91188000000E+02  0.91188000000E+02 0.  0.
    9900012    2    3    3    0    0 -0.55554344067E+01  0.18821074733E+02  0.38710819656E+02  0.47787271158E+02  0.20000000518E+02 0.  0.
        -12    1    3    3    0    0  0.55554344067E+01 -0.18821074733E+02 -0.38710819656E+02  0.43400728842E+02  0.00000000000E+00 0.  1.
         11    1    4    4    0    0 -0.60193753182E+01  0.13125285122E+02  0.28238410725E+02  0.31716144616E+02  0.51100000000E-03 0. -1.
        -11    1    4    4    0    0  0.51767376541E+01  0.55051084756E+00  0.42022324484E+01  0.66903238146E+01  0.51100000000E-03 0.  1.
        -12    1    4    4    0    0 -0.47127967425E+01  0.51452787631E+01  0.62701764828E+01  0.93808027275E+01  0.00000000000E+00 0.  1.
</event>
<event>
 8    1  0.6239251E-010  0.9118800E+02  0.7816164E-02  0.1184000E+00
        -11   -1    0    0    0    0  0.00000000000E+00  0.00000000000E+00  0.45593999997E+02  0.45594000000E+02  0.51100000000E-03 0. -1.
         11   -1    0    0    0    0 -0.00000000000E+00 -0.00000000000E+00 -0.45593999997E+02  0.45594000000E+02  0.51100000000E-03 0.  1.
         23    2    1    2    0    0  0.00000000000E+00  0.00000000000E+00  0.00000000000E+00  0.91188000000E+02  0.91188000000E+02 0.  0.
    9900012    2    3    3    0    0 -0.13563049184E+02 -0.20061499253E+02  0.36016677896E+02  0.47787295603E+02  0.20000111973E+02 0.  0.
        -12    1    3    3    0    0  0.13563049184E+02  0.20061499253E+02 -0.36016677896E+02  0.43400704397E+02  0.00000000000E+00 0.  1.
         11    1    4    4    0    0 -0.29344020931E+01 -0.36757506584E+01  0.17034368123E+02  0.17671772864E+02  0.51100000000E-03 0. -1.
        -11    1    4    4    0    0 -0.99834023286E+01 -0.12435421120E+02  0.20378379743E+02  0.25876367243E+02  0.51100000000E-03 0.  1.
        -12    1    4    4    0    0 -0.64524476184E+00 -0.39503274750E+01 -0.13960699693E+01  0.42391554963E+01  0.00000000000E+00 0.  1.
</event>
<event>
 8    1  0.6239251E-010  0.9118800E+02  0.7816164E-02  0.1184000E+00
        -11   -1    0    0    0    0  0.00000000000E+00  0.00000000000E+00  0.45593999997E+02  0.45594000000E+02  0.51100000000E-03 0. -1.
         11   -1    0    0    0    0 -0.00000000000E+00 -0.00000000000E+00 -0.45593999997E+02  0.45594000000E+02  0.51100000000E-03 0.  1.
         23    2    1    2    0    0 -0.55511151231E-16  0.00000000000E+00  0.00000000000E+00  0.91188000000E+02  0.91188000000E+02 0.  0.
    9900012    2    3    3    0    0  0.39173696871E+00 -0.72682178732E+01 -0.42786017710E+02  0.47787265440E+02  0.19999974447E+02 0.  0.
         12    1    3    3    0    0 -0.39173696871E+00  0.72682178732E+01  0.42786017710E+02  0.43400734560E+02  0.00000000000E+00 0. -1.
         11    1    4    4    0    0  0.46926765475E+01  0.59807489912E+00 -0.27462430625E+02  0.27866897977E+02  0.51100000000E-03 0. -1.
        -11    1    4    4    0    0  0.24710288617E+01 -0.10988430378E+01 -0.58830851006E+01  0.64748845719E+01  0.51100000000E-03 0.  1.
         12    1    4    4    0    0 -0.67719684405E+01 -0.67674497345E+01 -0.94405019844E+01  0.13445482891E+02  0.00000000000E+00 0. -1.
</event>
<event>
 8    1  0.6239251E-010  0.9118800E+02  0.7816164E-02  0.1184000E+00
        -11   -1    0    0    0    0  0.00000000000E+00  0.00000000000E+00  0.45593999997E+02  0.45594000000E+02  0.51100000000E-03 0. -1.
         11   -1    0    0    0    0 -0.00000000000E+00 -0.00000000000E+00 -0.45593999997E+02  0.45594000000E+02  0.51100000000E-03 0.  1.
         23    2    1    2    0    0  0.00000000000E+00  0.00000000000E+00  0.17763568394E-14  0.91188000000E+02  0.91188000000E+02 0.  0.
    9900012    2    3    3    0    0  0.40259106120E+02  0.71988733318E+01  0.14525968502E+02  0.47787272313E+02  0.20000005784E+02 0.  0.
        -12    1    3    3    0    0 -0.40259106120E+02 -0.71988733318E+01 -0.14525968502E+02  0.43400727687E+02  0.00000000000E+00 0.  1.
         11    1    4    4    0    0  0.17524748482E+02  0.22917006002E+01  0.16295509339E+02  0.24039807110E+02  0.51100000000E-03 0. -1.
        -11    1    4    4    0    0  0.18794562562E+02  0.25963605987E+01 -0.39320284957E+00  0.18977125151E+02  0.51100000000E-03 0.  1.
         12    1    4    4    0    0  0.39397950754E+01  0.23108121329E+01 -0.13763379875E+01  0.47703400513E+01  0.00000000000E+00 0. -1.
</event>
<event>
 8    1  0.6239251E-010  0.9118800E+02  0.7816164E-02  0.1184000E+00
        -11   -1    0    0    0    0  0.00000000000E+00  0.00000000000E+00  0.45593999997E+02  0.45594000000E+02  0.51100000000E-03 0. -1.
         11   -1    0    0    0    0 -0.00000000000E+00 -0.00000000000E+00 -0.45593999997E+02  0.45594000000E+02  0.51100000000E-03 0.  1.
         23    2    1    2    0    0  0.35527136788E-14  0.17763568394E-14  0.00000000000E+00  0.91188000000E+02  0.91188000000E+02 0.  0.
    9900012    2    3    3    0    0 -0.30762919186E+02 -0.86267544724E+01 -0.29374211384E+02  0.47787281296E+02  0.20000046743E+02 0.  0.
         12    1    3    3    0    0  0.30762919186E+02  0.86267544724E+01  0.29374211384E+02  0.43400718704E+02  0.00000000000E+00 0. -1.
         11    1    4    4    0    0 -0.14733447798E+02 -0.10163532302E+02 -0.15677572171E+02  0.23794077884E+02  0.51100000000E-03 0. -1.
        -11    1    4    4    0    0 -0.11283767261E+02  0.37453839437E+01 -0.14441687356E+02  0.18705978681E+02  0.51100000000E-03 0.  1.
         12    1    4    4    0    0 -0.47457041267E+01 -0.22086061144E+01  0.74504814329E+00  0.52872247316E+01  0.00000000000E+00 0. -1.
</event>
<event>
 8    1  0.6239251E-010  0.9118800E+02  0.7816164E-02  0.1184000E+00
        -11   -1    0    0    0    0  0.00000000000E+00  0.00000000000E+00  0.45593999997E+02  0.45594000000E+02  0.51100000000E-03 0. -1.
         11   -1    0    0    0    0 -0.00000000000E+00 -0.00000000000E+00 -0.45593999997E+02  0.45594000000E+02  0.51100000000E-03 0.  1.
         23    2    1    2    0    0 -0.88817841970E-15  0.88817841970E-15  0.00000000000E+00  0.91188000000E+02  0.91188000000E+02 0.  0.
    9900012    2    3    3    0    0 -0.69044142446E+01  0.33169826025E+01 -0.42719438755E+02  0.47787265476E+02  0.19999974611E+02 0.  0.
         12    1    3    3    0    0  0.69044142446E+01 -0.33169826025E+01  0.42719438755E+02  0.43400734524E+02  0.00000000000E+00 0. -1.
         11    1    4    4    0    0 -0.87169929424E+01  0.28410272660E+01 -0.69017977349E+01  0.11475722815E+02  0.51100000000E-03 0. -1.
        -11    1    4    4    0    0 -0.13551079426E+01  0.37270299368E+00 -0.24992316070E+02  0.25031801530E+02  0.51100000000E-03 0.  1.
        -12    1    4    4    0    0  0.31676866404E+01  0.10325234278E+00 -0.10825324951E+02  0.11279741131E+02  0.00000000000E+00 0.  1.
</event>
<event>
 8    1  0.6239251E-010  0.9118800E+02  0.7816164E-02  0.1184000E+00
        -11   -1    0    0    0    0  0.00000000000E+00  0.00000000000E+00  0.45593999997E+02  0.45594000000E+02  0.51100000000E-03 0. -1.
         11   -1    0    0    0    0 -0.00000000000E+00 -0.00000000000E+00 -0.45593999997E+02  0.45594000000E+02  0.51100000000E-03 0.  1.
         23    2    1    2    0    0  0.17763568394E-14  0.00000000000E+00  0.00000000000E+00  0.91188000000E+02  0.91188000000E+02 0.  0.
    9900012    2    3    3    0    0  0.12267890288E+02 -0.25655375462E+02  0.32786040326E+02  0.47787264263E+02  0.19999969081E+02 0.  0.
        -12    1    3    3    0    0 -0.12267890288E+02  0.25655375462E+02 -0.32786040326E+02  0.43400735737E+02  0.00000000000E+00 0.  1.
         11    1    4    4    0    0  0.73524527955E+01 -0.21727532392E+02  0.17254436104E+02  0.28702957888E+02  0.51100000000E-03 0. -1.
        -11    1    4    4    0    0 -0.18233477399E+01  0.66500582184E+00  0.53412257456E+00  0.20129870614E+01  0.51100000000E-03 0.  1.
         12    1    4    4    0    0  0.67387852321E+01 -0.45928488919E+01  0.14997481648E+02  0.17071319314E+02  0.00000000000E+00 0. -1.
</event>
<event>
 8    1  0.6239251E-010  0.9118800E+02  0.7816164E-02  0.1184000E+00
        -11   -1    0    0    0    0  0.00000000000E+00  0.00000000000E+00  0.45593999997E+02  0.45594000000E+02  0.51100000000E-03 0. -1.
         11   -1    0    0    0    0 -0.00000000000E+00 -0.00000000000E+00 -0.45593999997E+02  0.45594000000E+02  0.51100000000E-03 0.  1.
         23    2    1    2    0    0  0.00000000000E+00  0.00000000000E+00  0.00000000000E+00  0.91188000000E+02  0.91188000000E+02 0.  0.
    9900012    2    3    3    0    0 -0.32068176496E+02 -0.24564403871E+02  0.15869629590E+02  0.47787273916E+02  0.20000013091E+02 0.  0.
        -12    1    3    3    0    0  0.32068176496E+02  0.24564403871E+02 -0.15869629590E+02  0.43400726084E+02  0.00000000000E+00 0.  1.
         11    1    4    4    0    0 -0.17992440572E+02 -0.17685852227E+02  0.35067220250E+01  0.25471835158E+02  0.51100000000E-03 0. -1.
        -11    1    4    4    0    0 -0.11429729699E+01 -0.41889387789E+01  0.18025217707E+00  0.43458125145E+01  0.51100000000E-03 0.  1.
         12    1    4    4    0    0 -0.12932762954E+02 -0.26896128657E+01  0.12182655388E+02  0.17969626243E+02  0.00000000000E+00 0. -1.
</event>
<event>
 8    1  0.6239251E-010  0.9118800E+02  0.7816164E-02  0.1184000E+00
        -11   -1    0    0    0    0  0.00000000000E+00  0.00000000000E+00  0.45593999997E+02  0.45594000000E+02  0.51100000000E-03 0.  1.
         11   -1    0    0    0    0 -0.00000000000E+00 -0.00000000000E+00 -0.45593999997E+02  0.45594000000E+02  0.51100000000E-03 0. -1.
         23    2    1    2    0    0  0.88817841970E-15  0.00000000000E+00  0.00000000000E+00  0.91188000000E+02  0.91188000000E+02 0.  0.
    9900012    2    3    3    0    0  0.72221306797E+01  0.42335136612E+02  0.62609665395E+01  0.47787278053E+02  0.20000031957E+02 0.  0.
        -12    1    3    3    0    0 -0.72221306797E+01 -0.42335136612E+02 -0.62609665395E+01  0.43400721947E+02  0.00000000000E+00 0.  1.
         11    1    4    4    0    0  0.34829013154E+01  0.36440019040E+02  0.93562820620E+01  0.37782874474E+02  0.51100000000E-03 0. -1.
        -11    1    4    4    0    0 -0.17505443476E+00  0.70878264664E+00 -0.34215275101E+01  0.34985522232E+01  0.51100000000E-03 0.  1.
        -12    1    4    4    0    0  0.39142837990E+01  0.51863349249E+01  0.32621198751E+00  0.65058513566E+01  0.00000000000E+00 0.  1.
</event>
<event>
 8    1  0.6239251E-010  0.9118800E+02  0.7816164E-02  0.1184000E+00
        -11   -1    0    0    0    0  0.00000000000E+00  0.00000000000E+00  0.45593999997E+02  0.45594000000E+02  0.51100000000E-03 0. -1.
         11   -1    0    0    0    0 -0.00000000000E+00 -0.00000000000E+00 -0.45593999997E+02  0.45594000000E+02  0.51100000000E-03 0.  1.
         23    2    1    2    0    0  0.00000000000E+00  0.00000000000E+00  0.00000000000E+00  0.91188000000E+02  0.91188000000E+02 0.  0.
    9900012    2    3    3    0    0 -0.52845895924E+01  0.31787883375E+02 -0.29072787770E+02  0.47787269529E+02  0.19999993092E+02 0.  0.
         12    1    3    3    0    0  0.52845895924E+01 -0.31787883375E+02  0.29072787770E+02  0.43400730471E+02  0.00000000000E+00 0. -1.
         11    1    4    4    0    0  0.15136825035E+01  0.15475409395E+02 -0.63285608794E+01  0.16787799550E+02  0.51100000000E-03 0. -1.
        -11    1    4    4    0    0 -0.25007368724E+01  0.48697958861E+01 -0.16272830803E+02  0.17168972581E+02  0.51100000000E-03 0.  1.
        -12    1    4    4    0    0 -0.42975352235E+01  0.11442678095E+02 -0.64713960878E+01  0.13830497399E+02  0.00000000000E+00 0.  1.
</event>
<event>
 8    1  0.6239251E-010  0.9118800E+02  0.7816164E-02  0.1184000E+00
        -11   -1    0    0    0    0  0.00000000000E+00  0.00000000000E+00  0.45593999997E+02  0.45594000000E+02  0.51100000000E-03 0. -1.
         11   -1    0    0    0    0 -0.00000000000E+00 -0.00000000000E+00 -0.45593999997E+02  0.45594000000E+02  0.51100000000E-03 0.  1.
         23    2    1    2    0    0  0.71054273576E-14  0.00000000000E+00  0.88817841970E-15  0.91188000000E+02  0.91188000000E+02 0.  0.
    9900012    2    3    3    0    0  0.36462809306E+02  0.23050895558E+02  0.47689699873E+01  0.47787270475E+02  0.19999997405E+02 0.  0.
        -12    1    3    3    0    0 -0.36462809306E+02 -0.23050895558E+02 -0.47689699873E+01  0.43400729525E+02  0.00000000000E+00 0.  1.
         11    1    4    4    0    0  0.25037097913E+02  0.11198187514E+02  0.58303314342E+01  0.28040121975E+02  0.51100000000E-03 0. -1.
        -11    1    4    4    0    0  0.10532380082E+02  0.11622205536E+02 -0.43945713141E+01  0.16288614091E+02  0.51100000000E-03 0.  1.
        -12    1    4    4    0    0  0.89333131182E+00  0.23050250792E+00  0.33332098671E+01  0.34585344088E+01  0.00000000000E+00 0.  1.
</event>
<event>
 8    1  0.7818219E-010  0.9118800E+02  0.7816164E-02  0.1184000E+00
        -11   -1    0    0    0    0  0.00000000000E+00  0.00000000000E+00  0.45593999997E+02  0.45594000000E+02  0.51100000000E-03 0. -1.
         11   -1    0    0    0    0 -0.00000000000E+00 -0.00000000000E+00 -0.45593999997E+02  0.45594000000E+02  0.51100000000E-03 0.  1.
         23    2    1    2    0    0 -0.44408920985E-15  0.17763568394E-14  0.00000000000E+00  0.91188000000E+02  0.91188000000E+02 0.  0.
    9900012    2    3    3    0    0 -0.38436139877E+01  0.10796464129E+02  0.41860329178E+02  0.47787260778E+02  0.19999953190E+02 0.  0.
        -12    1    3    3    0    0  0.38436139877E+01 -0.10796464129E+02 -0.41860329178E+02  0.43400739222E+02  0.00000000000E+00 0.  1.
         11    1    4    4    0    0 -0.88760410136E+01  0.94564932026E+01  0.18297484685E+02  0.22427824545E+02  0.51100000000E-03 0. -1.
        -11    1    4    4    0    0  0.49733984521E+01  0.40702298725E+01  0.13821676797E+02  0.15242710163E+02  0.51100000000E-03 0.  1.
        -12    1    4    4    0    0  0.59028573770E-01 -0.27302589464E+01  0.97411676954E+01  0.10116726069E+02  0.00000000000E+00 0.  1.
</event>
<event>
 8    1  0.6239251E-010  0.9118800E+02  0.7816164E-02  0.1184000E+00
        -11   -1    0    0    0    0  0.00000000000E+00  0.00000000000E+00  0.45593999997E+02  0.45594000000E+02  0.51100000000E-03 0. -1.
         11   -1    0    0    0    0 -0.00000000000E+00 -0.00000000000E+00 -0.45593999997E+02  0.45594000000E+02  0.51100000000E-03 0.  1.
         23    2    1    2    0    0  0.00000000000E+00  0.00000000000E+00  0.00000000000E+00  0.91188000000E+02  0.91188000000E+02 0.  0.
    9900012    2    3    3    0    0 -0.18549036147E+02 -0.32402996171E+02  0.22126967223E+02  0.47787267502E+02  0.19999983849E+02 0.  0.
        -12    1    3    3    0    0  0.18549036147E+02  0.32402996171E+02 -0.22126967223E+02  0.43400732498E+02  0.00000000000E+00 0.  1.
         11    1    4    4    0    0 -0.82249550695E+00  0.11600209864E+01  0.35158348173E+01  0.37925245248E+01  0.51100000000E-03 0. -1.
        -11    1    4    4    0    0 -0.78746676384E+01 -0.24261326560E+02  0.78373730743E+01  0.26684204576E+02  0.51100000000E-03 0.  1.
         12    1    4    4    0    0 -0.98518730019E+01 -0.93016905974E+01  0.10773759331E+02  0.17310538401E+02  0.00000000000E+00 0. -1.
</event>
<event>
 8    1  0.6239251E-010  0.9118800E+02  0.7816164E-02  0.1184000E+00
        -11   -1    0    0    0    0  0.00000000000E+00  0.00000000000E+00  0.45593999997E+02  0.45594000000E+02  0.51100000000E-03 0. -1.
         11   -1    0    0    0    0 -0.00000000000E+00 -0.00000000000E+00 -0.45593999997E+02  0.45594000000E+02  0.51100000000E-03 0.  1.
         23    2    1    2    0    0  0.35527136788E-14  0.00000000000E+00 -0.35527136788E-14  0.91188000000E+02  0.91188000000E+02 0.  0.
    9900012    2    3    3    0    0  0.31686405727E+02  0.53360936323E+01 -0.29173977904E+02  0.47787272012E+02  0.20000004411E+02 0.  0.
         12    1    3    3    0    0 -0.31686405727E+02 -0.53360936323E+01  0.29173977904E+02  0.43400727988E+02  0.00000000000E+00 0. -1.
         11    1    4    4    0    0  0.47247784035E+01  0.62467119879E+01 -0.53844242860E+00  0.78507873575E+01  0.51100000000E-03 0. -1.
        -11    1    4    4    0    0  0.98478135285E+01 -0.34839560038E+01 -0.92852863654E+01  0.13976191322E+02  0.51100000000E-03 0.  1.
         12    1    4    4    0    0  0.17113813795E+02  0.25733376483E+01 -0.19350249110E+02  0.25960293332E+02  0.00000000000E+00 0. -1.
</event>
<event>
 8    1  0.6239251E-010  0.9118800E+02  0.7816164E-02  0.1184000E+00
        -11   -1    0    0    0    0  0.00000000000E+00  0.00000000000E+00  0.45593999997E+02  0.45594000000E+02  0.51100000000E-03 0. -1.
         11   -1    0    0    0    0 -0.00000000000E+00 -0.00000000000E+00 -0.45593999997E+02  0.45594000000E+02  0.51100000000E-03 0.  1.
         23    2    1    2    0    0 -0.71054273576E-14  0.88817841970E-15  0.00000000000E+00  0.91188000000E+02  0.91188000000E+02 0.  0.
    9900012    2    3    3    0    0 -0.42825485371E+02  0.62699486745E+01 -0.32076154859E+01  0.47787271311E+02  0.20000001216E+02 0.  0.
         12    1    3    3    0    0  0.42825485371E+02 -0.62699486745E+01  0.32076154859E+01  0.43400728689E+02  0.00000000000E+00 0. -1.
         11    1    4    4    0    0 -0.50413477469E+01 -0.17971638216E+01  0.16562528309E+01  0.56025135973E+01  0.51100000000E-03 0. -1.
        -11    1    4    4    0    0 -0.23475778164E+01  0.35587293082E+01 -0.48568527183E+01  0.64625609847E+01  0.51100000000E-03 0.  1.
        -12    1    4    4    0    0 -0.35436559807E+02  0.45083831878E+01 -0.70155985322E-02  0.35722196729E+02  0.00000000000E+00 0.  1.
</event>
<event>
 8    1  0.6239251E-010  0.9118800E+02  0.7816164E-02  0.1184000E+00
        -11   -1    0    0    0    0  0.00000000000E+00  0.00000000000E+00  0.45593999997E+02  0.45594000000E+02  0.51100000000E-03 0. -1.
         11   -1    0    0    0    0 -0.00000000000E+00 -0.00000000000E+00 -0.45593999997E+02  0.45594000000E+02  0.51100000000E-03 0.  1.
         23    2    1    2    0    0  0.00000000000E+00  0.35527136788E-14  0.00000000000E+00  0.91188000000E+02  0.91188000000E+02 0.  0.
    9900012    2    3    3    0    0  0.20137078929E+02  0.31322847312E+02 -0.22293510304E+02  0.47787270591E+02  0.19999997934E+02 0.  0.
         12    1    3    3    0    0 -0.20137078929E+02 -0.31322847312E+02  0.22293510304E+02  0.43400729409E+02  0.00000000000E+00 0. -1.
         11    1    4    4    0    0 -0.60430583529E-01 -0.14446456021E+00 -0.23014747357E+01  0.23067960648E+01  0.51100000000E-03 0. -1.
        -11    1    4    4    0    0  0.15485274351E+02  0.12418597273E+02 -0.15906359840E+02  0.25436736496E+02  0.51100000000E-03 0.  1.
        -12    1    4    4    0    0  0.47122351619E+01  0.19048714599E+02 -0.40856757290E+01  0.20043738031E+02  0.00000000000E+00 0.  1.
</event>
<event>
 8    1  0.6239251E-010  0.9118800E+02  0.7816164E-02  0.1184000E+00
        -11   -1    0    0    0    0  0.00000000000E+00  0.00000000000E+00  0.45593999997E+02  0.45594000000E+02  0.51100000000E-03 0.  1.
         11   -1    0    0    0    0 -0.00000000000E+00 -0.00000000000E+00 -0.45593999997E+02  0.45594000000E+02  0.51100000000E-03 0. -1.
         23    2    1    2    0    0  0.00000000000E+00  0.00000000000E+00  0.71054273576E-14  0.91188000000E+02  0.91188000000E+02 0.  0.
    9900012    2    3    3    0    0  0.34417206931E+02  0.27687620094E+01 -0.26294731684E+02  0.47787273159E+02  0.20000009640E+02 0.  0.
         12    1    3    3    0    0 -0.34417206931E+02 -0.27687620094E+01  0.26294731684E+02  0.43400726841E+02  0.00000000000E+00 0. -1.
         11    1    4    4    0    0  0.86683561719E+01 -0.61043002836E+01 -0.11730290236E+02  0.15811470202E+02  0.51100000000E-03 0. -1.
        -11    1    4    4    0    0  0.10299193751E+02  0.72515707714E+01 -0.41040037129E+01  0.13247698567E+02  0.51100000000E-03 0.  1.
        -12    1    4    4    0    0  0.15449657008E+02  0.16214915216E+01 -0.10460437735E+02  0.18728104389E+02  0.00000000000E+00 0.  1.
</event>
<event>
 8    1  0.6239251E-010  0.9118800E+02  0.7816164E-02  0.1184000E+00
        -11   -1    0    0    0    0  0.00000000000E+00  0.00000000000E+00  0.45593999997E+02  0.45594000000E+02  0.51100000000E-03 0. -1.
         11   -1    0    0    0    0 -0.00000000000E+00 -0.00000000000E+00 -0.45593999997E+02  0.45594000000E+02  0.51100000000E-03 0.  1.
         23    2    1    2    0    0  0.00000000000E+00  0.00000000000E+00  0.35527136788E-14  0.91188000000E+02  0.91188000000E+02 0.  0.
    9900012    2    3    3    0    0 -0.22736313828E+02 -0.28777845861E+02 -0.23206010721E+02  0.47787270599E+02  0.19999997971E+02 0.  0.
         12    1    3    3    0    0  0.22736313828E+02  0.28777845861E+02  0.23206010721E+02  0.43400729401E+02  0.00000000000E+00 0. -1.
         11    1    4    4    0    0 -0.76740741988E+00 -0.21792669971E+01  0.65333242520E+00  0.24010335924E+01  0.51100000000E-03 0. -1.
        -11    1    4    4    0    0 -0.48752866918E+01 -0.95302699430E+00  0.17991292183E+01  0.52833272645E+01  0.51100000000E-03 0.  1.
        -12    1    4    4    0    0 -0.17093619717E+02 -0.25645551870E+02 -0.25658472365E+02  0.40102909742E+02  0.00000000000E+00 0.  1.
</event>
<event>
 8    1  0.6239251E-010  0.9118800E+02  0.7816164E-02  0.1184000E+00
        -11   -1    0    0    0    0  0.00000000000E+00  0.00000000000E+00  0.45593999997E+02  0.45594000000E+02  0.51100000000E-03 0. -1.
         11   -1    0    0    0    0 -0.00000000000E+00 -0.00000000000E+00 -0.45593999997E+02  0.45594000000E+02  0.51100000000E-03 0.  1.
         23    2    1    2    0    0  0.00000000000E+00  0.17763568394E-14  0.00000000000E+00  0.91188000000E+02  0.91188000000E+02 0.  0.
    9900012    2    3    3    0    0 -0.27279658185E+02  0.93795159652E+01  0.32426372758E+02  0.47787254376E+02  0.19999924004E+02 0.  0.
        -12    1    3    3    0    0  0.27279658185E+02 -0.93795159652E+01 -0.32426372758E+02  0.43400745624E+02  0.00000000000E+00 0.  1.
         11    1    4    4    0    0  0.21498054055E+00  0.71852263971E-02 -0.19352934861E+00  0.28934776686E+00  0.51100000000E-03 0.  1.
        -11    1    4    4    0    0 -0.80425094211E+01 -0.28880491394E+01  0.18850127728E+02  0.20696620527E+02  0.51100000000E-03 0. -1.
        -12    1    4    4    0    0 -0.19452129305E+02  0.12260379878E+02  0.13769774379E+02  0.26801286083E+02  0.00000000000E+00 0.  1.
</event>
<event>
 8    1  0.6239251E-010  0.9118800E+02  0.7816164E-02  0.1184000E+00
        -11   -1    0    0    0    0  0.00000000000E+00  0.00000000000E+00  0.45593999997E+02  0.45594000000E+02  0.51100000000E-03 0. -1.
         11   -1    0    0    0    0 -0.00000000000E+00 -0.00000000000E+00 -0.45593999997E+02  0.45594000000E+02  0.51100000000E-03 0.  1.
         23    2    1    2    0    0  0.17763568394E-14  0.00000000000E+00 -0.71054273576E-14  0.91188000000E+02  0.91188000000E+02 0.  0.
    9900012    2    3    3    0    0  0.14736714739E+02  0.32029920387E+01 -0.40696358133E+02  0.47787268617E+02  0.19999988931E+02 0.  0.
         12    1    3    3    0    0 -0.14736714739E+02 -0.32029920387E+01  0.40696358133E+02  0.43400731383E+02  0.00000000000E+00 0. -1.
         11    1    4    4    0    0  0.74921101442E+01  0.41324618681E+01 -0.30548558305E+01  0.90852132562E+01  0.51100000000E-03 0. -1.
        -11    1    4    4    0    0  0.79963758289E+01 -0.10040201855E+01 -0.31514768214E+02  0.32528920960E+02  0.51100000000E-03 0.  1.
        -12    1    4    4    0    0 -0.75177123406E+00  0.74550356133E-01 -0.61267340882E+01  0.61731344009E+01  0.00000000000E+00 0.  1.
</event>
<event>
 8    1  0.6239251E-010  0.9118800E+02  0.7816164E-02  0.1184000E+00
        -11   -1    0    0    0    0  0.00000000000E+00  0.00000000000E+00  0.45593999997E+02  0.45594000000E+02  0.51100000000E-03 0.  1.
         11   -1    0    0    0    0 -0.00000000000E+00 -0.00000000000E+00 -0.45593999997E+02  0.45594000000E+02  0.51100000000E-03 0. -1.
         23    2    1    2    0    0  0.00000000000E+00  0.00000000000E+00  0.00000000000E+00  0.91188000000E+02  0.91188000000E+02 0.  0.
    9900012    2    3    3    0    0  0.36955639441E+02  0.10573387503E+02 -0.20152136364E+02  0.47787257958E+02  0.19999940333E+02 0.  0.
         12    1    3    3    0    0 -0.36955639441E+02 -0.10573387503E+02  0.20152136364E+02  0.43400742042E+02  0.00000000000E+00 0. -1.
         11    1    4    4    0    0  0.15988611241E+01  0.14762690922E+01 -0.55659479794E+01  0.59762450165E+01  0.51100000000E-03 0. -1.
        -11    1    4    4    0    0  0.26745261301E+02  0.26761666173E+01 -0.15504521701E+02  0.31030002631E+02  0.51100000000E-03 0.  1.
        -12    1    4    4    0    0  0.86115170155E+01  0.64209517934E+01  0.91833331590E+00  0.10781010311E+02  0.00000000000E+00 0.  1.
</event>
<event>
 8    1  0.6239251E-010  0.9118800E+02  0.7816164E-02  0.1184000E+00
        -11   -1    0    0    0    0  0.00000000000E+00  0.00000000000E+00  0.45593999997E+02  0.45594000000E+02  0.51100000000E-03 0. -1.
         11   -1    0    0    0    0 -0.00000000000E+00 -0.00000000000E+00 -0.45593999997E+02  0.45594000000E+02  0.51100000000E-03 0.  1.
         23    2    1    2    0    0  0.00000000000E+00  0.88817841970E-15  0.00000000000E+00  0.91188000000E+02  0.91188000000E+02 0.  0.
    9900012    2    3    3    0    0  0.24123815776E+02  0.58689077232E+01 -0.35598041437E+02  0.47787272822E+02  0.20000008103E+02 0.  0.
         12    1    3    3    0    0 -0.24123815776E+02 -0.58689077232E+01  0.35598041437E+02  0.43400727178E+02  0.00000000000E+00 0. -1.
         11    1    4    4    0    0  0.51237868221E+00 -0.23884077437E+01 -0.51551505495E+00  0.24965535238E+01  0.51100000000E-03 0. -1.
        -11    1    4    4    0    0  0.14548152742E+02  0.85750104222E+01 -0.31093341764E+02  0.35383265173E+02  0.51100000000E-03 0.  1.
        -12    1    4    4    0    0  0.90632843520E+01 -0.31769495539E+00 -0.39891846177E+01  0.99074541253E+01  0.00000000000E+00 0.  1.
</event>
<event>
 8    1  0.6239251E-010  0.9118800E+02  0.7816164E-02  0.1184000E+00
        -11   -1    0    0    0    0  0.00000000000E+00  0.00000000000E+00  0.45593999997E+02  0.45594000000E+02  0.51100000000E-03 0. -1.
         11   -1    0    0    0    0 -0.00000000000E+00 -0.00000000000E+00 -0.45593999997E+02  0.45594000000E+02  0.51100000000E-03 0.  1.
         23    2    1    2    0    0 -0.17763568394E-14  0.00000000000E+00  0.00000000000E+00  0.91188000000E+02  0.91188000000E+02 0.  0.
    9900012    2    3    3    0    0 -0.14635139304E+02 -0.12835898814E+02 -0.38790198531E+02  0.47787226932E+02  0.19999798873E+02 0.  0.
         12    1    3    3    0    0  0.14635139304E+02  0.12835898814E+02  0.38790198531E+02  0.43400773068E+02  0.00000000000E+00 0. -1.
         11    1    4    4    0    0  0.36239844426E+01  0.16336136570E+00 -0.61419429956E+01  0.71332611195E+01  0.51100000000E-03 0. -1.
        -11    1    4    4    0    0 -0.17901425863E+02 -0.89848951310E+01 -0.25255374754E+02  0.32233885007E+02  0.51100000000E-03 0.  1.
        -12    1    4    4    0    0 -0.35769788360E+00 -0.40143650487E+01 -0.73928807817E+01  0.84200808056E+01  0.00000000000E+00 0.  1.
</event>
<event>
 8    1  0.6239251E-010  0.9118800E+02  0.7816164E-02  0.1184000E+00
        -11   -1    0    0    0    0  0.00000000000E+00  0.00000000000E+00  0.45593999997E+02  0.45594000000E+02  0.51100000000E-03 0. -1.
         11   -1    0    0    0    0 -0.00000000000E+00 -0.00000000000E+00 -0.45593999997E+02  0.45594000000E+02  0.51100000000E-03 0.  1.
         23    2    1    2    0    0  0.00000000000E+00  0.00000000000E+00  0.00000000000E+00  0.91188000000E+02  0.91188000000E+02 0.  0.
    9900012    2    3    3    0    0  0.26268671570E+01 -0.23669982955E+02  0.36282977359E+02  0.47787274543E+02  0.20000015950E+02 0.  0.
        -12    1    3    3    0    0 -0.26268671570E+01  0.23669982955E+02 -0.36282977359E+02  0.43400725457E+02  0.00000000000E+00 0.  1.
         11    1    4    4    0    0  0.38484386617E+01 -0.58851914520E+01  0.23242864069E+02  0.24283259438E+02  0.51100000000E-03 0. -1.
        -11    1    4    4    0    0 -0.20185891351E+01 -0.36808400495E+01 -0.11672945819E+00  0.41996323165E+01  0.51100000000E-03 0.  1.
         12    1    4    4    0    0  0.79701763038E+00 -0.14103951454E+02  0.13156842749E+02  0.19304382788E+02  0.00000000000E+00 0. -1.
</event>
<event>
 8    1  0.6239251E-010  0.9118800E+02  0.7816164E-02  0.1184000E+00
        -11   -1    0    0    0    0  0.00000000000E+00  0.00000000000E+00  0.45593999997E+02  0.45594000000E+02  0.51100000000E-03 0. -1.
         11   -1    0    0    0    0 -0.00000000000E+00 -0.00000000000E+00 -0.45593999997E+02  0.45594000000E+02  0.51100000000E-03 0.  1.
         23    2    1    2    0    0  0.00000000000E+00  0.00000000000E+00 -0.71054273576E-14  0.91188000000E+02  0.91188000000E+02 0.  0.
    9900012    2    3    3    0    0 -0.99649979563E+01 -0.17440055650E+02 -0.38472935813E+02  0.47787268261E+02  0.19999987311E+02 0.  0.
         12    1    3    3    0    0  0.99649979563E+01  0.17440055650E+02  0.38472935813E+02  0.43400731739E+02  0.00000000000E+00 0. -1.
         11    1    4    4    0    0 -0.66496915914E+01 -0.14154433640E+02 -0.13005543398E+02  0.20339875843E+02  0.51100000000E-03 0. -1.
        -11    1    4    4    0    0 -0.10897878094E+01 -0.27129687469E+01 -0.24912320556E+02  0.25083292301E+02  0.51100000000E-03 0.  1.
         12    1    4    4    0    0 -0.22255185555E+01 -0.57265326250E+00 -0.55507185870E+00  0.23641001181E+01  0.00000000000E+00 0. -1.
</event>
<event>
 8    1  0.6239251E-010  0.9118800E+02  0.7816164E-02  0.1184000E+00
        -11   -1    0    0    0    0  0.00000000000E+00  0.00000000000E+00  0.45593999997E+02  0.45594000000E+02  0.51100000000E-03 0. -1.
         11   -1    0    0    0    0 -0.00000000000E+00 -0.00000000000E+00 -0.45593999997E+02  0.45594000000E+02  0.51100000000E-03 0.  1.
         23    2    1    2    0    0 -0.35527136788E-14  0.00000000000E+00  0.00000000000E+00  0.91188000000E+02  0.91188000000E+02 0.  0.
    9900012    2    3    3    0    0 -0.20128897611E+02  0.19943919616E+02 -0.32873868078E+02  0.47787266698E+02  0.19999980185E+02 0.  0.
         12    1    3    3    0    0  0.20128897611E+02 -0.19943919616E+02  0.32873868078E+02  0.43400733302E+02  0.00000000000E+00 0. -1.
         11    1    4    4    0    0 -0.67815194668E+01  0.24411272493E+01 -0.21281561993E+02  0.22468933879E+02  0.51100000000E-03 0. -1.
        -11    1    4    4    0    0 -0.24241244117E+01  0.20117063240E+01 -0.34981882937E+01  0.47075113485E+01  0.51100000000E-03 0.  1.
         12    1    4    4    0    0 -0.10923253732E+02  0.15491086043E+02 -0.80941177914E+01  0.20610821471E+02  0.00000000000E+00 0. -1.
</event>
<event>
 8    1  0.6239251E-010  0.9118800E+02  0.7816164E-02  0.1184000E+00
        -11   -1    0    0    0    0  0.00000000000E+00  0.00000000000E+00  0.45593999997E+02  0.45594000000E+02  0.51100000000E-03 0. -1.
         11   -1    0    0    0    0 -0.00000000000E+00 -0.00000000000E+00 -0.45593999997E+02  0.45594000000E+02  0.51100000000E-03 0.  1.
         23    2    1    2    0    0  0.00000000000E+00  0.00000000000E+00  0.00000000000E+00  0.91188000000E+02  0.91188000000E+02 0.  0.
    9900012    2    3    3    0    0  0.10395985239E+02 -0.21232856068E+02  0.36396598667E+02  0.47787273273E+02  0.20000010161E+02 0.  0.
        -12    1    3    3    0    0 -0.10395985239E+02  0.21232856068E+02 -0.36396598667E+02  0.43400726727E+02  0.00000000000E+00 0.  1.
         11    1    4    4    0    0 -0.20310807126E+01 -0.15976611853E+02  0.17229414379E+02  0.23584531695E+02  0.51100000000E-03 0. -1.
        -11    1    4    4    0    0  0.11556757903E+02 -0.25612012203E+01  0.16542760324E+02  0.20341615578E+02  0.51100000000E-03 0.  1.
        -12    1    4    4    0    0  0.87030804860E+00 -0.26950429949E+01  0.26244239636E+01  0.38611259996E+01  0.00000000000E+00 0.  1.
</event>
<event>
 8    1  0.6239251E-010  0.9118800E+02  0.7816164E-02  0.1184000E+00
        -11   -1    0    0    0    0  0.00000000000E+00  0.00000000000E+00  0.45593999997E+02  0.45594000000E+02  0.51100000000E-03 0. -1.
         11   -1    0    0    0    0 -0.00000000000E+00 -0.00000000000E+00 -0.45593999997E+02  0.45594000000E+02  0.51100000000E-03 0.  1.
         23    2    1    2    0    0  0.00000000000E+00  0.00000000000E+00  0.00000000000E+00  0.91188000000E+02  0.91188000000E+02 0.  0.
    9900012    2    3    3    0    0  0.35242693238E+01 -0.24921267907E+02 -0.35357223252E+02  0.47787270693E+02  0.19999998396E+02 0.  0.
         12    1    3    3    0    0 -0.35242693238E+01  0.24921267907E+02  0.35357223252E+02  0.43400729307E+02  0.00000000000E+00 0. -1.
         11    1    4    4    0    0  0.84788341616E+00 -0.51188984472E+01 -0.43241608096E+01  0.67542871251E+01  0.51100000000E-03 0.  1.
        -11    1    4    4    0    0  0.26290429051E-01 -0.15300288104E+02 -0.77121182577E+01  0.17134067688E+02  0.51100000000E-03 0. -1.
        -12    1    4    4    0    0  0.26500954785E+01 -0.45020813560E+01 -0.23320944184E+02  0.23898915880E+02  0.00000000000E+00 0.  1.
</event>
<event>
 8    1  0.6239251E-010  0.9118800E+02  0.7816164E-02  0.1184000E+00
        -11   -1    0    0    0    0  0.00000000000E+00  0.00000000000E+00  0.45593999997E+02  0.45594000000E+02  0.51100000000E-03 0. -1.
         11   -1    0    0    0    0 -0.00000000000E+00 -0.00000000000E+00 -0.45593999997E+02  0.45594000000E+02  0.51100000000E-03 0.  1.
         23    2    1    2    0    0  0.00000000000E+00  0.00000000000E+00  0.00000000000E+00  0.91188000000E+02  0.91188000000E+02 0.  0.
    9900012    2    3    3    0    0 -0.85673501263E+01 -0.77409054256E+01  0.41836576277E+02  0.47787306232E+02  0.20000160432E+02 0.  0.
        -12    1    3    3    0    0  0.85673501263E+01  0.77409054256E+01 -0.41836576277E+02  0.43400693768E+02  0.00000000000E+00 0.  1.
         11    1    4    4    0    0 -0.69260833079E+00 -0.98534216134E+01  0.82539744320E+01  0.12872362564E+02  0.51100000000E-03 0.  1.
        -11    1    4    4    0    0 -0.42067331946E+01 -0.13632360048E+01  0.17909414672E+02  0.18447280308E+02  0.51100000000E-03 0. -1.
         12    1    4    4    0    0 -0.36680086010E+01  0.34757521926E+01  0.15673187172E+02  0.16467663360E+02  0.00000000000E+00 0. -1.
</event>
<event>
 8    1  0.9714674E-010  0.9118800E+02  0.7816164E-02  0.1184000E+00
        -11   -1    0    0    0    0  0.00000000000E+00  0.00000000000E+00  0.45593999997E+02  0.45594000000E+02  0.51100000000E-03 0. -1.
         11   -1    0    0    0    0 -0.00000000000E+00 -0.00000000000E+00 -0.45593999997E+02  0.45594000000E+02  0.51100000000E-03 0.  1.
         23    2    1    2    0    0 -0.17763568394E-14  0.88817841970E-15 -0.71054273576E-14  0.91188000000E+02  0.91188000000E+02 0.  0.
    9900012    2    3    3    0    0 -0.82388091120E+01  0.40872090572E+01  0.42415091884E+02  0.47787271055E+02  0.20000000048E+02 0.  0.
        -12    1    3    3    0    0  0.82388091120E+01 -0.40872090572E+01 -0.42415091884E+02  0.43400728945E+02  0.00000000000E+00 0.  1.
         11    1    4    4    0    0  0.14828455140E+01 -0.29229851193E+01  0.25234886325E+02  0.25446849725E+02  0.51100000000E-03 0. -1.
        -11    1    4    4    0    0 -0.86838756912E+01  0.16845057856E+01  0.10261550834E+02  0.13547940159E+02  0.51100000000E-03 0.  1.
        -12    1    4    4    0    0 -0.10377789348E+01  0.53256883909E+01  0.69186547251E+01  0.87924811720E+01  0.00000000000E+00 0.  1.
</event>
<event>
 8    1  0.6239251E-010  0.9118800E+02  0.7816164E-02  0.1184000E+00
        -11   -1    0    0    0    0  0.00000000000E+00  0.00000000000E+00  0.45593999997E+02  0.45594000000E+02  0.51100000000E-03 0. -1.
         11   -1    0    0    0    0 -0.00000000000E+00 -0.00000000000E+00 -0.45593999997E+02  0.45594000000E+02  0.51100000000E-03 0.  1.
         23    2    1    2    0    0 -0.88817841970E-15  0.00000000000E+00  0.35527136788E-14  0.91188000000E+02  0.91188000000E+02 0.  0.
    9900012    2    3    3    0    0  0.73265533489E+01  0.35068271207E+02 -0.24498174948E+02  0.47787278748E+02  0.20000035124E+02 0.  0.
         12    1    3    3    0    0 -0.73265533489E+01 -0.35068271207E+02  0.24498174948E+02  0.43400721252E+02  0.00000000000E+00 0. -1.
         11    1    4    4    0    0  0.12784881283E+00  0.12482310406E+02  0.68050199086E+00  0.12501499975E+02  0.51100000000E-03 0. -1.
        -11    1    4    4    0    0  0.70419412206E+01  0.13538303462E+02 -0.12596535173E+02  0.19787554053E+02  0.51100000000E-03 0.  1.
         12    1    4    4    0    0  0.15676331550E+00  0.90476573385E+01 -0.12582141766E+02  0.15498224720E+02  0.00000000000E+00 0. -1.
</event>
<event>
 8    1  0.6239251E-010  0.9118800E+02  0.7816164E-02  0.1184000E+00
        -11   -1    0    0    0    0  0.00000000000E+00  0.00000000000E+00  0.45593999997E+02  0.45594000000E+02  0.51100000000E-03 0. -1.
         11   -1    0    0    0    0 -0.00000000000E+00 -0.00000000000E+00 -0.45593999997E+02  0.45594000000E+02  0.51100000000E-03 0.  1.
         23    2    1    2    0    0  0.00000000000E+00  0.88817841970E-15 -0.71054273576E-14  0.91188000000E+02  0.91188000000E+02 0.  0.
    9900012    2    3    3    0    0 -0.23649743188E+02  0.64732462250E+01 -0.35810757266E+02  0.47787267224E+02  0.19999982580E+02 0.  0.
         12    1    3    3    0    0  0.23649743188E+02 -0.64732462250E+01  0.35810757266E+02  0.43400732776E+02  0.00000000000E+00 0. -1.
         11    1    4    4    0    0 -0.14701807007E+02 -0.23864534803E+01 -0.10568370141E+02  0.18262769154E+02  0.51100000000E-03 0. -1.
        -11    1    4    4    0    0 -0.41640380664E+01  0.85986121802E-01 -0.29774072910E+01  0.51197227532E+01  0.51100000000E-03 0.  1.
         12    1    4    4    0    0 -0.47838981147E+01  0.87737135836E+01 -0.22264979834E+02  0.24404775316E+02  0.00000000000E+00 0. -1.
</event>
<event>
 8    1  0.6239251E-010  0.9118800E+02  0.7816164E-02  0.1184000E+00
        -11   -1    0    0    0    0  0.00000000000E+00  0.00000000000E+00  0.45593999997E+02  0.45594000000E+02  0.51100000000E-03 0. -1.
         11   -1    0    0    0    0 -0.00000000000E+00 -0.00000000000E+00 -0.45593999997E+02  0.45594000000E+02  0.51100000000E-03 0.  1.
         23    2    1    2    0    0 -0.35527136788E-14  0.17763568394E-14  0.00000000000E+00  0.91188000000E+02  0.91188000000E+02 0.  0.
    9900012    2    3    3    0    0  0.21627956929E+02 -0.15912928562E+02 -0.34097371104E+02  0.47787302626E+02  0.20000143992E+02 0.  0.
         12    1    3    3    0    0 -0.21627956929E+02  0.15912928562E+02  0.34097371104E+02  0.43400697374E+02  0.00000000000E+00 0. -1.
         11    1    4    4    0    0  0.70893312256E+01  0.10652042511E+01 -0.13780267747E+02  0.15533481798E+02  0.51100000000E-03 0. -1.
        -11    1    4    4    0    0  0.15435938038E+02 -0.13368191733E+02 -0.13473164802E+02  0.24464318984E+02  0.51100000000E-03 0.  1.
        -12    1    4    4    0    0 -0.89731233453E+00 -0.36099410804E+01 -0.68439385554E+01  0.77895018442E+01  0.00000000000E+00 0.  1.
</event>
<event>
 8    1  0.6239251E-010  0.9118800E+02  0.7816164E-02  0.1184000E+00
        -11   -1    0    0    0    0  0.00000000000E+00  0.00000000000E+00  0.45593999997E+02  0.45594000000E+02  0.51100000000E-03 0. -1.
         11   -1    0    0    0    0 -0.00000000000E+00 -0.00000000000E+00 -0.45593999997E+02  0.45594000000E+02  0.51100000000E-03 0.  1.
         23    2    1    2    0    0 -0.35527136788E-14  0.00000000000E+00 -0.35527136788E-14  0.91188000000E+02  0.91188000000E+02 0.  0.
    9900012    2    3    3    0    0  0.23741876737E+02 -0.19790897210E+02  0.30467480012E+02  0.47787266577E+02  0.19999979631E+02 0.  0.
        -12    1    3    3    0    0 -0.23741876737E+02  0.19790897210E+02 -0.30467480012E+02  0.43400733423E+02  0.00000000000E+00 0.  1.
         11    1    4    4    0    0  0.19787047173E+02 -0.20688490371E+02  0.16358547192E+02  0.32971850663E+02  0.51100000000E-03 0. -1.
        -11    1    4    4    0    0  0.12199769819E+00  0.65576466796E+00  0.25160087401E+01  0.26029235447E+01  0.51100000000E-03 0.  1.
         12    1    4    4    0    0  0.38328318653E+01  0.24182849318E+00  0.11592924080E+02  0.12212492369E+02  0.00000000000E+00 0. -1.
</event>
<event>
 8    1  0.6239251E-010  0.9118800E+02  0.7816164E-02  0.1184000E+00
        -11   -1    0    0    0    0  0.00000000000E+00  0.00000000000E+00  0.45593999997E+02  0.45594000000E+02  0.51100000000E-03 0. -1.
         11   -1    0    0    0    0 -0.00000000000E+00 -0.00000000000E+00 -0.45593999997E+02  0.45594000000E+02  0.51100000000E-03 0.  1.
         23    2    1    2    0    0  0.17763568394E-14  0.35527136788E-14  0.35527136788E-14  0.91188000000E+02  0.91188000000E+02 0.  0.
    9900012    2    3    3    0    0 -0.11749872770E+02 -0.29276578070E+02 -0.29806815402E+02  0.47787265236E+02  0.19999973519E+02 0.  0.
         12    1    3    3    0    0  0.11749872770E+02  0.29276578070E+02  0.29806815402E+02  0.43400734764E+02  0.00000000000E+00 0. -1.
         11    1    4    4    0    0 -0.47880863803E+01 -0.46598958513E+01 -0.45570119401E+01  0.80874445046E+01  0.51100000000E-03 0. -1.
        -11    1    4    4    0    0 -0.10105250077E+02 -0.12943415198E+02 -0.70947836494E+01  0.17888097479E+02  0.51100000000E-03 0.  1.
        -12    1    4    4    0    0  0.31434636870E+01 -0.11673267021E+02 -0.18155019812E+02  0.21811723253E+02  0.00000000000E+00 0.  1.
</event>
<event>
 8    1  0.9813615E-010  0.9118800E+02  0.7816164E-02  0.1184000E+00
        -11   -1    0    0    0    0  0.00000000000E+00  0.00000000000E+00  0.45593999997E+02  0.45594000000E+02  0.51100000000E-03 0. -1.
         11   -1    0    0    0    0 -0.00000000000E+00 -0.00000000000E+00 -0.45593999997E+02  0.45594000000E+02  0.51100000000E-03 0.  1.
         23    2    1    2    0    0  0.00000000000E+00  0.00000000000E+00  0.00000000000E+00  0.91188000000E+02  0.91188000000E+02 0.  0.
    9900012    2    3    3    0    0 -0.34351612765E+02  0.80854694966E+01  0.25262925082E+02  0.47787268436E+02  0.19999988108E+02 0.  0.
        -12    1    3    3    0    0  0.34351612765E+02 -0.80854694966E+01 -0.25262925082E+02  0.43400731564E+02  0.00000000000E+00 0.  1.
         11    1    4    4    0    0 -0.18924016458E+02  0.38301021203E+01  0.14732718368E+02  0.24286643900E+02  0.51100000000E-03 0. -1.
        -11    1    4    4    0    0 -0.41584177240E+01  0.80978028903E+01  0.45501536146E+01  0.10176971445E+02  0.51100000000E-03 0.  1.
        -12    1    4    4    0    0 -0.11269178583E+02 -0.38424355140E+01  0.59800530998E+01  0.13323653091E+02  0.00000000000E+00 0.  1.
</event>
<event>
 8    1  0.6239251E-010  0.9118800E+02  0.7816164E-02  0.1184000E+00
        -11   -1    0    0    0    0  0.00000000000E+00  0.00000000000E+00  0.45593999997E+02  0.45594000000E+02  0.51100000000E-03 0. -1.
         11   -1    0    0    0    0 -0.00000000000E+00 -0.00000000000E+00 -0.45593999997E+02  0.45594000000E+02  0.51100000000E-03 0.  1.
         23    2    1    2    0    0  0.00000000000E+00  0.00000000000E+00  0.00000000000E+00  0.91188000000E+02  0.91188000000E+02 0.  0.
    9900012    2    3    3    0    0  0.32665092484E+02 -0.15612191742E+02  0.23934785450E+02  0.47787277051E+02  0.20000027385E+02 0.  0.
        -12    1    3    3    0    0 -0.32665092484E+02  0.15612191742E+02 -0.23934785450E+02  0.43400722949E+02  0.00000000000E+00 0.  1.
         11    1    4    4    0    0  0.25899570781E+02 -0.53859346012E+01  0.14003180585E+02  0.29931340179E+02  0.51100000000E-03 0. -1.
        -11    1    4    4    0    0 -0.13239304248E+01 -0.22859757131E-01  0.25872891595E+01  0.29064376467E+01  0.51100000000E-03 0.  1.
         12    1    4    4    0    0  0.80894521277E+01 -0.10203397383E+02  0.73443157061E+01  0.14949499225E+02  0.00000000000E+00 0. -1.
</event>
<event>
 8    1  0.6239251E-010  0.9118800E+02  0.7816164E-02  0.1184000E+00
        -11   -1    0    0    0    0  0.00000000000E+00  0.00000000000E+00  0.45593999997E+02  0.45594000000E+02  0.51100000000E-03 0. -1.
         11   -1    0    0    0    0 -0.00000000000E+00 -0.00000000000E+00 -0.45593999997E+02  0.45594000000E+02  0.51100000000E-03 0.  1.
         23    2    1    2    0    0  0.17763568394E-14  0.35527136788E-14  0.71054273576E-14  0.91188000000E+02  0.91188000000E+02 0.  0.
    9900012    2    3    3    0    0 -0.79147693959E+01 -0.29961741060E+02  0.30385419874E+02  0.47787271402E+02  0.20000001630E+02 0.  0.
        -12    1    3    3    0    0  0.79147693959E+01  0.29961741060E+02 -0.30385419874E+02  0.43400728598E+02  0.00000000000E+00 0.  1.
         11    1    4    4    0    0  0.30000563312E+01 -0.21869471425E+02  0.20756379997E+02  0.30300188601E+02  0.51100000000E-03 0. -1.
        -11    1    4    4    0    0 -0.44773808223E+01 -0.44294073018E+00  0.20653200150E+01  0.49506244600E+01  0.51100000000E-03 0.  1.
        -12    1    4    4    0    0 -0.64374449047E+01 -0.76493289046E+01  0.75637198616E+01  0.12536458341E+02  0.00000000000E+00 0.  1.
</event>
<event>
 8    1  0.6239251E-010  0.9118800E+02  0.7816164E-02  0.1184000E+00
        -11   -1    0    0    0    0  0.00000000000E+00  0.00000000000E+00  0.45593999997E+02  0.45594000000E+02  0.51100000000E-03 0.  1.
         11   -1    0    0    0    0 -0.00000000000E+00 -0.00000000000E+00 -0.45593999997E+02  0.45594000000E+02  0.51100000000E-03 0. -1.
         23    2    1    2    0    0  0.00000000000E+00  0.35527136788E-14 -0.88817841970E-15  0.91188000000E+02  0.91188000000E+02 0.  0.
    9900012    2    3    3    0    0  0.34259301629E+02 -0.25572269651E+02  0.74821397686E+01  0.47787272601E+02  0.20000007099E+02 0.  0.
        -12    1    3    3    0    0 -0.34259301629E+02  0.25572269651E+02 -0.74821397686E+01  0.43400727399E+02  0.00000000000E+00 0.  1.
         11    1    4    4    0    0  0.20524553383E+02 -0.22620337084E+02  0.59237636107E+01  0.31113147011E+02  0.51100000000E-03 0. -1.
        -11    1    4    4    0    0  0.10757660925E+02  0.49047526996E+00 -0.19292687496E+01  0.10940288513E+02  0.51100000000E-03 0.  1.
         12    1    4    4    0    0  0.29770873208E+01 -0.34424078366E+01  0.34876449075E+01  0.57338370774E+01  0.00000000000E+00 0. -1.
</event>
<event>
 8    1  0.6239251E-010  0.9118800E+02  0.7816164E-02  0.1184000E+00
        -11   -1    0    0    0    0  0.00000000000E+00  0.00000000000E+00  0.45593999997E+02  0.45594000000E+02  0.51100000000E-03 0. -1.
         11   -1    0    0    0    0 -0.00000000000E+00 -0.00000000000E+00 -0.45593999997E+02  0.45594000000E+02  0.51100000000E-03 0.  1.
         23    2    1    2    0    0  0.00000000000E+00  0.00000000000E+00  0.00000000000E+00  0.91188000000E+02  0.91188000000E+02 0.  0.
    9900012    2    3    3    0    0  0.21249234206E+02 -0.22218977309E+02  0.30633499238E+02  0.47787260576E+02  0.19999952270E+02 0.  0.
        -12    1    3    3    0    0 -0.21249234206E+02  0.22218977309E+02 -0.30633499238E+02  0.43400739424E+02  0.00000000000E+00 0.  1.
         11    1    4    4    0    0  0.60889400677E+01 -0.12239083755E+02  0.24231848629E+02  0.27821805307E+02  0.51100000000E-03 0. -1.
        -11    1    4    4    0    0  0.69781555297E+01 -0.74648798905E+01  0.23031015631E+01  0.10474892049E+02  0.51100000000E-03 0.  1.
         12    1    4    4    0    0  0.81821386087E+01 -0.25150136629E+01  0.40985490458E+01  0.94905632192E+01  0.00000000000E+00 0. -1.
</event>
<event>
 8    1  0.6239251E-010  0.9118800E+02  0.7816164E-02  0.1184000E+00
        -11   -1    0    0    0    0  0.00000000000E+00  0.00000000000E+00  0.45593999997E+02  0.45594000000E+02  0.51100000000E-03 0. -1.
         11   -1    0    0    0    0 -0.00000000000E+00 -0.00000000000E+00 -0.45593999997E+02  0.45594000000E+02  0.51100000000E-03 0.  1.
         23    2    1    2    0    0  0.00000000000E+00  0.00000000000E+00  0.00000000000E+00  0.91188000000E+02  0.91188000000E+02 0.  0.
    9900012    2    3    3    0    0 -0.14666554133E+02  0.82942037259E+01  0.39996521644E+02  0.47787269946E+02  0.19999994991E+02 0.  0.
        -12    1    3    3    0    0  0.14666554133E+02 -0.82942037259E+01 -0.39996521644E+02  0.43400730054E+02  0.00000000000E+00 0.  1.
         11    1    4    4    0    0 -0.17540677485E+02  0.32429385923E+01  0.29915559512E+02  0.34830054817E+02  0.51100000000E-03 0. -1.
        -11    1    4    4    0    0  0.36556446804E+01  0.35152711665E+01  0.35193635018E+01  0.61730696677E+01  0.51100000000E-03 0.  1.
        -12    1    4    4    0    0 -0.78152132849E+00  0.15359939671E+01  0.65615986302E+01  0.67841454611E+01  0.00000000000E+00 0.  1.
</event>
<event>
 8    1  0.6239251E-010  0.9118800E+02  0.7816164E-02  0.1184000E+00
        -11   -1    0    0    0    0  0.00000000000E+00  0.00000000000E+00  0.45593999997E+02  0.45594000000E+02  0.51100000000E-03 0. -1.
         11   -1    0    0    0    0 -0.00000000000E+00 -0.00000000000E+00 -0.45593999997E+02  0.45594000000E+02  0.51100000000E-03 0.  1.
         23    2    1    2    0    0  0.00000000000E+00  0.17763568394E-14  0.71054273576E-14  0.91188000000E+02  0.91188000000E+02 0.  0.
    9900012    2    3    3    0    0 -0.27747680370E+02 -0.94484975524E+01 -0.32006484253E+02  0.47787275281E+02  0.20000019315E+02 0.  0.
         12    1    3    3    0    0  0.27747680370E+02  0.94484975524E+01  0.32006484253E+02  0.43400724719E+02  0.00000000000E+00 0. -1.
         11    1    4    4    0    0 -0.32689642189E+01  0.16960270909E+01 -0.62273607902E+01  0.72348225707E+01  0.51100000000E-03 0. -1.
        -11    1    4    4    0    0 -0.30428247277E+01  0.40155222770E+01 -0.45480536710E+01  0.67873407116E+01  0.51100000000E-03 0.  1.
        -12    1    4    4    0    0 -0.21435891423E+02 -0.15160046920E+02 -0.21231069792E+02  0.33765111998E+02  0.00000000000E+00 0.  1.
</event>
<event>
 8    1  0.6239251E-010  0.9118800E+02  0.7816164E-02  0.1184000E+00
        -11   -1    0    0    0    0  0.00000000000E+00  0.00000000000E+00  0.45593999997E+02  0.45594000000E+02  0.51100000000E-03 0. -1.
         11   -1    0    0    0    0 -0.00000000000E+00 -0.00000000000E+00 -0.45593999997E+02  0.45594000000E+02  0.51100000000E-03 0.  1.
         23    2    1    2    0    0 -0.17763568394E-14  0.35527136788E-14 -0.35527136788E-14  0.91188000000E+02  0.91188000000E+02 0.  0.
    9900012    2    3    3    0    0 -0.14247438748E+02  0.29034334359E+02 -0.28942033582E+02  0.47787269702E+02  0.19999993878E+02 0.  0.
         12    1    3    3    0    0  0.14247438748E+02 -0.29034334359E+02  0.28942033582E+02  0.43400730298E+02  0.00000000000E+00 0. -1.
         11    1    4    4    0    0  0.91041326624E+00  0.58118960076E+00 -0.96203459886E+00  0.14464247294E+01  0.51100000000E-03 0. -1.
        -11    1    4    4    0    0  0.15718875095E+00  0.53218420770E+01 -0.14600967108E+02  0.15541394794E+02  0.51100000000E-03 0.  1.
        -12    1    4    4    0    0 -0.15315040765E+02  0.23131302681E+02 -0.13379031876E+02  0.30799450179E+02  0.00000000000E+00 0.  1.
</event>
<event>
 8    1  0.6239251E-010  0.9118800E+02  0.7816164E-02  0.1184000E+00
        -11   -1    0    0    0    0  0.00000000000E+00  0.00000000000E+00  0.45593999997E+02  0.45594000000E+02  0.51100000000E-03 0. -1.
         11   -1    0    0    0    0 -0.00000000000E+00 -0.00000000000E+00 -0.45593999997E+02  0.45594000000E+02  0.51100000000E-03 0.  1.
         23    2    1    2    0    0  0.00000000000E+00  0.44408920985E-15  0.00000000000E+00  0.91188000000E+02  0.91188000000E+02 0.  0.
    9900012    2    3    3    0    0  0.18269902398E+02 -0.26209253437E+01 -0.39280578930E+02  0.47787280370E+02  0.20000042520E+02 0.  0.
         12    1    3    3    0    0 -0.18269902398E+02  0.26209253437E+01  0.39280578930E+02  0.43400719630E+02  0.00000000000E+00 0. -1.
         11    1    4    4    0    0 -0.10545990230E+01  0.44456878266E+01 -0.70578831629E+01  0.84077365773E+01  0.51100000000E-03 0. -1.
        -11    1    4    4    0    0  0.57774930486E+01 -0.43103020127E+00 -0.16951416896E+02  0.17914121469E+02  0.51100000000E-03 0.  1.
         12    1    4    4    0    0  0.13547008372E+02 -0.66355829690E+01 -0.15271278872E+02  0.21465422324E+02  0.00000000000E+00 0. -1.
</event>
<event>
 8    1  0.6239251E-010  0.9118800E+02  0.7816164E-02  0.1184000E+00
        -11   -1    0    0    0    0  0.00000000000E+00  0.00000000000E+00  0.45593999997E+02  0.45594000000E+02  0.51100000000E-03 0. -1.
         11   -1    0    0    0    0 -0.00000000000E+00 -0.00000000000E+00 -0.45593999997E+02  0.45594000000E+02  0.51100000000E-03 0.  1.
         23    2    1    2    0    0  0.35527136788E-14  0.00000000000E+00 -0.71054273576E-14  0.91188000000E+02  0.91188000000E+02 0.  0.
    9900012    2    3    3    0    0  0.20050562649E+02  0.18282254756E+02 -0.33872666933E+02  0.47787268823E+02  0.19999989873E+02 0.  0.
         12    1    3    3    0    0 -0.20050562649E+02 -0.18282254756E+02  0.33872666933E+02  0.43400731177E+02  0.00000000000E+00 0. -1.
         11    1    4    4    0    0  0.45354916329E+01  0.12664824095E+02 -0.18681035339E+02  0.23020632817E+02  0.51100000000E-03 0. -1.
        -11    1    4    4    0    0  0.13884024152E+02  0.63034141702E+01 -0.77248300161E+01  0.17093044079E+02  0.51100000000E-03 0.  1.
         12    1    4    4    0    0  0.16310468641E+01 -0.68598350974E+00 -0.74668015781E+01  0.76735919265E+01  0.00000000000E+00 0. -1.
</event>
<event>
 8    1  0.6239251E-010  0.9118800E+02  0.7816164E-02  0.1184000E+00
        -11   -1    0    0    0    0  0.00000000000E+00  0.00000000000E+00  0.45593999997E+02  0.45594000000E+02  0.51100000000E-03 0. -1.
         11   -1    0    0    0    0 -0.00000000000E+00 -0.00000000000E+00 -0.45593999997E+02  0.45594000000E+02  0.51100000000E-03 0.  1.
         23    2    1    2    0    0 -0.66613381478E-15  0.88817841970E-15  0.71054273576E-14  0.91188000000E+02  0.91188000000E+02 0.  0.
    9900012    2    3    3    0    0  0.19858058004E+01 -0.60323016724E+01 -0.42933566656E+02  0.47787271504E+02  0.20000002097E+02 0.  0.
         12    1    3    3    0    0 -0.19858058004E+01  0.60323016724E+01  0.42933566656E+02  0.43400728496E+02  0.00000000000E+00 0. -1.
         11    1    4    4    0    0 -0.50031946335E+01  0.19790922117E+01 -0.97825709782E+01  0.11164562586E+02  0.51100000000E-03 0. -1.
        -11    1    4    4    0    0  0.81298767669E+01 -0.77521260391E+00 -0.19218593942E+02  0.20881815156E+02  0.51100000000E-03 0.  1.
        -12    1    4    4    0    0 -0.11408763330E+01 -0.72361812802E+01 -0.13932401736E+02  0.15740893763E+02  0.00000000000E+00 0.  1.
</event>
<event>
 8    1  0.6239251E-010  0.9118800E+02  0.7816164E-02  0.1184000E+00
        -11   -1    0    0    0    0  0.00000000000E+00  0.00000000000E+00  0.45593999997E+02  0.45594000000E+02  0.51100000000E-03 0. -1.
         11   -1    0    0    0    0 -0.00000000000E+00 -0.00000000000E+00 -0.45593999997E+02  0.45594000000E+02  0.51100000000E-03 0.  1.
         23    2    1    2    0    0  0.00000000000E+00 -0.44408920985E-15  0.00000000000E+00  0.91188000000E+02  0.91188000000E+02 0.  0.
    9900012    2    3    3    0    0 -0.27176333608E+02 -0.33411183819E+01 -0.33673535068E+02  0.47787272536E+02  0.20000006801E+02 0.  0.
         12    1    3    3    0    0  0.27176333608E+02  0.33411183819E+01  0.33673535068E+02  0.43400727464E+02  0.00000000000E+00 0. -1.
         11    1    4    4    0    0 -0.47400290971E+01 -0.48695215286E+01 -0.61528778272E+01  0.91672254023E+01  0.51100000000E-03 0. -1.
        -11    1    4    4    0    0 -0.68742485103E+01 -0.17728544076E+00 -0.20198717978E+02  0.21337172515E+02  0.51100000000E-03 0.  1.
        -12    1    4    4    0    0 -0.15562056001E+02  0.17056885874E+01 -0.73219392626E+01  0.17282874619E+02  0.00000000000E+00 0.  1.
</event>
<event>
 8    1  0.6239251E-010  0.9118800E+02  0.7816164E-02  0.1184000E+00
        -11   -1    0    0    0    0  0.00000000000E+00  0.00000000000E+00  0.45593999997E+02  0.45594000000E+02  0.51100000000E-03 0. -1.
         11   -1    0    0    0    0 -0.00000000000E+00 -0.00000000000E+00 -0.45593999997E+02  0.45594000000E+02  0.51100000000E-03 0.  1.
         23    2    1    2    0    0 -0.17763568394E-14  0.00000000000E+00 -0.71054273576E-14  0.91188000000E+02  0.91188000000E+02 0.  0.
    9900012    2    3    3    0    0  0.12249193007E+02 -0.26186109485E+02  0.32370728332E+02  0.47787318991E+02  0.20000218607E+02 0.  0.
        -12    1    3    3    0    0 -0.12249193007E+02  0.26186109485E+02 -0.32370728332E+02  0.43400681009E+02  0.00000000000E+00 0.  1.
         11    1    4    4    0    0  0.40099239349E+01 -0.54475150858E+00  0.12163337733E+02  0.12818854444E+02  0.51100000000E-03 0. -1.
        -11    1    4    4    0    0  0.99325922403E+01 -0.23365650978E+02  0.16418347207E+02  0.30235280047E+02  0.51100000000E-03 0.  1.
        -12    1    4    4    0    0 -0.16933231678E+01 -0.22757069983E+01  0.37890433918E+01  0.47331845007E+01  0.00000000000E+00 0.  1.
</event>
<event>
 8    1  0.6239251E-010  0.9118800E+02  0.7816164E-02  0.1184000E+00
        -11   -1    0    0    0    0  0.00000000000E+00  0.00000000000E+00  0.45593999997E+02  0.45594000000E+02  0.51100000000E-03 0. -1.
         11   -1    0    0    0    0 -0.00000000000E+00 -0.00000000000E+00 -0.45593999997E+02  0.45594000000E+02  0.51100000000E-03 0.  1.
         23    2    1    2    0    0  0.00000000000E+00 -0.35527136788E-14  0.00000000000E+00  0.91188000000E+02  0.91188000000E+02 0.  0.
    9900012    2    3    3    0    0  0.23925140327E+02  0.29928480214E+02 -0.20383746189E+02  0.47787269864E+02  0.19999994618E+02 0.  0.
         12    1    3    3    0    0 -0.23925140327E+02 -0.29928480214E+02  0.20383746189E+02  0.43400730136E+02  0.00000000000E+00 0. -1.
         11    1    4    4    0    0  0.30718442100E+01  0.58056342669E+01  0.10161252451E+00  0.65690137356E+01  0.51100000000E-03 0. -1.
        -11    1    4    4    0    0  0.10818040215E+02  0.23301163052E+02 -0.15117491625E+02  0.29807930941E+02  0.51100000000E-03 0.  1.
        -12    1    4    4    0    0  0.10035255902E+02  0.82168289505E+00 -0.53678670882E+01  0.11410325187E+02  0.00000000000E+00 0.  1.
</event>
<event>
 8    1  0.6239251E-010  0.9118800E+02  0.7816164E-02  0.1184000E+00
        -11   -1    0    0    0    0  0.00000000000E+00  0.00000000000E+00  0.45593999997E+02  0.45594000000E+02  0.51100000000E-03 0.  1.
         11   -1    0    0    0    0 -0.00000000000E+00 -0.00000000000E+00 -0.45593999997E+02  0.45594000000E+02  0.51100000000E-03 0. -1.
         23    2    1    2    0    0  0.22204460493E-15  0.71054273576E-14  0.88817841970E-15  0.91188000000E+02  0.91188000000E+02 0.  0.
    9900012    2    3    3    0    0 -0.18476948946E+01 -0.43244263113E+02 -0.31848037373E+01  0.47787271395E+02  0.20000001599E+02 0.  0.
         12    1    3    3    0    0  0.18476948946E+01  0.43244263113E+02  0.31848037373E+01  0.43400728605E+02  0.00000000000E+00 0. -1.
         11    1    4    4    0    0  0.29449795048E+01  0.58188995273E+00 -0.19832178768E+01  0.35978679255E+01  0.51100000000E-03 0. -1.
        -11    1    4    4    0    0 -0.25239759268E+01 -0.30177487920E+02 -0.18404425455E+01  0.30338728725E+02  0.51100000000E-03 0.  1.
         12    1    4    4    0    0 -0.22686984727E+01 -0.13648665145E+02  0.63885668510E+00  0.13850674744E+02  0.00000000000E+00 0. -1.
</event>
<event>
 8    1  0.6239251E-010  0.9118800E+02  0.7816164E-02  0.1184000E+00
        -11   -1    0    0    0    0  0.00000000000E+00  0.00000000000E+00  0.45593999997E+02  0.45594000000E+02  0.51100000000E-03 0. -1.
         11   -1    0    0    0    0 -0.00000000000E+00 -0.00000000000E+00 -0.45593999997E+02  0.45594000000E+02  0.51100000000E-03 0.  1.
         23    2    1    2    0    0 -0.17763568394E-14  0.00000000000E+00 -0.71054273576E-14  0.91188000000E+02  0.91188000000E+02 0.  0.
    9900012    2    3    3    0    0 -0.12427938285E+02  0.16510985621E+02 -0.38164864674E+02  0.47787271990E+02  0.20000004311E+02 0.  0.
         12    1    3    3    0    0  0.12427938285E+02 -0.16510985621E+02  0.38164864674E+02  0.43400728010E+02  0.00000000000E+00 0. -1.
         11    1    4    4    0    0 -0.10762058983E+02  0.47485926890E+00 -0.92128973762E+01  0.14174797466E+02  0.51100000000E-03 0. -1.
        -11    1    4    4    0    0  0.29844196030E+00  0.11254813483E+02 -0.23726684926E+02  0.26262434616E+02  0.51100000000E-03 0.  1.
         12    1    4    4    0    0 -0.19643212621E+01  0.47813128688E+01 -0.52252823726E+01  0.73500399076E+01  0.00000000000E+00 0. -1.
</event>
<event>
 8    1  0.6239251E-010  0.9118800E+02  0.7816164E-02  0.1184000E+00
        -11   -1    0    0    0    0  0.00000000000E+00  0.00000000000E+00  0.45593999997E+02  0.45594000000E+02  0.51100000000E-03 0. -1.
         11   -1    0    0    0    0 -0.00000000000E+00 -0.00000000000E+00 -0.45593999997E+02  0.45594000000E+02  0.51100000000E-03 0.  1.
         23    2    1    2    0    0  0.22204460493E-15 -0.35527136788E-14  0.71054273576E-14  0.91188000000E+02  0.91188000000E+02 0.  0.
    9900012    2    3    3    0    0 -0.17379874023E+01 -0.24126574270E+02  0.36034857499E+02  0.47787272573E+02  0.20000006969E+02 0.  0.
        -12    1    3    3    0    0  0.17379874023E+01  0.24126574270E+02 -0.36034857499E+02  0.43400727427E+02  0.00000000000E+00 0.  1.
         11    1    4    4    0    0  0.30731724364E+01 -0.17735734022E+02  0.11533116567E+02  0.21377872395E+02  0.51100000000E-03 0. -1.
        -11    1    4    4    0    0 -0.44881239294E+01 -0.46370115215E+01  0.23487323176E+02  0.24357739684E+02  0.51100000000E-03 0.  1.
        -12    1    4    4    0    0 -0.32303590929E+00 -0.17538287263E+01  0.10144177554E+01  0.20516604939E+01  0.00000000000E+00 0.  1.
</event>
<event>
 8    1  0.6239251E-010  0.9118800E+02  0.7816164E-02  0.1184000E+00
        -11   -1    0    0    0    0  0.00000000000E+00  0.00000000000E+00  0.45593999997E+02  0.45594000000E+02  0.51100000000E-03 0. -1.
         11   -1    0    0    0    0 -0.00000000000E+00 -0.00000000000E+00 -0.45593999997E+02  0.45594000000E+02  0.51100000000E-03 0.  1.
         23    2    1    2    0    0  0.00000000000E+00  0.00000000000E+00  0.00000000000E+00  0.91188000000E+02  0.91188000000E+02 0.  0.
    9900012    2    3    3    0    0  0.12976514795E+02 -0.15791993997E+02  0.38286382025E+02  0.47787261998E+02  0.19999958751E+02 0.  0.
        -12    1    3    3    0    0 -0.12976514795E+02  0.15791993997E+02 -0.38286382025E+02  0.43400738002E+02  0.00000000000E+00 0.  1.
         11    1    4    4    0    0 -0.12598791151E+01 -0.40109403357E+00  0.59826312860E+01  0.61269934857E+01  0.51100000000E-03 0.  1.
        -11    1    4    4    0    0  0.91243585551E+01 -0.10917584301E+02  0.31812739692E+02  0.34849648105E+02  0.51100000000E-03 0. -1.
        -12    1    4    4    0    0  0.51120353550E+01 -0.44733156621E+01  0.49101104630E+00  0.68106204072E+01  0.00000000000E+00 0.  1.
</event>
<event>
 8    1  0.6239251E-010  0.9118800E+02  0.7816164E-02  0.1184000E+00
        -11   -1    0    0    0    0  0.00000000000E+00  0.00000000000E+00  0.45593999997E+02  0.45594000000E+02  0.51100000000E-03 0. -1.
         11   -1    0    0    0    0 -0.00000000000E+00 -0.00000000000E+00 -0.45593999997E+02  0.45594000000E+02  0.51100000000E-03 0.  1.
         23    2    1    2    0    0  0.00000000000E+00  0.00000000000E+00  0.00000000000E+00  0.91188000000E+02  0.91188000000E+02 0.  0.
    9900012    2    3    3    0    0  0.96188721233E+01  0.21522805077E+02 -0.36439946760E+02  0.47787267758E+02  0.19999985015E+02 0.  0.
         12    1    3    3    0    0 -0.96188721233E+01 -0.21522805077E+02  0.36439946760E+02  0.43400732242E+02  0.00000000000E+00 0. -1.
         11    1    4    4    0    0  0.62667051751E+01  0.13478266072E+02 -0.66315249324E+01  0.16276128939E+02  0.51100000000E-03 0. -1.
        -11    1    4    4    0    0 -0.86932752996E+00  0.46491371858E+01 -0.15755941307E+02  0.16450528674E+02  0.51100000000E-03 0.  1.
         12    1    4    4    0    0  0.42214944782E+01  0.33954018192E+01 -0.14052480520E+02  0.15060610144E+02  0.00000000000E+00 0. -1.
</event>
<event>
 8    1  0.6239251E-010  0.9118800E+02  0.7816164E-02  0.1184000E+00
        -11   -1    0    0    0    0  0.00000000000E+00  0.00000000000E+00  0.45593999997E+02  0.45594000000E+02  0.51100000000E-03 0. -1.
         11   -1    0    0    0    0 -0.00000000000E+00 -0.00000000000E+00 -0.45593999997E+02  0.45594000000E+02  0.51100000000E-03 0.  1.
         23    2    1    2    0    0  0.00000000000E+00  0.00000000000E+00  0.00000000000E+00  0.91188000000E+02  0.91188000000E+02 0.  0.
    9900012    2    3    3    0    0  0.11806845640E+02  0.10306347191E+02 -0.40472218412E+02  0.47787275817E+02  0.20000021762E+02 0.  0.
         12    1    3    3    0    0 -0.11806845640E+02 -0.10306347191E+02  0.40472218412E+02  0.43400724183E+02  0.00000000000E+00 0. -1.
         11    1    4    4    0    0 -0.13313099894E+01  0.81043997406E+01 -0.22824420621E+02  0.24257119746E+02  0.51100000000E-03 0. -1.
        -11    1    4    4    0    0  0.78336869166E+01 -0.12157651279E+01 -0.14388809965E+02  0.16428103604E+02  0.51100000000E-03 0.  1.
         12    1    4    4    0    0  0.53044687130E+01  0.34177125785E+01 -0.32589878260E+01  0.71020524672E+01  0.00000000000E+00 0. -1.
</event>
<event>
 8    1  0.6239251E-010  0.9118800E+02  0.7816164E-02  0.1184000E+00
        -11   -1    0    0    0    0  0.00000000000E+00  0.00000000000E+00  0.45593999997E+02  0.45594000000E+02  0.51100000000E-03 0. -1.
         11   -1    0    0    0    0 -0.00000000000E+00 -0.00000000000E+00 -0.45593999997E+02  0.45594000000E+02  0.51100000000E-03 0.  1.
         23    2    1    2    0    0  0.35527136788E-14  0.00000000000E+00 -0.88817841970E-15  0.91188000000E+02  0.91188000000E+02 0.  0.
    9900012    2    3    3    0    0 -0.22682932760E+02  0.36922429950E+02  0.24169857130E+01  0.47787273140E+02  0.20000009556E+02 0.  0.
        -12    1    3    3    0    0  0.22682932760E+02 -0.36922429950E+02 -0.24169857130E+01  0.43400726860E+02  0.00000000000E+00 0.  1.
         11    1    4    4    0    0 -0.12764556756E+02  0.11519487765E+02  0.56786089581E+01  0.18107432383E+02  0.51100000000E-03 0. -1.
        -11    1    4    4    0    0 -0.11282585964E+02  0.22575698184E+02 -0.54924007641E+01  0.25828770024E+02  0.51100000000E-03 0.  1.
        -12    1    4    4    0    0  0.13642099598E+01  0.28272440011E+01  0.22307775190E+01  0.38510707336E+01  0.00000000000E+00 0.  1.
</event>
<event>
 8    1  0.6239251E-010  0.9118800E+02  0.7816164E-02  0.1184000E+00
        -11   -1    0    0    0    0  0.00000000000E+00  0.00000000000E+00  0.45593999997E+02  0.45594000000E+02  0.51100000000E-03 0. -1.
         11   -1    0    0    0    0 -0.00000000000E+00 -0.00000000000E+00 -0.45593999997E+02  0.45594000000E+02  0.51100000000E-03 0.  1.
         23    2    1    2    0    0  0.51347814889E-15  0.00000000000E+00  0.71054273576E-14  0.91188000000E+02  0.91188000000E+02 0.  0.
    9900012    2    3    3    0    0 -0.11179689656E+00 -0.18467548950E+02  0.39275484284E+02  0.47787233549E+02  0.19999829044E+02 0.  0.
        -12    1    3    3    0    0  0.11179689656E+00  0.18467548950E+02 -0.39275484284E+02  0.43400766451E+02  0.00000000000E+00 0.  1.
         11    1    4    4    0    0  0.29892454070E+01 -0.59686794497E+01  0.29821254184E+01  0.73112102110E+01  0.51100000000E-03 0.  1.
        -11    1    4    4    0    0 -0.22197709415E+01 -0.11168009505E+02  0.37013187601E+02  0.38725029063E+02  0.51100000000E-03 0. -1.
         12    1    4    4    0    0 -0.88127136199E+00 -0.13308599960E+01 -0.71982873546E+00  0.17509942749E+01  0.00000000000E+00 0. -1.
</event>
<event>
 8    1  0.6239251E-010  0.9118800E+02  0.7816164E-02  0.1184000E+00
        -11   -1    0    0    0    0  0.00000000000E+00  0.00000000000E+00  0.45593999997E+02  0.45594000000E+02  0.51100000000E-03 0.  1.
         11   -1    0    0    0    0 -0.00000000000E+00 -0.00000000000E+00 -0.45593999997E+02  0.45594000000E+02  0.51100000000E-03 0. -1.
         23    2    1    2    0    0 -0.17763568394E-14  0.35527136788E-14  0.00000000000E+00  0.91188000000E+02  0.91188000000E+02 0.  0.
    9900012    2    3    3    0    0 -0.13689400955E+02  0.23238042294E+02 -0.34003189102E+02  0.47787272157E+02  0.20000005073E+02 0.  0.
         12    1    3    3    0    0  0.13689400955E+02 -0.23238042294E+02  0.34003189102E+02  0.43400727843E+02  0.00000000000E+00 0. -1.
         11    1    4    4    0    0  0.34347836993E+01  0.16955780126E+01 -0.76980416750E+01  0.85984050701E+01  0.51100000000E-03 0. -1.
        -11    1    4    4    0    0 -0.14967842504E+02  0.21504651988E+02 -0.21396928448E+02  0.33827724038E+02  0.51100000000E-03 0.  1.
        -12    1    4    4    0    0 -0.21563421498E+01  0.37812293790E-01 -0.49082189797E+01  0.53611430488E+01  0.00000000000E+00 0.  1.
</event>
<event>
 8    1  0.6239251E-010  0.9118800E+02  0.7816164E-02  0.1184000E+00
        -11   -1    0    0    0    0  0.00000000000E+00  0.00000000000E+00  0.45593999997E+02  0.45594000000E+02  0.51100000000E-03 0.  1.
         11   -1    0    0    0    0 -0.00000000000E+00 -0.00000000000E+00 -0.45593999997E+02  0.45594000000E+02  0.51100000000E-03 0. -1.
         23    2    1    2    0    0  0.00000000000E+00  0.00000000000E+00  0.00000000000E+00  0.91188000000E+02  0.91188000000E+02 0.  0.
    9900012    2    3    3    0    0  0.42452198949E+02 -0.76417595695E+01  0.47998082719E+01  0.47787264472E+02  0.19999970032E+02 0.  0.
         12    1    3    3    0    0 -0.42452198949E+02  0.76417595695E+01 -0.47998082719E+01  0.43400735528E+02  0.00000000000E+00 0. -1.
         11    1    4    4    0    0 -0.73874513724E+00  0.22212586828E+01  0.34651106074E-01  0.23411397810E+01  0.51100000000E-03 0. -1.
        -11    1    4    4    0    0  0.20703854884E+02 -0.25606756017E+00  0.31000380136E+01  0.20936222525E+02  0.51100000000E-03 0.  1.
         12    1    4    4    0    0  0.22487089202E+02 -0.96069506921E+01  0.16651191522E+01  0.24509902166E+02  0.00000000000E+00 0. -1.
</event>
<event>
 8    1  0.6239251E-010  0.9118800E+02  0.7816164E-02  0.1184000E+00
        -11   -1    0    0    0    0  0.00000000000E+00  0.00000000000E+00  0.45593999997E+02  0.45594000000E+02  0.51100000000E-03 0. -1.
         11   -1    0    0    0    0 -0.00000000000E+00 -0.00000000000E+00 -0.45593999997E+02  0.45594000000E+02  0.51100000000E-03 0.  1.
         23    2    1    2    0    0  0.88817841970E-15  0.00000000000E+00  0.00000000000E+00  0.91188000000E+02  0.91188000000E+02 0.  0.
    9900012    2    3    3    0    0  0.28700610515E+01 -0.22604356175E+02 -0.36938179014E+02  0.47787271465E+02  0.20000001918E+02 0.  0.
         12    1    3    3    0    0 -0.28700610515E+01  0.22604356175E+02  0.36938179014E+02  0.43400728535E+02  0.00000000000E+00 0. -1.
         11    1    4    4    0    0 -0.63751979715E+01 -0.30022510913E+01 -0.14508583786E+02  0.16129341727E+02  0.51100000000E-03 0. -1.
        -11    1    4    4    0    0  0.30233643260E+01 -0.12244164145E+02 -0.11268305169E+02  0.16912568968E+02  0.51100000000E-03 0.  1.
         12    1    4    4    0    0  0.62218946970E+01 -0.73579409378E+01 -0.11161290059E+02  0.14745360770E+02  0.00000000000E+00 0. -1.
</event>
<event>
 8    1  0.6239251E-010  0.9118800E+02  0.7816164E-02  0.1184000E+00
        -11   -1    0    0    0    0  0.00000000000E+00  0.00000000000E+00  0.45593999997E+02  0.45594000000E+02  0.51100000000E-03 0. -1.
         11   -1    0    0    0    0 -0.00000000000E+00 -0.00000000000E+00 -0.45593999997E+02  0.45594000000E+02  0.51100000000E-03 0.  1.
         23    2    1    2    0    0  0.00000000000E+00 -0.11102230246E-14  0.00000000000E+00  0.91188000000E+02  0.91188000000E+02 0.  0.
    9900012    2    3    3    0    0  0.10270916356E+02 -0.12622330147E+01 -0.42148991033E+02  0.47787281111E+02  0.20000045896E+02 0.  0.
         12    1    3    3    0    0 -0.10270916356E+02  0.12622330147E+01  0.42148991033E+02  0.43400718889E+02  0.00000000000E+00 0. -1.
         11    1    4    4    0    0  0.65966486816E+01  0.88898764665E+01 -0.15785594966E+02  0.19280318620E+02  0.51100000000E-03 0. -1.
        -11    1    4    4    0    0  0.21030804071E+01 -0.60017499478E+01 -0.16823244193E+02  0.17985146513E+02  0.51100000000E-03 0.  1.
         12    1    4    4    0    0  0.15711872671E+01 -0.41503595333E+01 -0.95401518745E+01  0.10521815978E+02  0.00000000000E+00 0. -1.
</event>
<event>
 8    1  0.6239251E-010  0.9118800E+02  0.7816164E-02  0.1184000E+00
        -11   -1    0    0    0    0  0.00000000000E+00  0.00000000000E+00  0.45593999997E+02  0.45594000000E+02  0.51100000000E-03 0. -1.
         11   -1    0    0    0    0 -0.00000000000E+00 -0.00000000000E+00 -0.45593999997E+02  0.45594000000E+02  0.51100000000E-03 0.  1.
         23    2    1    2    0    0  0.00000000000E+00 -0.33306690739E-15  0.71054273576E-14  0.91188000000E+02  0.91188000000E+02 0.  0.
    9900012    2    3    3    0    0  0.12309886239E+02  0.70459035008E+00 -0.41612415071E+02  0.47787276102E+02  0.20000023061E+02 0.  0.
         12    1    3    3    0    0 -0.12309886239E+02 -0.70459035008E+00  0.41612415071E+02  0.43400723898E+02  0.00000000000E+00 0. -1.
         11    1    4    4    0    0  0.27775068732E+00  0.21898098560E+01 -0.47556280895E+01  0.52429391982E+01  0.51100000000E-03 0. -1.
        -11    1    4    4    0    0  0.35649126359E+01  0.70701976490E+01 -0.78987030180E+01  0.11184176614E+02  0.51100000000E-03 0.  1.
        -12    1    4    4    0    0  0.84672229153E+01 -0.85554171549E+01 -0.28958083964E+02  0.31360160291E+02  0.00000000000E+00 0.  1.
</event>
<event>
 8    1  0.6239251E-010  0.9118800E+02  0.7816164E-02  0.1184000E+00
        -11   -1    0    0    0    0  0.00000000000E+00  0.00000000000E+00  0.45593999997E+02  0.45594000000E+02  0.51100000000E-03 0. -1.
         11   -1    0    0    0    0 -0.00000000000E+00 -0.00000000000E+00 -0.45593999997E+02  0.45594000000E+02  0.51100000000E-03 0.  1.
         23    2    1    2    0    0  0.88817841970E-15  0.00000000000E+00  0.00000000000E+00  0.91188000000E+02  0.91188000000E+02 0.  0.
    9900012    2    3    3    0    0  0.42680392946E+01 -0.26587925767E+02 -0.34036585324E+02  0.47787273087E+02  0.20000009313E+02 0.  0.
         12    1    3    3    0    0 -0.42680392946E+01  0.26587925767E+02  0.34036585324E+02  0.43400726913E+02  0.00000000000E+00 0. -1.
         11    1    4    4    0    0 -0.46542677610E+01 -0.16962296295E+02 -0.17516551191E+02  0.24823603080E+02  0.51100000000E-03 0. -1.
        -11    1    4    4    0    0  0.42687296875E+01 -0.21633852143E+01 -0.66318910367E+00  0.48313671749E+01  0.51100000000E-03 0.  1.
         12    1    4    4    0    0  0.46535773681E+01 -0.74622442578E+01 -0.15856845030E+02  0.18132302832E+02  0.00000000000E+00 0. -1.
</event>
<event>
 8    1  0.6239251E-010  0.9118800E+02  0.7816164E-02  0.1184000E+00
        -11   -1    0    0    0    0  0.00000000000E+00  0.00000000000E+00  0.45593999997E+02  0.45594000000E+02  0.51100000000E-03 0. -1.
         11   -1    0    0    0    0 -0.00000000000E+00 -0.00000000000E+00 -0.45593999997E+02  0.45594000000E+02  0.51100000000E-03 0.  1.
         23    2    1    2    0    0  0.00000000000E+00  0.00000000000E+00  0.00000000000E+00  0.91188000000E+02  0.91188000000E+02 0.  0.
    9900012    2    3    3    0    0 -0.90384849456E+01 -0.17261431490E+02 -0.38781077656E+02  0.47787271764E+02  0.20000003283E+02 0.  0.
         12    1    3    3    0    0  0.90384849456E+01  0.17261431490E+02  0.38781077656E+02  0.43400728236E+02  0.00000000000E+00 0. -1.
         11    1    4    4    0    0 -0.58403645271E-03 -0.74346254892E+01 -0.20039184935E+01  0.76999575385E+01  0.51100000000E-03 0. -1.
        -11    1    4    4    0    0 -0.35718581305E+01 -0.90966110840E+01 -0.28606893077E+02  0.30230131251E+02  0.51100000000E-03 0.  1.
         12    1    4    4    0    0 -0.54660427787E+01 -0.73019491724E+00 -0.81702660860E+01  0.98571829744E+01  0.00000000000E+00 0. -1.
</event>
<event>
 8    1  0.6239251E-010  0.9118800E+02  0.7816164E-02  0.1184000E+00
        -11   -1    0    0    0    0  0.00000000000E+00  0.00000000000E+00  0.45593999997E+02  0.45594000000E+02  0.51100000000E-03 0. -1.
         11   -1    0    0    0    0 -0.00000000000E+00 -0.00000000000E+00 -0.45593999997E+02  0.45594000000E+02  0.51100000000E-03 0.  1.
         23    2    1    2    0    0  0.00000000000E+00  0.00000000000E+00 -0.35527136788E-14  0.91188000000E+02  0.91188000000E+02 0.  0.
    9900012    2    3    3    0    0 -0.34700182421E+02  0.75956264439E+01 -0.24936467537E+02  0.47787267122E+02  0.19999982115E+02 0.  0.
         12    1    3    3    0    0  0.34700182421E+02 -0.75956264439E+01  0.24936467537E+02  0.43400732878E+02  0.00000000000E+00 0. -1.
         11    1    4    4    0    0 -0.25341751823E+02  0.90843036563E+01 -0.14904547593E+02  0.30771325899E+02  0.51100000000E-03 0. -1.
        -11    1    4    4    0    0 -0.23183366421E+01 -0.35136328053E+01 -0.85670295634E+01  0.95453808765E+01  0.51100000000E-03 0.  1.
         12    1    4    4    0    0 -0.70400939559E+01  0.20249555929E+01 -0.14648903814E+01  0.74705603465E+01  0.00000000000E+00 0. -1.
</event>
<event>
 8    1  0.6239251E-010  0.9118800E+02  0.7816164E-02  0.1184000E+00
        -11   -1    0    0    0    0  0.00000000000E+00  0.00000000000E+00  0.45593999997E+02  0.45594000000E+02  0.51100000000E-03 0. -1.
         11   -1    0    0    0    0 -0.00000000000E+00 -0.00000000000E+00 -0.45593999997E+02  0.45594000000E+02  0.51100000000E-03 0.  1.
         23    2    1    2    0    0  0.00000000000E+00  0.00000000000E+00  0.00000000000E+00  0.91188000000E+02  0.91188000000E+02 0.  0.
    9900012    2    3    3    0    0 -0.28015292421E+02  0.88125610864E+01  0.31954729197E+02  0.47787279265E+02  0.20000037480E+02 0.  0.
        -12    1    3    3    0    0  0.28015292421E+02 -0.88125610864E+01 -0.31954729197E+02  0.43400720735E+02  0.00000000000E+00 0.  1.
         11    1    4    4    0    0 -0.14550107733E+02 -0.65447485470E-01  0.25150844360E+02  0.29056408771E+02  0.51100000000E-03 0. -1.
        -11    1    4    4    0    0 -0.19428916574E+01  0.37540426663E+01 -0.33473216218E+00  0.42402488388E+01  0.51100000000E-03 0.  1.
         12    1    4    4    0    0 -0.11522293031E+02  0.51239659055E+01  0.71386169988E+01  0.14490621655E+02  0.00000000000E+00 0. -1.
</event>
<event>
 8    1  0.6239251E-010  0.9118800E+02  0.7816164E-02  0.1184000E+00
        -11   -1    0    0    0    0  0.00000000000E+00  0.00000000000E+00  0.45593999997E+02  0.45594000000E+02  0.51100000000E-03 0. -1.
         11   -1    0    0    0    0 -0.00000000000E+00 -0.00000000000E+00 -0.45593999997E+02  0.45594000000E+02  0.51100000000E-03 0.  1.
         23    2    1    2    0    0  0.16653345369E-15  0.35527136788E-14 -0.35527136788E-14  0.91188000000E+02  0.91188000000E+02 0.  0.
    9900012    2    3    3    0    0  0.46368807024E+00 -0.29389133912E+02  0.31932539344E+02  0.47787271116E+02  0.20000000326E+02 0.  0.
        -12    1    3    3    0    0 -0.46368807024E+00  0.29389133912E+02 -0.31932539344E+02  0.43400728884E+02  0.00000000000E+00 0.  1.
         11    1    4    4    0    0 -0.40798079780E+01 -0.94686187681E+01  0.27861782024E+01  0.10679998303E+02  0.51100000000E-03 0. -1.
        -11    1    4    4    0    0  0.38904441302E+01 -0.20721152393E+02  0.24386980662E+02  0.32237036745E+02  0.51100000000E-03 0.  1.
        -12    1    4    4    0    0  0.65305191804E+00  0.80063724902E+00  0.47593804793E+01  0.48702360681E+01  0.00000000000E+00 0.  1.
</event>
<event>
 8    1  0.6239251E-010  0.9118800E+02  0.7816164E-02  0.1184000E+00
        -11   -1    0    0    0    0  0.00000000000E+00  0.00000000000E+00  0.45593999997E+02  0.45594000000E+02  0.51100000000E-03 0. -1.
         11   -1    0    0    0    0 -0.00000000000E+00 -0.00000000000E+00 -0.45593999997E+02  0.45594000000E+02  0.51100000000E-03 0.  1.
         23    2    1    2    0    0  0.17763568394E-14  0.13322676296E-14  0.00000000000E+00  0.91188000000E+02  0.91188000000E+02 0.  0.
    9900012    2    3    3    0    0 -0.69642527784E+01  0.21694972746E+01 -0.42783361002E+02  0.47787268280E+02  0.19999987398E+02 0.  0.
         12    1    3    3    0    0  0.69642527784E+01 -0.21694972746E+01  0.42783361002E+02  0.43400731720E+02  0.00000000000E+00 0. -1.
         11    1    4    4    0    0 -0.30177650247E+00  0.18210359080E+01 -0.26011338411E+01  0.31895357587E+01  0.51100000000E-03 0. -1.
        -11    1    4    4    0    0  0.45168934326E+01  0.52001258971E+01 -0.18258766659E+02  0.19514768659E+02  0.51100000000E-03 0.  1.
        -12    1    4    4    0    0 -0.11179369708E+02 -0.48516645305E+01 -0.21923460502E+02  0.25082963863E+02  0.00000000000E+00 0.  1.
</event>
<event>
 8    1  0.9273222E-010  0.9118800E+02  0.7816164E-02  0.1184000E+00
        -11   -1    0    0    0    0  0.00000000000E+00  0.00000000000E+00  0.45593999997E+02  0.45594000000E+02  0.51100000000E-03 0. -1.
         11   -1    0    0    0    0 -0.00000000000E+00 -0.00000000000E+00 -0.45593999997E+02  0.45594000000E+02  0.51100000000E-03 0.  1.
         23    2    1    2    0    0 -0.17763568394E-14  0.00000000000E+00  0.00000000000E+00  0.91188000000E+02  0.91188000000E+02 0.  0.
    9900012    2    3    3    0    0 -0.96102972941E+01 -0.14681380855E+02  0.39695372001E+02  0.47787270557E+02  0.19999997779E+02 0.  0.
        -12    1    3    3    0    0  0.96102972941E+01  0.14681380855E+02 -0.39695372001E+02  0.43400729443E+02  0.00000000000E+00 0.  1.
         11    1    4    4    0    0 -0.10486952208E+02 -0.10659556742E+02  0.24206746433E+02  0.28452924097E+02  0.51100000000E-03 0. -1.
        -11    1    4    4    0    0  0.35426775182E+01 -0.53949051766E+01  0.43110714699E+01  0.77615013588E+01  0.51100000000E-03 0.  1.
        -12    1    4    4    0    0 -0.26660226040E+01  0.13730810638E+01  0.11177554098E+02  0.11572845101E+02  0.00000000000E+00 0.  1.
</event>
<event>
 8    1  0.6239251E-010  0.9118800E+02  0.7816164E-02  0.1184000E+00
        -11   -1    0    0    0    0  0.00000000000E+00  0.00000000000E+00  0.45593999997E+02  0.45594000000E+02  0.51100000000E-03 0. -1.
         11   -1    0    0    0    0 -0.00000000000E+00 -0.00000000000E+00 -0.45593999997E+02  0.45594000000E+02  0.51100000000E-03 0.  1.
         23    2    1    2    0    0  0.17763568394E-14  0.22204460493E-15  0.71054273576E-14  0.91188000000E+02  0.91188000000E+02 0.  0.
    9900012    2    3    3    0    0 -0.54686887919E+01  0.13100436836E+01 -0.43034876812E+02  0.47787269663E+02  0.19999993700E+02 0.  0.
         12    1    3    3    0    0  0.54686887919E+01 -0.13100436836E+01  0.43034876812E+02  0.43400730337E+02  0.00000000000E+00 0. -1.
         11    1    4    4    0    0 -0.84493771893E+01  0.62163859999E+01 -0.24151192572E+02  0.26330885529E+02  0.51100000000E-03 0. -1.
        -11    1    4    4    0    0  0.65373241595E+00  0.16467718065E+01 -0.10094917292E+02  0.10249223329E+02  0.51100000000E-03 0.  1.
         12    1    4    4    0    0  0.23269559814E+01 -0.65531141227E+01 -0.87887669483E+01  0.11207160805E+02  0.00000000000E+00 0. -1.
</event>
<event>
 8    1  0.6239251E-010  0.9118800E+02  0.7816164E-02  0.1184000E+00
        -11   -1    0    0    0    0  0.00000000000E+00  0.00000000000E+00  0.45593999997E+02  0.45594000000E+02  0.51100000000E-03 0. -1.
         11   -1    0    0    0    0 -0.00000000000E+00 -0.00000000000E+00 -0.45593999997E+02  0.45594000000E+02  0.51100000000E-03 0.  1.
         23    2    1    2    0    0  0.00000000000E+00  0.00000000000E+00  0.00000000000E+00  0.91188000000E+02  0.91188000000E+02 0.  0.
    9900012    2    3    3    0    0  0.11047107035E+02  0.15873182200E+02 -0.38853918691E+02  0.47787268616E+02  0.19999988929E+02 0.  0.
         12    1    3    3    0    0 -0.11047107035E+02 -0.15873182200E+02  0.38853918691E+02  0.43400731384E+02  0.00000000000E+00 0. -1.
         11    1    4    4    0    0 -0.11111426241E+01 -0.15484085799E+01 -0.12740225285E+00  0.19100886515E+01  0.51100000000E-03 0. -1.
        -11    1    4    4    0    0  0.13175936107E+02  0.14186439481E+02 -0.24366557349E+02  0.31122170148E+02  0.51100000000E-03 0.  1.
        -12    1    4    4    0    0 -0.10176864482E+01  0.32351512983E+01 -0.14359959090E+02  0.14755009817E+02  0.00000000000E+00 0.  1.
</event>
<event>
 8    1  0.6239251E-010  0.9118800E+02  0.7816164E-02  0.1184000E+00
        -11   -1    0    0    0    0  0.00000000000E+00  0.00000000000E+00  0.45593999997E+02  0.45594000000E+02  0.51100000000E-03 0. -1.
         11   -1    0    0    0    0 -0.00000000000E+00 -0.00000000000E+00 -0.45593999997E+02  0.45594000000E+02  0.51100000000E-03 0.  1.
         23    2    1    2    0    0  0.00000000000E+00 -0.17763568394E-14  0.00000000000E+00  0.91188000000E+02  0.91188000000E+02 0.  0.
    9900012    2    3    3    0    0  0.23432261802E+02 -0.89399823185E+01  0.35420716642E+02  0.47787293273E+02  0.20000101347E+02 0.  0.
        -12    1    3    3    0    0 -0.23432261802E+02  0.89399823185E+01 -0.35420716642E+02  0.43400706727E+02  0.00000000000E+00 0.  1.
         11    1    4    4    0    0  0.30031935329E+01 -0.95140000823E+01  0.89998573050E+01  0.13436249504E+02  0.51100000000E-03 0.  1.
        -11    1    4    4    0    0  0.16939305983E+02  0.29883992671E+01  0.23793937264E+02  0.29360212331E+02  0.51100000000E-03 0. -1.
        -12    1    4    4    0    0  0.34897622858E+01 -0.24143815033E+01  0.26269220733E+01  0.49908314371E+01  0.00000000000E+00 0.  1.
</event>
<event>
 8    1  0.6239251E-010  0.9118800E+02  0.7816164E-02  0.1184000E+00
        -11   -1    0    0    0    0  0.00000000000E+00  0.00000000000E+00  0.45593999997E+02  0.45594000000E+02  0.51100000000E-03 0. -1.
         11   -1    0    0    0    0 -0.00000000000E+00 -0.00000000000E+00 -0.45593999997E+02  0.45594000000E+02  0.51100000000E-03 0.  1.
         23    2    1    2    0    0  0.00000000000E+00  0.00000000000E+00  0.00000000000E+00  0.91188000000E+02  0.91188000000E+02 0.  0.
    9900012    2    3    3    0    0  0.17387938031E+02 -0.81489386915E+01 -0.38921429105E+02  0.47787271500E+02  0.20000002075E+02 0.  0.
         12    1    3    3    0    0 -0.17387938031E+02  0.81489386915E+01  0.38921429105E+02  0.43400728500E+02  0.00000000000E+00 0. -1.
         11    1    4    4    0    0 -0.78358095020E+00 -0.28737331311E+01 -0.41181033465E+01  0.50824321587E+01  0.51100000000E-03 0. -1.
        -11    1    4    4    0    0  0.10034723523E+02  0.62202880009E+00 -0.49518496292E+01  0.11207292761E+02  0.51100000000E-03 0.  1.
        -12    1    4    4    0    0  0.81367954577E+01 -0.58972343605E+01 -0.29851476130E+02  0.31497546580E+02  0.00000000000E+00 0.  1.
</event>
<event>
 8    1  0.6239251E-010  0.9118800E+02  0.7816164E-02  0.1184000E+00
        -11   -1    0    0    0    0  0.00000000000E+00  0.00000000000E+00  0.45593999997E+02  0.45594000000E+02  0.51100000000E-03 0. -1.
         11   -1    0    0    0    0 -0.00000000000E+00 -0.00000000000E+00 -0.45593999997E+02  0.45594000000E+02  0.51100000000E-03 0.  1.
         23    2    1    2    0    0  0.00000000000E+00  0.00000000000E+00  0.00000000000E+00  0.91188000000E+02  0.91188000000E+02 0.  0.
    9900012    2    3    3    0    0  0.21126579122E+02 -0.30466547735E+02  0.22562813320E+02  0.47787269347E+02  0.19999992259E+02 0.  0.
        -12    1    3    3    0    0 -0.21126579122E+02  0.30466547735E+02 -0.22562813320E+02  0.43400730653E+02  0.00000000000E+00 0.  1.
         11    1    4    4    0    0  0.19048629603E+02 -0.13484319458E+02  0.90768888523E+01  0.25041307324E+02  0.51100000000E-03 0. -1.
        -11    1    4    4    0    0 -0.99539607872E+00 -0.79176527369E+01  0.29403948205E+01  0.85044670719E+01  0.51100000000E-03 0.  1.
         12    1    4    4    0    0  0.30733455982E+01 -0.90645755408E+01  0.10545529647E+02  0.14241494951E+02  0.00000000000E+00 0. -1.
</event>
<event>
 8    1  0.6239251E-010  0.9118800E+02  0.7816164E-02  0.1184000E+00
        -11   -1    0    0    0    0  0.00000000000E+00  0.00000000000E+00  0.45593999997E+02  0.45594000000E+02  0.51100000000E-03 0. -1.
         11   -1    0    0    0    0 -0.00000000000E+00 -0.00000000000E+00 -0.45593999997E+02  0.45594000000E+02  0.51100000000E-03 0.  1.
         23    2    1    2    0    0  0.00000000000E+00  0.00000000000E+00  0.71054273576E-14  0.91188000000E+02  0.91188000000E+02 0.  0.
    9900012    2    3    3    0    0 -0.17266475292E+02 -0.10833864976E+02  0.38316050544E+02  0.47787268110E+02  0.19999986619E+02 0.  0.
        -12    1    3    3    0    0  0.17266475292E+02  0.10833864976E+02 -0.38316050544E+02  0.43400731890E+02  0.00000000000E+00 0.  1.
         11    1    4    4    0    0 -0.13797716959E+02 -0.12980292459E+02  0.22991655832E+02  0.29790623085E+02  0.51100000000E-03 0. -1.
        -11    1    4    4    0    0  0.25195810117E+01  0.22903031602E+01  0.47645996297E+01  0.58562092630E+01  0.51100000000E-03 0.  1.
        -12    1    4    4    0    0 -0.59883393448E+01 -0.14387567745E+00  0.10559795082E+02  0.12140435762E+02  0.00000000000E+00 0.  1.
</event>
<event>
 8    1  0.6239251E-010  0.9118800E+02  0.7816164E-02  0.1184000E+00
        -11   -1    0    0    0    0  0.00000000000E+00  0.00000000000E+00  0.45593999997E+02  0.45594000000E+02  0.51100000000E-03 0. -1.
         11   -1    0    0    0    0 -0.00000000000E+00 -0.00000000000E+00 -0.45593999997E+02  0.45594000000E+02  0.51100000000E-03 0.  1.
         23    2    1    2    0    0  0.00000000000E+00  0.00000000000E+00  0.00000000000E+00  0.91188000000E+02  0.91188000000E+02 0.  0.
    9900012    2    3    3    0    0  0.36268229863E+02  0.16423499160E+02 -0.17277369265E+02  0.47787270619E+02  0.19999998061E+02 0.  0.
         12    1    3    3    0    0 -0.36268229863E+02 -0.16423499160E+02  0.17277369265E+02  0.43400729381E+02  0.00000000000E+00 0. -1.
         11    1    4    4    0    0  0.14524773910E+02  0.81834611315E+00 -0.12665352600E+02  0.19288595186E+02  0.51100000000E-03 0.  1.
        -11    1    4    4    0    0  0.14876343013E+02  0.15085754728E+02 -0.42031907162E+01  0.21599823833E+02  0.51100000000E-03 0. -1.
        -12    1    4    4    0    0  0.68671129408E+01  0.51939831839E+00 -0.40882594902E+00  0.68988516009E+01  0.00000000000E+00 0.  1.
</event>
<event>
 8    1  0.1208225E-009  0.9118800E+02  0.7816164E-02  0.1184000E+00
        -11   -1    0    0    0    0  0.00000000000E+00  0.00000000000E+00  0.45593999997E+02  0.45594000000E+02  0.51100000000E-03 0. -1.
         11   -1    0    0    0    0 -0.00000000000E+00 -0.00000000000E+00 -0.45593999997E+02  0.45594000000E+02  0.51100000000E-03 0.  1.
         23    2    1    2    0    0  0.00000000000E+00 -0.35527136788E-14  0.00000000000E+00  0.91188000000E+02  0.91188000000E+02 0.  0.
    9900012    2    3    3    0    0  0.26139987504E+02 -0.25229296516E+02  0.23744621049E+02  0.47787269843E+02  0.19999994522E+02 0.  0.
        -12    1    3    3    0    0 -0.26139987504E+02  0.25229296516E+02 -0.23744621049E+02  0.43400730157E+02  0.00000000000E+00 0.  1.
         11    1    4    4    0    0  0.16561869542E+02 -0.12139222116E+02  0.11782569391E+02  0.23674568169E+02  0.51100000000E-03 0. -1.
        -11    1    4    4    0    0  0.39714879981E+00 -0.96922219902E+01  0.15538375907E+01  0.98240167852E+01  0.51100000000E-03 0.  1.
        -12    1    4    4    0    0  0.91809691629E+01 -0.33978524099E+01  0.10408214067E+02  0.14288684888E+02  0.00000000000E+00 0.  1.
</event>
<event>
 8    1  0.6239251E-010  0.9118800E+02  0.7816164E-02  0.1184000E+00
        -11   -1    0    0    0    0  0.00000000000E+00  0.00000000000E+00  0.45593999997E+02  0.45594000000E+02  0.51100000000E-03 0. -1.
         11   -1    0    0    0    0 -0.00000000000E+00 -0.00000000000E+00 -0.45593999997E+02  0.45594000000E+02  0.51100000000E-03 0.  1.
         23    2    1    2    0    0  0.00000000000E+00 -0.44408920985E-15  0.00000000000E+00  0.91188000000E+02  0.91188000000E+02 0.  0.
    9900012    2    3    3    0    0  0.47162879509E+01  0.24529121111E+01 -0.43073924230E+02  0.47787273066E+02  0.20000009216E+02 0.  0.
         12    1    3    3    0    0 -0.47162879509E+01 -0.24529121111E+01  0.43073924230E+02  0.43400726934E+02  0.00000000000E+00 0. -1.
         11    1    4    4    0    0  0.54401625950E+01 -0.76410174850E+01 -0.23747936932E+02  0.25533214174E+02  0.51100000000E-03 0. -1.
        -11    1    4    4    0    0 -0.15702332429E+01  0.38678875890E+01 -0.44292471376E+01  0.60864125152E+01  0.51100000000E-03 0.  1.
         12    1    4    4    0    0  0.84635859880E+00  0.62260420071E+01 -0.14896740160E+02  0.16167646376E+02  0.00000000000E+00 0. -1.
</event>
<event>
 8    1  0.6239251E-010  0.9118800E+02  0.7816164E-02  0.1184000E+00
        -11   -1    0    0    0    0  0.00000000000E+00  0.00000000000E+00  0.45593999997E+02  0.45594000000E+02  0.51100000000E-03 0. -1.
         11   -1    0    0    0    0 -0.00000000000E+00 -0.00000000000E+00 -0.45593999997E+02  0.45594000000E+02  0.51100000000E-03 0.  1.
         23    2    1    2    0    0  0.35527136788E-14  0.00000000000E+00  0.00000000000E+00  0.91188000000E+02  0.91188000000E+02 0.  0.
    9900012    2    3    3    0    0 -0.30838427464E+02  0.18158466830E+02 -0.24553720810E+02  0.47787265770E+02  0.19999975952E+02 0.  0.
         12    1    3    3    0    0  0.30838427464E+02 -0.18158466830E+02  0.24553720810E+02  0.43400734230E+02  0.00000000000E+00 0. -1.
         11    1    4    4    0    0 -0.24882126134E+02  0.87303600807E+01 -0.12232835729E+02  0.29068568219E+02  0.51100000000E-03 0.  1.
        -11    1    4    4    0    0 -0.71633266004E+01  0.51338476298E+01 -0.49633254575E+01  0.10114555815E+02  0.51100000000E-03 0. -1.
         12    1    4    4    0    0  0.12070252708E+01  0.42942591199E+01 -0.73575596239E+01  0.86041417359E+01  0.00000000000E+00 0. -1.
</event>
<event>
 8    1  0.6239251E-010  0.9118800E+02  0.7816164E-02  0.1184000E+00
        -11   -1    0    0    0    0  0.00000000000E+00  0.00000000000E+00  0.45593999997E+02  0.45594000000E+02  0.51100000000E-03 0. -1.
         11   -1    0    0    0    0 -0.00000000000E+00 -0.00000000000E+00 -0.45593999997E+02  0.45594000000E+02  0.51100000000E-03 0.  1.
         23    2    1    2    0    0  0.00000000000E+00  0.00000000000E+00  0.00000000000E+00  0.91188000000E+02  0.91188000000E+02 0.  0.
    9900012    2    3    3    0    0 -0.15644927751E+02 -0.37931970461E+02  0.14143024472E+02  0.47787270875E+02  0.19999999227E+02 0.  0.
        -12    1    3    3    0    0  0.15644927751E+02  0.37931970461E+02 -0.14143024472E+02  0.43400729125E+02  0.00000000000E+00 0.  1.
         11    1    4    4    0    0 -0.19066168921E+01  0.58210319145E+00  0.42566510876E+01  0.47003309289E+01  0.51100000000E-03 0. -1.
        -11    1    4    4    0    0 -0.90271986000E+01 -0.25692876815E+02  0.11026208143E+02  0.29380120828E+02  0.51100000000E-03 0.  1.
        -12    1    4    4    0    0 -0.47111122585E+01 -0.12821196838E+02 -0.11398347585E+01  0.13706819118E+02  0.00000000000E+00 0.  1.
</event>
<event>
 8    1  0.6239251E-010  0.9118800E+02  0.7816164E-02  0.1184000E+00
        -11   -1    0    0    0    0  0.00000000000E+00  0.00000000000E+00  0.45593999997E+02  0.45594000000E+02  0.51100000000E-03 0. -1.
         11   -1    0    0    0    0 -0.00000000000E+00 -0.00000000000E+00 -0.45593999997E+02  0.45594000000E+02  0.51100000000E-03 0.  1.
         23    2    1    2    0    0  0.00000000000E+00  0.00000000000E+00 -0.35527136788E-14  0.91188000000E+02  0.91188000000E+02 0.  0.
    9900012    2    3    3    0    0 -0.31010684689E+02  0.61413895202E+01 -0.29736233203E+02  0.47787276558E+02  0.20000025141E+02 0.  0.
         12    1    3    3    0    0  0.31010684689E+02 -0.61413895202E+01  0.29736233203E+02  0.43400723442E+02  0.00000000000E+00 0. -1.
         11    1    4    4    0    0 -0.30767342720E+01  0.30274757160E+01 -0.41261788147E+01  0.59713695970E+01  0.51100000000E-03 0. -1.
        -11    1    4    4    0    0 -0.71108509974E+01  0.41052047970E+01 -0.17713144205E+02  0.19523636603E+02  0.51100000000E-03 0.  1.
        -12    1    4    4    0    0 -0.20823099420E+02 -0.99129099279E+00 -0.78969101838E+01  0.22292270358E+02  0.00000000000E+00 0.  1.
</event>
<event>
 8    1  0.6239251E-010  0.9118800E+02  0.7816164E-02  0.1184000E+00
        -11   -1    0    0    0    0  0.00000000000E+00  0.00000000000E+00  0.45593999997E+02  0.45594000000E+02  0.51100000000E-03 0.  1.
         11   -1    0    0    0    0 -0.00000000000E+00 -0.00000000000E+00 -0.45593999997E+02  0.45594000000E+02  0.51100000000E-03 0. -1.
         23    2    1    2    0    0  0.00000000000E+00 -0.35527136788E-14  0.00000000000E+00  0.91188000000E+02  0.91188000000E+02 0.  0.
    9900012    2    3    3    0    0 -0.35473048425E+02  0.22273955519E+02  0.11364729283E+02  0.47787270389E+02  0.19999997014E+02 0.  0.
        -12    1    3    3    0    0  0.35473048425E+02 -0.22273955519E+02 -0.11364729283E+02  0.43400729611E+02  0.00000000000E+00 0.  1.
         11    1    4    4    0    0 -0.22917214694E+02  0.17774920151E+02  0.88789723678E+01  0.30331216037E+02  0.51100000000E-03 0.  1.
        -11    1    4    4    0    0 -0.87915931284E+01  0.46312882757E+00 -0.33540410587E+01  0.94210503517E+01  0.51100000000E-03 0. -1.
         12    1    4    4    0    0 -0.37642406028E+01  0.40359065407E+01  0.58397979735E+01  0.80350040008E+01  0.00000000000E+00 0. -1.
</event>
<event>
 8    1  0.6239251E-010  0.9118800E+02  0.7816164E-02  0.1184000E+00
        -11   -1    0    0    0    0  0.00000000000E+00  0.00000000000E+00  0.45593999997E+02  0.45594000000E+02  0.51100000000E-03 0. -1.
         11   -1    0    0    0    0 -0.00000000000E+00 -0.00000000000E+00 -0.45593999997E+02  0.45594000000E+02  0.51100000000E-03 0.  1.
         23    2    1    2    0    0  0.35527136788E-14 -0.88817841970E-15  0.00000000000E+00  0.91188000000E+02  0.91188000000E+02 0.  0.
    9900012    2    3    3    0    0  0.21432565965E+02 -0.72991503601E+01 -0.37026893384E+02  0.47787270588E+02  0.19999997921E+02 0.  0.
         12    1    3    3    0    0 -0.21432565965E+02  0.72991503601E+01  0.37026893384E+02  0.43400729412E+02  0.00000000000E+00 0. -1.
         11    1    4    4    0    0  0.66220486983E+01 -0.44532560761E+01 -0.21648326501E+01  0.82685862943E+01  0.51100000000E-03 0. -1.
        -11    1    4    4    0    0  0.14298680381E+02 -0.51056909524E+00 -0.34146848316E+02  0.37023238535E+02  0.51100000000E-03 0.  1.
        -12    1    4    4    0    0  0.51183688497E+00 -0.23353251887E+01 -0.71521241770E+00  0.24954457591E+01  0.00000000000E+00 0.  1.
</event>
<event>
 8    1  0.6239251E-010  0.9118800E+02  0.7816164E-02  0.1184000E+00
        -11   -1    0    0    0    0  0.00000000000E+00  0.00000000000E+00  0.45593999997E+02  0.45594000000E+02  0.51100000000E-03 0.  1.
         11   -1    0    0    0    0 -0.00000000000E+00 -0.00000000000E+00 -0.45593999997E+02  0.45594000000E+02  0.51100000000E-03 0. -1.
         23    2    1    2    0    0  0.00000000000E+00  0.17763568394E-14  0.00000000000E+00  0.91188000000E+02  0.91188000000E+02 0.  0.
    9900012    2    3    3    0    0 -0.16008632146E+02  0.14485521241E+02  0.37649921728E+02  0.47787271493E+02  0.20000002044E+02 0.  0.
        -12    1    3    3    0    0  0.16008632146E+02 -0.14485521241E+02 -0.37649921728E+02  0.43400728507E+02  0.00000000000E+00 0.  1.
         11    1    4    4    0    0 -0.28200385081E+01  0.64735311098E+01  0.27168015765E+01  0.75657275449E+01  0.51100000000E-03 0. -1.
        -11    1    4    4    0    0 -0.15719632000E+02  0.67737320077E+01  0.30164397044E+02  0.34682576675E+02  0.51100000000E-03 0.  1.
        -12    1    4    4    0    0  0.25310383619E+01  0.12382581232E+01  0.47687231083E+01  0.55389672731E+01  0.00000000000E+00 0.  1.
</event>
<event>
 8    1  0.6239251E-010  0.9118800E+02  0.7816164E-02  0.1184000E+00
        -11   -1    0    0    0    0  0.00000000000E+00  0.00000000000E+00  0.45593999997E+02  0.45594000000E+02  0.51100000000E-03 0. -1.
         11   -1    0    0    0    0 -0.00000000000E+00 -0.00000000000E+00 -0.45593999997E+02  0.45594000000E+02  0.51100000000E-03 0.  1.
         23    2    1    2    0    0  0.00000000000E+00 -0.17763568394E-14  0.35527136788E-14  0.91188000000E+02  0.91188000000E+02 0.  0.
    9900012    2    3    3    0    0  0.29338443714E+02  0.12185293327E+02 -0.29570204610E+02  0.47787278189E+02  0.20000032576E+02 0.  0.
         12    1    3    3    0    0 -0.29338443714E+02 -0.12185293327E+02  0.29570204610E+02  0.43400721811E+02  0.00000000000E+00 0. -1.
         11    1    4    4    0    0  0.90784167565E+01  0.49142774078E+01 -0.18839206288E+02  0.21482166256E+02  0.51100000000E-03 0. -1.
        -11    1    4    4    0    0  0.37761968334E+01  0.13776893152E+01 -0.74921557079E+01  0.85023577781E+01  0.51100000000E-03 0.  1.
         12    1    4    4    0    0  0.16483830124E+02  0.58933266036E+01 -0.32388426143E+01  0.17802754155E+02  0.00000000000E+00 0. -1.
</event>
<event>
 8    1  0.6239251E-010  0.9118800E+02  0.7816164E-02  0.1184000E+00
        -11   -1    0    0    0    0  0.00000000000E+00  0.00000000000E+00  0.45593999997E+02  0.45594000000E+02  0.51100000000E-03 0. -1.
         11   -1    0    0    0    0 -0.00000000000E+00 -0.00000000000E+00 -0.45593999997E+02  0.45594000000E+02  0.51100000000E-03 0.  1.
         23    2    1    2    0    0  0.00000000000E+00 -0.71054273576E-14  0.00000000000E+00  0.91188000000E+02  0.91188000000E+02 0.  0.
    9900012    2    3    3    0    0 -0.92511584195E+01  0.25293239294E+02  0.34033663461E+02  0.47787284169E+02  0.20000059841E+02 0.  0.
        -12    1    3    3    0    0  0.92511584195E+01 -0.25293239294E+02 -0.34033663461E+02  0.43400715831E+02  0.00000000000E+00 0.  1.
         11    1    4    4    0    0 -0.69336012498E+01  0.26332617852E+02  0.25924650060E+02  0.37597460955E+02  0.51100000000E-03 0. -1.
        -11    1    4    4    0    0 -0.14152939948E+01 -0.32398593924E+01  0.33544281527E+01  0.48735956405E+01  0.51100000000E-03 0.  1.
        -12    1    4    4    0    0 -0.90226317484E+00  0.22004808339E+01  0.47545852482E+01  0.53162275741E+01  0.00000000000E+00 0.  1.
</event>
<event>
 8    1  0.6239251E-010  0.9118800E+02  0.7816164E-02  0.1184000E+00
        -11   -1    0    0    0    0  0.00000000000E+00  0.00000000000E+00  0.45593999997E+02  0.45594000000E+02  0.51100000000E-03 0.  1.
         11   -1    0    0    0    0 -0.00000000000E+00 -0.00000000000E+00 -0.45593999997E+02  0.45594000000E+02  0.51100000000E-03 0. -1.
         23    2    1    2    0    0  0.00000000000E+00  0.53290705182E-14  0.00000000000E+00  0.91188000000E+02  0.91188000000E+02 0.  0.
    9900012    2    3    3    0    0 -0.36436587645E+02  0.15345197936E+02 -0.17903141914E+02  0.47787279853E+02  0.20000040160E+02 0.  0.
         12    1    3    3    0    0  0.36436587645E+02 -0.15345197936E+02  0.17903141914E+02  0.43400720147E+02  0.00000000000E+00 0. -1.
         11    1    4    4    0    0 -0.33090863779E+02  0.16808128472E+02 -0.17668895766E+02  0.41106061916E+02  0.51100000000E-03 0. -1.
        -11    1    4    4    0    0  0.80568774902E+00 -0.21524711110E+01  0.63429019804E+00  0.23842376033E+01  0.51100000000E-03 0.  1.
        -12    1    4    4    0    0 -0.41514116151E+01  0.68954057474E+00 -0.86853634625E+00  0.42969803336E+01  0.00000000000E+00 0.  1.
</event>
<event>
 8    1  0.6239251E-010  0.9118800E+02  0.7816164E-02  0.1184000E+00
        -11   -1    0    0    0    0  0.00000000000E+00  0.00000000000E+00  0.45593999997E+02  0.45594000000E+02  0.51100000000E-03 0. -1.
         11   -1    0    0    0    0 -0.00000000000E+00 -0.00000000000E+00 -0.45593999997E+02  0.45594000000E+02  0.51100000000E-03 0.  1.
         23    2    1    2    0    0  0.00000000000E+00  0.00000000000E+00  0.00000000000E+00  0.91188000000E+02  0.91188000000E+02 0.  0.
    9900012    2    3    3    0    0  0.14097683673E+02  0.23289975182E+02  0.33800230242E+02  0.47787271973E+02  0.20000004232E+02 0.  0.
        -12    1    3    3    0    0 -0.14097683673E+02 -0.23289975182E+02 -0.33800230242E+02  0.43400728027E+02  0.00000000000E+00 0.  1.
         11    1    4    4    0    0  0.76871194072E+01  0.35691637078E+01  0.17956100154E+02  0.19855786747E+02  0.51100000000E-03 0. -1.
        -11    1    4    4    0    0 -0.22770035104E+01  0.14618053991E+01  0.26484337969E+01  0.37862675353E+01  0.51100000000E-03 0.  1.
         12    1    4    4    0    0  0.86875677759E+01  0.18259006075E+02  0.13195696292E+02  0.24145217690E+02  0.00000000000E+00 0. -1.
</event>
<event>
 8    1  0.6239251E-010  0.9118800E+02  0.7816164E-02  0.1184000E+00
        -11   -1    0    0    0    0  0.00000000000E+00  0.00000000000E+00  0.45593999997E+02  0.45594000000E+02  0.51100000000E-03 0. -1.
         11   -1    0    0    0    0 -0.00000000000E+00 -0.00000000000E+00 -0.45593999997E+02  0.45594000000E+02  0.51100000000E-03 0.  1.
         23    2    1    2    0    0  0.00000000000E+00 -0.35527136788E-14 -0.88817841970E-15  0.91188000000E+02  0.91188000000E+02 0.  0.
    9900012    2    3    3    0    0 -0.39271622873E+02 -0.17894075421E+02  0.46005171197E+01  0.47787273554E+02  0.20000011442E+02 0.  0.
        -12    1    3    3    0    0  0.39271622873E+02  0.17894075421E+02 -0.46005171197E+01  0.43400726446E+02  0.00000000000E+00 0.  1.
         11    1    4    4    0    0 -0.18123709148E+02  0.20462573559E+00  0.74276166003E+01  0.19587756217E+02  0.51100000000E-03 0. -1.
        -11    1    4    4    0    0 -0.11757198928E+02 -0.92960879584E+01  0.14709120827E+00  0.14989016447E+02  0.51100000000E-03 0.  1.
         12    1    4    4    0    0 -0.93907147965E+01 -0.88026131986E+01 -0.29741906888E+01  0.13210500890E+02  0.00000000000E+00 0. -1.
</event>
<event>
 8    1  0.6239251E-010  0.9118800E+02  0.7816164E-02  0.1184000E+00
        -11   -1    0    0    0    0  0.00000000000E+00  0.00000000000E+00  0.45593999997E+02  0.45594000000E+02  0.51100000000E-03 0. -1.
         11   -1    0    0    0    0 -0.00000000000E+00 -0.00000000000E+00 -0.45593999997E+02  0.45594000000E+02  0.51100000000E-03 0.  1.
         23    2    1    2    0    0  0.00000000000E+00  0.00000000000E+00  0.71054273576E-14  0.91188000000E+02  0.91188000000E+02 0.  0.
    9900012    2    3    3    0    0 -0.14794201358E+02  0.31399308871E+01 -0.40680408960E+02  0.47787271516E+02  0.20000002150E+02 0.  0.
         12    1    3    3    0    0  0.14794201358E+02 -0.31399308871E+01  0.40680408960E+02  0.43400728484E+02  0.00000000000E+00 0. -1.
         11    1    4    4    0    0 -0.44026429856E+01  0.20782674865E+00 -0.66703790556E+01  0.79950243416E+01  0.51100000000E-03 0. -1.
        -11    1    4    4    0    0 -0.71093300926E+01  0.12518055463E+01 -0.35188397276E+02  0.35921203969E+02  0.51100000000E-03 0.  1.
        -12    1    4    4    0    0 -0.32822282795E+01  0.16802985922E+01  0.11783673713E+01  0.38710432056E+01  0.00000000000E+00 0.  1.
</event>
<event>
 8    1  0.6239251E-010  0.9118800E+02  0.7816164E-02  0.1184000E+00
        -11   -1    0    0    0    0  0.00000000000E+00  0.00000000000E+00  0.45593999997E+02  0.45594000000E+02  0.51100000000E-03 0. -1.
         11   -1    0    0    0    0 -0.00000000000E+00 -0.00000000000E+00 -0.45593999997E+02  0.45594000000E+02  0.51100000000E-03 0.  1.
         23    2    1    2    0    0  0.00000000000E+00  0.00000000000E+00  0.00000000000E+00  0.91188000000E+02  0.91188000000E+02 0.  0.
    9900012    2    3    3    0    0  0.96130301330E+01 -0.31802519165E+02 -0.27925124410E+02  0.47787272508E+02  0.20000006671E+02 0.  0.
         12    1    3    3    0    0 -0.96130301330E+01  0.31802519165E+02  0.27925124410E+02  0.43400727492E+02  0.00000000000E+00 0. -1.
         11    1    4    4    0    0 -0.28621463794E+01 -0.12732003778E+02 -0.54082822528E+01  0.14126051086E+02  0.51100000000E-03 0. -1.
        -11    1    4    4    0    0  0.12783154002E+02 -0.14828464338E+02 -0.13770994541E+02  0.23936012028E+02  0.51100000000E-03 0.  1.
        -12    1    4    4    0    0 -0.30797748985E+00 -0.42420510491E+01 -0.87458476157E+01  0.97252093938E+01  0.00000000000E+00 0.  1.
</event>
<event>
 8    1  0.6239251E-010  0.9118800E+02  0.7816164E-02  0.1184000E+00
        -11   -1    0    0    0    0  0.00000000000E+00  0.00000000000E+00  0.45593999997E+02  0.45594000000E+02  0.51100000000E-03 0. -1.
         11   -1    0    0    0    0 -0.00000000000E+00 -0.00000000000E+00 -0.45593999997E+02  0.45594000000E+02  0.51100000000E-03 0.  1.
         23    2    1    2    0    0 -0.88817841970E-15  0.00000000000E+00  0.00000000000E+00  0.91188000000E+02  0.91188000000E+02 0.  0.
    9900012    2    3    3    0    0  0.79493621839E+01  0.41108556434E+02 -0.11424506071E+02  0.47787249889E+02  0.19999903543E+02 0.  0.
         12    1    3    3    0    0 -0.79493621839E+01 -0.41108556434E+02  0.11424506071E+02  0.43400750111E+02  0.00000000000E+00 0. -1.
         11    1    4    4    0    0  0.84619309126E+01  0.24494166551E+02  0.11857702015E+01  0.25941752467E+02  0.51100000000E-03 0. -1.
        -11    1    4    4    0    0  0.94893221377E+00  0.14524515552E+02 -0.80826537975E+01  0.16649063549E+02  0.51100000000E-03 0.  1.
         12    1    4    4    0    0 -0.14615009424E+01  0.20898743305E+01 -0.45276224753E+01  0.51964338735E+01  0.00000000000E+00 0. -1.
</event>
<event>
 8    1  0.6239251E-010  0.9118800E+02  0.7816164E-02  0.1184000E+00
        -11   -1    0    0    0    0  0.00000000000E+00  0.00000000000E+00  0.45593999997E+02  0.45594000000E+02  0.51100000000E-03 0. -1.
         11   -1    0    0    0    0 -0.00000000000E+00 -0.00000000000E+00 -0.45593999997E+02  0.45594000000E+02  0.51100000000E-03 0.  1.
         23    2    1    2    0    0  0.00000000000E+00  0.00000000000E+00  0.00000000000E+00  0.91188000000E+02  0.91188000000E+02 0.  0.
    9900012    2    3    3    0    0  0.37263567385E+02 -0.12368381559E+02  0.18495214773E+02  0.47787270903E+02  0.19999999357E+02 0.  0.
        -12    1    3    3    0    0 -0.37263567385E+02  0.12368381559E+02 -0.18495214773E+02  0.43400729097E+02  0.00000000000E+00 0.  1.
         11    1    4    4    0    0  0.31348224945E+02 -0.73247844265E+01  0.78721556277E+01  0.33141130164E+02  0.51100000000E-03 0. -1.
        -11    1    4    4    0    0  0.10218547480E+01 -0.29929707592E+01  0.47951520465E+00  0.31987491593E+01  0.51100000000E-03 0.  1.
         12    1    4    4    0    0  0.48934876922E+01 -0.20506263732E+01  0.10143543940E+02  0.11447391580E+02  0.00000000000E+00 0. -1.
</event>
<event>
 8    1  0.6239251E-010  0.9118800E+02  0.7816164E-02  0.1184000E+00
        -11   -1    0    0    0    0  0.00000000000E+00  0.00000000000E+00  0.45593999997E+02  0.45594000000E+02  0.51100000000E-03 0. -1.
         11   -1    0    0    0    0 -0.00000000000E+00 -0.00000000000E+00 -0.45593999997E+02  0.45594000000E+02  0.51100000000E-03 0.  1.
         23    2    1    2    0    0  0.35527136788E-14  0.00000000000E+00  0.00000000000E+00  0.91188000000E+02  0.91188000000E+02 0.  0.
    9900012    2    3    3    0    0 -0.19804809311E+02 -0.32848606003E+02 -0.20306691947E+02  0.47787272748E+02  0.20000007766E+02 0.  0.
         12    1    3    3    0    0  0.19804809311E+02  0.32848606003E+02  0.20306691947E+02  0.43400727252E+02  0.00000000000E+00 0. -1.
         11    1    4    4    0    0  0.20476612003E+01 -0.59145511503E+01 -0.54811583407E+01  0.83197312888E+01  0.51100000000E-03 0. -1.
        -11    1    4    4    0    0 -0.12724802547E+02 -0.67117562602E+01 -0.55485361278E+01  0.15419290690E+02  0.51100000000E-03 0.  1.
        -12    1    4    4    0    0 -0.91276679640E+01 -0.20222298593E+02 -0.92769974784E+01  0.24048250769E+02  0.00000000000E+00 0.  1.
</event>
<event>
 8    1  0.6239251E-010  0.9118800E+02  0.7816164E-02  0.1184000E+00
        -11   -1    0    0    0    0  0.00000000000E+00  0.00000000000E+00  0.45593999997E+02  0.45594000000E+02  0.51100000000E-03 0. -1.
         11   -1    0    0    0    0 -0.00000000000E+00 -0.00000000000E+00 -0.45593999997E+02  0.45594000000E+02  0.51100000000E-03 0.  1.
         23    2    1    2    0    0  0.00000000000E+00  0.00000000000E+00  0.00000000000E+00  0.91188000000E+02  0.91188000000E+02 0.  0.
    9900012    2    3    3    0    0 -0.91019811429E+01  0.35257918858E+02  0.23614753138E+02  0.47787268801E+02  0.19999989770E+02 0.  0.
        -12    1    3    3    0    0  0.91019811429E+01 -0.35257918858E+02 -0.23614753138E+02  0.43400731199E+02  0.00000000000E+00 0.  1.
         11    1    4    4    0    0  0.20161314262E+01  0.61566892691E+01  0.91535938572E+01  0.11214182514E+02  0.51100000000E-03 0. -1.
        -11    1    4    4    0    0 -0.29072100910E+01  0.20957287700E+02  0.52794918931E+01  0.21806714864E+02  0.51100000000E-03 0.  1.
        -12    1    4    4    0    0 -0.82109024781E+01  0.81439418881E+01  0.91816673873E+01  0.14766371423E+02  0.00000000000E+00 0.  1.
</event>
<event>
 8    1  0.6239251E-010  0.9118800E+02  0.7816164E-02  0.1184000E+00
        -11   -1    0    0    0    0  0.00000000000E+00  0.00000000000E+00  0.45593999997E+02  0.45594000000E+02  0.51100000000E-03 0. -1.
         11   -1    0    0    0    0 -0.00000000000E+00 -0.00000000000E+00 -0.45593999997E+02  0.45594000000E+02  0.51100000000E-03 0.  1.
         23    2    1    2    0    0 -0.17763568394E-14  0.22204460493E-15  0.14210854715E-13  0.91188000000E+02  0.91188000000E+02 0.  0.
    9900012    2    3    3    0    0 -0.83765262605E+01  0.12601683825E+01  0.42566063390E+02  0.47787263035E+02  0.19999963483E+02 0.  0.
        -12    1    3    3    0    0  0.83765262605E+01 -0.12601683825E+01 -0.42566063390E+02  0.43400736965E+02  0.00000000000E+00 0.  1.
         11    1    4    4    0    0  0.24063903145E+01  0.16946392859E+01 -0.19558519799E-01  0.29432803896E+01  0.51100000000E-03 0. -1.
        -11    1    4    4    0    0 -0.14421307374E+01 -0.73913942879E+00  0.44645346766E+00  0.16808893833E+01  0.51100000000E-03 0.  1.
         12    1    4    4    0    0 -0.93407858376E+01  0.30466852535E+00  0.42139168442E+02  0.43163093262E+02  0.00000000000E+00 0. -1.
</event>
<event>
 8    1  0.6239251E-010  0.9118800E+02  0.7816164E-02  0.1184000E+00
        -11   -1    0    0    0    0  0.00000000000E+00  0.00000000000E+00  0.45593999997E+02  0.45594000000E+02  0.51100000000E-03 0. -1.
         11   -1    0    0    0    0 -0.00000000000E+00 -0.00000000000E+00 -0.45593999997E+02  0.45594000000E+02  0.51100000000E-03 0.  1.
         23    2    1    2    0    0 -0.35527136788E-14  0.00000000000E+00  0.35527136788E-14  0.91188000000E+02  0.91188000000E+02 0.  0.
    9900012    2    3    3    0    0  0.27146971309E+02 -0.18321548735E+02 -0.28477791614E+02  0.47787287857E+02  0.20000076656E+02 0.  0.
         12    1    3    3    0    0 -0.27146971309E+02  0.18321548735E+02  0.28477791614E+02  0.43400712143E+02  0.00000000000E+00 0. -1.
         11    1    4    4    0    0  0.15965632369E+02 -0.12867062072E+02 -0.55631101122E+01  0.21246432587E+02  0.51100000000E-03 0. -1.
        -11    1    4    4    0    0  0.57522392416E+01 -0.14950664103E+01 -0.15139975107E+02  0.16264757188E+02  0.51100000000E-03 0.  1.
        -12    1    4    4    0    0  0.54290996983E+01 -0.39594202527E+01 -0.77747063943E+01  0.10276098082E+02  0.00000000000E+00 0.  1.
</event>
<event>
 8    1  0.6239251E-010  0.9118800E+02  0.7816164E-02  0.1184000E+00
        -11   -1    0    0    0    0  0.00000000000E+00  0.00000000000E+00  0.45593999997E+02  0.45594000000E+02  0.51100000000E-03 0. -1.
         11   -1    0    0    0    0 -0.00000000000E+00 -0.00000000000E+00 -0.45593999997E+02  0.45594000000E+02  0.51100000000E-03 0.  1.
         23    2    1    2    0    0  0.00000000000E+00  0.00000000000E+00  0.00000000000E+00  0.91188000000E+02  0.91188000000E+02 0.  0.
    9900012    2    3    3    0    0  0.27528188624E+01 -0.42172488684E+01  0.43107527063E+02  0.47787284693E+02  0.20000062230E+02 0.  0.
        -12    1    3    3    0    0 -0.27528188624E+01  0.42172488684E+01 -0.43107527063E+02  0.43400715307E+02  0.00000000000E+00 0.  1.
         11    1    4    4    0    0 -0.40023065073E+00  0.18068845924E+01 -0.56226107703E+00  0.19342063706E+01  0.51100000000E-03 0.  1.
        -11    1    4    4    0    0  0.15760614309E+01 -0.62123160518E+01  0.43793586480E+02  0.44260084246E+02  0.51100000000E-03 0. -1.
         12    1    4    4    0    0  0.15769880823E+01  0.18818259099E+00 -0.12379834094E+00  0.15929940767E+01  0.00000000000E+00 0. -1.
</event>
<event>
 8    1  0.6239251E-010  0.9118800E+02  0.7816164E-02  0.1184000E+00
        -11   -1    0    0    0    0  0.00000000000E+00  0.00000000000E+00  0.45593999997E+02  0.45594000000E+02  0.51100000000E-03 0. -1.
         11   -1    0    0    0    0 -0.00000000000E+00 -0.00000000000E+00 -0.45593999997E+02  0.45594000000E+02  0.51100000000E-03 0.  1.
         23    2    1    2    0    0  0.00000000000E+00  0.00000000000E+00  0.35527136788E-14  0.91188000000E+02  0.91188000000E+02 0.  0.
    9900012    2    3    3    0    0 -0.28860068576E+02  0.11461273085E+02 -0.30320926244E+02  0.47787275268E+02  0.20000019258E+02 0.  0.
         12    1    3    3    0    0  0.28860068576E+02 -0.11461273085E+02  0.30320926244E+02  0.43400724732E+02  0.00000000000E+00 0. -1.
         11    1    4    4    0    0 -0.11438282617E+02  0.14056144927E+02 -0.18035916755E+02  0.25567632133E+02  0.51100000000E-03 0. -1.
        -11    1    4    4    0    0 -0.15292328782E+02 -0.18110603968E+00 -0.10012618302E+02  0.18279514340E+02  0.51100000000E-03 0.  1.
         12    1    4    4    0    0 -0.21294571766E+01 -0.24137658022E+01 -0.22723911868E+01  0.39401287949E+01  0.00000000000E+00 0. -1.
</event>
<event>
 8    1  0.6239251E-010  0.9118800E+02  0.7816164E-02  0.1184000E+00
        -11   -1    0    0    0    0  0.00000000000E+00  0.00000000000E+00  0.45593999997E+02  0.45594000000E+02  0.51100000000E-03 0. -1.
         11   -1    0    0    0    0 -0.00000000000E+00 -0.00000000000E+00 -0.45593999997E+02  0.45594000000E+02  0.51100000000E-03 0.  1.
         23    2    1    2    0    0  0.00000000000E+00  0.00000000000E+00  0.71054273576E-14  0.91188000000E+02  0.91188000000E+02 0.  0.
    9900012    2    3    3    0    0  0.10472299329E+02 -0.19762890150E+02 -0.37193778262E+02  0.47787331552E+02  0.20000275877E+02 0.  0.
         12    1    3    3    0    0 -0.10472299329E+02  0.19762890150E+02  0.37193778262E+02  0.43400668448E+02  0.00000000000E+00 0. -1.
         11    1    4    4    0    0  0.11771427009E+02 -0.11842044258E+02 -0.24163372213E+02  0.29371228490E+02  0.51100000000E-03 0. -1.
        -11    1    4    4    0    0 -0.17732264686E+01 -0.10672253972E+01  0.13554876880E+01  0.24739946020E+01  0.51100000000E-03 0.  1.
        -12    1    4    4    0    0  0.47409878896E+00 -0.68536204941E+01 -0.14385893737E+02  0.15942108460E+02  0.00000000000E+00 0.  1.
</event>
<event>
 8    1  0.6239251E-010  0.9118800E+02  0.7816164E-02  0.1184000E+00
        -11   -1    0    0    0    0  0.00000000000E+00  0.00000000000E+00  0.45593999997E+02  0.45594000000E+02  0.51100000000E-03 0.  1.
         11   -1    0    0    0    0 -0.00000000000E+00 -0.00000000000E+00 -0.45593999997E+02  0.45594000000E+02  0.51100000000E-03 0. -1.
         23    2    1    2    0    0 -0.71054273576E-14  0.17763568394E-14  0.00000000000E+00  0.91188000000E+02  0.91188000000E+02 0.  0.
    9900012    2    3    3    0    0 -0.41477533861E+02  0.11594332254E+02 -0.53674019932E+01  0.47787270054E+02  0.19999995486E+02 0.  0.
         12    1    3    3    0    0  0.41477533861E+02 -0.11594332254E+02  0.53674019932E+01  0.43400729946E+02  0.00000000000E+00 0. -1.
         11    1    4    4    0    0 -0.41810262605E+01  0.50027646536E+01 -0.35542368161E+01  0.74257144017E+01  0.51100000000E-03 0. -1.
        -11    1    4    4    0    0 -0.36270304038E+02  0.41128327305E+01 -0.42346870513E+01  0.36747556691E+02  0.51100000000E-03 0.  1.
        -12    1    4    4    0    0 -0.10262035632E+01  0.24787348702E+01  0.24215218741E+01  0.36139989619E+01  0.00000000000E+00 0.  1.
</event>
<event>
 8    1  0.6239251E-010  0.9118800E+02  0.7816164E-02  0.1184000E+00
        -11   -1    0    0    0    0  0.00000000000E+00  0.00000000000E+00  0.45593999997E+02  0.45594000000E+02  0.51100000000E-03 0. -1.
         11   -1    0    0    0    0 -0.00000000000E+00 -0.00000000000E+00 -0.45593999997E+02  0.45594000000E+02  0.51100000000E-03 0.  1.
         23    2    1    2    0    0  0.00000000000E+00  0.00000000000E+00 -0.35527136788E-14  0.91188000000E+02  0.91188000000E+02 0.  0.
    9900012    2    3    3    0    0 -0.29269100717E+02 -0.60255003480E+01  0.31474411011E+02  0.47787245862E+02  0.19999885184E+02 0.  0.
        -12    1    3    3    0    0  0.29269100717E+02  0.60255003480E+01 -0.31474411011E+02  0.43400754138E+02  0.00000000000E+00 0.  1.
         11    1    4    4    0    0 -0.93402839102E+01 -0.59356454346E+00  0.55468184395E+01  0.10879357401E+02  0.51100000000E-03 0. -1.
        -11    1    4    4    0    0 -0.61783402593E+01  0.58233436162E+01  0.79809309229E+01  0.11652402237E+02  0.51100000000E-03 0.  1.
        -12    1    4    4    0    0 -0.13750476548E+02 -0.11255279421E+02  0.17946661648E+02  0.25255486225E+02  0.00000000000E+00 0.  1.
</event>
<event>
 8    1  0.6239251E-010  0.9118800E+02  0.7816164E-02  0.1184000E+00
        -11   -1    0    0    0    0  0.00000000000E+00  0.00000000000E+00  0.45593999997E+02  0.45594000000E+02  0.51100000000E-03 0. -1.
         11   -1    0    0    0    0 -0.00000000000E+00 -0.00000000000E+00 -0.45593999997E+02  0.45594000000E+02  0.51100000000E-03 0.  1.
         23    2    1    2    0    0  0.35527136788E-14  0.00000000000E+00 -0.35527136788E-14  0.91188000000E+02  0.91188000000E+02 0.  0.
    9900012    2    3    3    0    0 -0.25319644810E+02 -0.25908102665E+02  0.23902060494E+02  0.47787277738E+02  0.20000030518E+02 0.  0.
        -12    1    3    3    0    0  0.25319644810E+02  0.25908102665E+02 -0.23902060494E+02  0.43400722262E+02  0.00000000000E+00 0.  1.
         11    1    4    4    0    0  0.34069180162E+00 -0.61418194081E+01  0.53362062048E+00  0.61743637545E+01  0.51100000000E-03 0. -1.
        -11    1    4    4    0    0 -0.18318193979E+02 -0.10647027120E+02  0.88488938994E+01  0.22961235608E+02  0.51100000000E-03 0.  1.
        -12    1    4    4    0    0 -0.73421426333E+01 -0.91192561365E+01  0.14519545974E+02  0.18651678376E+02  0.00000000000E+00 0.  1.
</event>
<event>
 8    1  0.6239251E-010  0.9118800E+02  0.7816164E-02  0.1184000E+00
        -11   -1    0    0    0    0  0.00000000000E+00  0.00000000000E+00  0.45593999997E+02  0.45594000000E+02  0.51100000000E-03 0. -1.
         11   -1    0    0    0    0 -0.00000000000E+00 -0.00000000000E+00 -0.45593999997E+02  0.45594000000E+02  0.51100000000E-03 0.  1.
         23    2    1    2    0    0  0.35527136788E-14  0.00000000000E+00  0.35527136788E-14  0.91188000000E+02  0.91188000000E+02 0.  0.
    9900012    2    3    3    0    0  0.29415758604E+02 -0.19370212790E+02 -0.25359980178E+02  0.47787301936E+02  0.20000140847E+02 0.  0.
         12    1    3    3    0    0 -0.29415758604E+02  0.19370212790E+02  0.25359980178E+02  0.43400698064E+02  0.00000000000E+00 0. -1.
         11    1    4    4    0    0  0.61987124288E+01  0.39457954612E+01 -0.29836782500E+01  0.79306792746E+01  0.51100000000E-03 0. -1.
        -11    1    4    4    0    0  0.48882831506E+01 -0.45838604683E+01 -0.35121499594E+01  0.75658632391E+01  0.51100000000E-03 0.  1.
         12    1    4    4    0    0  0.18328763025E+02 -0.18732147782E+02 -0.18864151969E+02  0.32290759422E+02  0.00000000000E+00 0. -1.
</event>
<event>
 8    1  0.6239251E-010  0.9118800E+02  0.7816164E-02  0.1184000E+00
        -11   -1    0    0    0    0  0.00000000000E+00  0.00000000000E+00  0.45593999997E+02  0.45594000000E+02  0.51100000000E-03 0. -1.
         11   -1    0    0    0    0 -0.00000000000E+00 -0.00000000000E+00 -0.45593999997E+02  0.45594000000E+02  0.51100000000E-03 0.  1.
         23    2    1    2    0    0 -0.35527136788E-14 -0.22204460493E-15  0.71054273576E-14  0.91188000000E+02  0.91188000000E+02 0.  0.
    9900012    2    3    3    0    0 -0.16871829817E+02 -0.12421136682E+01  0.39967756398E+02  0.47787273747E+02  0.20000012323E+02 0.  0.
        -12    1    3    3    0    0  0.16871829817E+02  0.12421136682E+01 -0.39967756398E+02  0.43400726253E+02  0.00000000000E+00 0.  1.
         11    1    4    4    0    0  0.33344235111E-01 -0.12324020995E+01 -0.20791631792E+01  0.24171980803E+01  0.51100000000E-03 0.  1.
        -11    1    4    4    0    0 -0.88495123451E+01 -0.38357686220E+00  0.24700716708E+02  0.26240929978E+02  0.51100000000E-03 0. -1.
        -12    1    4    4    0    0 -0.80556617074E+01  0.37386529346E+00  0.17346202869E+02  0.19129145689E+02  0.00000000000E+00 0.  1.
</event>
<event>
 8    1  0.6239251E-010  0.9118800E+02  0.7816164E-02  0.1184000E+00
        -11   -1    0    0    0    0  0.00000000000E+00  0.00000000000E+00  0.45593999997E+02  0.45594000000E+02  0.51100000000E-03 0. -1.
         11   -1    0    0    0    0 -0.00000000000E+00 -0.00000000000E+00 -0.45593999997E+02  0.45594000000E+02  0.51100000000E-03 0.  1.
         23    2    1    2    0    0  0.00000000000E+00  0.00000000000E+00  0.71054273576E-14  0.91188000000E+02  0.91188000000E+02 0.  0.
    9900012    2    3    3    0    0  0.15282381065E+02 -0.93344127258E+01  0.39534044010E+02  0.47787273420E+02  0.20000010829E+02 0.  0.
        -12    1    3    3    0    0 -0.15282381065E+02  0.93344127258E+01 -0.39534044010E+02  0.43400726580E+02  0.00000000000E+00 0.  1.
         11    1    4    4    0    0  0.14058405974E+01  0.32778469325E+01  0.18014157366E+01  0.39957186106E+01  0.51100000000E-03 0.  1.
        -11    1    4    4    0    0  0.14822488315E+02 -0.13959887217E+02  0.36244569103E+02  0.41572267207E+02  0.51100000000E-03 0. -1.
         12    1    4    4    0    0 -0.94594784785E+00  0.13476275587E+01  0.14880591701E+01  0.22192876022E+01  0.00000000000E+00 0. -1.
</event>
<event>
 8    1  0.6239251E-010  0.9118800E+02  0.7816164E-02  0.1184000E+00
        -11   -1    0    0    0    0  0.00000000000E+00  0.00000000000E+00  0.45593999997E+02  0.45594000000E+02  0.51100000000E-03 0. -1.
         11   -1    0    0    0    0 -0.00000000000E+00 -0.00000000000E+00 -0.45593999997E+02  0.45594000000E+02  0.51100000000E-03 0.  1.
         23    2    1    2    0    0  0.00000000000E+00  0.00000000000E+00  0.00000000000E+00  0.91188000000E+02  0.91188000000E+02 0.  0.
    9900012    2    3    3    0    0 -0.36178021663E+02 -0.12170219195E+02  0.20655768413E+02  0.47787259737E+02  0.19999948443E+02 0.  0.
        -12    1    3    3    0    0  0.36178021663E+02  0.12170219195E+02 -0.20655768413E+02  0.43400740263E+02  0.00000000000E+00 0.  1.
         11    1    4    4    0    0 -0.17300950108E+02 -0.61269523683E+01  0.84245901021E+00  0.18373136842E+02  0.51100000000E-03 0. -1.
        -11    1    4    4    0    0 -0.98112379152E+01  0.47289275841E+00  0.54873445399E+01  0.11251442901E+02  0.51100000000E-03 0.  1.
         12    1    4    4    0    0 -0.90658336394E+01 -0.65161595856E+01  0.14325964862E+02  0.18162679994E+02  0.00000000000E+00 0. -1.
</event>
<event>
 8    1  0.6239251E-010  0.9118800E+02  0.7816164E-02  0.1184000E+00
        -11   -1    0    0    0    0  0.00000000000E+00  0.00000000000E+00  0.45593999997E+02  0.45594000000E+02  0.51100000000E-03 0. -1.
         11   -1    0    0    0    0 -0.00000000000E+00 -0.00000000000E+00 -0.45593999997E+02  0.45594000000E+02  0.51100000000E-03 0.  1.
         23    2    1    2    0    0 -0.17763568394E-14  0.00000000000E+00  0.00000000000E+00  0.91188000000E+02  0.91188000000E+02 0.  0.
    9900012    2    3    3    0    0  0.80078509300E+01 -0.98043086147E+01  0.41513525754E+02  0.47787274609E+02  0.20000016254E+02 0.  0.
        -12    1    3    3    0    0 -0.80078509300E+01  0.98043086147E+01 -0.41513525754E+02  0.43400725391E+02  0.00000000000E+00 0.  1.
         11    1    4    4    0    0 -0.10483746615E+01 -0.51762569236E+01  0.27200198537E+02  0.27708185178E+02  0.51100000000E-03 0. -1.
        -11    1    4    4    0    0  0.78718705656E-01  0.11453923742E+01  0.71100626383E+01  0.72021601834E+01  0.51100000000E-03 0.  1.
         12    1    4    4    0    0  0.89775068859E+01 -0.57734440654E+01  0.72032645786E+01  0.12876929248E+02  0.00000000000E+00 0. -1.
</event>
<event>
 8    1  0.6239251E-010  0.9118800E+02  0.7816164E-02  0.1184000E+00
        -11   -1    0    0    0    0  0.00000000000E+00  0.00000000000E+00  0.45593999997E+02  0.45594000000E+02  0.51100000000E-03 0. -1.
         11   -1    0    0    0    0 -0.00000000000E+00 -0.00000000000E+00 -0.45593999997E+02  0.45594000000E+02  0.51100000000E-03 0.  1.
         23    2    1    2    0    0  0.00000000000E+00  0.00000000000E+00  0.00000000000E+00  0.91188000000E+02  0.91188000000E+02 0.  0.
    9900012    2    3    3    0    0  0.89492846136E+01  0.64853837222E+01 -0.41969914236E+02  0.47787267309E+02  0.19999982971E+02 0.  0.
         12    1    3    3    0    0 -0.89492846136E+01 -0.64853837222E+01  0.41969914236E+02  0.43400732691E+02  0.00000000000E+00 0. -1.
         11    1    4    4    0    0 -0.38243624544E+01 -0.10554612992E+01 -0.32280115575E+01  0.51146657382E+01  0.51100000000E-03 0. -1.
        -11    1    4    4    0    0  0.53210659603E+01  0.45097722788E+01 -0.29965416952E+02  0.30766507802E+02  0.51100000000E-03 0.  1.
         12    1    4    4    0    0  0.74525811077E+01  0.30310727425E+01 -0.87764857258E+01  0.11906093769E+02  0.00000000000E+00 0. -1.
</event>
<event>
 8    1  0.6239251E-010  0.9118800E+02  0.7816164E-02  0.1184000E+00
        -11   -1    0    0    0    0  0.00000000000E+00  0.00000000000E+00  0.45593999997E+02  0.45594000000E+02  0.51100000000E-03 0. -1.
         11   -1    0    0    0    0 -0.00000000000E+00 -0.00000000000E+00 -0.45593999997E+02  0.45594000000E+02  0.51100000000E-03 0.  1.
         23    2    1    2    0    0  0.00000000000E+00 -0.35527136788E-14 -0.35527136788E-14  0.91188000000E+02  0.91188000000E+02 0.  0.
    9900012    2    3    3    0    0 -0.35381712087E+02 -0.14559062390E+02 -0.20488820080E+02  0.47787267332E+02  0.19999983072E+02 0.  0.
         12    1    3    3    0    0  0.35381712087E+02  0.14559062390E+02  0.20488820080E+02  0.43400732668E+02  0.00000000000E+00 0. -1.
         11    1    4    4    0    0 -0.10213251010E+02  0.35721295689E+00 -0.36930462818E+01  0.10866309788E+02  0.51100000000E-03 0. -1.
        -11    1    4    4    0    0 -0.19917530795E+02 -0.93999902745E+01 -0.45333506646E+01  0.22485976043E+02  0.51100000000E-03 0.  1.
        -12    1    4    4    0    0 -0.52509302822E+01 -0.55162850722E+01 -0.12262423133E+02  0.14434981501E+02  0.00000000000E+00 0.  1.
</event>
<event>
 8    1  0.6239251E-010  0.9118800E+02  0.7816164E-02  0.1184000E+00
        -11   -1    0    0    0    0  0.00000000000E+00  0.00000000000E+00  0.45593999997E+02  0.45594000000E+02  0.51100000000E-03 0. -1.
         11   -1    0    0    0    0 -0.00000000000E+00 -0.00000000000E+00 -0.45593999997E+02  0.45594000000E+02  0.51100000000E-03 0.  1.
         23    2    1    2    0    0  0.00000000000E+00 -0.17763568394E-14  0.00000000000E+00  0.91188000000E+02  0.91188000000E+02 0.  0.
    9900012    2    3    3    0    0  0.14748736714E+02 -0.11188088573E+02 -0.39254615483E+02  0.47787269622E+02  0.19999993516E+02 0.  0.
         12    1    3    3    0    0 -0.14748736714E+02  0.11188088573E+02  0.39254615483E+02  0.43400730378E+02  0.00000000000E+00 0. -1.
         11    1    4    4    0    0 -0.11229869001E+01  0.41955445299E+01 -0.37289566672E+01  0.57244049094E+01  0.51100000000E-03 0. -1.
        -11    1    4    4    0    0  0.15685928162E+02 -0.14452082013E+02 -0.34973652601E+02  0.40964220892E+02  0.51100000000E-03 0.  1.
        -12    1    4    4    0    0  0.18579545220E+00 -0.93155108946E+00 -0.55200621545E+00  0.10986438205E+01  0.00000000000E+00 0.  1.
</event>
<event>
 8    1  0.6239251E-010  0.9118800E+02  0.7816164E-02  0.1184000E+00
        -11   -1    0    0    0    0  0.00000000000E+00  0.00000000000E+00  0.45593999997E+02  0.45594000000E+02  0.51100000000E-03 0. -1.
         11   -1    0    0    0    0 -0.00000000000E+00 -0.00000000000E+00 -0.45593999997E+02  0.45594000000E+02  0.51100000000E-03 0.  1.
         23    2    1    2    0    0  0.00000000000E+00  0.88817841970E-15  0.71054273576E-14  0.91188000000E+02  0.91188000000E+02 0.  0.
    9900012    2    3    3    0    0  0.22468745868E+02  0.51245979384E+01 -0.36776586302E+02  0.47787270226E+02  0.19999996268E+02 0.  0.
         12    1    3    3    0    0 -0.22468745868E+02 -0.51245979384E+01  0.36776586302E+02  0.43400729774E+02  0.00000000000E+00 0. -1.
         11    1    4    4    0    0 -0.44319408519E+00 -0.43024388727E+01 -0.34656174300E+01  0.55423736506E+01  0.51100000000E-03 0. -1.
        -11    1    4    4    0    0  0.15726305112E+02  0.70117718788E+01 -0.28401329638E+02  0.33213207356E+02  0.51100000000E-03 0.  1.
         12    1    4    4    0    0  0.71856348408E+01  0.24152649323E+01 -0.49096392332E+01  0.90316892196E+01  0.00000000000E+00 0. -1.
</event>
<event>
 8    1  0.6239251E-010  0.9118800E+02  0.7816164E-02  0.1184000E+00
        -11   -1    0    0    0    0  0.00000000000E+00  0.00000000000E+00  0.45593999997E+02  0.45594000000E+02  0.51100000000E-03 0. -1.
         11   -1    0    0    0    0 -0.00000000000E+00 -0.00000000000E+00 -0.45593999997E+02  0.45594000000E+02  0.51100000000E-03 0.  1.
         23    2    1    2    0    0  0.00000000000E+00  0.17763568394E-14  0.00000000000E+00  0.91188000000E+02  0.91188000000E+02 0.  0.
    9900012    2    3    3    0    0 -0.14439063563E+02  0.94844836497E+01 -0.39814337375E+02  0.47787269047E+02  0.19999990892E+02 0.  0.
         12    1    3    3    0    0  0.14439063563E+02 -0.94844836497E+01  0.39814337375E+02  0.43400730953E+02  0.00000000000E+00 0. -1.
         11    1    4    4    0    0 -0.89965950672E+01  0.52174725570E+01 -0.23489845675E+02  0.25689172677E+02  0.51100000000E-03 0. -1.
        -11    1    4    4    0    0 -0.84281390468E+01  0.66196406000E+01 -0.14041526694E+02  0.17664021106E+02  0.51100000000E-03 0.  1.
         12    1    4    4    0    0  0.29856705508E+01 -0.23526295072E+01 -0.22829650056E+01  0.44340752647E+01  0.00000000000E+00 0. -1.
</event>
<event>
 8    1  0.6239251E-010  0.9118800E+02  0.7816164E-02  0.1184000E+00
        -11   -1    0    0    0    0  0.00000000000E+00  0.00000000000E+00  0.45593999997E+02  0.45594000000E+02  0.51100000000E-03 0. -1.
         11   -1    0    0    0    0 -0.00000000000E+00 -0.00000000000E+00 -0.45593999997E+02  0.45594000000E+02  0.51100000000E-03 0.  1.
         23    2    1    2    0    0  0.00000000000E+00  0.17763568394E-14  0.00000000000E+00  0.91188000000E+02  0.91188000000E+02 0.  0.
    9900012    2    3    3    0    0 -0.97869552196E+01  0.10127918196E+02 -0.41051983337E+02  0.47787256281E+02  0.19999932689E+02 0.  0.
         12    1    3    3    0    0  0.97869552196E+01 -0.10127918196E+02  0.41051983337E+02  0.43400743719E+02  0.00000000000E+00 0. -1.
         11    1    4    4    0    0 -0.32336583920E+01 -0.13239917694E+01 -0.89654907224E+00  0.36073953625E+01  0.51100000000E-03 0. -1.
        -11    1    4    4    0    0  0.19028731077E+01  0.59590246099E+01 -0.26359971508E+02  0.27092046777E+02  0.51100000000E-03 0.  1.
        -12    1    4    4    0    0 -0.84561699353E+01  0.54928853557E+01 -0.13795462756E+02  0.17087814142E+02  0.00000000000E+00 0.  1.
</event>
<event>
 8    1  0.6239251E-010  0.9118800E+02  0.7816164E-02  0.1184000E+00
        -11   -1    0    0    0    0  0.00000000000E+00  0.00000000000E+00  0.45593999997E+02  0.45594000000E+02  0.51100000000E-03 0.  1.
         11   -1    0    0    0    0 -0.00000000000E+00 -0.00000000000E+00 -0.45593999997E+02  0.45594000000E+02  0.51100000000E-03 0. -1.
         23    2    1    2    0    0  0.00000000000E+00  0.00000000000E+00  0.17763568394E-14  0.91188000000E+02  0.91188000000E+02 0.  0.
    9900012    2    3    3    0    0 -0.88645346853E+00 -0.42121114242E+02 -0.10423494817E+02  0.47787270640E+02  0.19999998156E+02 0.  0.
         12    1    3    3    0    0  0.88645346853E+00  0.42121114242E+02  0.10423494817E+02  0.43400729360E+02  0.00000000000E+00 0. -1.
         11    1    4    4    0    0 -0.39088871407E+01 -0.98526045964E+01  0.38191291781E+01  0.11266719307E+02  0.51100000000E-03 0. -1.
        -11    1    4    4    0    0  0.43452935128E+01 -0.82067846595E+01 -0.59811998340E+01  0.11045706943E+02  0.51100000000E-03 0.  1.
         12    1    4    4    0    0 -0.13228598406E+01 -0.24061724986E+02 -0.82614241615E+01  0.25474844389E+02  0.00000000000E+00 0. -1.
</event>
<event>
 8    1  0.6239251E-010  0.9118800E+02  0.7816164E-02  0.1184000E+00
        -11   -1    0    0    0    0  0.00000000000E+00  0.00000000000E+00  0.45593999997E+02  0.45594000000E+02  0.51100000000E-03 0. -1.
         11   -1    0    0    0    0 -0.00000000000E+00 -0.00000000000E+00 -0.45593999997E+02  0.45594000000E+02  0.51100000000E-03 0.  1.
         23    2    1    2    0    0  0.00000000000E+00 -0.88817841970E-15  0.00000000000E+00  0.91188000000E+02  0.91188000000E+02 0.  0.
    9900012    2    3    3    0    0 -0.18232700170E+02  0.26467430808E+01 -0.39296141213E+02  0.47787270529E+02  0.19999997649E+02 0.  0.
         12    1    3    3    0    0  0.18232700170E+02 -0.26467430808E+01  0.39296141213E+02  0.43400729471E+02  0.00000000000E+00 0. -1.
         11    1    4    4    0    0 -0.79571166427E+01  0.20487421607E+01 -0.35080179507E+01  0.89341613994E+01  0.51100000000E-03 0. -1.
        -11    1    4    4    0    0 -0.74533681941E+01 -0.48297014069E+01 -0.23599861211E+02  0.25215712612E+02  0.51100000000E-03 0.  1.
        -12    1    4    4    0    0 -0.28222153334E+01  0.54277023270E+01 -0.12188262051E+02  0.13637396517E+02  0.00000000000E+00 0.  1.
</event>
<event>
 8    1  0.6239251E-010  0.9118800E+02  0.7816164E-02  0.1184000E+00
        -11   -1    0    0    0    0  0.00000000000E+00  0.00000000000E+00  0.45593999997E+02  0.45594000000E+02  0.51100000000E-03 0. -1.
         11   -1    0    0    0    0 -0.00000000000E+00 -0.00000000000E+00 -0.45593999997E+02  0.45594000000E+02  0.51100000000E-03 0.  1.
         23    2    1    2    0    0  0.00000000000E+00 -0.35527136788E-14  0.00000000000E+00  0.91188000000E+02  0.91188000000E+02 0.  0.
    9900012    2    3    3    0    0  0.29732687949E+02  0.16053315145E+02  0.27237505479E+02  0.47787270000E+02  0.19999995238E+02 0.  0.
        -12    1    3    3    0    0 -0.29732687949E+02 -0.16053315145E+02 -0.27237505479E+02  0.43400730000E+02  0.00000000000E+00 0.  1.
         11    1    4    4    0    0  0.25350081008E+02  0.99333923458E+01  0.10876415960E+02  0.29318855964E+02  0.51100000000E-03 0. -1.
        -11    1    4    4    0    0  0.12319380746E+01  0.44696518858E+01  0.11844163926E+02  0.12719264081E+02  0.51100000000E-03 0.  1.
        -12    1    4    4    0    0  0.31506688662E+01  0.16502709134E+01  0.45169255931E+01  0.57491499551E+01  0.00000000000E+00 0.  1.
</event>
<event>
 8    1  0.6239251E-010  0.9118800E+02  0.7816164E-02  0.1184000E+00
        -11   -1    0    0    0    0  0.00000000000E+00  0.00000000000E+00  0.45593999997E+02  0.45594000000E+02  0.51100000000E-03 0. -1.
         11   -1    0    0    0    0 -0.00000000000E+00 -0.00000000000E+00 -0.45593999997E+02  0.45594000000E+02  0.51100000000E-03 0.  1.
         23    2    1    2    0    0  0.17763568394E-14  0.00000000000E+00  0.00000000000E+00  0.91188000000E+02  0.91188000000E+02 0.  0.
    9900012    2    3    3    0    0  0.12511793119E+02  0.18576697787E+02 -0.37175051484E+02  0.47787272811E+02  0.20000008054E+02 0.  0.
         12    1    3    3    0    0 -0.12511793119E+02 -0.18576697787E+02  0.37175051484E+02  0.43400727189E+02  0.00000000000E+00 0. -1.
         11    1    4    4    0    0  0.18713880790E+01  0.25934596882E+01 -0.43636919878E+00  0.32277770733E+01  0.51100000000E-03 0. -1.
        -11    1    4    4    0    0  0.14496958015E+02  0.13225316489E+02 -0.24211815194E+02  0.31165410043E+02  0.51100000000E-03 0.  1.
        -12    1    4    4    0    0 -0.38565529758E+01  0.27579216107E+01 -0.12526867091E+02  0.13394085694E+02  0.00000000000E+00 0.  1.
</event>
<event>
 8    1  0.6239251E-010  0.9118800E+02  0.7816164E-02  0.1184000E+00
        -11   -1    0    0    0    0  0.00000000000E+00  0.00000000000E+00  0.45593999997E+02  0.45594000000E+02  0.51100000000E-03 0. -1.
         11   -1    0    0    0    0 -0.00000000000E+00 -0.00000000000E+00 -0.45593999997E+02  0.45594000000E+02  0.51100000000E-03 0.  1.
         23    2    1    2    0    0  0.88817841970E-15 -0.35527136788E-14  0.71054273576E-14  0.91188000000E+02  0.91188000000E+02 0.  0.
    9900012    2    3    3    0    0  0.68023570773E+01 -0.21466179079E+02  0.37101946125E+02  0.47787270601E+02  0.19999997980E+02 0.  0.
        -12    1    3    3    0    0 -0.68023570773E+01  0.21466179079E+02 -0.37101946125E+02  0.43400729399E+02  0.00000000000E+00 0.  1.
         11    1    4    4    0    0  0.60034608804E+01 -0.16981436697E+02  0.32241070875E+02  0.36930981387E+02  0.51100000000E-03 0. -1.
        -11    1    4    4    0    0  0.29573232044E+01  0.42081003974E-01 -0.10189319417E+01  0.31282189676E+01  0.51100000000E-03 0.  1.
        -12    1    4    4    0    0 -0.21584270074E+01 -0.45268233859E+01  0.58798071924E+01  0.77280702464E+01  0.00000000000E+00 0.  1.
</event>
<event>
 8    1  0.6239251E-010  0.9118800E+02  0.7816164E-02  0.1184000E+00
        -11   -1    0    0    0    0  0.00000000000E+00  0.00000000000E+00  0.45593999997E+02  0.45594000000E+02  0.51100000000E-03 0. -1.
         11   -1    0    0    0    0 -0.00000000000E+00 -0.00000000000E+00 -0.45593999997E+02  0.45594000000E+02  0.51100000000E-03 0.  1.
         23    2    1    2    0    0  0.00000000000E+00  0.00000000000E+00  0.00000000000E+00  0.91188000000E+02  0.91188000000E+02 0.  0.
    9900012    2    3    3    0    0 -0.17894447993E+02 -0.33509602443E+02 -0.20988547877E+02  0.47787264213E+02  0.19999968851E+02 0.  0.
         12    1    3    3    0    0  0.17894447993E+02  0.33509602443E+02  0.20988547877E+02  0.43400735787E+02  0.00000000000E+00 0. -1.
         11    1    4    4    0    0 -0.15647928242E+01  0.19911724258E+01 -0.16512976025E+01  0.30232645013E+01  0.51100000000E-03 0. -1.
        -11    1    4    4    0    0 -0.11642743906E+02 -0.33021365665E+02 -0.17570540029E+02  0.39175093532E+02  0.51100000000E-03 0.  1.
        -12    1    4    4    0    0 -0.46869112634E+01 -0.24794092039E+01 -0.17667102453E+01  0.55889061794E+01  0.00000000000E+00 0.  1.
</event>
<event>
 8    1  0.6239251E-010  0.9118800E+02  0.7816164E-02  0.1184000E+00
        -11   -1    0    0    0    0  0.00000000000E+00  0.00000000000E+00  0.45593999997E+02  0.45594000000E+02  0.51100000000E-03 0. -1.
         11   -1    0    0    0    0 -0.00000000000E+00 -0.00000000000E+00 -0.45593999997E+02  0.45594000000E+02  0.51100000000E-03 0.  1.
         23    2    1    2    0    0 -0.35527136788E-14  0.00000000000E+00  0.00000000000E+00  0.91188000000E+02  0.91188000000E+02 0.  0.
    9900012    2    3    3    0    0 -0.27794587520E+02  0.10029267530E+01 -0.33317830994E+02  0.47787276278E+02  0.20000023861E+02 0.  0.
         12    1    3    3    0    0  0.27794587520E+02 -0.10029267530E+01  0.33317830994E+02  0.43400723722E+02  0.00000000000E+00 0. -1.
         11    1    4    4    0    0 -0.62266842807E+01 -0.48000358057E+01 -0.89940232340E+01  0.11945894486E+02  0.51100000000E-03 0. -1.
        -11    1    4    4    0    0 -0.17409259284E+02  0.36987160135E-01 -0.22596810752E+02  0.28525419073E+02  0.51100000000E-03 0.  1.
         12    1    4    4    0    0 -0.41586439550E+01  0.57659753985E+01 -0.17269970080E+01  0.73159627190E+01  0.00000000000E+00 0. -1.
</event>
<event>
 8    1  0.6239251E-010  0.9118800E+02  0.7816164E-02  0.1184000E+00
        -11   -1    0    0    0    0  0.00000000000E+00  0.00000000000E+00  0.45593999997E+02  0.45594000000E+02  0.51100000000E-03 0. -1.
         11   -1    0    0    0    0 -0.00000000000E+00 -0.00000000000E+00 -0.45593999997E+02  0.45594000000E+02  0.51100000000E-03 0.  1.
         23    2    1    2    0    0  0.00000000000E+00  0.71054273576E-14  0.35527136788E-14  0.91188000000E+02  0.91188000000E+02 0.  0.
    9900012    2    3    3    0    0 -0.63581210695E+00 -0.38417006413E+02 -0.20182977408E+02  0.47787271713E+02  0.20000003049E+02 0.  0.
         12    1    3    3    0    0  0.63581210695E+00  0.38417006413E+02  0.20182977408E+02  0.43400728287E+02  0.00000000000E+00 0. -1.
         11    1    4    4    0    0 -0.39001178598E+01 -0.83694364117E+00 -0.34632920167E+01  0.52825927188E+01  0.51100000000E-03 0. -1.
        -11    1    4    4    0    0 -0.61473377332E+00 -0.33284634504E+02 -0.14277288700E+02  0.36222724422E+02  0.51100000000E-03 0.  1.
        -12    1    4    4    0    0  0.38790395262E+01 -0.42954282684E+01 -0.24423966909E+01  0.62819545725E+01  0.00000000000E+00 0.  1.
</event>
<event>
 8    1  0.6239251E-010  0.9118800E+02  0.7816164E-02  0.1184000E+00
        -11   -1    0    0    0    0  0.00000000000E+00  0.00000000000E+00  0.45593999997E+02  0.45594000000E+02  0.51100000000E-03 0. -1.
         11   -1    0    0    0    0 -0.00000000000E+00 -0.00000000000E+00 -0.45593999997E+02  0.45594000000E+02  0.51100000000E-03 0.  1.
         23    2    1    2    0    0  0.00000000000E+00  0.00000000000E+00  0.00000000000E+00  0.91188000000E+02  0.91188000000E+02 0.  0.
    9900012    2    3    3    0    0  0.70628441832E+01  0.33795399461E+02  0.26298512652E+02  0.47787256223E+02  0.19999932422E+02 0.  0.
        -12    1    3    3    0    0 -0.70628441832E+01 -0.33795399461E+02 -0.26298512652E+02  0.43400743777E+02  0.00000000000E+00 0.  1.
         11    1    4    4    0    0  0.63500981462E+01  0.19896504675E+02  0.19041037060E+02  0.28262267024E+02  0.51100000000E-03 0. -1.
        -11    1    4    4    0    0  0.21169720978E+01  0.11679607308E+02  0.67189356658E-01  0.11870101617E+02  0.51100000000E-03 0.  1.
         12    1    4    4    0    0 -0.14042260609E+01  0.22192874784E+01  0.71902862351E+01  0.76548875815E+01  0.00000000000E+00 0. -1.
</event>
<event>
 8    1  0.6239251E-010  0.9118800E+02  0.7816164E-02  0.1184000E+00
        -11   -1    0    0    0    0  0.00000000000E+00  0.00000000000E+00  0.45593999997E+02  0.45594000000E+02  0.51100000000E-03 0. -1.
         11   -1    0    0    0    0 -0.00000000000E+00 -0.00000000000E+00 -0.45593999997E+02  0.45594000000E+02  0.51100000000E-03 0.  1.
         23    2    1    2    0    0  0.00000000000E+00  0.35527136788E-14  0.00000000000E+00  0.91188000000E+02  0.91188000000E+02 0.  0.
    9900012    2    3    3    0    0  0.37067371849E+02 -0.21191189498E+02  0.77824499305E+01  0.47787273105E+02  0.20000009395E+02 0.  0.
        -12    1    3    3    0    0 -0.37067371849E+02  0.21191189498E+02 -0.77824499305E+01  0.43400726895E+02  0.00000000000E+00 0.  1.
         11    1    4    4    0    0  0.22199700258E+01 -0.31319401609E+01  0.48020215133E-03  0.38389212780E+01  0.51100000000E-03 0. -1.
        -11    1    4    4    0    0 -0.18357722641E+01  0.80389998967E+00  0.30153582697E+00  0.20266324569E+01  0.51100000000E-03 0.  1.
        -12    1    4    4    0    0  0.36683174087E+02 -0.18863149326E+02  0.74804339014E+01  0.41921719370E+02  0.00000000000E+00 0.  1.
</event>
<event>
 8    1  0.6239251E-010  0.9118800E+02  0.7816164E-02  0.1184000E+00
        -11   -1    0    0    0    0  0.00000000000E+00  0.00000000000E+00  0.45593999997E+02  0.45594000000E+02  0.51100000000E-03 0. -1.
         11   -1    0    0    0    0 -0.00000000000E+00 -0.00000000000E+00 -0.45593999997E+02  0.45594000000E+02  0.51100000000E-03 0.  1.
         23    2    1    2    0    0 -0.17763568394E-14  0.00000000000E+00 -0.71054273576E-14  0.91188000000E+02  0.91188000000E+02 0.  0.
    9900012    2    3    3    0    0 -0.86221333801E+01 -0.99029059465E+01  0.41366829673E+02  0.47787270427E+02  0.19999997186E+02 0.  0.
        -12    1    3    3    0    0  0.86221333801E+01  0.99029059465E+01 -0.41366829673E+02  0.43400729573E+02  0.00000000000E+00 0.  1.
         11    1    4    4    0    0  0.33964183940E+01 -0.36223469648E+01  0.32818498959E+01  0.59521084030E+01  0.51100000000E-03 0. -1.
        -11    1    4    4    0    0 -0.46548732365E+00 -0.10188350449E+01 -0.49173424452E+00  0.12233176716E+01  0.51100000000E-03 0.  1.
         12    1    4    4    0    0 -0.11553064450E+02 -0.52617239367E+01  0.38576714022E+02  0.40611844353E+02  0.00000000000E+00 0. -1.
</event>
<event>
 8    1  0.6239251E-010  0.9118800E+02  0.7816164E-02  0.1184000E+00
        -11   -1    0    0    0    0  0.00000000000E+00  0.00000000000E+00  0.45593999997E+02  0.45594000000E+02  0.51100000000E-03 0. -1.
         11   -1    0    0    0    0 -0.00000000000E+00 -0.00000000000E+00 -0.45593999997E+02  0.45594000000E+02  0.51100000000E-03 0.  1.
         23    2    1    2    0    0 -0.35527136788E-14 -0.17763568394E-14 -0.35527136788E-14  0.91188000000E+02  0.91188000000E+02 0.  0.
    9900012    2    3    3    0    0 -0.30976337716E+02 -0.10335463928E+02 -0.28587858958E+02  0.47787297325E+02  0.20000119821E+02 0.  0.
         12    1    3    3    0    0  0.30976337716E+02  0.10335463928E+02  0.28587858958E+02  0.43400702675E+02  0.00000000000E+00 0. -1.
         11    1    4    4    0    0 -0.63021161671E+01  0.35502822054E+01 -0.95455702739E+01  0.11976605698E+02  0.51100000000E-03 0. -1.
        -11    1    4    4    0    0 -0.22767935268E+02 -0.90251313534E+01 -0.18219701172E+02  0.30525225361E+02  0.51100000000E-03 0.  1.
        -12    1    4    4    0    0 -0.19062862815E+01 -0.48606147805E+01 -0.82258751213E+00  0.52854662658E+01  0.00000000000E+00 0.  1.
</event>
<event>
 8    1  0.6239251E-010  0.9118800E+02  0.7816164E-02  0.1184000E+00
        -11   -1    0    0    0    0  0.00000000000E+00  0.00000000000E+00  0.45593999997E+02  0.45594000000E+02  0.51100000000E-03 0. -1.
         11   -1    0    0    0    0 -0.00000000000E+00 -0.00000000000E+00 -0.45593999997E+02  0.45594000000E+02  0.51100000000E-03 0.  1.
         23    2    1    2    0    0  0.77715611724E-15 -0.17763568394E-14  0.71054273576E-14  0.91188000000E+02  0.91188000000E+02 0.  0.
    9900012    2    3    3    0    0  0.92717179090E+00  0.15582654127E+02 -0.40496228513E+02  0.47787270963E+02  0.19999999627E+02 0.  0.
         12    1    3    3    0    0 -0.92717179090E+00 -0.15582654127E+02  0.40496228513E+02  0.43400729037E+02  0.00000000000E+00 0. -1.
         11    1    4    4    0    0 -0.34506840742E+01 -0.49800102468E+00 -0.15173078432E+02  0.15568478891E+02  0.51100000000E-03 0. -1.
        -11    1    4    4    0    0  0.50729682336E+01  0.12619484449E+02 -0.11074770085E+02  0.17539581727E+02  0.51100000000E-03 0.  1.
        -12    1    4    4    0    0 -0.69511236845E+00  0.34611707027E+01 -0.14248379996E+02  0.14679210344E+02  0.00000000000E+00 0.  1.
</event>
<event>
 8    1  0.6239251E-010  0.9118800E+02  0.7816164E-02  0.1184000E+00
        -11   -1    0    0    0    0  0.00000000000E+00  0.00000000000E+00  0.45593999997E+02  0.45594000000E+02  0.51100000000E-03 0. -1.
         11   -1    0    0    0    0 -0.00000000000E+00 -0.00000000000E+00 -0.45593999997E+02  0.45594000000E+02  0.51100000000E-03 0.  1.
         23    2    1    2    0    0  0.35527136788E-14  0.22204460493E-15  0.00000000000E+00  0.91188000000E+02  0.91188000000E+02 0.  0.
    9900012    2    3    3    0    0 -0.27068565061E+02 -0.17187539728E+01 -0.33881584570E+02  0.47787273017E+02  0.20000008992E+02 0.  0.
         12    1    3    3    0    0  0.27068565061E+02  0.17187539728E+01  0.33881584570E+02  0.43400726983E+02  0.00000000000E+00 0. -1.
         11    1    4    4    0    0 -0.46680419570E+01  0.58761069648E+01 -0.46868659329E+01  0.88479354263E+01  0.51100000000E-03 0.  1.
        -11    1    4    4    0    0 -0.17977837874E+02 -0.23645106389E+01 -0.25081771849E+02  0.30949779393E+02  0.51100000000E-03 0. -1.
         12    1    4    4    0    0 -0.44226852307E+01 -0.52303502987E+01 -0.41129467886E+01  0.79895581970E+01  0.00000000000E+00 0. -1.
</event>
<event>
 8    1  0.6239251E-010  0.9118800E+02  0.7816164E-02  0.1184000E+00
        -11   -1    0    0    0    0  0.00000000000E+00  0.00000000000E+00  0.45593999997E+02  0.45594000000E+02  0.51100000000E-03 0. -1.
         11   -1    0    0    0    0 -0.00000000000E+00 -0.00000000000E+00 -0.45593999997E+02  0.45594000000E+02  0.51100000000E-03 0.  1.
         23    2    1    2    0    0  0.00000000000E+00  0.00000000000E+00  0.00000000000E+00  0.91188000000E+02  0.91188000000E+02 0.  0.
    9900012    2    3    3    0    0 -0.29833081840E+02  0.30849454084E+02  0.64746378243E+01  0.47787279680E+02  0.20000039372E+02 0.  0.
        -12    1    3    3    0    0  0.29833081840E+02 -0.30849454084E+02 -0.64746378243E+01  0.43400720320E+02  0.00000000000E+00 0.  1.
         11    1    4    4    0    0 -0.35348522261E+01  0.11978407044E+02  0.68416361278E+01  0.14240273900E+02  0.51100000000E-03 0. -1.
        -11    1    4    4    0    0 -0.72632080807E+01  0.11438615008E+01  0.13641858825E+01  0.74782092870E+01  0.51100000000E-03 0.  1.
         12    1    4    4    0    0 -0.19035021533E+02  0.17727185539E+02 -0.17311841860E+01  0.26068796493E+02  0.00000000000E+00 0. -1.
</event>
<event>
 8    1  0.6239251E-010  0.9118800E+02  0.7816164E-02  0.1184000E+00
        -11   -1    0    0    0    0  0.00000000000E+00  0.00000000000E+00  0.45593999997E+02  0.45594000000E+02  0.51100000000E-03 0. -1.
         11   -1    0    0    0    0 -0.00000000000E+00 -0.00000000000E+00 -0.45593999997E+02  0.45594000000E+02  0.51100000000E-03 0.  1.
         23    2    1    2    0    0  0.00000000000E+00  0.00000000000E+00 -0.35527136788E-14  0.91188000000E+02  0.91188000000E+02 0.  0.
    9900012    2    3    3    0    0 -0.17689270697E+02 -0.28394838917E+02  0.27648614262E+02  0.47787273675E+02  0.20000011995E+02 0.  0.
        -12    1    3    3    0    0  0.17689270697E+02  0.28394838917E+02 -0.27648614262E+02  0.43400726325E+02  0.00000000000E+00 0.  1.
         11    1    4    4    0    0 -0.10267444010E+02 -0.20264441114E+02  0.27146144315E+02  0.35397473520E+02  0.51100000000E-03 0. -1.
        -11    1    4    4    0    0 -0.82974816617E+01 -0.75031898126E+01 -0.33031899305E-01  0.11186918729E+02  0.51100000000E-03 0.  1.
         12    1    4    4    0    0  0.87565497466E+00 -0.62720799048E+00  0.53550184592E+00  0.12028814260E+01  0.00000000000E+00 0. -1.
</event>
<event>
 8    1  0.8906724E-010  0.9118800E+02  0.7816164E-02  0.1184000E+00
        -11   -1    0    0    0    0  0.00000000000E+00  0.00000000000E+00  0.45593999997E+02  0.45594000000E+02  0.51100000000E-03 0. -1.
         11   -1    0    0    0    0 -0.00000000000E+00 -0.00000000000E+00 -0.45593999997E+02  0.45594000000E+02  0.51100000000E-03 0.  1.
         23    2    1    2    0    0 -0.17763568394E-14 -0.71054273576E-14  0.00000000000E+00  0.91188000000E+02  0.91188000000E+02 0.  0.
    9900012    2    3    3    0    0 -0.49385925444E+01 -0.38227362735E+02  0.19947408276E+02  0.47787308129E+02  0.20000169082E+02 0.  0.
        -12    1    3    3    0    0  0.49385925444E+01  0.38227362735E+02 -0.19947408276E+02  0.43400691871E+02  0.00000000000E+00 0.  1.
         11    1    4    4    0    0  0.21764637182E+01 -0.19801725086E+02  0.15499368514E+02  0.25240359255E+02  0.51100000000E-03 0. -1.
        -11    1    4    4    0    0 -0.84424081202E+01 -0.17541182804E+02  0.59499799298E+01  0.20356070604E+02  0.51100000000E-03 0.  1.
        -12    1    4    4    0    0  0.13273518576E+01 -0.88445484420E+00 -0.15019401676E+01  0.21908782696E+01  0.00000000000E+00 0.  1.
</event>
<event>
 8    1  0.6239251E-010  0.9118800E+02  0.7816164E-02  0.1184000E+00
        -11   -1    0    0    0    0  0.00000000000E+00  0.00000000000E+00  0.45593999997E+02  0.45594000000E+02  0.51100000000E-03 0. -1.
         11   -1    0    0    0    0 -0.00000000000E+00 -0.00000000000E+00 -0.45593999997E+02  0.45594000000E+02  0.51100000000E-03 0.  1.
         23    2    1    2    0    0 -0.35527136788E-14 -0.17763568394E-14  0.00000000000E+00  0.91188000000E+02  0.91188000000E+02 0.  0.
    9900012    2    3    3    0    0  0.26145004021E+02  0.10117715132E+02 -0.33131466151E+02  0.47787269084E+02  0.19999991060E+02 0.  0.
         12    1    3    3    0    0 -0.26145004021E+02 -0.10117715132E+02  0.33131466151E+02  0.43400730916E+02  0.00000000000E+00 0. -1.
         11    1    4    4    0    0  0.64570479636E+01 -0.57141620308E+01 -0.69572821012E+01  0.11079209837E+02  0.51100000000E-03 0. -1.
        -11    1    4    4    0    0  0.16783003278E+02  0.10995029813E+02 -0.21157127861E+02  0.29157913835E+02  0.51100000000E-03 0.  1.
         12    1    4    4    0    0  0.29049527799E+01  0.48368473492E+01 -0.50170561889E+01  0.75501454115E+01  0.00000000000E+00 0. -1.
</event>
<event>
 8    1  0.6239251E-010  0.9118800E+02  0.7816164E-02  0.1184000E+00
        -11   -1    0    0    0    0  0.00000000000E+00  0.00000000000E+00  0.45593999997E+02  0.45594000000E+02  0.51100000000E-03 0. -1.
         11   -1    0    0    0    0 -0.00000000000E+00 -0.00000000000E+00 -0.45593999997E+02  0.45594000000E+02  0.51100000000E-03 0.  1.
         23    2    1    2    0    0  0.00000000000E+00  0.00000000000E+00  0.35527136788E-14  0.91188000000E+02  0.91188000000E+02 0.  0.
    9900012    2    3    3    0    0 -0.29334212671E+02  0.17518774723E+02  0.26762283467E+02  0.47787270546E+02  0.19999997725E+02 0.  0.
        -12    1    3    3    0    0  0.29334212671E+02 -0.17518774723E+02 -0.26762283467E+02  0.43400729454E+02  0.00000000000E+00 0.  1.
         11    1    4    4    0    0 -0.10572813478E+02  0.10073836631E+01  0.13488171244E+02  0.17167701373E+02  0.51100000000E-03 0.  1.
        -11    1    4    4    0    0 -0.12231225471E+02  0.16099676067E+02  0.13065688360E+02  0.24073110696E+02  0.51100000000E-03 0. -1.
         12    1    4    4    0    0 -0.65301737224E+01  0.41171499300E+00  0.20842386313E+00  0.65464584767E+01  0.00000000000E+00 0. -1.
</event>
<event>
 8    1  0.6239251E-010  0.9118800E+02  0.7816164E-02  0.1184000E+00
        -11   -1    0    0    0    0  0.00000000000E+00  0.00000000000E+00  0.45593999997E+02  0.45594000000E+02  0.51100000000E-03 0. -1.
         11   -1    0    0    0    0 -0.00000000000E+00 -0.00000000000E+00 -0.45593999997E+02  0.45594000000E+02  0.51100000000E-03 0.  1.
         23    2    1    2    0    0  0.17763568394E-14 -0.17763568394E-14  0.00000000000E+00  0.91188000000E+02  0.91188000000E+02 0.  0.
    9900012    2    3    3    0    0  0.46791037804E+01 -0.10229628487E+02  0.41917594441E+02  0.47787262277E+02  0.19999960026E+02 0.  0.
        -12    1    3    3    0    0 -0.46791037804E+01  0.10229628487E+02 -0.41917594441E+02  0.43400737723E+02  0.00000000000E+00 0.  1.
         11    1    4    4    0    0  0.85878191085E+00 -0.14088472698E+01  0.27309156756E+01  0.31906516087E+01  0.51100000000E-03 0. -1.
        -11    1    4    4    0    0 -0.50754308906E+01 -0.10311575523E+02  0.15857013063E+02  0.19584010111E+02  0.51100000000E-03 0.  1.
        -12    1    4    4    0    0  0.88957527601E+01  0.14907943059E+01  0.23329665703E+02  0.25012600557E+02  0.00000000000E+00 0.  1.
</event>
<event>
 8    1  0.6239251E-010  0.9118800E+02  0.7816164E-02  0.1184000E+00
        -11   -1    0    0    0    0  0.00000000000E+00  0.00000000000E+00  0.45593999997E+02  0.45594000000E+02  0.51100000000E-03 0.  1.
         11   -1    0    0    0    0 -0.00000000000E+00 -0.00000000000E+00 -0.45593999997E+02  0.45594000000E+02  0.51100000000E-03 0. -1.
         23    2    1    2    0    0  0.00000000000E+00  0.35527136788E-14  0.00000000000E+00  0.91188000000E+02  0.91188000000E+02 0.  0.
    9900012    2    3    3    0    0 -0.28273488618E+02 -0.27940032789E+02 -0.17423709231E+02  0.47787294542E+02  0.20000107135E+02 0.  0.
         12    1    3    3    0    0  0.28273488618E+02  0.27940032789E+02  0.17423709231E+02  0.43400705458E+02  0.00000000000E+00 0. -1.
         11    1    4    4    0    0 -0.19723124566E+02 -0.92354873547E+01 -0.12523256537E+02  0.25122257539E+02  0.51100000000E-03 0. -1.
        -11    1    4    4    0    0 -0.15499924156E+01 -0.12441251774E+02 -0.42932258230E+01  0.13252132297E+02  0.51100000000E-03 0.  1.
         12    1    4    4    0    0 -0.70003716368E+01 -0.62632936605E+01 -0.60722687090E+00  0.94129047060E+01  0.00000000000E+00 0. -1.
</event>
<event>
 8    1  0.6239251E-010  0.9118800E+02  0.7816164E-02  0.1184000E+00
        -11   -1    0    0    0    0  0.00000000000E+00  0.00000000000E+00  0.45593999997E+02  0.45594000000E+02  0.51100000000E-03 0. -1.
         11   -1    0    0    0    0 -0.00000000000E+00 -0.00000000000E+00 -0.45593999997E+02  0.45594000000E+02  0.51100000000E-03 0.  1.
         23    2    1    2    0    0  0.00000000000E+00  0.00000000000E+00  0.00000000000E+00  0.91188000000E+02  0.91188000000E+02 0.  0.
    9900012    2    3    3    0    0 -0.36084197523E+02 -0.18200889270E+02 -0.15820273461E+02  0.47787277271E+02  0.20000028387E+02 0.  0.
         12    1    3    3    0    0  0.36084197523E+02  0.18200889270E+02  0.15820273461E+02  0.43400722729E+02  0.00000000000E+00 0. -1.
         11    1    4    4    0    0 -0.72728006864E+01  0.28050664464E+01  0.34246373008E-01  0.77950754113E+01  0.51100000000E-03 0. -1.
        -11    1    4    4    0    0 -0.18324032429E+02 -0.16780549102E+02 -0.75663457202E+01  0.25973189647E+02  0.51100000000E-03 0.  1.
        -12    1    4    4    0    0 -0.10487364407E+02 -0.42254066142E+01 -0.82881741140E+01  0.14019012212E+02  0.00000000000E+00 0.  1.
</event>
<event>
 8    1  0.6239251E-010  0.9118800E+02  0.7816164E-02  0.1184000E+00
        -11   -1    0    0    0    0  0.00000000000E+00  0.00000000000E+00  0.45593999997E+02  0.45594000000E+02  0.51100000000E-03 0. -1.
         11   -1    0    0    0    0 -0.00000000000E+00 -0.00000000000E+00 -0.45593999997E+02  0.45594000000E+02  0.51100000000E-03 0.  1.
         23    2    1    2    0    0  0.35527136788E-14 -0.35527136788E-14  0.35527136788E-14  0.91188000000E+02  0.91188000000E+02 0.  0.
    9900012    2    3    3    0    0  0.27283520893E+02 -0.27060840469E+02  0.20172862327E+02  0.47787262983E+02  0.19999963243E+02 0.  0.
        -12    1    3    3    0    0 -0.27283520893E+02  0.27060840469E+02 -0.20172862327E+02  0.43400737017E+02  0.00000000000E+00 0.  1.
         11    1    4    4    0    0  0.21017552487E+02 -0.10734517595E+02  0.13229382589E+02  0.27055201801E+02  0.51100000000E-03 0.  1.
        -11    1    4    4    0    0  0.58075272074E+01 -0.46981289489E+01  0.63998117762E+00  0.74972904475E+01  0.51100000000E-03 0. -1.
         12    1    4    4    0    0  0.45844119847E+00 -0.11628193925E+02  0.63034985600E+01  0.13234770734E+02  0.00000000000E+00 0. -1.
</event>
<event>
 8    1  0.6239251E-010  0.9118800E+02  0.7816164E-02  0.1184000E+00
        -11   -1    0    0    0    0  0.00000000000E+00  0.00000000000E+00  0.45593999997E+02  0.45594000000E+02  0.51100000000E-03 0. -1.
         11   -1    0    0    0    0 -0.00000000000E+00 -0.00000000000E+00 -0.45593999997E+02  0.45594000000E+02  0.51100000000E-03 0.  1.
         23    2    1    2    0    0  0.66613381478E-15  0.00000000000E+00  0.17763568394E-14  0.91188000000E+02  0.91188000000E+02 0.  0.
    9900012    2    3    3    0    0 -0.18610073951E+01 -0.41289906402E+02 -0.13240233800E+02  0.47787268321E+02  0.19999987584E+02 0.  0.
         12    1    3    3    0    0  0.18610073951E+01  0.41289906402E+02  0.13240233800E+02  0.43400731679E+02  0.00000000000E+00 0. -1.
         11    1    4    4    0    0 -0.19886794075E+01 -0.17826842763E+02  0.13622884551E+01  0.17989079987E+02  0.51100000000E-03 0.  1.
        -11    1    4    4    0    0  0.46825177577E+01 -0.15958587162E+02 -0.12406550285E+02  0.20749095570E+02  0.51100000000E-03 0. -1.
         12    1    4    4    0    0 -0.45548457453E+01 -0.75044764767E+01 -0.21959719697E+01  0.90490927636E+01  0.00000000000E+00 0. -1.
</event>
<event>
 8    1  0.6239251E-010  0.9118800E+02  0.7816164E-02  0.1184000E+00
        -11   -1    0    0    0    0  0.00000000000E+00  0.00000000000E+00  0.45593999997E+02  0.45594000000E+02  0.51100000000E-03 0. -1.
         11   -1    0    0    0    0 -0.00000000000E+00 -0.00000000000E+00 -0.45593999997E+02  0.45594000000E+02  0.51100000000E-03 0.  1.
         23    2    1    2    0    0  0.00000000000E+00  0.00000000000E+00  0.00000000000E+00  0.91188000000E+02  0.91188000000E+02 0.  0.
    9900012    2    3    3    0    0  0.33786448316E+02  0.20284575544E+02 -0.18183372269E+02  0.47787272795E+02  0.20000007983E+02 0.  0.
         12    1    3    3    0    0 -0.33786448316E+02 -0.20284575544E+02  0.18183372269E+02  0.43400727205E+02  0.00000000000E+00 0. -1.
         11    1    4    4    0    0  0.32096937644E+02  0.13967284218E+02 -0.18336422182E+02  0.39516108276E+02  0.51100000000E-03 0. -1.
        -11    1    4    4    0    0  0.27780505810E+01  0.27017754448E+01 -0.14920592164E+01  0.41525168935E+01  0.51100000000E-03 0.  1.
         12    1    4    4    0    0 -0.10885399088E+01  0.36155158813E+01  0.16451091295E+01  0.41186476262E+01  0.00000000000E+00 0. -1.
</event>
<event>
 8    1  0.6239251E-010  0.9118800E+02  0.7816164E-02  0.1184000E+00
        -11   -1    0    0    0    0  0.00000000000E+00  0.00000000000E+00  0.45593999997E+02  0.45594000000E+02  0.51100000000E-03 0. -1.
         11   -1    0    0    0    0 -0.00000000000E+00 -0.00000000000E+00 -0.45593999997E+02  0.45594000000E+02  0.51100000000E-03 0.  1.
         23    2    1    2    0    0  0.00000000000E+00 -0.35527136788E-14  0.00000000000E+00  0.91188000000E+02  0.91188000000E+02 0.  0.
    9900012    2    3    3    0    0  0.19725773059E+02 -0.26827152610E+02 -0.27835605180E+02  0.47787272407E+02  0.20000006212E+02 0.  0.
         12    1    3    3    0    0 -0.19725773059E+02  0.26827152610E+02  0.27835605180E+02  0.43400727593E+02  0.00000000000E+00 0. -1.
         11    1    4    4    0    0  0.25151706561E+01 -0.58015954735E+01 -0.10544081709E+02  0.12294805928E+02  0.51100000000E-03 0. -1.
        -11    1    4    4    0    0  0.19612728312E+02 -0.19503645372E+02 -0.17345310691E+02  0.32648293950E+02  0.51100000000E-03 0.  1.
        -12    1    4    4    0    0 -0.24021259098E+01 -0.15219117647E+01  0.53787220468E-01  0.28441725284E+01  0.00000000000E+00 0.  1.
</event>
<event>
 8    1  0.6239251E-010  0.9118800E+02  0.7816164E-02  0.1184000E+00
        -11   -1    0    0    0    0  0.00000000000E+00  0.00000000000E+00  0.45593999997E+02  0.45594000000E+02  0.51100000000E-03 0. -1.
         11   -1    0    0    0    0 -0.00000000000E+00 -0.00000000000E+00 -0.45593999997E+02  0.45594000000E+02  0.51100000000E-03 0.  1.
         23    2    1    2    0    0 -0.17763568394E-14  0.00000000000E+00 -0.17763568394E-14  0.91188000000E+02  0.91188000000E+02 0.  0.
    9900012    2    3    3    0    0 -0.10119419552E+02  0.39432558398E+02  0.15043076296E+02  0.47787268919E+02  0.19999990311E+02 0.  0.
        -12    1    3    3    0    0  0.10119419552E+02 -0.39432558398E+02 -0.15043076296E+02  0.43400731081E+02  0.00000000000E+00 0.  1.
         11    1    4    4    0    0 -0.45997660093E+01  0.32529771427E+02  0.16482568755E+02  0.36756209672E+02  0.51100000000E-03 0. -1.
        -11    1    4    4    0    0 -0.43133444897E+01  0.48008295391E+00 -0.11494647256E+01  0.44896202229E+01  0.51100000000E-03 0.  1.
         12    1    4    4    0    0 -0.12063090530E+01  0.64227040174E+01 -0.29002773329E+00  0.65414390246E+01  0.00000000000E+00 0. -1.
</event>
<event>
 8    1  0.6239251E-010  0.9118800E+02  0.7816164E-02  0.1184000E+00
        -11   -1    0    0    0    0  0.00000000000E+00  0.00000000000E+00  0.45593999997E+02  0.45594000000E+02  0.51100000000E-03 0. -1.
         11   -1    0    0    0    0 -0.00000000000E+00 -0.00000000000E+00 -0.45593999997E+02  0.45594000000E+02  0.51100000000E-03 0.  1.
         23    2    1    2    0    0 -0.35527136788E-14  0.00000000000E+00  0.00000000000E+00  0.91188000000E+02  0.91188000000E+02 0.  0.
    9900012    2    3    3    0    0 -0.25216737246E+02  0.11481674655E+02 -0.33405245407E+02  0.47787272922E+02  0.20000008560E+02 0.  0.
         12    1    3    3    0    0  0.25216737246E+02 -0.11481674655E+02  0.33405245407E+02  0.43400727078E+02  0.00000000000E+00 0. -1.
         11    1    4    4    0    0 -0.50950223151E+01 -0.22350921474E+01 -0.64778695209E+01  0.85391851537E+01  0.51100000000E-03 0.  1.
        -11    1    4    4    0    0  0.32280118264E+00  0.59176185438E+01 -0.98326956051E+01  0.11480605949E+02  0.51100000000E-03 0. -1.
        -12    1    4    4    0    0 -0.20444516114E+02  0.77991482582E+01 -0.17094680281E+02  0.27767481819E+02  0.00000000000E+00 0.  1.
</event>
<event>
 8    1  0.6239251E-010  0.9118800E+02  0.7816164E-02  0.1184000E+00
        -11   -1    0    0    0    0  0.00000000000E+00  0.00000000000E+00  0.45593999997E+02  0.45594000000E+02  0.51100000000E-03 0. -1.
         11   -1    0    0    0    0 -0.00000000000E+00 -0.00000000000E+00 -0.45593999997E+02  0.45594000000E+02  0.51100000000E-03 0.  1.
         23    2    1    2    0    0  0.35527136788E-14  0.44408920985E-15  0.00000000000E+00  0.91188000000E+02  0.91188000000E+02 0.  0.
    9900012    2    3    3    0    0  0.19318982316E+02  0.33762677482E+01 -0.38716932531E+02  0.47787272745E+02  0.20000007755E+02 0.  0.
         12    1    3    3    0    0 -0.19318982316E+02 -0.33762677482E+01  0.38716932531E+02  0.43400727255E+02  0.00000000000E+00 0. -1.
         11    1    4    4    0    0 -0.78185928560E+00  0.11130948718E+01 -0.17290565736E+02  0.17343988811E+02  0.51100000000E-03 0. -1.
        -11    1    4    4    0    0  0.14900381835E+02 -0.63395807160E+00 -0.18635657556E+02  0.23868619870E+02  0.51100000000E-03 0.  1.
         12    1    4    4    0    0  0.52004597664E+01  0.28971309480E+01 -0.27907092387E+01  0.65746640649E+01  0.00000000000E+00 0. -1.
</event>
<event>
 8    1  0.6239251E-010  0.9118800E+02  0.7816164E-02  0.1184000E+00
        -11   -1    0    0    0    0  0.00000000000E+00  0.00000000000E+00  0.45593999997E+02  0.45594000000E+02  0.51100000000E-03 0. -1.
         11   -1    0    0    0    0 -0.00000000000E+00 -0.00000000000E+00 -0.45593999997E+02  0.45594000000E+02  0.51100000000E-03 0.  1.
         23    2    1    2    0    0 -0.35527136788E-14  0.00000000000E+00  0.00000000000E+00  0.91188000000E+02  0.91188000000E+02 0.  0.
    9900012    2    3    3    0    0 -0.24074412330E+02  0.25577862393E+02  0.25491547608E+02  0.47787269902E+02  0.19999994792E+02 0.  0.
        -12    1    3    3    0    0  0.24074412330E+02 -0.25577862393E+02 -0.25491547608E+02  0.43400730098E+02  0.00000000000E+00 0.  1.
         11    1    4    4    0    0 -0.19943858155E+01 -0.17914788119E+00  0.42360206579E+01  0.46854604918E+01  0.51100000000E-03 0. -1.
        -11    1    4    4    0    0  0.18784015360E+01  0.61711890454E+01  0.48959477691E+01  0.80982881761E+01  0.51100000000E-03 0.  1.
        -12    1    4    4    0    0 -0.23958428050E+02  0.19585821228E+02  0.16359579180E+02  0.35003521234E+02  0.00000000000E+00 0.  1.
</event>
<event>
 8    1  0.6239251E-010  0.9118800E+02  0.7816164E-02  0.1184000E+00
        -11   -1    0    0    0    0  0.00000000000E+00  0.00000000000E+00  0.45593999997E+02  0.45594000000E+02  0.51100000000E-03 0. -1.
         11   -1    0    0    0    0 -0.00000000000E+00 -0.00000000000E+00 -0.45593999997E+02  0.45594000000E+02  0.51100000000E-03 0.  1.
         23    2    1    2    0    0  0.00000000000E+00  0.00000000000E+00  0.00000000000E+00  0.91188000000E+02  0.91188000000E+02 0.  0.
    9900012    2    3    3    0    0  0.24602183897E+02  0.73172569047E+01  0.34997326158E+02  0.47787279507E+02  0.20000038585E+02 0.  0.
        -12    1    3    3    0    0 -0.24602183897E+02 -0.73172569047E+01 -0.34997326158E+02  0.43400720493E+02  0.00000000000E+00 0.  1.
         11    1    4    4    0    0  0.19949638737E+02 -0.26677383632E+01  0.18238166527E+02  0.27161289223E+02  0.51100000000E-03 0. -1.
        -11    1    4    4    0    0  0.18649285427E+01  0.56337401505E+01  0.49217280552E+01  0.77097596502E+01  0.51100000000E-03 0.  1.
         12    1    4    4    0    0  0.27876166173E+01  0.43512551174E+01  0.11837431575E+02  0.12916230634E+02  0.00000000000E+00 0. -1.
</event>
<event>
 8    1  0.6239251E-010  0.9118800E+02  0.7816164E-02  0.1184000E+00
        -11   -1    0    0    0    0  0.00000000000E+00  0.00000000000E+00  0.45593999997E+02  0.45594000000E+02  0.51100000000E-03 0. -1.
         11   -1    0    0    0    0 -0.00000000000E+00 -0.00000000000E+00 -0.45593999997E+02  0.45594000000E+02  0.51100000000E-03 0.  1.
         23    2    1    2    0    0  0.00000000000E+00  0.00000000000E+00  0.00000000000E+00  0.91188000000E+02  0.91188000000E+02 0.  0.
    9900012    2    3    3    0    0 -0.88114883522E+01  0.19559422697E+02  0.37728106199E+02  0.47787270276E+02  0.19999996495E+02 0.  0.
        -12    1    3    3    0    0  0.88114883522E+01 -0.19559422697E+02 -0.37728106199E+02  0.43400729724E+02  0.00000000000E+00 0.  1.
         11    1    4    4    0    0 -0.28338759548E+00  0.76744218589E+00  0.35515214515E+01  0.36445275303E+01  0.51100000000E-03 0. -1.
        -11    1    4    4    0    0 -0.12729043398E+02  0.19247213777E+02  0.24895982825E+02  0.33945452495E+02  0.51100000000E-03 0.  1.
        -12    1    4    4    0    0  0.42009426411E+01 -0.45523326597E+00  0.92806019233E+01  0.10197290251E+02  0.00000000000E+00 0.  1.
</event>
<event>
 8    1  0.6239251E-010  0.9118800E+02  0.7816164E-02  0.1184000E+00
        -11   -1    0    0    0    0  0.00000000000E+00  0.00000000000E+00  0.45593999997E+02  0.45594000000E+02  0.51100000000E-03 0.  1.
         11   -1    0    0    0    0 -0.00000000000E+00 -0.00000000000E+00 -0.45593999997E+02  0.45594000000E+02  0.51100000000E-03 0. -1.
         23    2    1    2    0    0  0.00000000000E+00  0.00000000000E+00 -0.35527136788E-14  0.91188000000E+02  0.91188000000E+02 0.  0.
    9900012    2    3    3    0    0  0.19299843293E+02 -0.30868752332E+02  0.23627515609E+02  0.47787270565E+02  0.19999997813E+02 0.  0.
        -12    1    3    3    0    0 -0.19299843293E+02  0.30868752332E+02 -0.23627515609E+02  0.43400729435E+02  0.00000000000E+00 0.  1.
         11    1    4    4    0    0  0.15643982203E+02 -0.22617701712E+02  0.20869101629E+02  0.34522659413E+02  0.51100000000E-03 0. -1.
        -11    1    4    4    0    0  0.19389428390E+01 -0.60973993158E+01  0.61641673344E+01  0.88845223246E+01  0.51100000000E-03 0.  1.
         12    1    4    4    0    0  0.17169182507E+01 -0.21536513040E+01 -0.34057533543E+01  0.43800888266E+01  0.00000000000E+00 0. -1.
</event>
<event>
 8    1  0.6239251E-010  0.9118800E+02  0.7816164E-02  0.1184000E+00
        -11   -1    0    0    0    0  0.00000000000E+00  0.00000000000E+00  0.45593999997E+02  0.45594000000E+02  0.51100000000E-03 0. -1.
         11   -1    0    0    0    0 -0.00000000000E+00 -0.00000000000E+00 -0.45593999997E+02  0.45594000000E+02  0.51100000000E-03 0.  1.
         23    2    1    2    0    0  0.00000000000E+00  0.17763568394E-14  0.00000000000E+00  0.91188000000E+02  0.91188000000E+02 0.  0.
    9900012    2    3    3    0    0 -0.53676353733E+01 -0.10938627957E+02 -0.41655228223E+02  0.47787272708E+02  0.20000007587E+02 0.  0.
         12    1    3    3    0    0  0.53676353733E+01  0.10938627957E+02  0.41655228223E+02  0.43400727292E+02  0.00000000000E+00 0. -1.
         11    1    4    4    0    0 -0.87957727767E+01 -0.33714486858E+01 -0.12795987006E+02  0.15889291007E+02  0.51100000000E-03 0. -1.
        -11    1    4    4    0    0  0.20476217004E+01 -0.83480929079E+01 -0.29055083825E+02  0.30299856537E+02  0.51100000000E-03 0.  1.
        -12    1    4    4    0    0  0.13805157030E+01  0.78091363656E+00  0.19584260775E+00  0.15981251644E+01  0.00000000000E+00 0.  1.
</event>
<event>
 8    1  0.6239251E-010  0.9118800E+02  0.7816164E-02  0.1184000E+00
        -11   -1    0    0    0    0  0.00000000000E+00  0.00000000000E+00  0.45593999997E+02  0.45594000000E+02  0.51100000000E-03 0. -1.
         11   -1    0    0    0    0 -0.00000000000E+00 -0.00000000000E+00 -0.45593999997E+02  0.45594000000E+02  0.51100000000E-03 0.  1.
         23    2    1    2    0    0 -0.35527136788E-14  0.88817841970E-15  0.00000000000E+00  0.91188000000E+02  0.91188000000E+02 0.  0.
    9900012    2    3    3    0    0  0.20510776148E+02  0.18693855268E+01 -0.38202567343E+02  0.47787277747E+02  0.20000030561E+02 0.  0.
         12    1    3    3    0    0 -0.20510776148E+02 -0.18693855268E+01  0.38202567343E+02  0.43400722253E+02  0.00000000000E+00 0. -1.
         11    1    4    4    0    0 -0.27832574684E+01  0.20182798458E+01 -0.29760586879E+01  0.45471860801E+01  0.51100000000E-03 0. -1.
        -11    1    4    4    0    0  0.14304968265E+02 -0.43517976849E+01 -0.18444377269E+02  0.23743742613E+02  0.51100000000E-03 0.  1.
        -12    1    4    4    0    0  0.89890653507E+01  0.42029033658E+01 -0.16782131386E+02  0.19496349054E+02  0.00000000000E+00 0.  1.
</event>
<event>
 8    1  0.6239251E-010  0.9118800E+02  0.7816164E-02  0.1184000E+00
        -11   -1    0    0    0    0  0.00000000000E+00  0.00000000000E+00  0.45593999997E+02  0.45594000000E+02  0.51100000000E-03 0. -1.
         11   -1    0    0    0    0 -0.00000000000E+00 -0.00000000000E+00 -0.45593999997E+02  0.45594000000E+02  0.51100000000E-03 0.  1.
         23    2    1    2    0    0  0.35527136788E-14  0.00000000000E+00  0.00000000000E+00  0.91188000000E+02  0.91188000000E+02 0.  0.
    9900012    2    3    3    0    0 -0.22548213995E+02  0.80328371614E+01  0.36203243537E+02  0.47787271091E+02  0.20000000213E+02 0.  0.
        -12    1    3    3    0    0  0.22548213995E+02 -0.80328371614E+01 -0.36203243537E+02  0.43400728909E+02  0.00000000000E+00 0.  1.
         11    1    4    4    0    0 -0.36370076062E+01 -0.11512741942E+01  0.87400020220E+01  0.95362934206E+01  0.51100000000E-03 0. -1.
        -11    1    4    4    0    0 -0.19640509067E+02  0.24641687439E+01  0.19215483757E+02  0.27587253221E+02  0.51100000000E-03 0.  1.
        -12    1    4    4    0    0  0.72930267812E+00  0.67199426117E+01  0.82477577579E+01  0.10663724449E+02  0.00000000000E+00 0.  1.
</event>
<event>
 8    1  0.6239251E-010  0.9118800E+02  0.7816164E-02  0.1184000E+00
        -11   -1    0    0    0    0  0.00000000000E+00  0.00000000000E+00  0.45593999997E+02  0.45594000000E+02  0.51100000000E-03 0. -1.
         11   -1    0    0    0    0 -0.00000000000E+00 -0.00000000000E+00 -0.45593999997E+02  0.45594000000E+02  0.51100000000E-03 0.  1.
         23    2    1    2    0    0 -0.35527136788E-14  0.35527136788E-14  0.35527136788E-14  0.91188000000E+02  0.91188000000E+02 0.  0.
    9900012    2    3    3    0    0  0.30322165213E+02 -0.18462247621E+02 -0.24966679916E+02  0.47787269633E+02  0.19999993563E+02 0.  0.
         12    1    3    3    0    0 -0.30322165213E+02  0.18462247621E+02  0.24966679916E+02  0.43400730367E+02  0.00000000000E+00 0. -1.
         11    1    4    4    0    0  0.10919774091E+02 -0.13750677041E+02 -0.11498057453E+02  0.20988756770E+02  0.51100000000E-03 0. -1.
        -11    1    4    4    0    0  0.10477077510E+02 -0.74795272711E+01 -0.11471943336E+02  0.17242910587E+02  0.51100000000E-03 0.  1.
         12    1    4    4    0    0  0.89253136116E+01  0.27679566914E+01 -0.19966791263E+01  0.95556022753E+01  0.00000000000E+00 0. -1.
</event>
<event>
 8    1  0.6239251E-010  0.9118800E+02  0.7816164E-02  0.1184000E+00
        -11   -1    0    0    0    0  0.00000000000E+00  0.00000000000E+00  0.45593999997E+02  0.45594000000E+02  0.51100000000E-03 0. -1.
         11   -1    0    0    0    0 -0.00000000000E+00 -0.00000000000E+00 -0.45593999997E+02  0.45594000000E+02  0.51100000000E-03 0.  1.
         23    2    1    2    0    0  0.30531133177E-15  0.00000000000E+00  0.00000000000E+00  0.91188000000E+02  0.91188000000E+02 0.  0.
    9900012    2    3    3    0    0  0.16870284968E+00  0.21494720470E+02 -0.37703760116E+02  0.47787251209E+02  0.19999909561E+02 0.  0.
         12    1    3    3    0    0 -0.16870284968E+00 -0.21494720470E+02  0.37703760116E+02  0.43400748791E+02  0.00000000000E+00 0. -1.
         11    1    4    4    0    0  0.15951325855E+01  0.60274987460E+00 -0.12717354538E+02  0.12831167604E+02  0.51100000000E-03 0. -1.
        -11    1    4    4    0    0  0.40170101326E+01  0.15088709215E+02 -0.20667759532E+02  0.25902930346E+02  0.51100000000E-03 0.  1.
         12    1    4    4    0    0 -0.54434398684E+01  0.58032613807E+01 -0.43186460460E+01  0.90531532586E+01  0.00000000000E+00 0. -1.
</event>
<event>
 8    1  0.6239251E-010  0.9118800E+02  0.7816164E-02  0.1184000E+00
        -11   -1    0    0    0    0  0.00000000000E+00  0.00000000000E+00  0.45593999997E+02  0.45594000000E+02  0.51100000000E-03 0. -1.
         11   -1    0    0    0    0 -0.00000000000E+00 -0.00000000000E+00 -0.45593999997E+02  0.45594000000E+02  0.51100000000E-03 0.  1.
         23    2    1    2    0    0  0.00000000000E+00  0.35527136788E-14  0.00000000000E+00  0.91188000000E+02  0.91188000000E+02 0.  0.
    9900012    2    3    3    0    0  0.13219384850E+02  0.27495293480E+02 -0.30868768255E+02  0.47787260917E+02  0.19999953825E+02 0.  0.
         12    1    3    3    0    0 -0.13219384850E+02 -0.27495293480E+02  0.30868768255E+02  0.43400739083E+02  0.00000000000E+00 0. -1.
         11    1    4    4    0    0  0.51544830081E+01  0.64270265684E+01 -0.31523868162E+00  0.82446795741E+01  0.51100000000E-03 0.  1.
        -11    1    4    4    0    0  0.46164561693E+01  0.10046231521E+02 -0.23601205638E+02  0.26062527566E+02  0.51100000000E-03 0. -1.
        -12    1    4    4    0    0  0.34484456727E+01  0.11022035391E+02 -0.69523239357E+01  0.13480053777E+02  0.00000000000E+00 0.  1.
</event>
<event>
 8    1  0.6239251E-010  0.9118800E+02  0.7816164E-02  0.1184000E+00
        -11   -1    0    0    0    0  0.00000000000E+00  0.00000000000E+00  0.45593999997E+02  0.45594000000E+02  0.51100000000E-03 0. -1.
         11   -1    0    0    0    0 -0.00000000000E+00 -0.00000000000E+00 -0.45593999997E+02  0.45594000000E+02  0.51100000000E-03 0.  1.
         23    2    1    2    0    0  0.00000000000E+00 -0.71054273576E-14  0.17763568394E-14  0.91188000000E+02  0.91188000000E+02 0.  0.
    9900012    2    3    3    0    0 -0.24583247078E+02  0.32551180120E+02 -0.14822562291E+02  0.47787265939E+02  0.19999976723E+02 0.  0.
         12    1    3    3    0    0  0.24583247078E+02 -0.32551180120E+02  0.14822562291E+02  0.43400734061E+02  0.00000000000E+00 0. -1.
         11    1    4    4    0    0  0.11295400860E+01  0.29745347353E+01  0.23294268239E+01  0.39433421468E+01  0.51100000000E-03 0. -1.
        -11    1    4    4    0    0 -0.93688284339E+01  0.17160648165E+02 -0.10915545606E+02  0.22392229183E+02  0.51100000000E-03 0.  1.
         12    1    4    4    0    0 -0.16343958731E+02  0.12415997220E+02 -0.62364435090E+01  0.21451694609E+02  0.00000000000E+00 0. -1.
</event>
<event>
 8    1  0.6239251E-010  0.9118800E+02  0.7816164E-02  0.1184000E+00
        -11   -1    0    0    0    0  0.00000000000E+00  0.00000000000E+00  0.45593999997E+02  0.45594000000E+02  0.51100000000E-03 0.  1.
         11   -1    0    0    0    0 -0.00000000000E+00 -0.00000000000E+00 -0.45593999997E+02  0.45594000000E+02  0.51100000000E-03 0. -1.
         23    2    1    2    0    0  0.00000000000E+00  0.00000000000E+00  0.00000000000E+00  0.91188000000E+02  0.91188000000E+02 0.  0.
    9900012    2    3    3    0    0  0.23115604029E+02 -0.36280750278E+02 -0.57444971343E+01  0.47787271461E+02  0.20000001898E+02 0.  0.
        -12    1    3    3    0    0 -0.23115604029E+02  0.36280750278E+02  0.57444971343E+01  0.43400728539E+02  0.00000000000E+00 0.  1.
         11    1    4    4    0    0  0.13563733433E+02 -0.29811543758E+02 -0.45981155504E+01  0.33073337793E+02  0.51100000000E-03 0. -1.
        -11    1    4    4    0    0  0.10139266041E+02 -0.62275539861E+01  0.14992564379E+01  0.11993119470E+02  0.51100000000E-03 0.  1.
         12    1    4    4    0    0 -0.58739544459E+00 -0.24165253390E+00 -0.26456380218E+01  0.27208141976E+01  0.00000000000E+00 0. -1.
</event>
<event>
 8    1  0.6356269E-010  0.9118800E+02  0.7816164E-02  0.1184000E+00
        -11   -1    0    0    0    0  0.00000000000E+00  0.00000000000E+00  0.45593999997E+02  0.45594000000E+02  0.51100000000E-03 0. -1.
         11   -1    0    0    0    0 -0.00000000000E+00 -0.00000000000E+00 -0.45593999997E+02  0.45594000000E+02  0.51100000000E-03 0.  1.
         23    2    1    2    0    0  0.00000000000E+00  0.00000000000E+00  0.00000000000E+00  0.91188000000E+02  0.91188000000E+02 0.  0.
    9900012    2    3    3    0    0  0.13942275408E+02 -0.22638413987E+02  0.34303631707E+02  0.47787262913E+02  0.19999962924E+02 0.  0.
        -12    1    3    3    0    0 -0.13942275408E+02  0.22638413987E+02 -0.34303631707E+02  0.43400737087E+02  0.00000000000E+00 0.  1.
         11    1    4    4    0    0  0.60764441885E+00 -0.75444440421E+01  0.76249974880E+01  0.10743763521E+02  0.51100000000E-03 0.  1.
        -11    1    4    4    0    0  0.11694185861E+02 -0.18230522711E+02  0.25141948171E+02  0.33184687724E+02  0.51100000000E-03 0. -1.
        -12    1    4    4    0    0  0.16404451284E+01  0.31365527659E+01  0.15366860487E+01  0.38588116674E+01  0.00000000000E+00 0.  1.
</event>
<event>
 8    1  0.6239251E-010  0.9118800E+02  0.7816164E-02  0.1184000E+00
        -11   -1    0    0    0    0  0.00000000000E+00  0.00000000000E+00  0.45593999997E+02  0.45594000000E+02  0.51100000000E-03 0.  1.
         11   -1    0    0    0    0 -0.00000000000E+00 -0.00000000000E+00 -0.45593999997E+02  0.45594000000E+02  0.51100000000E-03 0. -1.
         23    2    1    2    0    0  0.71054273576E-14 -0.35527136788E-14  0.17763568394E-14  0.91188000000E+02  0.91188000000E+02 0.  0.
    9900012    2    3    3    0    0 -0.33428987401E+02  0.26689114797E+02 -0.73360289665E+01  0.47787269957E+02  0.19999995040E+02 0.  0.
        -12    1    3    3    0    0  0.33428987401E+02 -0.26689114797E+02  0.73360289665E+01  0.43400730043E+02  0.00000000000E+00 0.  1.
         11    1    4    4    0    0 -0.25209165378E+02  0.21553586274E+02 -0.10175767255E+02  0.34693015721E+02  0.51100000000E-03 0. -1.
        -11    1    4    4    0    0 -0.66286616733E+01  0.24855845124E+01  0.55404411912E+01  0.89896482023E+01  0.51100000000E-03 0.  1.
        -12    1    4    4    0    0 -0.15911603491E+01  0.26499440109E+01 -0.27007029028E+01  0.41046060331E+01  0.00000000000E+00 0.  1.
</event>
<event>
 8    1  0.6239251E-010  0.9118800E+02  0.7816164E-02  0.1184000E+00
        -11   -1    0    0    0    0  0.00000000000E+00  0.00000000000E+00  0.45593999997E+02  0.45594000000E+02  0.51100000000E-03 0. -1.
         11   -1    0    0    0    0 -0.00000000000E+00 -0.00000000000E+00 -0.45593999997E+02  0.45594000000E+02  0.51100000000E-03 0.  1.
         23    2    1    2    0    0  0.00000000000E+00  0.17763568394E-14 -0.35527136788E-14  0.91188000000E+02  0.91188000000E+02 0.  0.
    9900012    2    3    3    0    0  0.36116664184E+02 -0.14645667503E+02  0.19097495645E+02  0.47787270187E+02  0.19999996091E+02 0.  0.
        -12    1    3    3    0    0 -0.36116664184E+02  0.14645667503E+02 -0.19097495645E+02  0.43400729813E+02  0.00000000000E+00 0.  1.
         11    1    4    4    0    0  0.76026120036E+01 -0.75714189266E+01  0.85287952723E+01  0.13706438009E+02  0.51100000000E-03 0.  1.
        -11    1    4    4    0    0  0.13937783015E+02  0.17728035439E+01  0.95717400917E+01  0.17000671646E+02  0.51100000000E-03 0. -1.
        -12    1    4    4    0    0  0.14576269165E+02 -0.88470521202E+01  0.99696028126E+00  0.17080160532E+02  0.00000000000E+00 0.  1.
</event>
<event>
 8    1  0.6239251E-010  0.9118800E+02  0.7816164E-02  0.1184000E+00
        -11   -1    0    0    0    0  0.00000000000E+00  0.00000000000E+00  0.45593999997E+02  0.45594000000E+02  0.51100000000E-03 0. -1.
         11   -1    0    0    0    0 -0.00000000000E+00 -0.00000000000E+00 -0.45593999997E+02  0.45594000000E+02  0.51100000000E-03 0.  1.
         23    2    1    2    0    0  0.72164496601E-15  0.71054273576E-14  0.00000000000E+00  0.91188000000E+02  0.91188000000E+02 0.  0.
    9900012    2    3    3    0    0 -0.19752258776E+00  0.41243584383E+02  0.13511144904E+02  0.47787270690E+02  0.19999998386E+02 0.  0.
        -12    1    3    3    0    0  0.19752258776E+00 -0.41243584383E+02 -0.13511144904E+02  0.43400729310E+02  0.00000000000E+00 0.  1.
         11    1    4    4    0    0 -0.42015550600E+01  0.17977253539E+02  0.13046929183E+02  0.22606571414E+02  0.51100000000E-03 0. -1.
        -11    1    4    4    0    0  0.14663858205E+01  0.40553813367E+00 -0.14477377040E+01  0.21001650585E+01  0.51100000000E-03 0.  1.
         12    1    4    4    0    0  0.25376466518E+01  0.22860792710E+02  0.19119534258E+01  0.23080534218E+02  0.00000000000E+00 0. -1.
</event>
<event>
 8    1  0.6239251E-010  0.9118800E+02  0.7816164E-02  0.1184000E+00
        -11   -1    0    0    0    0  0.00000000000E+00  0.00000000000E+00  0.45593999997E+02  0.45594000000E+02  0.51100000000E-03 0. -1.
         11   -1    0    0    0    0 -0.00000000000E+00 -0.00000000000E+00 -0.45593999997E+02  0.45594000000E+02  0.51100000000E-03 0.  1.
         23    2    1    2    0    0 -0.35527136788E-14  0.00000000000E+00  0.00000000000E+00  0.91188000000E+02  0.91188000000E+02 0.  0.
    9900012    2    3    3    0    0 -0.22621044060E+02 -0.32764784216E+02  0.17273702373E+02  0.47787268293E+02  0.19999987454E+02 0.  0.
        -12    1    3    3    0    0  0.22621044060E+02  0.32764784216E+02 -0.17273702373E+02  0.43400731707E+02  0.00000000000E+00 0.  1.
         11    1    4    4    0    0  0.28762280599E+01 -0.39603761189E+01  0.10402554767E+01  0.50039383064E+01  0.51100000000E-03 0. -1.
        -11    1    4    4    0    0 -0.14406032939E+02 -0.99969699718E+01  0.94520459848E+01  0.19920199979E+02  0.51100000000E-03 0.  1.
         12    1    4    4    0    0 -0.11091239181E+02 -0.18807438125E+02  0.67814009111E+01  0.22863130007E+02  0.00000000000E+00 0. -1.
</event>
<event>
 8    1  0.6239251E-010  0.9118800E+02  0.7816164E-02  0.1184000E+00
        -11   -1    0    0    0    0  0.00000000000E+00  0.00000000000E+00  0.45593999997E+02  0.45594000000E+02  0.51100000000E-03 0. -1.
         11   -1    0    0    0    0 -0.00000000000E+00 -0.00000000000E+00 -0.45593999997E+02  0.45594000000E+02  0.51100000000E-03 0.  1.
         23    2    1    2    0    0  0.00000000000E+00  0.35527136788E-14 -0.17763568394E-14  0.91188000000E+02  0.91188000000E+02 0.  0.
    9900012    2    3    3    0    0  0.35122592866E+02  0.22553505862E+02 -0.11889721388E+02  0.47787278450E+02  0.20000033767E+02 0.  0.
         12    1    3    3    0    0 -0.35122592866E+02 -0.22553505862E+02  0.11889721388E+02  0.43400721550E+02  0.00000000000E+00 0. -1.
         11    1    4    4    0    0  0.31214236831E+02  0.17905788031E+02 -0.87157287516E+01  0.37025798491E+02  0.51100000000E-03 0. -1.
        -11    1    4    4    0    0  0.51252171439E+01 -0.46418512151E-01 -0.29350254077E+01  0.59063000140E+01  0.51100000000E-03 0.  1.
         12    1    4    4    0    0 -0.12168611085E+01  0.46941363433E+01 -0.23896722831E+00  0.48551799455E+01  0.00000000000E+00 0. -1.
</event>
<event>
 8    1  0.6239251E-010  0.9118800E+02  0.7816164E-02  0.1184000E+00
        -11   -1    0    0    0    0  0.00000000000E+00  0.00000000000E+00  0.45593999997E+02  0.45594000000E+02  0.51100000000E-03 0. -1.
         11   -1    0    0    0    0 -0.00000000000E+00 -0.00000000000E+00 -0.45593999997E+02  0.45594000000E+02  0.51100000000E-03 0.  1.
         23    2    1    2    0    0  0.00000000000E+00  0.00000000000E+00  0.00000000000E+00  0.91188000000E+02  0.91188000000E+02 0.  0.
    9900012    2    3    3    0    0  0.25972608764E+02  0.25292032384E+02  0.23861263540E+02  0.47787271828E+02  0.20000003575E+02 0.  0.
        -12    1    3    3    0    0 -0.25972608764E+02 -0.25292032384E+02 -0.23861263540E+02  0.43400728172E+02  0.00000000000E+00 0.  1.
         11    1    4    4    0    0  0.27297305113E+01  0.15831406559E+02  0.90341144492E+01  0.18430954572E+02  0.51100000000E-03 0. -1.
        -11    1    4    4    0    0  0.14552699682E+02  0.46131927308E+01  0.10354439324E+02  0.18446599393E+02  0.51100000000E-03 0.  1.
         12    1    4    4    0    0  0.86901785714E+01  0.48474330940E+01  0.44727097662E+01  0.10909717863E+02  0.00000000000E+00 0. -1.
</event>
<event>
 8    1  0.6239251E-010  0.9118800E+02  0.7816164E-02  0.1184000E+00
        -11   -1    0    0    0    0  0.00000000000E+00  0.00000000000E+00  0.45593999997E+02  0.45594000000E+02  0.51100000000E-03 0. -1.
         11   -1    0    0    0    0 -0.00000000000E+00 -0.00000000000E+00 -0.45593999997E+02  0.45594000000E+02  0.51100000000E-03 0.  1.
         23    2    1    2    0    0  0.00000000000E+00  0.00000000000E+00  0.00000000000E+00  0.91188000000E+02  0.91188000000E+02 0.  0.
    9900012    2    3    3    0    0  0.32311849967E+02 -0.15595706493E+02  0.24420058645E+02  0.47787297545E+02  0.20000120829E+02 0.  0.
        -12    1    3    3    0    0 -0.32311849967E+02  0.15595706493E+02 -0.24420058645E+02  0.43400702455E+02  0.00000000000E+00 0.  1.
         11    1    4    4    0    0  0.93188090073E+00  0.34889142546E+01  0.16154628526E+01  0.39560896323E+01  0.51100000000E-03 0.  1.
        -11    1    4    4    0    0  0.42543447033E+00  0.28669387895E+00 -0.32388587591E+00  0.60670436830E+00  0.51100000000E-03 0. -1.
         12    1    4    4    0    0  0.30954534596E+02 -0.19371314627E+02  0.23128481668E+02  0.43224503545E+02  0.00000000000E+00 0. -1.
</event>
<event>
 8    1  0.6239251E-010  0.9118800E+02  0.7816164E-02  0.1184000E+00
        -11   -1    0    0    0    0  0.00000000000E+00  0.00000000000E+00  0.45593999997E+02  0.45594000000E+02  0.51100000000E-03 0. -1.
         11   -1    0    0    0    0 -0.00000000000E+00 -0.00000000000E+00 -0.45593999997E+02  0.45594000000E+02  0.51100000000E-03 0.  1.
         23    2    1    2    0    0  0.00000000000E+00  0.00000000000E+00  0.00000000000E+00  0.91188000000E+02  0.91188000000E+02 0.  0.
    9900012    2    3    3    0    0 -0.11599019663E+02  0.28093258164E+01  0.41727611587E+02  0.47787272616E+02  0.20000007166E+02 0.  0.
        -12    1    3    3    0    0  0.11599019663E+02 -0.28093258164E+01 -0.41727611587E+02  0.43400727384E+02  0.00000000000E+00 0.  1.
         11    1    4    4    0    0 -0.36978239992E+01  0.25187266869E+01  0.26765408791E+02  0.27136783052E+02  0.51100000000E-03 0. -1.
        -11    1    4    4    0    0 -0.97093684847E+01 -0.26252151238E+01  0.78668080295E+01  0.12769113503E+02  0.51100000000E-03 0.  1.
         12    1    4    4    0    0  0.18081728205E+01  0.29158142533E+01  0.70953947670E+01  0.78813760606E+01  0.00000000000E+00 0. -1.
</event>
<event>
 8    1  0.6239251E-010  0.9118800E+02  0.7816164E-02  0.1184000E+00
        -11   -1    0    0    0    0  0.00000000000E+00  0.00000000000E+00  0.45593999997E+02  0.45594000000E+02  0.51100000000E-03 0. -1.
         11   -1    0    0    0    0 -0.00000000000E+00 -0.00000000000E+00 -0.45593999997E+02  0.45594000000E+02  0.51100000000E-03 0.  1.
         23    2    1    2    0    0  0.88817841970E-15  0.35527136788E-14  0.71054273576E-14  0.91188000000E+02  0.91188000000E+02 0.  0.
    9900012    2    3    3    0    0  0.71936845555E+01  0.26237948718E+02  0.33814849419E+02  0.47787273144E+02  0.20000009572E+02 0.  0.
        -12    1    3    3    0    0 -0.71936845555E+01 -0.26237948718E+02 -0.33814849419E+02  0.43400726856E+02  0.00000000000E+00 0.  1.
         11    1    4    4    0    0  0.45092552111E+01  0.24562133570E+02  0.34297440754E+02  0.42425773188E+02  0.51100000000E-03 0. -1.
        -11    1    4    4    0    0  0.88213726267E+00  0.28101620978E+01 -0.11002876035E+01  0.31441708347E+01  0.51100000000E-03 0.  1.
         12    1    4    4    0    0  0.18022920817E+01 -0.11343469499E+01  0.61769626823E+00  0.22173291209E+01  0.00000000000E+00 0. -1.
</event>
<event>
 8    1  0.6239251E-010  0.9118800E+02  0.7816164E-02  0.1184000E+00
        -11   -1    0    0    0    0  0.00000000000E+00  0.00000000000E+00  0.45593999997E+02  0.45594000000E+02  0.51100000000E-03 0. -1.
         11   -1    0    0    0    0 -0.00000000000E+00 -0.00000000000E+00 -0.45593999997E+02  0.45594000000E+02  0.51100000000E-03 0.  1.
         23    2    1    2    0    0  0.88817841970E-15  0.71054273576E-14  0.00000000000E+00  0.91188000000E+02  0.91188000000E+02 0.  0.
    9900012    2    3    3    0    0  0.35229961832E+01  0.42648233677E+02 -0.72346024835E+01  0.47787276377E+02  0.20000024313E+02 0.  0.
         12    1    3    3    0    0 -0.35229961832E+01 -0.42648233677E+02  0.72346024835E+01  0.43400723623E+02  0.00000000000E+00 0. -1.
         11    1    4    4    0    0  0.59368110241E+00  0.11320995886E+00  0.28026690872E-01  0.60502851393E+00  0.51100000000E-03 0. -1.
        -11    1    4    4    0    0 -0.62846301362E+01  0.19670655962E+02 -0.88791289060E+01  0.22478216395E+02  0.51100000000E-03 0.  1.
        -12    1    4    4    0    0  0.92139452171E+01  0.22864367757E+02  0.16164997317E+01  0.24704031468E+02  0.00000000000E+00 0.  1.
</event>
<event>
 8    1  0.6239251E-010  0.9118800E+02  0.7816164E-02  0.1184000E+00
        -11   -1    0    0    0    0  0.00000000000E+00  0.00000000000E+00  0.45593999997E+02  0.45594000000E+02  0.51100000000E-03 0. -1.
         11   -1    0    0    0    0 -0.00000000000E+00 -0.00000000000E+00 -0.45593999997E+02  0.45594000000E+02  0.51100000000E-03 0.  1.
         23    2    1    2    0    0  0.00000000000E+00  0.17763568394E-14  0.00000000000E+00  0.91188000000E+02  0.91188000000E+02 0.  0.
    9900012    2    3    3    0    0  0.23005005138E+02  0.15350115702E+02 -0.33447977496E+02  0.47787268301E+02  0.19999987490E+02 0.  0.
         12    1    3    3    0    0 -0.23005005138E+02 -0.15350115702E+02  0.33447977496E+02  0.43400731699E+02  0.00000000000E+00 0. -1.
         11    1    4    4    0    0  0.65866749898E+01  0.35583887871E+01  0.79844938642E+00  0.75288737448E+01  0.51100000000E-03 0. -1.
        -11    1    4    4    0    0  0.14020737401E+02  0.70231133035E+01 -0.27489243981E+02  0.31647491728E+02  0.51100000000E-03 0.  1.
         12    1    4    4    0    0  0.23975927470E+01  0.47686136114E+01 -0.67571829008E+01  0.86109028278E+01  0.00000000000E+00 0. -1.
</event>
<event>
 8    1  0.6239251E-010  0.9118800E+02  0.7816164E-02  0.1184000E+00
        -11   -1    0    0    0    0  0.00000000000E+00  0.00000000000E+00  0.45593999997E+02  0.45594000000E+02  0.51100000000E-03 0. -1.
         11   -1    0    0    0    0 -0.00000000000E+00 -0.00000000000E+00 -0.45593999997E+02  0.45594000000E+02  0.51100000000E-03 0.  1.
         23    2    1    2    0    0  0.00000000000E+00  0.35527136788E-14  0.00000000000E+00  0.91188000000E+02  0.91188000000E+02 0.  0.
    9900012    2    3    3    0    0 -0.10539522977E+02  0.27074939630E+02 -0.32241091053E+02  0.47787287415E+02  0.20000074640E+02 0.  0.
         12    1    3    3    0    0  0.10539522977E+02 -0.27074939630E+02  0.32241091053E+02  0.43400712585E+02  0.00000000000E+00 0. -1.
         11    1    4    4    0    0  0.10536258503E+01  0.51425883173E+01 -0.35307938762E+01  0.63263613311E+01  0.51100000000E-03 0. -1.
        -11    1    4    4    0    0  0.43505618702E+01  0.40330842876E+01 -0.61087624982E+01  0.85152884260E+01  0.51100000000E-03 0.  1.
        -12    1    4    4    0    0 -0.15943710698E+02  0.17899267025E+02 -0.22601534679E+02  0.32945637658E+02  0.00000000000E+00 0.  1.
</event>
<event>
 8    1  0.6239251E-010  0.9118800E+02  0.7816164E-02  0.1184000E+00
        -11   -1    0    0    0    0  0.00000000000E+00  0.00000000000E+00  0.45593999997E+02  0.45594000000E+02  0.51100000000E-03 0.  1.
         11   -1    0    0    0    0 -0.00000000000E+00 -0.00000000000E+00 -0.45593999997E+02  0.45594000000E+02  0.51100000000E-03 0. -1.
         23    2    1    2    0    0 -0.35527136788E-14  0.35527136788E-14  0.35527136788E-14  0.91188000000E+02  0.91188000000E+02 0.  0.
    9900012    2    3    3    0    0 -0.29982431099E+02  0.24488778760E+02  0.19620824700E+02  0.47787271646E+02  0.20000002741E+02 0.  0.
        -12    1    3    3    0    0  0.29982431099E+02 -0.24488778760E+02 -0.19620824700E+02  0.43400728354E+02  0.00000000000E+00 0.  1.
         11    1    4    4    0    0 -0.23903606746E+02  0.11211805936E+02  0.17066513204E+02  0.31438080110E+02  0.51100000000E-03 0. -1.
        -11    1    4    4    0    0 -0.30976033204E+00  0.55286898214E+01 -0.17018928852E+01  0.57929959657E+01  0.51100000000E-03 0.  1.
        -12    1    4    4    0    0 -0.57690640206E+01  0.77482830027E+01  0.42562043817E+01  0.10556195569E+02  0.00000000000E+00 0.  1.
</event>
<event>
 8    1  0.6239251E-010  0.9118800E+02  0.7816164E-02  0.1184000E+00
        -11   -1    0    0    0    0  0.00000000000E+00  0.00000000000E+00  0.45593999997E+02  0.45594000000E+02  0.51100000000E-03 0. -1.
         11   -1    0    0    0    0 -0.00000000000E+00 -0.00000000000E+00 -0.45593999997E+02  0.45594000000E+02  0.51100000000E-03 0.  1.
         23    2    1    2    0    0  0.00000000000E+00  0.35527136788E-14  0.00000000000E+00  0.91188000000E+02  0.91188000000E+02 0.  0.
    9900012    2    3    3    0    0  0.16440136039E+02  0.20512988687E+02 -0.34533495911E+02  0.47787272844E+02  0.20000008206E+02 0.  0.
         12    1    3    3    0    0 -0.16440136039E+02 -0.20512988687E+02  0.34533495911E+02  0.43400727156E+02  0.00000000000E+00 0. -1.
         11    1    4    4    0    0 -0.22764591850E+01  0.21705111480E+01 -0.64761756334E+01  0.71995997223E+01  0.51100000000E-03 0. -1.
        -11    1    4    4    0    0  0.14614646551E+02  0.51606842679E+01 -0.15656262562E+02  0.22030413378E+02  0.51100000000E-03 0.  1.
         12    1    4    4    0    0  0.41019486727E+01  0.13181793271E+02 -0.12401057716E+02  0.18557259744E+02  0.00000000000E+00 0. -1.
</event>
<event>
 8    1  0.6239251E-010  0.9118800E+02  0.7816164E-02  0.1184000E+00
        -11   -1    0    0    0    0  0.00000000000E+00  0.00000000000E+00  0.45593999997E+02  0.45594000000E+02  0.51100000000E-03 0. -1.
         11   -1    0    0    0    0 -0.00000000000E+00 -0.00000000000E+00 -0.45593999997E+02  0.45594000000E+02  0.51100000000E-03 0.  1.
         23    2    1    2    0    0  0.35527136788E-14  0.88817841970E-15  0.71054273576E-14  0.91188000000E+02  0.91188000000E+02 0.  0.
    9900012    2    3    3    0    0 -0.20792019162E+02 -0.79987805128E+01 -0.37246949936E+02  0.47787264637E+02  0.19999970785E+02 0.  0.
         12    1    3    3    0    0  0.20792019162E+02  0.79987805128E+01  0.37246949936E+02  0.43400735363E+02  0.00000000000E+00 0. -1.
         11    1    4    4    0    0  0.24066725834E+01  0.11754764530E+01 -0.10822752739E+00  0.26805841292E+01  0.51100000000E-03 0.  1.
        -11    1    4    4    0    0 -0.15861391848E+02 -0.90485827672E+01 -0.26547562387E+02  0.32221633578E+02  0.51100000000E-03 0. -1.
        -12    1    4    4    0    0 -0.73372998972E+01 -0.12567419859E+00 -0.10591160022E+02  0.12885046930E+02  0.00000000000E+00 0.  1.
</event>
<event>
 8    1  0.6239251E-010  0.9118800E+02  0.7816164E-02  0.1184000E+00
        -11   -1    0    0    0    0  0.00000000000E+00  0.00000000000E+00  0.45593999997E+02  0.45594000000E+02  0.51100000000E-03 0. -1.
         11   -1    0    0    0    0 -0.00000000000E+00 -0.00000000000E+00 -0.45593999997E+02  0.45594000000E+02  0.51100000000E-03 0.  1.
         23    2    1    2    0    0  0.00000000000E+00  0.35527136788E-14  0.00000000000E+00  0.91188000000E+02  0.91188000000E+02 0.  0.
    9900012    2    3    3    0    0 -0.36507341295E+02 -0.23421823756E+02 -0.15018569306E+01  0.47787269929E+02  0.19999994915E+02 0.  0.
        -12    1    3    3    0    0  0.36507341295E+02  0.23421823756E+02  0.15018569306E+01  0.43400730071E+02  0.00000000000E+00 0.  1.
         11    1    4    4    0    0  0.18988210816E+01  0.42669025465E+00  0.80656515500E+00  0.21066878468E+01  0.51100000000E-03 0. -1.
        -11    1    4    4    0    0 -0.24531482500E+01 -0.20137899114E+01 -0.17255957507E+01  0.36126122266E+01  0.51100000000E-03 0.  1.
         12    1    4    4    0    0 -0.35953014126E+02 -0.21834724099E+02 -0.58282633491E+00  0.42067969856E+02  0.00000000000E+00 0. -1.
</event>
<event>
 8    1  0.6239251E-010  0.9118800E+02  0.7816164E-02  0.1184000E+00
        -11   -1    0    0    0    0  0.00000000000E+00  0.00000000000E+00  0.45593999997E+02  0.45594000000E+02  0.51100000000E-03 0. -1.
         11   -1    0    0    0    0 -0.00000000000E+00 -0.00000000000E+00 -0.45593999997E+02  0.45594000000E+02  0.51100000000E-03 0.  1.
         23    2    1    2    0    0  0.88817841970E-15 -0.66613381478E-15  0.00000000000E+00  0.91188000000E+02  0.91188000000E+02 0.  0.
    9900012    2    3    3    0    0 -0.47113543100E+01  0.12907668707E+01 -0.43124938305E+02  0.47787271408E+02  0.20000001657E+02 0.  0.
         12    1    3    3    0    0  0.47113543100E+01 -0.12907668707E+01  0.43124938305E+02  0.43400728592E+02  0.00000000000E+00 0. -1.
         11    1    4    4    0    0  0.64097548028E+01  0.55037259862E+01 -0.14759412689E+02  0.17006358209E+02  0.51100000000E-03 0. -1.
        -11    1    4    4    0    0 -0.51812746745E+01 -0.13513562118E+01 -0.12286214429E+02  0.13402344426E+02  0.51100000000E-03 0.  1.
         12    1    4    4    0    0 -0.59398344383E+01 -0.28616029036E+01 -0.16079311187E+02  0.17378568772E+02  0.00000000000E+00 0. -1.
</event>
<event>
 8    1  0.6239251E-010  0.9118800E+02  0.7816164E-02  0.1184000E+00
        -11   -1    0    0    0    0  0.00000000000E+00  0.00000000000E+00  0.45593999997E+02  0.45594000000E+02  0.51100000000E-03 0. -1.
         11   -1    0    0    0    0 -0.00000000000E+00 -0.00000000000E+00 -0.45593999997E+02  0.45594000000E+02  0.51100000000E-03 0.  1.
         23    2    1    2    0    0 -0.88817841970E-15  0.35527136788E-14  0.00000000000E+00  0.91188000000E+02  0.91188000000E+02 0.  0.
    9900012    2    3    3    0    0 -0.17826764505E+01 -0.25108767033E+02 -0.35355263220E+02  0.47787277027E+02  0.20000027277E+02 0.  0.
         12    1    3    3    0    0  0.17826764505E+01  0.25108767033E+02  0.35355263220E+02  0.43400722973E+02  0.00000000000E+00 0. -1.
         11    1    4    4    0    0 -0.21391915297E+01 -0.11449635282E+02 -0.12134298645E+02  0.16819973019E+02  0.51100000000E-03 0. -1.
        -11    1    4    4    0    0  0.48623561262E+01  0.10498449964E+01 -0.72490982555E+01  0.87917067395E+01  0.51100000000E-03 0.  1.
        -12    1    4    4    0    0 -0.45058410470E+01 -0.14708976748E+02 -0.15971866319E+02  0.22175597268E+02  0.00000000000E+00 0.  1.
</event>
<event>
 8    1  0.6239251E-010  0.9118800E+02  0.7816164E-02  0.1184000E+00
        -11   -1    0    0    0    0  0.00000000000E+00  0.00000000000E+00  0.45593999997E+02  0.45594000000E+02  0.51100000000E-03 0. -1.
         11   -1    0    0    0    0 -0.00000000000E+00 -0.00000000000E+00 -0.45593999997E+02  0.45594000000E+02  0.51100000000E-03 0.  1.
         23    2    1    2    0    0  0.21510571102E-15  0.00000000000E+00  0.00000000000E+00  0.91188000000E+02  0.91188000000E+02 0.  0.
    9900012    2    3    3    0    0  0.56998676631E-01 -0.35445370238E+02 -0.25044875933E+02  0.47787270390E+02  0.19999997017E+02 0.  0.
         12    1    3    3    0    0 -0.56998676631E-01  0.35445370238E+02  0.25044875933E+02  0.43400729610E+02  0.00000000000E+00 0. -1.
         11    1    4    4    0    0 -0.49791688236E+01 -0.72514165960E+01 -0.13758415057E+02  0.16330007654E+02  0.51100000000E-03 0. -1.
        -11    1    4    4    0    0  0.52580063287E+01 -0.11290685165E+02 -0.50150712890E+01  0.13426732378E+02  0.51100000000E-03 0.  1.
         12    1    4    4    0    0 -0.22183882846E+00 -0.16903268477E+02 -0.62713895870E+01  0.18030530359E+02  0.00000000000E+00 0. -1.
</event>
<event>
 8    1  0.6239251E-010  0.9118800E+02  0.7816164E-02  0.1184000E+00
        -11   -1    0    0    0    0  0.00000000000E+00  0.00000000000E+00  0.45593999997E+02  0.45594000000E+02  0.51100000000E-03 0. -1.
         11   -1    0    0    0    0 -0.00000000000E+00 -0.00000000000E+00 -0.45593999997E+02  0.45594000000E+02  0.51100000000E-03 0.  1.
         23    2    1    2    0    0  0.17763568394E-14  0.00000000000E+00  0.35527136788E-14  0.91188000000E+02  0.91188000000E+02 0.  0.
    9900012    2    3    3    0    0  0.12823789824E+02 -0.32296547798E+02  0.26002047766E+02  0.47787273357E+02  0.20000010546E+02 0.  0.
        -12    1    3    3    0    0 -0.12823789824E+02  0.32296547798E+02 -0.26002047766E+02  0.43400726643E+02  0.00000000000E+00 0.  1.
         11    1    4    4    0    0 -0.37256667631E+01 -0.44477543246E+01  0.33031935328E+01  0.66763911762E+01  0.51100000000E-03 0. -1.
        -11    1    4    4    0    0 -0.34509325583E+00  0.44996113496E+00 -0.54044096699E+00  0.78334607813E+00  0.51100000000E-03 0.  1.
         12    1    4    4    0    0  0.16894549843E+02 -0.28298754608E+02  0.23239295200E+02  0.40327536103E+02  0.00000000000E+00 0. -1.
</event>
<event>
 8    1  0.6239251E-010  0.9118800E+02  0.7816164E-02  0.1184000E+00
        -11   -1    0    0    0    0  0.00000000000E+00  0.00000000000E+00  0.45593999997E+02  0.45594000000E+02  0.51100000000E-03 0. -1.
         11   -1    0    0    0    0 -0.00000000000E+00 -0.00000000000E+00 -0.45593999997E+02  0.45594000000E+02  0.51100000000E-03 0.  1.
         23    2    1    2    0    0 -0.71054273576E-14  0.00000000000E+00 -0.35527136788E-14  0.91188000000E+02  0.91188000000E+02 0.  0.
    9900012    2    3    3    0    0  0.33660643670E+02 -0.12918786586E+02  0.24159661843E+02  0.47787271441E+02  0.20000001807E+02 0.  0.
        -12    1    3    3    0    0 -0.33660643670E+02  0.12918786586E+02 -0.24159661843E+02  0.43400728559E+02  0.00000000000E+00 0.  1.
         11    1    4    4    0    0  0.10160615305E+02 -0.37679071441E+01  0.17081302542E+02  0.20228843873E+02  0.51100000000E-03 0.  1.
        -11    1    4    4    0    0  0.15243941041E+02 -0.97077335873E+01  0.29529281485E+01  0.18312225828E+02  0.51100000000E-03 0. -1.
        -12    1    4    4    0    0  0.82560873235E+01  0.55685414521E+00  0.41254311519E+01  0.92462017402E+01  0.00000000000E+00 0.  1.
</event>
<event>
 8    1  0.6239251E-010  0.9118800E+02  0.7816164E-02  0.1184000E+00
        -11   -1    0    0    0    0  0.00000000000E+00  0.00000000000E+00  0.45593999997E+02  0.45594000000E+02  0.51100000000E-03 0. -1.
         11   -1    0    0    0    0 -0.00000000000E+00 -0.00000000000E+00 -0.45593999997E+02  0.45594000000E+02  0.51100000000E-03 0.  1.
         23    2    1    2    0    0  0.00000000000E+00  0.00000000000E+00  0.00000000000E+00  0.91188000000E+02  0.91188000000E+02 0.  0.
    9900012    2    3    3    0    0  0.72246915447E+01  0.16919152208E+02 -0.39308652533E+02  0.47787262180E+02  0.19999959582E+02 0.  0.
         12    1    3    3    0    0 -0.72246915447E+01 -0.16919152208E+02  0.39308652533E+02  0.43400737820E+02  0.00000000000E+00 0. -1.
         11    1    4    4    0    0 -0.58274860589E+01  0.67873853016E+01 -0.18815967356E+02  0.20834318343E+02  0.51100000000E-03 0. -1.
        -11    1    4    4    0    0  0.76133544041E+01  0.83316066019E+01 -0.10398229680E+02  0.15346074892E+02  0.51100000000E-03 0.  1.
         12    1    4    4    0    0  0.54388231995E+01  0.18001603048E+01 -0.10094455497E+02  0.11606868945E+02  0.00000000000E+00 0. -1.
</event>
<event>
 8    1  0.6239251E-010  0.9118800E+02  0.7816164E-02  0.1184000E+00
        -11   -1    0    0    0    0  0.00000000000E+00  0.00000000000E+00  0.45593999997E+02  0.45594000000E+02  0.51100000000E-03 0. -1.
         11   -1    0    0    0    0 -0.00000000000E+00 -0.00000000000E+00 -0.45593999997E+02  0.45594000000E+02  0.51100000000E-03 0.  1.
         23    2    1    2    0    0  0.00000000000E+00  0.00000000000E+00  0.00000000000E+00  0.91188000000E+02  0.91188000000E+02 0.  0.
    9900012    2    3    3    0    0  0.14770027230E+02  0.23626396299E+02 -0.33275562065E+02  0.47787270315E+02  0.19999996673E+02 0.  0.
         12    1    3    3    0    0 -0.14770027230E+02 -0.23626396299E+02  0.33275562065E+02  0.43400729685E+02  0.00000000000E+00 0. -1.
         11    1    4    4    0    0  0.35276139170E+01  0.14950588045E+02 -0.24979872170E+02  0.29325043167E+02  0.51100000000E-03 0. -1.
        -11    1    4    4    0    0  0.11717483615E+02  0.54467869035E+01 -0.50915242793E+01  0.13888503504E+02  0.51100000000E-03 0.  1.
        -12    1    4    4    0    0 -0.47507030173E+00  0.32290213506E+01 -0.32041656159E+01  0.45737236437E+01  0.00000000000E+00 0.  1.
</event>
<event>
 8    1  0.6239251E-010  0.9118800E+02  0.7816164E-02  0.1184000E+00
        -11   -1    0    0    0    0  0.00000000000E+00  0.00000000000E+00  0.45593999997E+02  0.45594000000E+02  0.51100000000E-03 0. -1.
         11   -1    0    0    0    0 -0.00000000000E+00 -0.00000000000E+00 -0.45593999997E+02  0.45594000000E+02  0.51100000000E-03 0.  1.
         23    2    1    2    0    0 -0.17763568394E-14  0.00000000000E+00  0.00000000000E+00  0.91188000000E+02  0.91188000000E+02 0.  0.
    9900012    2    3    3    0    0 -0.11470947261E+02 -0.79500836173E+01  0.41095459748E+02  0.47787271060E+02  0.20000000072E+02 0.  0.
        -12    1    3    3    0    0  0.11470947261E+02  0.79500836173E+01 -0.41095459748E+02  0.43400728940E+02  0.00000000000E+00 0.  1.
         11    1    4    4    0    0 -0.15547544777E+02 -0.27400470481E+01  0.31819691166E+02  0.35520793242E+02  0.51100000000E-03 0. -1.
        -11    1    4    4    0    0  0.26177809895E+01 -0.18455872018E+01  0.75746747506E+01  0.82240298679E+01  0.51100000000E-03 0.  1.
         12    1    4    4    0    0  0.14588165265E+01 -0.33644493674E+01  0.17010938320E+01  0.40424479501E+01  0.00000000000E+00 0. -1.
</event>
<event>
 8    1  0.6239251E-010  0.9118800E+02  0.7816164E-02  0.1184000E+00
        -11   -1    0    0    0    0  0.00000000000E+00  0.00000000000E+00  0.45593999997E+02  0.45594000000E+02  0.51100000000E-03 0. -1.
         11   -1    0    0    0    0 -0.00000000000E+00 -0.00000000000E+00 -0.45593999997E+02  0.45594000000E+02  0.51100000000E-03 0.  1.
         23    2    1    2    0    0  0.00000000000E+00  0.00000000000E+00  0.00000000000E+00  0.91188000000E+02  0.91188000000E+02 0.  0.
    9900012    2    3    3    0    0 -0.17587336715E+02 -0.33724063899E+02  0.20904472827E+02  0.47787264030E+02  0.19999968017E+02 0.  0.
        -12    1    3    3    0    0  0.17587336715E+02  0.33724063899E+02 -0.20904472827E+02  0.43400735970E+02  0.00000000000E+00 0.  1.
         11    1    4    4    0    0 -0.62572126038E+01 -0.70383111437E+01  0.45710170261E+01  0.10468272553E+02  0.51100000000E-03 0. -1.
        -11    1    4    4    0    0 -0.60497410702E+01 -0.14046392954E+02 -0.88151964172E+00  0.15319190553E+02  0.51100000000E-03 0.  1.
        -12    1    4    4    0    0 -0.52803830416E+01 -0.12639359801E+02  0.17214975442E+02  0.21999800924E+02  0.00000000000E+00 0.  1.
</event>
<event>
 8    1  0.6239251E-010  0.9118800E+02  0.7816164E-02  0.1184000E+00
        -11   -1    0    0    0    0  0.00000000000E+00  0.00000000000E+00  0.45593999997E+02  0.45594000000E+02  0.51100000000E-03 0. -1.
         11   -1    0    0    0    0 -0.00000000000E+00 -0.00000000000E+00 -0.45593999997E+02  0.45594000000E+02  0.51100000000E-03 0.  1.
         23    2    1    2    0    0  0.44408920985E-15  0.00000000000E+00  0.00000000000E+00  0.91188000000E+02  0.91188000000E+02 0.  0.
    9900012    2    3    3    0    0  0.70149586838E+00 -0.10341605459E+02  0.42144778916E+02  0.47787270860E+02  0.19999999161E+02 0.  0.
        -12    1    3    3    0    0 -0.70149586838E+00  0.10341605459E+02 -0.42144778916E+02  0.43400729140E+02  0.00000000000E+00 0.  1.
         11    1    4    4    0    0  0.77496784288E+01 -0.79119280221E+01  0.28401006919E+02  0.30483984566E+02  0.51100000000E-03 0. -1.
        -11    1    4    4    0    0 -0.78664288375E+01  0.62882651034E-01  0.10781084763E+02  0.13346027342E+02  0.51100000000E-03 0.  1.
        -12    1    4    4    0    0  0.81824627703E+00 -0.24925600884E+01  0.29626872348E+01  0.39572589523E+01  0.00000000000E+00 0.  1.
</event>
<event>
 8    1  0.6239251E-010  0.9118800E+02  0.7816164E-02  0.1184000E+00
        -11   -1    0    0    0    0  0.00000000000E+00  0.00000000000E+00  0.45593999997E+02  0.45594000000E+02  0.51100000000E-03 0. -1.
         11   -1    0    0    0    0 -0.00000000000E+00 -0.00000000000E+00 -0.45593999997E+02  0.45594000000E+02  0.51100000000E-03 0.  1.
         23    2    1    2    0    0  0.00000000000E+00 -0.35527136788E-14 -0.35527136788E-14  0.91188000000E+02  0.91188000000E+02 0.  0.
    9900012    2    3    3    0    0  0.17838731902E+02  0.26194889809E+02  0.29651822936E+02  0.47787271764E+02  0.20000003283E+02 0.  0.
        -12    1    3    3    0    0 -0.17838731902E+02 -0.26194889809E+02 -0.29651822936E+02  0.43400728236E+02  0.00000000000E+00 0.  1.
         11    1    4    4    0    0  0.52004555289E+01  0.87966926765E+01  0.20465232683E+02  0.22874708496E+02  0.51100000000E-03 0. -1.
        -11    1    4    4    0    0 -0.73629996620E+00  0.41480188259E+01  0.73792521260E+00  0.42770003158E+01  0.51100000000E-03 0.  1.
         12    1    4    4    0    0  0.13374576339E+02  0.13250178306E+02  0.84486650403E+01  0.20635562952E+02  0.00000000000E+00 0. -1.
</event>
<event>
 8    1  0.6239251E-010  0.9118800E+02  0.7816164E-02  0.1184000E+00
        -11   -1    0    0    0    0  0.00000000000E+00  0.00000000000E+00  0.45593999997E+02  0.45594000000E+02  0.51100000000E-03 0. -1.
         11   -1    0    0    0    0 -0.00000000000E+00 -0.00000000000E+00 -0.45593999997E+02  0.45594000000E+02  0.51100000000E-03 0.  1.
         23    2    1    2    0    0  0.00000000000E+00  0.35527136788E-14  0.00000000000E+00  0.91188000000E+02  0.91188000000E+02 0.  0.
    9900012    2    3    3    0    0  0.86552813154E+01 -0.27896021729E+02  0.32101739999E+02  0.47787266897E+02  0.19999981089E+02 0.  0.
        -12    1    3    3    0    0 -0.86552813154E+01  0.27896021729E+02 -0.32101739999E+02  0.43400733103E+02  0.00000000000E+00 0.  1.
         11    1    4    4    0    0  0.57088349623E+01 -0.12852179654E+02  0.74240387088E+01  0.15902379366E+02  0.51100000000E-03 0. -1.
        -11    1    4    4    0    0  0.24227485384E+01 -0.52956377617E+01  0.20420673370E+02  0.21234815538E+02  0.51100000000E-03 0.  1.
        -12    1    4    4    0    0  0.52369781472E+00 -0.97482043137E+01  0.42570279195E+01  0.10650071993E+02  0.00000000000E+00 0.  1.
</event>
<event>
 8    1  0.6239251E-010  0.9118800E+02  0.7816164E-02  0.1184000E+00
        -11   -1    0    0    0    0  0.00000000000E+00  0.00000000000E+00  0.45593999997E+02  0.45594000000E+02  0.51100000000E-03 0.  1.
         11   -1    0    0    0    0 -0.00000000000E+00 -0.00000000000E+00 -0.45593999997E+02  0.45594000000E+02  0.51100000000E-03 0. -1.
         23    2    1    2    0    0  0.00000000000E+00  0.35527136788E-14  0.00000000000E+00  0.91188000000E+02  0.91188000000E+02 0.  0.
    9900012    2    3    3    0    0  0.35116830282E+02  0.18467860140E+02 -0.17588901172E+02  0.47787273374E+02  0.20000010623E+02 0.  0.
        -12    1    3    3    0    0 -0.35116830282E+02 -0.18467860140E+02  0.17588901172E+02  0.43400726626E+02  0.00000000000E+00 0.  1.
         11    1    4    4    0    0  0.20904754119E+02  0.99628863992E+01 -0.16801810103E+02  0.28610639161E+02  0.51100000000E-03 0. -1.
        -11    1    4    4    0    0  0.12790763116E+02  0.80357648809E+01  0.27336945294E+01  0.15350903047E+02  0.51100000000E-03 0.  1.
        -12    1    4    4    0    0  0.14213130465E+01  0.46920885971E+00 -0.35207855980E+01  0.38257311664E+01  0.00000000000E+00 0.  1.
</event>
<event>
 8    1  0.6239251E-010  0.9118800E+02  0.7816164E-02  0.1184000E+00
        -11   -1    0    0    0    0  0.00000000000E+00  0.00000000000E+00  0.45593999997E+02  0.45594000000E+02  0.51100000000E-03 0.  1.
         11   -1    0    0    0    0 -0.00000000000E+00 -0.00000000000E+00 -0.45593999997E+02  0.45594000000E+02  0.51100000000E-03 0. -1.
         23    2    1    2    0    0  0.35527136788E-14  0.17763568394E-14  0.00000000000E+00  0.91188000000E+02  0.91188000000E+02 0.  0.
    9900012    2    3    3    0    0 -0.28647987754E+02 -0.96935252583E+01  0.31127990584E+02  0.47787269222E+02  0.19999991691E+02 0.  0.
        -12    1    3    3    0    0  0.28647987754E+02  0.96935252583E+01 -0.31127990584E+02  0.43400730778E+02  0.00000000000E+00 0.  1.
         11    1    4    4    0    0 -0.25889851964E+02 -0.40648422815E+01  0.25736842055E+02  0.36731354681E+02  0.51100000000E-03 0. -1.
        -11    1    4    4    0    0 -0.19317129783E+01 -0.70343820669E+01  0.24540433788E+01  0.76965170863E+01  0.51100000000E-03 0.  1.
         12    1    4    4    0    0 -0.82642281100E+00  0.14056990900E+01  0.29371051503E+01  0.33593974546E+01  0.00000000000E+00 0. -1.
</event>
<event>
 8    1  0.6239251E-010  0.9118800E+02  0.7816164E-02  0.1184000E+00
        -11   -1    0    0    0    0  0.00000000000E+00  0.00000000000E+00  0.45593999997E+02  0.45594000000E+02  0.51100000000E-03 0. -1.
         11   -1    0    0    0    0 -0.00000000000E+00 -0.00000000000E+00 -0.45593999997E+02  0.45594000000E+02  0.51100000000E-03 0.  1.
         23    2    1    2    0    0  0.00000000000E+00  0.00000000000E+00  0.00000000000E+00  0.91188000000E+02  0.91188000000E+02 0.  0.
    9900012    2    3    3    0    0  0.60616526886E+01 -0.26132016407E+02 -0.34117375005E+02  0.47787295028E+02  0.20000109353E+02 0.  0.
         12    1    3    3    0    0 -0.60616526886E+01  0.26132016407E+02  0.34117375005E+02  0.43400704972E+02  0.00000000000E+00 0. -1.
         11    1    4    4    0    0 -0.38886550058E+00 -0.20566824980E+01  0.14768379637E+01  0.25616810706E+01  0.51100000000E-03 0. -1.
        -11    1    4    4    0    0  0.47415389686E+00 -0.21282557277E+02 -0.27802356369E+02  0.35016325994E+02  0.51100000000E-03 0.  1.
        -12    1    4    4    0    0  0.59763642923E+01 -0.27927766322E+01 -0.77918565990E+01  0.10209287964E+02  0.00000000000E+00 0.  1.
</event>
<event>
 8    1  0.6239251E-010  0.9118800E+02  0.7816164E-02  0.1184000E+00
        -11   -1    0    0    0    0  0.00000000000E+00  0.00000000000E+00  0.45593999997E+02  0.45594000000E+02  0.51100000000E-03 0. -1.
         11   -1    0    0    0    0 -0.00000000000E+00 -0.00000000000E+00 -0.45593999997E+02  0.45594000000E+02  0.51100000000E-03 0.  1.
         23    2    1    2    0    0  0.71054273576E-14  0.00000000000E+00  0.00000000000E+00  0.91188000000E+02  0.91188000000E+02 0.  0.
    9900012    2    3    3    0    0 -0.33719117021E+02 -0.14530152576E+02 -0.23141279627E+02  0.47787274092E+02  0.20000013894E+02 0.  0.
         12    1    3    3    0    0  0.33719117021E+02  0.14530152576E+02  0.23141279627E+02  0.43400725908E+02  0.00000000000E+00 0. -1.
         11    1    4    4    0    0 -0.22142136438E+02 -0.44131846522E+01 -0.21607131354E+02  0.31250896474E+02  0.51100000000E-03 0. -1.
        -11    1    4    4    0    0 -0.10445530041E+02 -0.65102340671E+01 -0.26597255096E+01  0.12592314540E+02  0.51100000000E-03 0.  1.
         12    1    4    4    0    0 -0.11314505427E+01 -0.36067338571E+01  0.11255772359E+01  0.39440630777E+01  0.00000000000E+00 0. -1.
</event>
<event>
 8    1  0.6239251E-010  0.9118800E+02  0.7816164E-02  0.1184000E+00
        -11   -1    0    0    0    0  0.00000000000E+00  0.00000000000E+00  0.45593999997E+02  0.45594000000E+02  0.51100000000E-03 0. -1.
         11   -1    0    0    0    0 -0.00000000000E+00 -0.00000000000E+00 -0.45593999997E+02  0.45594000000E+02  0.51100000000E-03 0.  1.
         23    2    1    2    0    0  0.00000000000E+00  0.00000000000E+00  0.00000000000E+00  0.91188000000E+02  0.91188000000E+02 0.  0.
    9900012    2    3    3    0    0 -0.20394663224E+02 -0.89737699359E+01 -0.37244501242E+02  0.47787266047E+02  0.19999977216E+02 0.  0.
         12    1    3    3    0    0  0.20394663224E+02  0.89737699359E+01  0.37244501242E+02  0.43400733953E+02  0.00000000000E+00 0. -1.
         11    1    4    4    0    0  0.20756362995E+01 -0.25952013036E+01 -0.93141314348E+01  0.98892052512E+01  0.51100000000E-03 0. -1.
        -11    1    4    4    0    0 -0.12618955365E+02 -0.33595635887E+01 -0.76084810071E+01  0.15113361159E+02  0.51100000000E-03 0.  1.
         12    1    4    4    0    0 -0.98513441583E+01 -0.30190050435E+01 -0.20321888800E+02  0.22784699637E+02  0.00000000000E+00 0. -1.
</event>
<event>
 8    1  0.6239251E-010  0.9118800E+02  0.7816164E-02  0.1184000E+00
        -11   -1    0    0    0    0  0.00000000000E+00  0.00000000000E+00  0.45593999997E+02  0.45594000000E+02  0.51100000000E-03 0. -1.
         11   -1    0    0    0    0 -0.00000000000E+00 -0.00000000000E+00 -0.45593999997E+02  0.45594000000E+02  0.51100000000E-03 0.  1.
         23    2    1    2    0    0  0.00000000000E+00  0.17763568394E-14  0.00000000000E+00  0.91188000000E+02  0.91188000000E+02 0.  0.
    9900012    2    3    3    0    0  0.17106607805E+02 -0.12233503175E+02  0.37964834014E+02  0.47787271294E+02  0.20000001138E+02 0.  0.
        -12    1    3    3    0    0 -0.17106607805E+02  0.12233503175E+02 -0.37964834014E+02  0.43400728706E+02  0.00000000000E+00 0.  1.
         11    1    4    4    0    0  0.15536880807E+01 -0.37959732368E+01  0.27302612683E+01  0.49272392190E+01  0.51100000000E-03 0. -1.
        -11    1    4    4    0    0  0.11727207355E+02 -0.13370057563E+02  0.22518287016E+02  0.28694234299E+02  0.51100000000E-03 0.  1.
        -12    1    4    4    0    0  0.38257123692E+01  0.49325276245E+01  0.12716285729E+02  0.14165797776E+02  0.00000000000E+00 0.  1.
</event>
<event>
 8    1  0.6239251E-010  0.9118800E+02  0.7816164E-02  0.1184000E+00
        -11   -1    0    0    0    0  0.00000000000E+00  0.00000000000E+00  0.45593999997E+02  0.45594000000E+02  0.51100000000E-03 0. -1.
         11   -1    0    0    0    0 -0.00000000000E+00 -0.00000000000E+00 -0.45593999997E+02  0.45594000000E+02  0.51100000000E-03 0.  1.
         23    2    1    2    0    0 -0.71054273576E-14  0.00000000000E+00 -0.17763568394E-14  0.91188000000E+02  0.91188000000E+02 0.  0.
    9900012    2    3    3    0    0  0.40427974683E+02  0.11942121639E+02  0.10324200088E+02  0.47787256762E+02  0.19999934879E+02 0.  0.
        -12    1    3    3    0    0 -0.40427974683E+02 -0.11942121639E+02 -0.10324200088E+02  0.43400743238E+02  0.00000000000E+00 0.  1.
         11    1    4    4    0    0  0.45213616944E+01  0.77425089098E-01  0.42301243288E+00  0.45417668363E+01  0.51100000000E-03 0. -1.
        -11    1    4    4    0    0  0.54398537971E+01 -0.36939544869E+01 -0.22380647160E+01  0.69459515561E+01  0.51100000000E-03 0.  1.
        -12    1    4    4    0    0  0.30466759191E+02  0.15558651037E+02  0.12139252371E+02  0.36299538369E+02  0.00000000000E+00 0.  1.
</event>
<event>
 8    1  0.6239251E-010  0.9118800E+02  0.7816164E-02  0.1184000E+00
        -11   -1    0    0    0    0  0.00000000000E+00  0.00000000000E+00  0.45593999997E+02  0.45594000000E+02  0.51100000000E-03 0. -1.
         11   -1    0    0    0    0 -0.00000000000E+00 -0.00000000000E+00 -0.45593999997E+02  0.45594000000E+02  0.51100000000E-03 0.  1.
         23    2    1    2    0    0  0.44408920985E-15  0.00000000000E+00  0.00000000000E+00  0.91188000000E+02  0.91188000000E+02 0.  0.
    9900012    2    3    3    0    0 -0.17784772888E+01 -0.33710673738E+02 -0.27277290918E+02  0.47787272988E+02  0.20000008863E+02 0.  0.
         12    1    3    3    0    0  0.17784772888E+01  0.33710673738E+02  0.27277290918E+02  0.43400727012E+02  0.00000000000E+00 0. -1.
         11    1    4    4    0    0 -0.55706401310E+01 -0.18118392872E+02 -0.10830935143E+02  0.21831567696E+02  0.51100000000E-03 0. -1.
        -11    1    4    4    0    0  0.64460060074E+01 -0.47288666411E+01 -0.31774207814E+01  0.86028586086E+01  0.51100000000E-03 0.  1.
        -12    1    4    4    0    0 -0.26538431652E+01 -0.10863414225E+02 -0.13268934993E+02  0.17352846684E+02  0.00000000000E+00 0.  1.
</event>
<event>
 8    1  0.6239251E-010  0.9118800E+02  0.7816164E-02  0.1184000E+00
        -11   -1    0    0    0    0  0.00000000000E+00  0.00000000000E+00  0.45593999997E+02  0.45594000000E+02  0.51100000000E-03 0. -1.
         11   -1    0    0    0    0 -0.00000000000E+00 -0.00000000000E+00 -0.45593999997E+02  0.45594000000E+02  0.51100000000E-03 0.  1.
         23    2    1    2    0    0 -0.11102230246E-15  0.00000000000E+00 -0.71054273576E-14  0.91188000000E+02  0.91188000000E+02 0.  0.
    9900012    2    3    3    0    0  0.76438919974E+00 -0.23968754292E+02 -0.36173718031E+02  0.47787270174E+02  0.19999996033E+02 0.  0.
         12    1    3    3    0    0 -0.76438919974E+00  0.23968754292E+02  0.36173718031E+02  0.43400729826E+02  0.00000000000E+00 0. -1.
         11    1    4    4    0    0  0.25829117072E+01 -0.15914828896E+02 -0.34101621667E+02  0.37720999619E+02  0.51100000000E-03 0. -1.
        -11    1    4    4    0    0  0.10945784190E+01 -0.62504974380E+01 -0.73333394628E+00  0.63878477655E+01  0.51100000000E-03 0.  1.
         12    1    4    4    0    0 -0.29131009265E+01 -0.18034279584E+01 -0.13387624179E+01  0.36784227898E+01  0.00000000000E+00 0. -1.
</event>
<event>
 8    1  0.6239251E-010  0.9118800E+02  0.7816164E-02  0.1184000E+00
        -11   -1    0    0    0    0  0.00000000000E+00  0.00000000000E+00  0.45593999997E+02  0.45594000000E+02  0.51100000000E-03 0. -1.
         11   -1    0    0    0    0 -0.00000000000E+00 -0.00000000000E+00 -0.45593999997E+02  0.45594000000E+02  0.51100000000E-03 0.  1.
         23    2    1    2    0    0  0.17763568394E-14  0.00000000000E+00  0.00000000000E+00  0.91188000000E+02  0.91188000000E+02 0.  0.
    9900012    2    3    3    0    0  0.87344317544E+01 -0.34583130044E+01  0.42371850943E+02  0.47787262918E+02  0.19999962948E+02 0.  0.
        -12    1    3    3    0    0 -0.87344317544E+01  0.34583130044E+01 -0.42371850943E+02  0.43400737082E+02  0.00000000000E+00 0.  1.
         11    1    4    4    0    0  0.14049262293E+00  0.47700137850E+00  0.36791902771E+02  0.36795262987E+02  0.51100000000E-03 0. -1.
        -11    1    4    4    0    0  0.48641456125E+01 -0.24155189152E+01  0.34757620171E+01  0.64479117573E+01  0.51100000000E-03 0.  1.
         12    1    4    4    0    0  0.37297935190E+01 -0.15197954677E+01  0.21041861552E+01  0.45440881741E+01  0.00000000000E+00 0. -1.
</event>
<event>
 8    1  0.6239251E-010  0.9118800E+02  0.7816164E-02  0.1184000E+00
        -11   -1    0    0    0    0  0.00000000000E+00  0.00000000000E+00  0.45593999997E+02  0.45594000000E+02  0.51100000000E-03 0. -1.
         11   -1    0    0    0    0 -0.00000000000E+00 -0.00000000000E+00 -0.45593999997E+02  0.45594000000E+02  0.51100000000E-03 0.  1.
         23    2    1    2    0    0  0.00000000000E+00  0.00000000000E+00  0.35527136788E-14  0.91188000000E+02  0.91188000000E+02 0.  0.
    9900012    2    3    3    0    0 -0.10787198985E+02 -0.28400384490E+02 -0.30994790937E+02  0.47787279195E+02  0.20000037163E+02 0.  0.
         12    1    3    3    0    0  0.10787198985E+02  0.28400384490E+02  0.30994790937E+02  0.43400720805E+02  0.00000000000E+00 0. -1.
         11    1    4    4    0    0 -0.52344243912E+00 -0.25518937587E+01 -0.46938917770E+00  0.26469756712E+01  0.51100000000E-03 0. -1.
        -11    1    4    4    0    0 -0.98879150240E+01 -0.14232616647E+02 -0.28481963916E+02  0.33340073619E+02  0.51100000000E-03 0.  1.
        -12    1    4    4    0    0 -0.37584152200E+00 -0.11615874085E+02 -0.20434378433E+01  0.11800229905E+02  0.00000000000E+00 0.  1.
</event>
<event>
 8    1  0.6239251E-010  0.9118800E+02  0.7816164E-02  0.1184000E+00
        -11   -1    0    0    0    0  0.00000000000E+00  0.00000000000E+00  0.45593999997E+02  0.45594000000E+02  0.51100000000E-03 0. -1.
         11   -1    0    0    0    0 -0.00000000000E+00 -0.00000000000E+00 -0.45593999997E+02  0.45594000000E+02  0.51100000000E-03 0.  1.
         23    2    1    2    0    0  0.00000000000E+00  0.00000000000E+00  0.00000000000E+00  0.91188000000E+02  0.91188000000E+02 0.  0.
    9900012    2    3    3    0    0 -0.81756485879E+01 -0.29921139315E+02  0.30356341852E+02  0.47787270762E+02  0.19999998712E+02 0.  0.
        -12    1    3    3    0    0  0.81756485879E+01  0.29921139315E+02 -0.30356341852E+02  0.43400729238E+02  0.00000000000E+00 0.  1.
         11    1    4    4    0    0 -0.75436959725E+01 -0.25820323780E+02  0.17254205468E+02  0.31957848419E+02  0.51100000000E-03 0. -1.
        -11    1    4    4    0    0 -0.12358529591E+01  0.16064903977E+00 -0.65980528999E+00  0.14101361397E+01  0.51100000000E-03 0.  1.
         12    1    4    4    0    0  0.60390034378E+00 -0.42614645751E+01  0.13761941674E+02  0.14419286203E+02  0.00000000000E+00 0. -1.
</event>
<event>
 8    1  0.6239251E-010  0.9118800E+02  0.7816164E-02  0.1184000E+00
        -11   -1    0    0    0    0  0.00000000000E+00  0.00000000000E+00  0.45593999997E+02  0.45594000000E+02  0.51100000000E-03 0. -1.
         11   -1    0    0    0    0 -0.00000000000E+00 -0.00000000000E+00 -0.45593999997E+02  0.45594000000E+02  0.51100000000E-03 0.  1.
         23    2    1    2    0    0  0.71054273576E-14 -0.11102230246E-15  0.00000000000E+00  0.91188000000E+02  0.91188000000E+02 0.  0.
    9900012    2    3    3    0    0  0.37357521326E+02  0.65836275835E+00 -0.22081787585E+02  0.47787272079E+02  0.20000004715E+02 0.  0.
         12    1    3    3    0    0 -0.37357521326E+02 -0.65836275835E+00  0.22081787585E+02  0.43400727921E+02  0.00000000000E+00 0. -1.
         11    1    4    4    0    0 -0.46717786960E+00  0.81468451120E+00  0.21299141342E+01  0.23277672768E+01  0.51100000000E-03 0. -1.
        -11    1    4    4    0    0  0.13633229196E+02  0.29517846157E+01 -0.69944192808E+01  0.15604482435E+02  0.51100000000E-03 0.  1.
         12    1    4    4    0    0  0.24191470000E+02 -0.31081063686E+01 -0.17217282439E+02  0.29855022367E+02  0.00000000000E+00 0. -1.
</event>
<event>
 8    1  0.6239251E-010  0.9118800E+02  0.7816164E-02  0.1184000E+00
        -11   -1    0    0    0    0  0.00000000000E+00  0.00000000000E+00  0.45593999997E+02  0.45594000000E+02  0.51100000000E-03 0. -1.
         11   -1    0    0    0    0 -0.00000000000E+00 -0.00000000000E+00 -0.45593999997E+02  0.45594000000E+02  0.51100000000E-03 0.  1.
         23    2    1    2    0    0  0.00000000000E+00  0.00000000000E+00  0.00000000000E+00  0.91188000000E+02  0.91188000000E+02 0.  0.
    9900012    2    3    3    0    0 -0.36466946955E+02 -0.10004271599E+02 -0.21300223976E+02  0.47787271759E+02  0.20000003257E+02 0.  0.
         12    1    3    3    0    0  0.36466946955E+02  0.10004271599E+02  0.21300223976E+02  0.43400728241E+02  0.00000000000E+00 0. -1.
         11    1    4    4    0    0 -0.82431868244E+00 -0.14846762136E+01 -0.11788566265E+01  0.20672367926E+01  0.51100000000E-03 0. -1.
        -11    1    4    4    0    0 -0.67682789767E+01 -0.89410873561E+01 -0.13905176285E+01  0.11299831103E+02  0.51100000000E-03 0.  1.
        -12    1    4    4    0    0 -0.28874349296E+02  0.42149197087E+00 -0.18730849721E+02  0.34420203864E+02  0.00000000000E+00 0.  1.
</event>
<event>
 8    1  0.6239251E-010  0.9118800E+02  0.7816164E-02  0.1184000E+00
        -11   -1    0    0    0    0  0.00000000000E+00  0.00000000000E+00  0.45593999997E+02  0.45594000000E+02  0.51100000000E-03 0. -1.
         11   -1    0    0    0    0 -0.00000000000E+00 -0.00000000000E+00 -0.45593999997E+02  0.45594000000E+02  0.51100000000E-03 0.  1.
         23    2    1    2    0    0  0.00000000000E+00  0.00000000000E+00  0.00000000000E+00  0.91188000000E+02  0.91188000000E+02 0.  0.
    9900012    2    3    3    0    0 -0.45715246500E+01  0.20946410167E+02 -0.37735559653E+02  0.47787269605E+02  0.19999993435E+02 0.  0.
         12    1    3    3    0    0  0.45715246500E+01 -0.20946410167E+02  0.37735559653E+02  0.43400730395E+02  0.00000000000E+00 0. -1.
         11    1    4    4    0    0  0.53543475472E+01 -0.21068449879E-01 -0.38844075831E+01  0.66149908593E+01  0.51100000000E-03 0. -1.
        -11    1    4    4    0    0 -0.39144067958E+01  0.12043142236E+02 -0.17623787595E+02  0.21701560887E+02  0.51100000000E-03 0.  1.
         12    1    4    4    0    0 -0.60114654014E+01  0.89243363806E+01 -0.16227364475E+02  0.19470717858E+02  0.00000000000E+00 0. -1.
</event>
<event>
 8    1  0.6239251E-010  0.9118800E+02  0.7816164E-02  0.1184000E+00
        -11   -1    0    0    0    0  0.00000000000E+00  0.00000000000E+00  0.45593999997E+02  0.45594000000E+02  0.51100000000E-03 0. -1.
         11   -1    0    0    0    0 -0.00000000000E+00 -0.00000000000E+00 -0.45593999997E+02  0.45594000000E+02  0.51100000000E-03 0.  1.
         23    2    1    2    0    0  0.00000000000E+00  0.00000000000E+00  0.00000000000E+00  0.91188000000E+02  0.91188000000E+02 0.  0.
    9900012    2    3    3    0    0 -0.12941460222E+02  0.18742095559E+02 -0.36944221881E+02  0.47787273404E+02  0.20000010759E+02 0.  0.
         12    1    3    3    0    0  0.12941460222E+02 -0.18742095559E+02  0.36944221881E+02  0.43400726596E+02  0.00000000000E+00 0. -1.
         11    1    4    4    0    0 -0.21644783589E+01 -0.64917347601E+00 -0.12397476511E+02  0.12601738645E+02  0.51100000000E-03 0. -1.
        -11    1    4    4    0    0 -0.75042799144E+01  0.20285785231E+02 -0.22561788956E+02  0.31254785564E+02  0.51100000000E-03 0.  1.
         12    1    4    4    0    0 -0.32727019487E+01 -0.89451619613E+00 -0.19849564139E+01  0.39307491952E+01  0.00000000000E+00 0. -1.
</event>
<event>
 8    1  0.6239251E-010  0.9118800E+02  0.7816164E-02  0.1184000E+00
        -11   -1    0    0    0    0  0.00000000000E+00  0.00000000000E+00  0.45593999997E+02  0.45594000000E+02  0.51100000000E-03 0.  1.
         11   -1    0    0    0    0 -0.00000000000E+00 -0.00000000000E+00 -0.45593999997E+02  0.45594000000E+02  0.51100000000E-03 0. -1.
         23    2    1    2    0    0  0.00000000000E+00  0.00000000000E+00 -0.44408920985E-15  0.91188000000E+02  0.91188000000E+02 0.  0.
    9900012    2    3    3    0    0 -0.41164953986E+02  0.13698149250E+02  0.11961368547E+01  0.47787268751E+02  0.19999989545E+02 0.  0.
         12    1    3    3    0    0  0.41164953986E+02 -0.13698149250E+02 -0.11961368547E+01  0.43400731249E+02  0.00000000000E+00 0. -1.
         11    1    4    4    0    0 -0.29307201868E+02  0.15312022051E+02  0.60865414957E+01  0.33621660998E+02  0.51100000000E-03 0. -1.
        -11    1    4    4    0    0 -0.10838011282E+02  0.10353115003E+00 -0.26374926617E+01  0.11154800538E+02  0.51100000000E-03 0.  1.
         12    1    4    4    0    0 -0.10197408362E+01 -0.17174039506E+01 -0.22529119794E+01  0.30108072156E+01  0.00000000000E+00 0. -1.
</event>
<event>
 8    1  0.6239251E-010  0.9118800E+02  0.7816164E-02  0.1184000E+00
        -11   -1    0    0    0    0  0.00000000000E+00  0.00000000000E+00  0.45593999997E+02  0.45594000000E+02  0.51100000000E-03 0. -1.
         11   -1    0    0    0    0 -0.00000000000E+00 -0.00000000000E+00 -0.45593999997E+02  0.45594000000E+02  0.51100000000E-03 0.  1.
         23    2    1    2    0    0  0.00000000000E+00 -0.27582103268E-15  0.00000000000E+00  0.91188000000E+02  0.91188000000E+02 0.  0.
    9900012    2    3    3    0    0 -0.26287033736E+02 -0.10401576881E-01 -0.34534261902E+02  0.47787268486E+02  0.19999988335E+02 0.  0.
         12    1    3    3    0    0  0.26287033736E+02  0.10401576881E-01  0.34534261902E+02  0.43400731514E+02  0.00000000000E+00 0. -1.
         11    1    4    4    0    0  0.99238397863E+00 -0.26487574620E+00  0.27685213106E+00  0.10637821608E+01  0.51100000000E-03 0. -1.
        -11    1    4    4    0    0 -0.13400475705E+02 -0.23003237942E+01 -0.64574382580E+01  0.15052001455E+02  0.51100000000E-03 0.  1.
        -12    1    4    4    0    0 -0.13878942010E+02  0.25547979635E+01 -0.28353675775E+02  0.31671484870E+02  0.00000000000E+00 0.  1.
</event>
<event>
 8    1  0.6239251E-010  0.9118800E+02  0.7816164E-02  0.1184000E+00
        -11   -1    0    0    0    0  0.00000000000E+00  0.00000000000E+00  0.45593999997E+02  0.45594000000E+02  0.51100000000E-03 0. -1.
         11   -1    0    0    0    0 -0.00000000000E+00 -0.00000000000E+00 -0.45593999997E+02  0.45594000000E+02  0.51100000000E-03 0.  1.
         23    2    1    2    0    0  0.00000000000E+00  0.00000000000E+00 -0.88817841970E-15  0.91188000000E+02  0.91188000000E+02 0.  0.
    9900012    2    3    3    0    0 -0.21313326581E+02  0.37022489271E+02 -0.76616364179E+01  0.47787271038E+02  0.19999999972E+02 0.  0.
         12    1    3    3    0    0  0.21313326581E+02 -0.37022489271E+02  0.76616364179E+01  0.43400728962E+02  0.00000000000E+00 0. -1.
         11    1    4    4    0    0 -0.18626709162E+01  0.17451264360E+02 -0.53619361757E+01  0.18351199702E+02  0.51100000000E-03 0.  1.
        -11    1    4    4    0    0 -0.62610348093E+01  0.12505493215E+02 -0.35260273647E+01  0.14422925732E+02  0.51100000000E-03 0. -1.
         12    1    4    4    0    0 -0.13189620856E+02  0.70657316971E+01  0.12263271224E+01  0.15013145605E+02  0.00000000000E+00 0. -1.
</event>
<event>
 8    1  0.6239251E-010  0.9118800E+02  0.7816164E-02  0.1184000E+00
        -11   -1    0    0    0    0  0.00000000000E+00  0.00000000000E+00  0.45593999997E+02  0.45594000000E+02  0.51100000000E-03 0. -1.
         11   -1    0    0    0    0 -0.00000000000E+00 -0.00000000000E+00 -0.45593999997E+02  0.45594000000E+02  0.51100000000E-03 0.  1.
         23    2    1    2    0    0  0.00000000000E+00  0.71054273576E-14 -0.35527136788E-14  0.91188000000E+02  0.91188000000E+02 0.  0.
    9900012    2    3    3    0    0 -0.47692230234E+01 -0.35883510145E+02 -0.23942677134E+02  0.47787267554E+02  0.19999984084E+02 0.  0.
         12    1    3    3    0    0  0.47692230234E+01  0.35883510145E+02  0.23942677134E+02  0.43400732446E+02  0.00000000000E+00 0. -1.
         11    1    4    4    0    0 -0.12465794802E+01 -0.17510409889E+02 -0.19654895592E+02  0.26353051738E+02  0.51100000000E-03 0. -1.
        -11    1    4    4    0    0  0.20124314515E+01 -0.93315195685E+01  0.98009749874E+00  0.95962351562E+01  0.51100000000E-03 0.  1.
        -12    1    4    4    0    0 -0.55350749947E+01 -0.90415806867E+01 -0.52678790403E+01  0.11837980659E+02  0.00000000000E+00 0.  1.
</event>
<event>
 8    1  0.6239251E-010  0.9118800E+02  0.7816164E-02  0.1184000E+00
        -11   -1    0    0    0    0  0.00000000000E+00  0.00000000000E+00  0.45593999997E+02  0.45594000000E+02  0.51100000000E-03 0.  1.
         11   -1    0    0    0    0 -0.00000000000E+00 -0.00000000000E+00 -0.45593999997E+02  0.45594000000E+02  0.51100000000E-03 0. -1.
         23    2    1    2    0    0  0.00000000000E+00  0.00000000000E+00 -0.35527136788E-14  0.91188000000E+02  0.91188000000E+02 0.  0.
    9900012    2    3    3    0    0 -0.25319090684E+02 -0.27293894387E+02 -0.22307176145E+02  0.47787272685E+02  0.20000007482E+02 0.  0.
         12    1    3    3    0    0  0.25319090684E+02  0.27293894387E+02  0.22307176145E+02  0.43400727315E+02  0.00000000000E+00 0. -1.
         11    1    4    4    0    0 -0.15232368301E+02 -0.45316697599E+01 -0.78145061985E+01  0.17709533654E+02  0.51100000000E-03 0. -1.
        -11    1    4    4    0    0 -0.57507608255E+01 -0.14923710623E+02 -0.44092931518E+01  0.16590064954E+02  0.51100000000E-03 0.  1.
         12    1    4    4    0    0 -0.43359615582E+01 -0.78385140041E+01 -0.10083376795E+02  0.13487674077E+02  0.00000000000E+00 0. -1.
</event>
<event>
 8    1  0.6239251E-010  0.9118800E+02  0.7816164E-02  0.1184000E+00
        -11   -1    0    0    0    0  0.00000000000E+00  0.00000000000E+00  0.45593999997E+02  0.45594000000E+02  0.51100000000E-03 0. -1.
         11   -1    0    0    0    0 -0.00000000000E+00 -0.00000000000E+00 -0.45593999997E+02  0.45594000000E+02  0.51100000000E-03 0.  1.
         23    2    1    2    0    0  0.00000000000E+00 -0.35527136788E-14  0.00000000000E+00  0.91188000000E+02  0.91188000000E+02 0.  0.
    9900012    2    3    3    0    0 -0.67337745622E+01  0.31577785920E+02 -0.29002138778E+02  0.47787258794E+02  0.19999944148E+02 0.  0.
         12    1    3    3    0    0  0.67337745622E+01 -0.31577785920E+02  0.29002138778E+02  0.43400741206E+02  0.00000000000E+00 0. -1.
         11    1    4    4    0    0  0.27405864758E+01  0.10247620378E+02 -0.29683076769E+01  0.11015234376E+02  0.51100000000E-03 0. -1.
        -11    1    4    4    0    0 -0.10680180192E+02  0.10186073792E+02 -0.15003241916E+02  0.21045655525E+02  0.51100000000E-03 0.  1.
         12    1    4    4    0    0  0.12058191545E+01  0.11144091751E+02 -0.11030589186E+02  0.15726368893E+02  0.00000000000E+00 0. -1.
</event>
<event>
 8    1  0.6239251E-010  0.9118800E+02  0.7816164E-02  0.1184000E+00
        -11   -1    0    0    0    0  0.00000000000E+00  0.00000000000E+00  0.45593999997E+02  0.45594000000E+02  0.51100000000E-03 0. -1.
         11   -1    0    0    0    0 -0.00000000000E+00 -0.00000000000E+00 -0.45593999997E+02  0.45594000000E+02  0.51100000000E-03 0.  1.
         23    2    1    2    0    0  0.13322676296E-14 -0.35527136788E-14  0.00000000000E+00  0.91188000000E+02  0.91188000000E+02 0.  0.
    9900012    2    3    3    0    0 -0.25537789096E+01 -0.26960560435E+02  0.33915035536E+02  0.47787271422E+02  0.20000001721E+02 0.  0.
        -12    1    3    3    0    0  0.25537789096E+01  0.26960560435E+02 -0.33915035536E+02  0.43400728578E+02  0.00000000000E+00 0.  1.
         11    1    4    4    0    0  0.83461767039E+00 -0.34600997493E+01  0.10650662102E+02  0.11229669648E+02  0.51100000000E-03 0. -1.
        -11    1    4    4    0    0  0.34629932068E+01 -0.14046561277E+01 -0.16979306599E-01  0.37370669442E+01  0.51100000000E-03 0.  1.
        -12    1    4    4    0    0 -0.68513897868E+01 -0.22095804558E+02  0.23281352741E+02  0.32820534830E+02  0.00000000000E+00 0.  1.
</event>
<event>
 8    1  0.6239251E-010  0.9118800E+02  0.7816164E-02  0.1184000E+00
        -11   -1    0    0    0    0  0.00000000000E+00  0.00000000000E+00  0.45593999997E+02  0.45594000000E+02  0.51100000000E-03 0. -1.
         11   -1    0    0    0    0 -0.00000000000E+00 -0.00000000000E+00 -0.45593999997E+02  0.45594000000E+02  0.51100000000E-03 0.  1.
         23    2    1    2    0    0  0.35527136788E-14  0.71054273576E-14  0.00000000000E+00  0.91188000000E+02  0.91188000000E+02 0.  0.
    9900012    2    3    3    0    0 -0.21833627608E+02 -0.37026524796E+02  0.59960546225E+01  0.47787268393E+02  0.19999987912E+02 0.  0.
        -12    1    3    3    0    0  0.21833627608E+02  0.37026524796E+02 -0.59960546225E+01  0.43400731607E+02  0.00000000000E+00 0.  1.
         11    1    4    4    0    0 -0.20280967233E+02 -0.25677419197E+02 -0.31692982634E+01  0.32873879301E+02  0.51100000000E-03 0. -1.
        -11    1    4    4    0    0 -0.10784084892E+01 -0.11150116947E+02  0.84472731530E+01  0.14030128182E+02  0.51100000000E-03 0.  1.
         12    1    4    4    0    0 -0.47425188539E+00 -0.19898865150E+00  0.71807973296E+00  0.88326091112E+00  0.00000000000E+00 0. -1.
</event>
<event>
 8    1  0.6239251E-010  0.9118800E+02  0.7816164E-02  0.1184000E+00
        -11   -1    0    0    0    0  0.00000000000E+00  0.00000000000E+00  0.45593999997E+02  0.45594000000E+02  0.51100000000E-03 0. -1.
         11   -1    0    0    0    0 -0.00000000000E+00 -0.00000000000E+00 -0.45593999997E+02  0.45594000000E+02  0.51100000000E-03 0.  1.
         23    2    1    2    0    0  0.00000000000E+00  0.22204460493E-15  0.00000000000E+00  0.91188000000E+02  0.91188000000E+02 0.  0.
    9900012    2    3    3    0    0 -0.22130732757E+02  0.11861318549E+01  0.37315514832E+02  0.47787263966E+02  0.19999967725E+02 0.  0.
        -12    1    3    3    0    0  0.22130732757E+02 -0.11861318549E+01 -0.37315514832E+02  0.43400736034E+02  0.00000000000E+00 0.  1.
         11    1    4    4    0    0 -0.35945273501E-01  0.48608297485E+00  0.13514014830E+02  0.13522801700E+02  0.51100000000E-03 0.  1.
        -11    1    4    4    0    0 -0.23053528415E+02  0.52575742071E+00  0.20610148617E+02  0.30927654608E+02  0.51100000000E-03 0. -1.
         12    1    4    4    0    0  0.95874093162E+00  0.17429145932E+00  0.31913513847E+01  0.33368076581E+01  0.00000000000E+00 0. -1.
</event>
<event>
 8    1  0.6239251E-010  0.9118800E+02  0.7816164E-02  0.1184000E+00
        -11   -1    0    0    0    0  0.00000000000E+00  0.00000000000E+00  0.45593999997E+02  0.45594000000E+02  0.51100000000E-03 0.  1.
         11   -1    0    0    0    0 -0.00000000000E+00 -0.00000000000E+00 -0.45593999997E+02  0.45594000000E+02  0.51100000000E-03 0. -1.
         23    2    1    2    0    0 -0.35527136788E-14 -0.35527136788E-14  0.00000000000E+00  0.91188000000E+02  0.91188000000E+02 0.  0.
    9900012    2    3    3    0    0 -0.31191353550E+02 -0.25765522163E+02  0.15711797300E+02  0.47787271400E+02  0.20000001621E+02 0.  0.
         12    1    3    3    0    0  0.31191353550E+02  0.25765522163E+02 -0.15711797300E+02  0.43400728600E+02  0.00000000000E+00 0. -1.
         11    1    4    4    0    0 -0.55688924653E+01  0.23096549355E+01  0.47277474654E+01  0.76615054375E+01  0.51100000000E-03 0. -1.
        -11    1    4    4    0    0 -0.24251701276E+02 -0.24501371851E+02  0.11315820373E+02  0.36283743307E+02  0.51100000000E-03 0.  1.
         12    1    4    4    0    0 -0.13707598089E+01 -0.35738052467E+01 -0.33177053809E+00  0.38420226554E+01  0.00000000000E+00 0. -1.
</event>
<event>
 8    1  0.6239251E-010  0.9118800E+02  0.7816164E-02  0.1184000E+00
        -11   -1    0    0    0    0  0.00000000000E+00  0.00000000000E+00  0.45593999997E+02  0.45594000000E+02  0.51100000000E-03 0. -1.
         11   -1    0    0    0    0 -0.00000000000E+00 -0.00000000000E+00 -0.45593999997E+02  0.45594000000E+02  0.51100000000E-03 0.  1.
         23    2    1    2    0    0 -0.35527136788E-14 -0.35527136788E-14  0.35527136788E-14  0.91188000000E+02  0.91188000000E+02 0.  0.
    9900012    2    3    3    0    0  0.28957764402E+02  0.21624899538E+02 -0.24029880161E+02  0.47787267982E+02  0.19999986036E+02 0.  0.
         12    1    3    3    0    0 -0.28957764402E+02 -0.21624899538E+02  0.24029880161E+02  0.43400732018E+02  0.00000000000E+00 0. -1.
         11    1    4    4    0    0  0.47638358028E+01 -0.31193165943E+01 -0.22875292317E+01  0.61365346751E+01  0.51100000000E-03 0. -1.
        -11    1    4    4    0    0  0.12106278752E+02  0.17368647012E+02 -0.10875749971E+02  0.23801550831E+02  0.51100000000E-03 0.  1.
        -12    1    4    4    0    0  0.12087649847E+02  0.73755691195E+01 -0.10866600959E+02  0.17849182476E+02  0.00000000000E+00 0.  1.
</event>
<event>
 8    1  0.6239251E-010  0.9118800E+02  0.7816164E-02  0.1184000E+00
        -11   -1    0    0    0    0  0.00000000000E+00  0.00000000000E+00  0.45593999997E+02  0.45594000000E+02  0.51100000000E-03 0. -1.
         11   -1    0    0    0    0 -0.00000000000E+00 -0.00000000000E+00 -0.45593999997E+02  0.45594000000E+02  0.51100000000E-03 0.  1.
         23    2    1    2    0    0  0.35527136788E-14 -0.71054273576E-14  0.00000000000E+00  0.91188000000E+02  0.91188000000E+02 0.  0.
    9900012    2    3    3    0    0  0.24130559815E+02 -0.30360924228E+02  0.19482136567E+02  0.47787270949E+02  0.19999999564E+02 0.  0.
        -12    1    3    3    0    0 -0.24130559815E+02  0.30360924228E+02 -0.19482136567E+02  0.43400729051E+02  0.00000000000E+00 0.  1.
         11    1    4    4    0    0  0.83108487577E+01 -0.73049873589E+01 -0.13183534739E+01  0.11143208852E+02  0.51100000000E-03 0. -1.
        -11    1    4    4    0    0  0.42741315573E+01 -0.11977461576E+01  0.16299002874E+00  0.44417746946E+01  0.51100000000E-03 0.  1.
         12    1    4    4    0    0  0.11545579500E+02 -0.21858190711E+02  0.20637500012E+02  0.32202287402E+02  0.00000000000E+00 0. -1.
</event>
<event>
 8    1  0.6239251E-010  0.9118800E+02  0.7816164E-02  0.1184000E+00
        -11   -1    0    0    0    0  0.00000000000E+00  0.00000000000E+00  0.45593999997E+02  0.45594000000E+02  0.51100000000E-03 0. -1.
         11   -1    0    0    0    0 -0.00000000000E+00 -0.00000000000E+00 -0.45593999997E+02  0.45594000000E+02  0.51100000000E-03 0.  1.
         23    2    1    2    0    0  0.00000000000E+00 -0.17763568394E-14  0.00000000000E+00  0.91188000000E+02  0.91188000000E+02 0.  0.
    9900012    2    3    3    0    0 -0.19326452864E+02  0.12041870753E+02 -0.36947324528E+02  0.47787271650E+02  0.20000002760E+02 0.  0.
         12    1    3    3    0    0  0.19326452864E+02 -0.12041870753E+02  0.36947324528E+02  0.43400728350E+02  0.00000000000E+00 0. -1.
         11    1    4    4    0    0 -0.32005255814E+01 -0.46542949766E+01 -0.44108818610E+01  0.71667080852E+01  0.51100000000E-03 0. -1.
        -11    1    4    4    0    0 -0.16212334368E+02  0.14634018962E+02 -0.27098219651E+02  0.34803847562E+02  0.51100000000E-03 0.  1.
        -12    1    4    4    0    0  0.86407084984E-01  0.20621467673E+01 -0.54382230167E+01  0.58167160025E+01  0.00000000000E+00 0.  1.
</event>
<event>
 8    1  0.6239251E-010  0.9118800E+02  0.7816164E-02  0.1184000E+00
        -11   -1    0    0    0    0  0.00000000000E+00  0.00000000000E+00  0.45593999997E+02  0.45594000000E+02  0.51100000000E-03 0. -1.
         11   -1    0    0    0    0 -0.00000000000E+00 -0.00000000000E+00 -0.45593999997E+02  0.45594000000E+02  0.51100000000E-03 0.  1.
         23    2    1    2    0    0  0.35527136788E-14  0.44408920985E-15  0.00000000000E+00  0.91188000000E+02  0.91188000000E+02 0.  0.
    9900012    2    3    3    0    0 -0.28428303858E+02 -0.32911555976E+01 -0.32628561563E+02  0.47787271952E+02  0.20000004140E+02 0.  0.
         12    1    3    3    0    0  0.28428303858E+02  0.32911555976E+01  0.32628561563E+02  0.43400728048E+02  0.00000000000E+00 0. -1.
         11    1    4    4    0    0 -0.22410673309E+01 -0.36272669732E+00  0.12016134008E+01  0.25686238464E+01  0.51100000000E-03 0. -1.
        -11    1    4    4    0    0 -0.10192485462E+02 -0.79156865978E+01 -0.11381439608E+02  0.17207034086E+02  0.51100000000E-03 0.  1.
        -12    1    4    4    0    0 -0.15994751065E+02  0.49872576975E+01 -0.22448735356E+02  0.28011614020E+02  0.00000000000E+00 0.  1.
</event>
<event>
 8    1  0.6239251E-010  0.9118800E+02  0.7816164E-02  0.1184000E+00
        -11   -1    0    0    0    0  0.00000000000E+00  0.00000000000E+00  0.45593999997E+02  0.45594000000E+02  0.51100000000E-03 0. -1.
         11   -1    0    0    0    0 -0.00000000000E+00 -0.00000000000E+00 -0.45593999997E+02  0.45594000000E+02  0.51100000000E-03 0.  1.
         23    2    1    2    0    0  0.00000000000E+00  0.88817841970E-15  0.00000000000E+00  0.91188000000E+02  0.91188000000E+02 0.  0.
    9900012    2    3    3    0    0 -0.38637541853E+02 -0.53758312364E+01  0.19022716772E+02  0.47787274714E+02  0.20000016733E+02 0.  0.
        -12    1    3    3    0    0  0.38637541853E+02  0.53758312364E+01 -0.19022716772E+02  0.43400725286E+02  0.00000000000E+00 0.  1.
         11    1    4    4    0    0 -0.35264430591E+02 -0.10117085362E+02  0.19780763277E+02  0.41679900158E+02  0.51100000000E-03 0. -1.
        -11    1    4    4    0    0 -0.31934179551E+01  0.33226047945E+01 -0.79710046996E+00  0.46768568800E+01  0.51100000000E-03 0.  1.
         12    1    4    4    0    0 -0.17969330739E+00  0.14186493312E+01  0.39053964616E-01  0.14305176762E+01  0.00000000000E+00 0. -1.
</event>
<event>
 8    1  0.6239251E-010  0.9118800E+02  0.7816164E-02  0.1184000E+00
        -11   -1    0    0    0    0  0.00000000000E+00  0.00000000000E+00  0.45593999997E+02  0.45594000000E+02  0.51100000000E-03 0. -1.
         11   -1    0    0    0    0 -0.00000000000E+00 -0.00000000000E+00 -0.45593999997E+02  0.45594000000E+02  0.51100000000E-03 0.  1.
         23    2    1    2    0    0  0.00000000000E+00  0.00000000000E+00  0.00000000000E+00  0.91188000000E+02  0.91188000000E+02 0.  0.
    9900012    2    3    3    0    0 -0.10692599964E+02  0.18777069022E+02 -0.37639261584E+02  0.47787262361E+02  0.19999960409E+02 0.  0.
         12    1    3    3    0    0  0.10692599964E+02 -0.18777069022E+02  0.37639261584E+02  0.43400737639E+02  0.00000000000E+00 0. -1.
         11    1    4    4    0    0  0.33652955937E+01  0.59458355637E+01 -0.20866353797E+01  0.71436840952E+01  0.51100000000E-03 0. -1.
        -11    1    4    4    0    0 -0.92281785110E+01  0.11321185639E+02 -0.27349930727E+02  0.31005600041E+02  0.51100000000E-03 0.  1.
         12    1    4    4    0    0 -0.48297170463E+01  0.15100478195E+01 -0.82026954773E+01  0.96379782246E+01  0.00000000000E+00 0. -1.
</event>
<event>
 8    1  0.6239251E-010  0.9118800E+02  0.7816164E-02  0.1184000E+00
        -11   -1    0    0    0    0  0.00000000000E+00  0.00000000000E+00  0.45593999997E+02  0.45594000000E+02  0.51100000000E-03 0.  1.
         11   -1    0    0    0    0 -0.00000000000E+00 -0.00000000000E+00 -0.45593999997E+02  0.45594000000E+02  0.51100000000E-03 0. -1.
         23    2    1    2    0    0  0.35527136788E-14  0.00000000000E+00  0.00000000000E+00  0.91188000000E+02  0.91188000000E+02 0.  0.
    9900012    2    3    3    0    0 -0.21690481244E+02  0.36110334471E+02  0.10449453713E+02  0.47787259049E+02  0.19999945307E+02 0.  0.
        -12    1    3    3    0    0  0.21690481244E+02 -0.36110334471E+02 -0.10449453713E+02  0.43400740951E+02  0.00000000000E+00 0.  1.
         11    1    4    4    0    0 -0.55541297793E+01  0.11189614725E+02  0.86874524377E+01  0.15216033170E+02  0.51100000000E-03 0. -1.
        -11    1    4    4    0    0  0.16120936186E+01  0.93646169622E+00  0.19986400883E+01  0.27331975426E+01  0.51100000000E-03 0.  1.
         12    1    4    4    0    0 -0.17748445083E+02  0.23984258050E+02 -0.23663881335E+00  0.29838028337E+02  0.00000000000E+00 0. -1.
</event>
<event>
 8    1  0.6239251E-010  0.9118800E+02  0.7816164E-02  0.1184000E+00
        -11   -1    0    0    0    0  0.00000000000E+00  0.00000000000E+00  0.45593999997E+02  0.45594000000E+02  0.51100000000E-03 0. -1.
         11   -1    0    0    0    0 -0.00000000000E+00 -0.00000000000E+00 -0.45593999997E+02  0.45594000000E+02  0.51100000000E-03 0.  1.
         23    2    1    2    0    0  0.00000000000E+00  0.00000000000E+00  0.00000000000E+00  0.91188000000E+02  0.91188000000E+02 0.  0.
    9900012    2    3    3    0    0  0.20518229776E+02  0.12459304729E+02 -0.36157866496E+02  0.47787270317E+02  0.19999996685E+02 0.  0.
         12    1    3    3    0    0 -0.20518229776E+02 -0.12459304729E+02  0.36157866496E+02  0.43400729683E+02  0.00000000000E+00 0. -1.
         11    1    4    4    0    0  0.66849125463E+01 -0.12532545716E+00 -0.15439922218E+01  0.68620459386E+01  0.51100000000E-03 0. -1.
        -11    1    4    4    0    0  0.14424069077E+01  0.72962951880E+01 -0.18389375694E+02  0.19836471456E+02  0.51100000000E-03 0.  1.
        -12    1    4    4    0    0  0.12390910322E+02  0.52883349983E+01 -0.16224498580E+02  0.21088752923E+02  0.00000000000E+00 0.  1.
</event>
<event>
 8    1  0.6239251E-010  0.9118800E+02  0.7816164E-02  0.1184000E+00
        -11   -1    0    0    0    0  0.00000000000E+00  0.00000000000E+00  0.45593999997E+02  0.45594000000E+02  0.51100000000E-03 0. -1.
         11   -1    0    0    0    0 -0.00000000000E+00 -0.00000000000E+00 -0.45593999997E+02  0.45594000000E+02  0.51100000000E-03 0.  1.
         23    2    1    2    0    0  0.00000000000E+00  0.00000000000E+00  0.00000000000E+00  0.91188000000E+02  0.91188000000E+02 0.  0.
    9900012    2    3    3    0    0  0.10272862135E+02 -0.26389402065E+02 -0.32889069635E+02  0.47787272595E+02  0.20000007071E+02 0.  0.
         12    1    3    3    0    0 -0.10272862135E+02  0.26389402065E+02  0.32889069635E+02  0.43400727405E+02  0.00000000000E+00 0. -1.
         11    1    4    4    0    0  0.77143430244E+01 -0.16347509068E+02 -0.98506598975E+01  0.20586103121E+02  0.51100000000E-03 0. -1.
        -11    1    4    4    0    0  0.20956753252E+01 -0.11216539483E+02 -0.13935535990E+02  0.18011157004E+02  0.51100000000E-03 0.  1.
         12    1    4    4    0    0  0.46284378560E+00  0.11746464859E+01 -0.91028737472E+01  0.91900124697E+01  0.00000000000E+00 0. -1.
</event>
<event>
 8    1 -0.6239251E-010  0.9118800E+02  0.7816164E-02  0.1184000E+00
        -11   -1    0    0    0    0  0.00000000000E+00  0.00000000000E+00  0.45593999997E+02  0.45594000000E+02  0.51100000000E-03 0. -1.
         11   -1    0    0    0    0 -0.00000000000E+00 -0.00000000000E+00 -0.45593999997E+02  0.45594000000E+02  0.51100000000E-03 0.  1.
         23    2    1    2    0    0  0.00000000000E+00  0.00000000000E+00  0.00000000000E+00  0.91188000000E+02  0.91188000000E+02 0.  0.
    9900012    2    3    3    0    0 -0.43193639943E+01  0.23801420972E+02 -0.36034133624E+02  0.47787270379E+02  0.19999996967E+02 0.  0.
         12    1    3    3    0    0  0.43193639943E+01 -0.23801420972E+02  0.36034133624E+02  0.43400729621E+02  0.00000000000E+00 0. -1.
         11    1    4    4    0    0 -0.10360863452E+01  0.17531504197E+02 -0.32344928306E+02  0.36805183082E+02  0.51100000000E-03 0. -1.
        -11    1    4    4    0    0 -0.56467893654E+00  0.70734060667E+01 -0.39740577589E+01  0.81329620076E+01  0.51100000000E-03 0.  1.
         12    1    4    4    0    0 -0.27185987126E+01 -0.80348929200E+00  0.28485244084E+00  0.28491252895E+01  0.00000000000E+00 0. -1.
</event>
<event>
 8    1  0.6239251E-010  0.9118800E+02  0.7816164E-02  0.1184000E+00
        -11   -1    0    0    0    0  0.00000000000E+00  0.00000000000E+00  0.45593999997E+02  0.45594000000E+02  0.51100000000E-03 0. -1.
         11   -1    0    0    0    0 -0.00000000000E+00 -0.00000000000E+00 -0.45593999997E+02  0.45594000000E+02  0.51100000000E-03 0.  1.
         23    2    1    2    0    0  0.13877787808E-15  0.00000000000E+00  0.71054273576E-14  0.91188000000E+02  0.91188000000E+02 0.  0.
    9900012    2    3    3    0    0  0.12464596404E+00  0.21368362003E+02 -0.37775673823E+02  0.47787263093E+02  0.19999963745E+02 0.  0.
         12    1    3    3    0    0 -0.12464596404E+00 -0.21368362003E+02  0.37775673823E+02  0.43400736907E+02  0.00000000000E+00 0. -1.
         11    1    4    4    0    0  0.31087702384E+01  0.58409125782E+01 -0.25926230355E+02  0.26757244493E+02  0.51100000000E-03 0. -1.
        -11    1    4    4    0    0  0.62989762902E+00  0.97252381403E+01 -0.37764248305E+01  0.10451718168E+02  0.51100000000E-03 0.  1.
        -12    1    4    4    0    0 -0.36140219034E+01  0.58022112841E+01 -0.80730186374E+01  0.10578300432E+02  0.00000000000E+00 0.  1.
</event>
<event>
 8    1  0.6239251E-010  0.9118800E+02  0.7816164E-02  0.1184000E+00
        -11   -1    0    0    0    0  0.00000000000E+00  0.00000000000E+00  0.45593999997E+02  0.45594000000E+02  0.51100000000E-03 0. -1.
         11   -1    0    0    0    0 -0.00000000000E+00 -0.00000000000E+00 -0.45593999997E+02  0.45594000000E+02  0.51100000000E-03 0.  1.
         23    2    1    2    0    0 -0.35527136788E-14  0.35527136788E-14  0.00000000000E+00  0.91188000000E+02  0.91188000000E+02 0.  0.
    9900012    2    3    3    0    0 -0.18756240041E+02 -0.21692296259E+02 -0.32577159170E+02  0.47787267782E+02  0.19999985125E+02 0.  0.
         12    1    3    3    0    0  0.18756240041E+02  0.21692296259E+02  0.32577159170E+02  0.43400732218E+02  0.00000000000E+00 0. -1.
         11    1    4    4    0    0 -0.46704335438E+01 -0.12377737146E+01  0.13733556155E+01  0.50230607366E+01  0.51100000000E-03 0. -1.
        -11    1    4    4    0    0 -0.19408243297E+01 -0.48302616512E+01 -0.12704127015E+02  0.13729277846E+02  0.51100000000E-03 0.  1.
         12    1    4    4    0    0 -0.12144982167E+02 -0.15624260893E+02 -0.21246387771E+02  0.29034929199E+02  0.00000000000E+00 0. -1.
</event>
<event>
 8    1  0.6239251E-010  0.9118800E+02  0.7816164E-02  0.1184000E+00
        -11   -1    0    0    0    0  0.00000000000E+00  0.00000000000E+00  0.45593999997E+02  0.45594000000E+02  0.51100000000E-03 0. -1.
         11   -1    0    0    0    0 -0.00000000000E+00 -0.00000000000E+00 -0.45593999997E+02  0.45594000000E+02  0.51100000000E-03 0.  1.
         23    2    1    2    0    0 -0.35527136788E-14  0.00000000000E+00  0.35527136788E-14  0.91188000000E+02  0.91188000000E+02 0.  0.
    9900012    2    3    3    0    0 -0.22551932496E+02 -0.26155420546E+02  0.26285505374E+02  0.47787268716E+02  0.19999989383E+02 0.  0.
        -12    1    3    3    0    0  0.22551932496E+02  0.26155420546E+02 -0.26285505374E+02  0.43400731284E+02  0.00000000000E+00 0.  1.
         11    1    4    4    0    0 -0.83635557249E+01 -0.18565244279E+02  0.52963511151E+01  0.21039693318E+02  0.51100000000E-03 0. -1.
        -11    1    4    4    0    0 -0.51839190599E+01 -0.96704435144E+00  0.83388091190E+01  0.98663027209E+01  0.51100000000E-03 0.  1.
        -12    1    4    4    0    0 -0.90044577112E+01 -0.66231319156E+01  0.12650345140E+02  0.16881272677E+02  0.00000000000E+00 0.  1.
</event>
<event>
 8    1  0.6239251E-010  0.9118800E+02  0.7816164E-02  0.1184000E+00
        -11   -1    0    0    0    0  0.00000000000E+00  0.00000000000E+00  0.45593999997E+02  0.45594000000E+02  0.51100000000E-03 0. -1.
         11   -1    0    0    0    0 -0.00000000000E+00 -0.00000000000E+00 -0.45593999997E+02  0.45594000000E+02  0.51100000000E-03 0.  1.
         23    2    1    2    0    0 -0.35527136788E-14  0.00000000000E+00  0.00000000000E+00  0.91188000000E+02  0.91188000000E+02 0.  0.
    9900012    2    3    3    0    0 -0.24436677518E+02  0.33404282253E+02  0.13062393131E+02  0.47787269646E+02  0.19999993622E+02 0.  0.
        -12    1    3    3    0    0  0.24436677518E+02 -0.33404282253E+02 -0.13062393131E+02  0.43400730354E+02  0.00000000000E+00 0.  1.
         11    1    4    4    0    0 -0.22403873442E+02  0.21744927630E+02  0.16642194762E+02  0.35379910537E+02  0.51100000000E-03 0. -1.
        -11    1    4    4    0    0 -0.45300834524E+00  0.43878202543E+01 -0.17416185172E+01  0.47425118308E+01  0.51100000000E-03 0.  1.
         12    1    4    4    0    0 -0.15797957305E+01  0.72715343695E+01 -0.18381831138E+01  0.76648472781E+01  0.00000000000E+00 0. -1.
</event>
<event>
 8    1  0.6239251E-010  0.9118800E+02  0.7816164E-02  0.1184000E+00
        -11   -1    0    0    0    0  0.00000000000E+00  0.00000000000E+00  0.45593999997E+02  0.45594000000E+02  0.51100000000E-03 0. -1.
         11   -1    0    0    0    0 -0.00000000000E+00 -0.00000000000E+00 -0.45593999997E+02  0.45594000000E+02  0.51100000000E-03 0.  1.
         23    2    1    2    0    0  0.00000000000E+00  0.00000000000E+00  0.00000000000E+00  0.91188000000E+02  0.91188000000E+02 0.  0.
    9900012    2    3    3    0    0 -0.35763635278E+02 -0.19434564156E+02  0.15062651756E+02  0.47787269936E+02  0.19999994944E+02 0.  0.
         12    1    3    3    0    0  0.35763635278E+02  0.19434564156E+02 -0.15062651756E+02  0.43400730064E+02  0.00000000000E+00 0. -1.
         11    1    4    4    0    0 -0.14142909297E+02 -0.30104591591E+01 -0.59667015652E+00  0.14472068382E+02  0.51100000000E-03 0. -1.
        -11    1    4    4    0    0 -0.21194026210E+02 -0.12255796474E+02  0.15773102427E+02  0.29123565281E+02  0.51100000000E-03 0.  1.
        -12    1    4    4    0    0 -0.42669977030E+00 -0.41683085228E+01 -0.11378051449E+00  0.41916362725E+01  0.00000000000E+00 0.  1.
</event>
<event>
 8    1  0.6239251E-010  0.9118800E+02  0.7816164E-02  0.1184000E+00
        -11   -1    0    0    0    0  0.00000000000E+00  0.00000000000E+00  0.45593999997E+02  0.45594000000E+02  0.51100000000E-03 0. -1.
         11   -1    0    0    0    0 -0.00000000000E+00 -0.00000000000E+00 -0.45593999997E+02  0.45594000000E+02  0.51100000000E-03 0.  1.
         23    2    1    2    0    0  0.88817841970E-15  0.00000000000E+00  0.00000000000E+00  0.91188000000E+02  0.91188000000E+02 0.  0.
    9900012    2    3    3    0    0  0.50825273355E+01  0.24144113816E+01 -0.43034422479E+02  0.47787274378E+02  0.20000015198E+02 0.  0.
         12    1    3    3    0    0 -0.50825273355E+01 -0.24144113816E+01  0.43034422479E+02  0.43400725622E+02  0.00000000000E+00 0. -1.
         11    1    4    4    0    0 -0.38780805443E+01 -0.22812628750E+01 -0.14931569144E+02  0.15594724312E+02  0.51100000000E-03 0. -1.
        -11    1    4    4    0    0 -0.27156532600E+01  0.87564563277E+00 -0.93348483007E+01  0.97611946482E+01  0.51100000000E-03 0.  1.
         12    1    4    4    0    0  0.11676261140E+02  0.38200286238E+01 -0.18768005034E+02  0.22431355417E+02  0.00000000000E+00 0. -1.
</event>
<event>
 8    1  0.6360410E-010  0.9118800E+02  0.7816164E-02  0.1184000E+00
        -11   -1    0    0    0    0  0.00000000000E+00  0.00000000000E+00  0.45593999997E+02  0.45594000000E+02  0.51100000000E-03 0. -1.
         11   -1    0    0    0    0 -0.00000000000E+00 -0.00000000000E+00 -0.45593999997E+02  0.45594000000E+02  0.51100000000E-03 0.  1.
         23    2    1    2    0    0  0.00000000000E+00  0.00000000000E+00  0.71054273576E-14  0.91188000000E+02  0.91188000000E+02 0.  0.
    9900012    2    3    3    0    0  0.37397870594E+01  0.10269339882E+01  0.43227106000E+02  0.47787270815E+02  0.19999998952E+02 0.  0.
        -12    1    3    3    0    0 -0.37397870594E+01 -0.10269339882E+01 -0.43227106000E+02  0.43400729185E+02  0.00000000000E+00 0.  1.
         11    1    4    4    0    0 -0.22990480966E+01  0.59512929782E+00 -0.58322353206E+00  0.24453938294E+01  0.51100000000E-03 0. -1.
        -11    1    4    4    0    0  0.76515492722E+00  0.66243735326E+00 -0.18684011924E+00  0.10291719006E+01  0.51100000000E-03 0.  1.
         12    1    4    4    0    0  0.52736802288E+01 -0.23063266286E+00  0.43997169651E+02  0.44312705085E+02  0.00000000000E+00 0. -1.
</event>
<event>
 8    1  0.6239251E-010  0.9118800E+02  0.7816164E-02  0.1184000E+00
        -11   -1    0    0    0    0  0.00000000000E+00  0.00000000000E+00  0.45593999997E+02  0.45594000000E+02  0.51100000000E-03 0. -1.
         11   -1    0    0    0    0 -0.00000000000E+00 -0.00000000000E+00 -0.45593999997E+02  0.45594000000E+02  0.51100000000E-03 0.  1.
         23    2    1    2    0    0  0.71054273576E-14  0.00000000000E+00  0.00000000000E+00  0.91188000000E+02  0.91188000000E+02 0.  0.
    9900012    2    3    3    0    0  0.32747195322E+02 -0.21615558309E+02 -0.18547563422E+02  0.47787271073E+02  0.20000000132E+02 0.  0.
         12    1    3    3    0    0 -0.32747195322E+02  0.21615558309E+02  0.18547563422E+02  0.43400728927E+02  0.00000000000E+00 0. -1.
         11    1    4    4    0    0  0.20170214840E+01 -0.38631475222E+01  0.22920638932E+01  0.49240066609E+01  0.51100000000E-03 0. -1.
        -11    1    4    4    0    0  0.27342761692E+02 -0.10214344890E+02 -0.16489503943E+02  0.33524068950E+02  0.51100000000E-03 0.  1.
        -12    1    4    4    0    0  0.33874121461E+01 -0.75380658973E+01 -0.43501233728E+01  0.93391954620E+01  0.00000000000E+00 0.  1.
</event>
<event>
 8    1  0.6239251E-010  0.9118800E+02  0.7816164E-02  0.1184000E+00
        -11   -1    0    0    0    0  0.00000000000E+00  0.00000000000E+00  0.45593999997E+02  0.45594000000E+02  0.51100000000E-03 0. -1.
         11   -1    0    0    0    0 -0.00000000000E+00 -0.00000000000E+00 -0.45593999997E+02  0.45594000000E+02  0.51100000000E-03 0.  1.
         23    2    1    2    0    0  0.00000000000E+00  0.00000000000E+00  0.00000000000E+00  0.91188000000E+02  0.91188000000E+02 0.  0.
    9900012    2    3    3    0    0  0.36451133052E+02  0.20288324484E+02 -0.11971689380E+02  0.47787279294E+02  0.20000037614E+02 0.  0.
         12    1    3    3    0    0 -0.36451133052E+02 -0.20288324484E+02  0.11971689380E+02  0.43400720706E+02  0.00000000000E+00 0. -1.
         11    1    4    4    0    0  0.14752704274E+01 -0.19353952896E+01 -0.32336396320E+01  0.40470487138E+01  0.51100000000E-03 0. -1.
        -11    1    4    4    0    0  0.23430210838E+02  0.20601772720E+02 -0.63372977206E+01  0.31836600978E+02  0.51100000000E-03 0.  1.
        -12    1    4    4    0    0  0.11545651787E+02  0.16219470534E+01 -0.24007520274E+01  0.11903629603E+02  0.00000000000E+00 0.  1.
</event>
<event>
 8    1  0.6239251E-010  0.9118800E+02  0.7816164E-02  0.1184000E+00
        -11   -1    0    0    0    0  0.00000000000E+00  0.00000000000E+00  0.45593999997E+02  0.45594000000E+02  0.51100000000E-03 0. -1.
         11   -1    0    0    0    0 -0.00000000000E+00 -0.00000000000E+00 -0.45593999997E+02  0.45594000000E+02  0.51100000000E-03 0.  1.
         23    2    1    2    0    0 -0.17763568394E-14 -0.17763568394E-14 -0.71054273576E-14  0.91188000000E+02  0.91188000000E+02 0.  0.
    9900012    2    3    3    0    0 -0.10255972269E+02 -0.92793052098E+01 -0.41137980575E+02  0.47787263622E+02  0.19999966159E+02 0.  0.
         12    1    3    3    0    0  0.10255972269E+02  0.92793052098E+01  0.41137980575E+02  0.43400736378E+02  0.00000000000E+00 0. -1.
         11    1    4    4    0    0 -0.23082375051E+01  0.32429248390E+01 -0.14197880556E+02  0.14745315678E+02  0.51100000000E-03 0. -1.
        -11    1    4    4    0    0  0.26932802017E+01 -0.55573987895E+00 -0.66342729569E+01  0.71816560058E+01  0.51100000000E-03 0.  1.
         12    1    4    4    0    0 -0.10641014966E+02 -0.11966490170E+02 -0.20305827062E+02  0.25860291939E+02  0.00000000000E+00 0. -1.
</event>
<event>
 8    1  0.6239251E-010  0.9118800E+02  0.7816164E-02  0.1184000E+00
        -11   -1    0    0    0    0  0.00000000000E+00  0.00000000000E+00  0.45593999997E+02  0.45594000000E+02  0.51100000000E-03 0. -1.
         11   -1    0    0    0    0 -0.00000000000E+00 -0.00000000000E+00 -0.45593999997E+02  0.45594000000E+02  0.51100000000E-03 0.  1.
         23    2    1    2    0    0  0.00000000000E+00 -0.35527136788E-14  0.00000000000E+00  0.91188000000E+02  0.91188000000E+02 0.  0.
    9900012    2    3    3    0    0  0.14553572783E+02  0.23979972216E+02  0.33117633097E+02  0.47787272239E+02  0.20000005447E+02 0.  0.
        -12    1    3    3    0    0 -0.14553572783E+02 -0.23979972216E+02 -0.33117633097E+02  0.43400727761E+02  0.00000000000E+00 0.  1.
         11    1    4    4    0    0 -0.30831746109E+01  0.27134845093E+01  0.77514356829E+00  0.41796903804E+01  0.51100000000E-03 0.  1.
        -11    1    4    4    0    0 -0.11444001302E+00  0.51941758696E+01  0.44020853772E+01  0.68096193293E+01  0.51100000000E-03 0. -1.
         12    1    4    4    0    0  0.17751187407E+02  0.16072311837E+02  0.27940404152E+02  0.36797962529E+02  0.00000000000E+00 0. -1.
</event>
<event>
 8    1  0.6239251E-010  0.9118800E+02  0.7816164E-02  0.1184000E+00
        -11   -1    0    0    0    0  0.00000000000E+00  0.00000000000E+00  0.45593999997E+02  0.45594000000E+02  0.51100000000E-03 0. -1.
         11   -1    0    0    0    0 -0.00000000000E+00 -0.00000000000E+00 -0.45593999997E+02  0.45594000000E+02  0.51100000000E-03 0.  1.
         23    2    1    2    0    0 -0.26645352591E-14  0.88817841970E-15  0.00000000000E+00  0.91188000000E+02  0.91188000000E+02 0.  0.
    9900012    2    3    3    0    0  0.75172432912E+01  0.25705060879E+01  0.42667397938E+02  0.47787270801E+02  0.19999998889E+02 0.  0.
        -12    1    3    3    0    0 -0.75172432912E+01 -0.25705060879E+01 -0.42667397938E+02  0.43400729199E+02  0.00000000000E+00 0.  1.
         11    1    4    4    0    0  0.88845379884E+01 -0.20056077780E+01  0.27747235577E+02  0.29203879199E+02  0.51100000000E-03 0. -1.
        -11    1    4    4    0    0 -0.36655090172E+01  0.67523271188E+01  0.87185535780E+01  0.11620802667E+02  0.51100000000E-03 0.  1.
        -12    1    4    4    0    0  0.22982143200E+01 -0.21762132529E+01  0.62016087824E+01  0.69625889346E+01  0.00000000000E+00 0.  1.
</event>
<event>
 8    1  0.6239251E-010  0.9118800E+02  0.7816164E-02  0.1184000E+00
        -11   -1    0    0    0    0  0.00000000000E+00  0.00000000000E+00  0.45593999997E+02  0.45594000000E+02  0.51100000000E-03 0. -1.
         11   -1    0    0    0    0 -0.00000000000E+00 -0.00000000000E+00 -0.45593999997E+02  0.45594000000E+02  0.51100000000E-03 0.  1.
         23    2    1    2    0    0  0.00000000000E+00  0.00000000000E+00 -0.35527136788E-14  0.91188000000E+02  0.91188000000E+02 0.  0.
    9900012    2    3    3    0    0 -0.17438282944E+02  0.23981077512E+02  0.31692862232E+02  0.47787270661E+02  0.19999998253E+02 0.  0.
        -12    1    3    3    0    0  0.17438282944E+02 -0.23981077512E+02 -0.31692862232E+02  0.43400729339E+02  0.00000000000E+00 0.  1.
         11    1    4    4    0    0 -0.14829120039E+02  0.19780170273E+02  0.28871348860E+02  0.38009376770E+02  0.51100000000E-03 0. -1.
        -11    1    4    4    0    0 -0.38079774344E+01 -0.39177100836E+00  0.32369521478E+01  0.50131862255E+01  0.51100000000E-03 0.  1.
         12    1    4    4    0    0  0.11988145301E+01  0.45926782475E+01 -0.41543877586E+00  0.47647076657E+01  0.00000000000E+00 0. -1.
</event>
<event>
 8    1  0.6239251E-010  0.9118800E+02  0.7816164E-02  0.1184000E+00
        -11   -1    0    0    0    0  0.00000000000E+00  0.00000000000E+00  0.45593999997E+02  0.45594000000E+02  0.51100000000E-03 0. -1.
         11   -1    0    0    0    0 -0.00000000000E+00 -0.00000000000E+00 -0.45593999997E+02  0.45594000000E+02  0.51100000000E-03 0.  1.
         23    2    1    2    0    0  0.00000000000E+00  0.35527136788E-14 -0.35527136788E-14  0.91188000000E+02  0.91188000000E+02 0.  0.
    9900012    2    3    3    0    0 -0.16562107194E+02 -0.25355209351E+02  0.31087515421E+02  0.47787266700E+02  0.19999980192E+02 0.  0.
        -12    1    3    3    0    0  0.16562107194E+02  0.25355209351E+02 -0.31087515421E+02  0.43400733300E+02  0.00000000000E+00 0.  1.
         11    1    4    4    0    0 -0.10078723136E+02 -0.21050651320E+02  0.19990264869E+02  0.30729810785E+02  0.51100000000E-03 0. -1.
        -11    1    4    4    0    0 -0.25998928683E+01 -0.55075951620E+01  0.11457828088E+02  0.12975934346E+02  0.51100000000E-03 0.  1.
         12    1    4    4    0    0 -0.38834911896E+01  0.12030371317E+01 -0.36057753614E+00  0.40815215692E+01  0.00000000000E+00 0. -1.
</event>
<event>
 8    1  0.6239251E-010  0.9118800E+02  0.7816164E-02  0.1184000E+00
        -11   -1    0    0    0    0  0.00000000000E+00  0.00000000000E+00  0.45593999997E+02  0.45594000000E+02  0.51100000000E-03 0. -1.
         11   -1    0    0    0    0 -0.00000000000E+00 -0.00000000000E+00 -0.45593999997E+02  0.45594000000E+02  0.51100000000E-03 0.  1.
         23    2    1    2    0    0 -0.44408920985E-15 -0.71054273576E-14 -0.35527136788E-14  0.91188000000E+02  0.91188000000E+02 0.  0.
    9900012    2    3    3    0    0 -0.38544766743E+01  0.38751919538E+02  0.19158679584E+02  0.47787271185E+02  0.20000000639E+02 0.  0.
        -12    1    3    3    0    0  0.38544766743E+01 -0.38751919538E+02 -0.19158679584E+02  0.43400728815E+02  0.00000000000E+00 0.  1.
         11    1    4    4    0    0  0.38728122693E+01  0.32529015115E+02  0.16681859265E+02  0.36761663836E+02  0.51100000000E-03 0. -1.
        -11    1    4    4    0    0 -0.62995214782E+01  0.25602645344E+01  0.18279281813E+01  0.70413242389E+01  0.51100000000E-03 0.  1.
        -12    1    4    4    0    0 -0.14277674654E+01  0.36626398888E+01  0.64889213768E+00  0.39842831095E+01  0.00000000000E+00 0.  1.
</event>
<event>
 8    1  0.6239251E-010  0.9118800E+02  0.7816164E-02  0.1184000E+00
        -11   -1    0    0    0    0  0.00000000000E+00  0.00000000000E+00  0.45593999997E+02  0.45594000000E+02  0.51100000000E-03 0. -1.
         11   -1    0    0    0    0 -0.00000000000E+00 -0.00000000000E+00 -0.45593999997E+02  0.45594000000E+02  0.51100000000E-03 0.  1.
         23    2    1    2    0    0  0.00000000000E+00 -0.44408920985E-15  0.00000000000E+00  0.91188000000E+02  0.91188000000E+02 0.  0.
    9900012    2    3    3    0    0 -0.14834635678E+02 -0.37695997801E+01 -0.40612154540E+02  0.47787269654E+02  0.19999993662E+02 0.  0.
         12    1    3    3    0    0  0.14834635678E+02  0.37695997801E+01  0.40612154540E+02  0.43400730346E+02  0.00000000000E+00 0. -1.
         11    1    4    4    0    0 -0.10444420923E+02  0.40408670746E+01 -0.12554236164E+02  0.16823298757E+02  0.51100000000E-03 0. -1.
        -11    1    4    4    0    0 -0.24120567582E+01  0.87753450548E+00 -0.15496995708E+01  0.29982751098E+01  0.51100000000E-03 0.  1.
         12    1    4    4    0    0 -0.19781579963E+01 -0.86880013602E+01 -0.26508218805E+02  0.27965695788E+02  0.00000000000E+00 0. -1.
</event>
<event>
 8    1  0.6239251E-010  0.9118800E+02  0.7816164E-02  0.1184000E+00
        -11   -1    0    0    0    0  0.00000000000E+00  0.00000000000E+00  0.45593999997E+02  0.45594000000E+02  0.51100000000E-03 0. -1.
         11   -1    0    0    0    0 -0.00000000000E+00 -0.00000000000E+00 -0.45593999997E+02  0.45594000000E+02  0.51100000000E-03 0.  1.
         23    2    1    2    0    0  0.00000000000E+00  0.00000000000E+00  0.00000000000E+00  0.91188000000E+02  0.91188000000E+02 0.  0.
    9900012    2    3    3    0    0 -0.21168043284E+02 -0.51024580311E+01  0.37543337979E+02  0.47787270040E+02  0.19999995420E+02 0.  0.
        -12    1    3    3    0    0  0.21168043284E+02  0.51024580311E+01 -0.37543337979E+02  0.43400729960E+02  0.00000000000E+00 0.  1.
         11    1    4    4    0    0 -0.84365915842E+00 -0.37901338578E+01  0.10656695593E+02  0.11342047287E+02  0.51100000000E-03 0.  1.
        -11    1    4    4    0    0 -0.97136813988E+01 -0.30369286171E+01  0.22757475118E+02  0.24929524981E+02  0.51100000000E-03 0. -1.
        -12    1    4    4    0    0 -0.10610702727E+02  0.17246044437E+01  0.41291672676E+01  0.11515697772E+02  0.00000000000E+00 0.  1.
</event>
<event>
 8    1  0.6239251E-010  0.9118800E+02  0.7816164E-02  0.1184000E+00
        -11   -1    0    0    0    0  0.00000000000E+00  0.00000000000E+00  0.45593999997E+02  0.45594000000E+02  0.51100000000E-03 0. -1.
         11   -1    0    0    0    0 -0.00000000000E+00 -0.00000000000E+00 -0.45593999997E+02  0.45594000000E+02  0.51100000000E-03 0.  1.
         23    2    1    2    0    0  0.35527136788E-14  0.13322676296E-14  0.00000000000E+00  0.91188000000E+02  0.91188000000E+02 0.  0.
    9900012    2    3    3    0    0 -0.24913370168E+02 -0.30721930299E+01 -0.35404899953E+02  0.47787293510E+02  0.20000102428E+02 0.  0.
         12    1    3    3    0    0  0.24913370168E+02  0.30721930299E+01  0.35404899953E+02  0.43400706490E+02  0.00000000000E+00 0. -1.
         11    1    4    4    0    0 -0.17206340391E+02 -0.10735966714E+02 -0.19158097144E+02  0.27898957281E+02  0.51100000000E-03 0. -1.
        -11    1    4    4    0    0 -0.17238292593E+01  0.41844163178E+01 -0.57984283240E+01  0.73554536587E+01  0.51100000000E-03 0.  1.
        -12    1    4    4    0    0 -0.59832005181E+01  0.34793573663E+01 -0.10448374486E+02  0.12532882570E+02  0.00000000000E+00 0.  1.
</event>
<event>
 8    1  0.6239251E-010  0.9118800E+02  0.7816164E-02  0.1184000E+00
        -11   -1    0    0    0    0  0.00000000000E+00  0.00000000000E+00  0.45593999997E+02  0.45594000000E+02  0.51100000000E-03 0. -1.
         11   -1    0    0    0    0 -0.00000000000E+00 -0.00000000000E+00 -0.45593999997E+02  0.45594000000E+02  0.51100000000E-03 0.  1.
         23    2    1    2    0    0  0.00000000000E+00  0.88817841970E-15 -0.71054273576E-14  0.91188000000E+02  0.91188000000E+02 0.  0.
    9900012    2    3    3    0    0  0.26652216095E+02  0.77525522254E+01 -0.33364359181E+02  0.47787272445E+02  0.20000006385E+02 0.  0.
         12    1    3    3    0    0 -0.26652216095E+02 -0.77525522254E+01  0.33364359181E+02  0.43400727555E+02  0.00000000000E+00 0. -1.
         11    1    4    4    0    0  0.12973082613E+02  0.35832672062E+01 -0.26163631112E+01  0.13710799851E+02  0.51100000000E-03 0. -1.
        -11    1    4    4    0    0  0.98881934337E+01  0.34943287142E+01 -0.18851511581E+02  0.21572347848E+02  0.51100000000E-03 0.  1.
         12    1    4    4    0    0  0.37909400475E+01  0.67495630500E+00 -0.11896484489E+02  0.12504124746E+02  0.00000000000E+00 0. -1.
</event>
<event>
 8    1  0.6239251E-010  0.9118800E+02  0.7816164E-02  0.1184000E+00
        -11   -1    0    0    0    0  0.00000000000E+00  0.00000000000E+00  0.45593999997E+02  0.45594000000E+02  0.51100000000E-03 0. -1.
         11   -1    0    0    0    0 -0.00000000000E+00 -0.00000000000E+00 -0.45593999997E+02  0.45594000000E+02  0.51100000000E-03 0.  1.
         23    2    1    2    0    0  0.17763568394E-14  0.00000000000E+00  0.00000000000E+00  0.91188000000E+02  0.91188000000E+02 0.  0.
    9900012    2    3    3    0    0  0.14950869667E+02 -0.28095389896E+02 -0.29508370341E+02  0.47787270082E+02  0.19999995613E+02 0.  0.
         12    1    3    3    0    0 -0.14950869667E+02  0.28095389896E+02  0.29508370341E+02  0.43400729918E+02  0.00000000000E+00 0. -1.
         11    1    4    4    0    0  0.36183008901E+01  0.68659593857E+00  0.51757957149E+00  0.37190595839E+01  0.51100000000E-03 0. -1.
        -11    1    4    4    0    0  0.83577100695E+01 -0.14405590898E+02 -0.10688660321E+02  0.19789386712E+02  0.51100000000E-03 0.  1.
         12    1    4    4    0    0  0.29748587076E+01 -0.14376394936E+02 -0.19337289592E+02  0.24278823786E+02  0.00000000000E+00 0. -1.
</event>
<event>
 8    1  0.6239251E-010  0.9118800E+02  0.7816164E-02  0.1184000E+00
        -11   -1    0    0    0    0  0.00000000000E+00  0.00000000000E+00  0.45593999997E+02  0.45594000000E+02  0.51100000000E-03 0. -1.
         11   -1    0    0    0    0 -0.00000000000E+00 -0.00000000000E+00 -0.45593999997E+02  0.45594000000E+02  0.51100000000E-03 0.  1.
         23    2    1    2    0    0  0.00000000000E+00 -0.35527136788E-14  0.00000000000E+00  0.91188000000E+02  0.91188000000E+02 0.  0.
    9900012    2    3    3    0    0 -0.10679496352E+02 -0.16281074305E+02 -0.38787876657E+02  0.47787258089E+02  0.19999940929E+02 0.  0.
         12    1    3    3    0    0  0.10679496352E+02  0.16281074305E+02  0.38787876657E+02  0.43400741911E+02  0.00000000000E+00 0. -1.
         11    1    4    4    0    0  0.84002056363E+00 -0.10635282750E+02 -0.64089345542E+01  0.12445453632E+02  0.51100000000E-03 0. -1.
        -11    1    4    4    0    0 -0.88297179419E+01 -0.38701634708E+01 -0.29446137347E+02  0.30984142543E+02  0.51100000000E-03 0.  1.
        -12    1    4    4    0    0 -0.26897989741E+01 -0.17756280849E+01 -0.29328047562E+01  0.43576619138E+01  0.00000000000E+00 0.  1.
</event>
<event>
 8    1  0.6239251E-010  0.9118800E+02  0.7816164E-02  0.1184000E+00
        -11   -1    0    0    0    0  0.00000000000E+00  0.00000000000E+00  0.45593999997E+02  0.45594000000E+02  0.51100000000E-03 0. -1.
         11   -1    0    0    0    0 -0.00000000000E+00 -0.00000000000E+00 -0.45593999997E+02  0.45594000000E+02  0.51100000000E-03 0.  1.
         23    2    1    2    0    0 -0.71054273576E-14  0.00000000000E+00 -0.35527136788E-14  0.91188000000E+02  0.91188000000E+02 0.  0.
    9900012    2    3    3    0    0  0.33454924772E+02  0.13182297730E+02  0.24302633125E+02  0.47787274871E+02  0.20000017445E+02 0.  0.
        -12    1    3    3    0    0 -0.33454924772E+02 -0.13182297730E+02 -0.24302633125E+02  0.43400725129E+02  0.00000000000E+00 0.  1.
         11    1    4    4    0    0  0.22997442074E+02  0.13316018988E+02  0.15291166623E+02  0.30659720817E+02  0.51100000000E-03 0. -1.
        -11    1    4    4    0    0  0.50796549851E+01 -0.39573700605E+01  0.82791313615E+01  0.10488455030E+02  0.51100000000E-03 0.  1.
        -12    1    4    4    0    0  0.53778277132E+01  0.38236488027E+01  0.73233514037E+00  0.66390990230E+01  0.00000000000E+00 0.  1.
</event>
<event>
 8    1  0.6239251E-010  0.9118800E+02  0.7816164E-02  0.1184000E+00
        -11   -1    0    0    0    0  0.00000000000E+00  0.00000000000E+00  0.45593999997E+02  0.45594000000E+02  0.51100000000E-03 0. -1.
         11   -1    0    0    0    0 -0.00000000000E+00 -0.00000000000E+00 -0.45593999997E+02  0.45594000000E+02  0.51100000000E-03 0.  1.
         23    2    1    2    0    0  0.00000000000E+00  0.00000000000E+00  0.00000000000E+00  0.91188000000E+02  0.91188000000E+02 0.  0.
    9900012    2    3    3    0    0 -0.84243317689E+01  0.30317821365E+02 -0.29891198292E+02  0.47787269667E+02  0.19999993722E+02 0.  0.
         12    1    3    3    0    0  0.84243317689E+01 -0.30317821365E+02  0.29891198292E+02  0.43400730333E+02  0.00000000000E+00 0. -1.
         11    1    4    4    0    0  0.73121634240E+00  0.63982506996E+01  0.15691162410E+01  0.66283041114E+01  0.51100000000E-03 0. -1.
        -11    1    4    4    0    0  0.53357261437E+00  0.58383646793E+01 -0.52034360422E+01  0.78388104181E+01  0.51100000000E-03 0.  1.
         12    1    4    4    0    0 -0.96891207256E+01  0.18081205986E+02 -0.26256878491E+02  0.33320155138E+02  0.00000000000E+00 0. -1.
</event>
<event>
 8    1  0.6239251E-010  0.9118800E+02  0.7816164E-02  0.1184000E+00
        -11   -1    0    0    0    0  0.00000000000E+00  0.00000000000E+00  0.45593999997E+02  0.45594000000E+02  0.51100000000E-03 0. -1.
         11   -1    0    0    0    0 -0.00000000000E+00 -0.00000000000E+00 -0.45593999997E+02  0.45594000000E+02  0.51100000000E-03 0.  1.
         23    2    1    2    0    0  0.00000000000E+00  0.00000000000E+00  0.00000000000E+00  0.91188000000E+02  0.91188000000E+02 0.  0.
    9900012    2    3    3    0    0  0.17598891901E+02 -0.19764978654E+02 -0.34398357104E+02  0.47787281702E+02  0.20000048591E+02 0.  0.
         12    1    3    3    0    0 -0.17598891901E+02  0.19764978654E+02  0.34398357104E+02  0.43400718298E+02  0.00000000000E+00 0. -1.
         11    1    4    4    0    0  0.12805248260E+02 -0.14878706691E+02 -0.29076878420E+02  0.35082975283E+02  0.51100000000E-03 0.  1.
        -11    1    4    4    0    0 -0.23485367703E+01  0.70486079493E+00 -0.88266665068E+00  0.26060610851E+01  0.51100000000E-03 0. -1.
        -12    1    4    4    0    0  0.71421804117E+01 -0.55911327583E+01 -0.44388120327E+01  0.10098245333E+02  0.00000000000E+00 0.  1.
</event>
<event>
 8    1  0.6239251E-010  0.9118800E+02  0.7816164E-02  0.1184000E+00
        -11   -1    0    0    0    0  0.00000000000E+00  0.00000000000E+00  0.45593999997E+02  0.45594000000E+02  0.51100000000E-03 0. -1.
         11   -1    0    0    0    0 -0.00000000000E+00 -0.00000000000E+00 -0.45593999997E+02  0.45594000000E+02  0.51100000000E-03 0.  1.
         23    2    1    2    0    0  0.00000000000E+00  0.35527136788E-14  0.35527136788E-14  0.91188000000E+02  0.91188000000E+02 0.  0.
    9900012    2    3    3    0    0  0.35254505006E+02 -0.17292974849E+02 -0.18485023039E+02  0.47787272136E+02  0.20000004979E+02 0.  0.
         12    1    3    3    0    0 -0.35254505006E+02  0.17292974849E+02  0.18485023039E+02  0.43400727864E+02  0.00000000000E+00 0. -1.
         11    1    4    4    0    0  0.70388017885E+01 -0.25574866860E+01 -0.16329335341E+01  0.76649814712E+01  0.51100000000E-03 0. -1.
        -11    1    4    4    0    0  0.50185386111E+01 -0.79028184317E+00  0.35756749885E+01  0.62125459408E+01  0.51100000000E-03 0.  1.
        -12    1    4    4    0    0  0.23197164606E+02 -0.13945206320E+02 -0.20427764493E+02  0.33909744724E+02  0.00000000000E+00 0.  1.
</event>
<event>
 8    1  0.6239251E-010  0.9118800E+02  0.7816164E-02  0.1184000E+00
        -11   -1    0    0    0    0  0.00000000000E+00  0.00000000000E+00  0.45593999997E+02  0.45594000000E+02  0.51100000000E-03 0. -1.
         11   -1    0    0    0    0 -0.00000000000E+00 -0.00000000000E+00 -0.45593999997E+02  0.45594000000E+02  0.51100000000E-03 0.  1.
         23    2    1    2    0    0  0.00000000000E+00  0.00000000000E+00  0.00000000000E+00  0.91188000000E+02  0.91188000000E+02 0.  0.
    9900012    2    3    3    0    0 -0.59950822725E+01  0.14749540905E+02 -0.40374909274E+02  0.47787271121E+02  0.20000000348E+02 0.  0.
         12    1    3    3    0    0  0.59950822725E+01 -0.14749540905E+02  0.40374909274E+02  0.43400728879E+02  0.00000000000E+00 0. -1.
         11    1    4    4    0    0 -0.26451636591E+01  0.17921947174E+02 -0.23730540286E+02  0.29855177504E+02  0.51100000000E-03 0. -1.
        -11    1    4    4    0    0 -0.95514043009E+00 -0.21413219259E+01 -0.14084004691E+02  0.14277840916E+02  0.51100000000E-03 0.  1.
         12    1    4    4    0    0 -0.23947781832E+01 -0.10310843423E+01 -0.25603642975E+01  0.36542527011E+01  0.00000000000E+00 0. -1.
</event>
<event>
 8    1  0.6239251E-010  0.9118800E+02  0.7816164E-02  0.1184000E+00
        -11   -1    0    0    0    0  0.00000000000E+00  0.00000000000E+00  0.45593999997E+02  0.45594000000E+02  0.51100000000E-03 0. -1.
         11   -1    0    0    0    0 -0.00000000000E+00 -0.00000000000E+00 -0.45593999997E+02  0.45594000000E+02  0.51100000000E-03 0.  1.
         23    2    1    2    0    0  0.17763568394E-14  0.88817841970E-15  0.00000000000E+00  0.91188000000E+02  0.91188000000E+02 0.  0.
    9900012    2    3    3    0    0 -0.52715708777E+01 -0.49490092550E+01  0.42794170694E+02  0.47787271924E+02  0.20000004009E+02 0.  0.
        -12    1    3    3    0    0  0.52715708777E+01  0.49490092550E+01 -0.42794170694E+02  0.43400728076E+02  0.00000000000E+00 0.  1.
         11    1    4    4    0    0  0.27850170953E+01 -0.85398477319E+01  0.15318178605E+02  0.17757587548E+02  0.51100000000E-03 0. -1.
        -11    1    4    4    0    0 -0.19038110145E+01 -0.90102109755E+00  0.74462374798E+00  0.22340098891E+01  0.51100000000E-03 0.  1.
         12    1    4    4    0    0 -0.61527769584E+01  0.44918595745E+01  0.26731368341E+02  0.27795674486E+02  0.00000000000E+00 0. -1.
</event>
<event>
 8    1  0.6395961E-010  0.9118800E+02  0.7816164E-02  0.1184000E+00
        -11   -1    0    0    0    0  0.00000000000E+00  0.00000000000E+00  0.45593999997E+02  0.45594000000E+02  0.51100000000E-03 0. -1.
         11   -1    0    0    0    0 -0.00000000000E+00 -0.00000000000E+00 -0.45593999997E+02  0.45594000000E+02  0.51100000000E-03 0.  1.
         23    2    1    2    0    0  0.44408920985E-15  0.00000000000E+00  0.00000000000E+00  0.91188000000E+02  0.91188000000E+02 0.  0.
    9900012    2    3    3    0    0  0.36260256257E+01 -0.13785426068E+02  0.40993138861E+02  0.47787268815E+02  0.19999989835E+02 0.  0.
        -12    1    3    3    0    0 -0.36260256257E+01  0.13785426068E+02 -0.40993138861E+02  0.43400731185E+02  0.00000000000E+00 0.  1.
         11    1    4    4    0    0  0.70800389374E+00 -0.13940341164E+02  0.34090118336E+02  0.36837081178E+02  0.51100000000E-03 0. -1.
        -11    1    4    4    0    0 -0.14719643814E+01  0.17290964949E+01 -0.37957159862E+00  0.23022877076E+01  0.51100000000E-03 0.  1.
        -12    1    4    4    0    0  0.43899861133E+01 -0.15741813986E+01  0.72825921235E+01  0.86478999294E+01  0.00000000000E+00 0.  1.
</event>
<event>
 8    1  0.6239251E-010  0.9118800E+02  0.7816164E-02  0.1184000E+00
        -11   -1    0    0    0    0  0.00000000000E+00  0.00000000000E+00  0.45593999997E+02  0.45594000000E+02  0.51100000000E-03 0. -1.
         11   -1    0    0    0    0 -0.00000000000E+00 -0.00000000000E+00 -0.45593999997E+02  0.45594000000E+02  0.51100000000E-03 0.  1.
         23    2    1    2    0    0  0.88817841970E-15  0.35527136788E-14  0.71054273576E-14  0.91188000000E+02  0.91188000000E+02 0.  0.
    9900012    2    3    3    0    0 -0.79314762363E+01 -0.13714588649E+02 -0.40405752580E+02  0.47787273063E+02  0.20000009202E+02 0.  0.
         12    1    3    3    0    0  0.79314762363E+01  0.13714588649E+02  0.40405752580E+02  0.43400726937E+02  0.00000000000E+00 0. -1.
         11    1    4    4    0    0 -0.11887486471E+02 -0.85465157626E+01 -0.33759192754E+02  0.36797260251E+02  0.51100000000E-03 0.  1.
        -11    1    4    4    0    0  0.28829914502E+01 -0.64436498704E+01 -0.56997605401E+01  0.90730112879E+01  0.51100000000E-03 0. -1.
         12    1    4    4    0    0  0.10730187849E+01  0.12755769841E+01 -0.94679928624E+00  0.19170015241E+01  0.00000000000E+00 0. -1.
</event>
<event>
 8    1  0.6239251E-010  0.9118800E+02  0.7816164E-02  0.1184000E+00
        -11   -1    0    0    0    0  0.00000000000E+00  0.00000000000E+00  0.45593999997E+02  0.45594000000E+02  0.51100000000E-03 0. -1.
         11   -1    0    0    0    0 -0.00000000000E+00 -0.00000000000E+00 -0.45593999997E+02  0.45594000000E+02  0.51100000000E-03 0.  1.
         23    2    1    2    0    0  0.00000000000E+00  0.00000000000E+00  0.00000000000E+00  0.91188000000E+02  0.91188000000E+02 0.  0.
    9900012    2    3    3    0    0 -0.66520354328E+01 -0.38704491787E+02 -0.18475283047E+02  0.47787270242E+02  0.19999996340E+02 0.  0.
         12    1    3    3    0    0  0.66520354328E+01  0.38704491787E+02  0.18475283047E+02  0.43400729758E+02  0.00000000000E+00 0. -1.
         11    1    4    4    0    0 -0.45031885997E+01 -0.25882391285E+02 -0.16600860501E+02  0.31076767140E+02  0.51100000000E-03 0.  1.
        -11    1    4    4    0    0 -0.75299560528E+00 -0.77240795059E+01  0.40640599299E+01  0.87604217918E+01  0.51100000000E-03 0. -1.
         12    1    4    4    0    0 -0.13958512279E+01 -0.50980209958E+01 -0.59384824759E+01  0.79500813103E+01  0.00000000000E+00 0. -1.
</event>
<event>
 8    1  0.6239251E-010  0.9118800E+02  0.7816164E-02  0.1184000E+00
        -11   -1    0    0    0    0  0.00000000000E+00  0.00000000000E+00  0.45593999997E+02  0.45594000000E+02  0.51100000000E-03 0. -1.
         11   -1    0    0    0    0 -0.00000000000E+00 -0.00000000000E+00 -0.45593999997E+02  0.45594000000E+02  0.51100000000E-03 0.  1.
         23    2    1    2    0    0  0.00000000000E+00  0.00000000000E+00  0.00000000000E+00  0.91188000000E+02  0.91188000000E+02 0.  0.
    9900012    2    3    3    0    0 -0.13027236406E+02 -0.13194822626E+02  0.39240428930E+02  0.47787268495E+02  0.19999988378E+02 0.  0.
        -12    1    3    3    0    0  0.13027236406E+02  0.13194822626E+02 -0.39240428930E+02  0.43400731505E+02  0.00000000000E+00 0.  1.
         11    1    4    4    0    0 -0.13615066567E+01 -0.33016548116E+01  0.85220376308E+01  0.92401163691E+01  0.51100000000E-03 0. -1.
        -11    1    4    4    0    0 -0.24888486816E+01 -0.11986213836E+01  0.24137744105E+02  0.24295303079E+02  0.51100000000E-03 0.  1.
        -12    1    4    4    0    0 -0.91768810681E+01 -0.86945464305E+01  0.65806471946E+01  0.14251849047E+02  0.00000000000E+00 0.  1.
</event>
<event>
 8    1  0.6239251E-010  0.9118800E+02  0.7816164E-02  0.1184000E+00
        -11   -1    0    0    0    0  0.00000000000E+00  0.00000000000E+00  0.45593999997E+02  0.45594000000E+02  0.51100000000E-03 0. -1.
         11   -1    0    0    0    0 -0.00000000000E+00 -0.00000000000E+00 -0.45593999997E+02  0.45594000000E+02  0.51100000000E-03 0.  1.
         23    2    1    2    0    0  0.35527136788E-14  0.00000000000E+00  0.00000000000E+00  0.91188000000E+02  0.91188000000E+02 0.  0.
    9900012    2    3    3    0    0  0.24165406573E+02  0.18935561313E+02  0.30677372322E+02  0.47787268098E+02  0.19999986566E+02 0.  0.
        -12    1    3    3    0    0 -0.24165406573E+02 -0.18935561313E+02 -0.30677372322E+02  0.43400731902E+02  0.00000000000E+00 0.  1.
         11    1    4    4    0    0 -0.87931929085E+00 -0.24624072980E+01  0.76659177367E+00  0.27247596821E+01  0.51100000000E-03 0. -1.
        -11    1    4    4    0    0  0.50689490542E+01  0.19409312407E+01  0.25549373908E+01  0.59990969260E+01  0.51100000000E-03 0.  1.
         12    1    4    4    0    0  0.19975776810E+02  0.19457037370E+02  0.27355843157E+02  0.39063411490E+02  0.00000000000E+00 0. -1.
</event>
<event>
 8    1  0.6239251E-010  0.9118800E+02  0.7816164E-02  0.1184000E+00
        -11   -1    0    0    0    0  0.00000000000E+00  0.00000000000E+00  0.45593999997E+02  0.45594000000E+02  0.51100000000E-03 0. -1.
         11   -1    0    0    0    0 -0.00000000000E+00 -0.00000000000E+00 -0.45593999997E+02  0.45594000000E+02  0.51100000000E-03 0.  1.
         23    2    1    2    0    0  0.00000000000E+00  0.00000000000E+00  0.00000000000E+00  0.91188000000E+02  0.91188000000E+02 0.  0.
    9900012    2    3    3    0    0  0.11820204561E+02 -0.18277434186E+02 -0.37547854791E+02  0.47787271484E+02  0.20000002005E+02 0.  0.
         12    1    3    3    0    0 -0.11820204561E+02  0.18277434186E+02  0.37547854791E+02  0.43400728516E+02  0.00000000000E+00 0. -1.
         11    1    4    4    0    0  0.10060453184E+02 -0.10016932207E+02 -0.99683834036E+01  0.17347054996E+02  0.51100000000E-03 0. -1.
        -11    1    4    4    0    0 -0.32677865917E+01 -0.15559561977E+00 -0.56959528215E+01  0.65686009174E+01  0.51100000000E-03 0.  1.
        -12    1    4    4    0    0  0.50275379694E+01 -0.81049063597E+01 -0.21883518566E+02  0.23871615571E+02  0.00000000000E+00 0.  1.
</event>
<event>
 8    1  0.6239251E-010  0.9118800E+02  0.7816164E-02  0.1184000E+00
        -11   -1    0    0    0    0  0.00000000000E+00  0.00000000000E+00  0.45593999997E+02  0.45594000000E+02  0.51100000000E-03 0. -1.
         11   -1    0    0    0    0 -0.00000000000E+00 -0.00000000000E+00 -0.45593999997E+02  0.45594000000E+02  0.51100000000E-03 0.  1.
         23    2    1    2    0    0  0.00000000000E+00  0.00000000000E+00  0.00000000000E+00  0.91188000000E+02  0.91188000000E+02 0.  0.
    9900012    2    3    3    0    0 -0.15951287864E+02 -0.18083623010E+02  0.36085483510E+02  0.47787272750E+02  0.20000007776E+02 0.  0.
        -12    1    3    3    0    0  0.15951287864E+02  0.18083623010E+02 -0.36085483510E+02  0.43400727250E+02  0.00000000000E+00 0.  1.
         11    1    4    4    0    0 -0.17040460271E+02 -0.98774666892E+01  0.32530018814E+02  0.38028196891E+02  0.51100000000E-03 0. -1.
        -11    1    4    4    0    0  0.20489071037E+01 -0.32444130736E+01  0.25473919472E+01  0.46058053047E+01  0.51100000000E-03 0.  1.
         12    1    4    4    0    0 -0.95973469733E+00 -0.49617432472E+01  0.10080727481E+01  0.51532705543E+01  0.00000000000E+00 0. -1.
</event>
<event>
 8    1  0.6239251E-010  0.9118800E+02  0.7816164E-02  0.1184000E+00
        -11   -1    0    0    0    0  0.00000000000E+00  0.00000000000E+00  0.45593999997E+02  0.45594000000E+02  0.51100000000E-03 0. -1.
         11   -1    0    0    0    0 -0.00000000000E+00 -0.00000000000E+00 -0.45593999997E+02  0.45594000000E+02  0.51100000000E-03 0.  1.
         23    2    1    2    0    0  0.17763568394E-14  0.71054273576E-14  0.00000000000E+00  0.91188000000E+02  0.91188000000E+02 0.  0.
    9900012    2    3    3    0    0  0.12138736971E+02  0.32283341378E+02 -0.26345026629E+02  0.47787268510E+02  0.19999988445E+02 0.  0.
         12    1    3    3    0    0 -0.12138736971E+02 -0.32283341378E+02  0.26345026629E+02  0.43400731490E+02  0.00000000000E+00 0. -1.
         11    1    4    4    0    0 -0.43022329617E+01  0.91503628493E+01 -0.10967733530E+02  0.14917423631E+02  0.51100000000E-03 0. -1.
        -11    1    4    4    0    0  0.96896171042E+00 -0.14797046361E+00 -0.11275721272E+01  0.14940552926E+01  0.51100000000E-03 0.  1.
         12    1    4    4    0    0  0.15472008222E+02  0.23280948993E+02 -0.14249720971E+02  0.31375789587E+02  0.00000000000E+00 0. -1.
</event>
<event>
 8    1  0.6239251E-010  0.9118800E+02  0.7816164E-02  0.1184000E+00
        -11   -1    0    0    0    0  0.00000000000E+00  0.00000000000E+00  0.45593999997E+02  0.45594000000E+02  0.51100000000E-03 0. -1.
         11   -1    0    0    0    0 -0.00000000000E+00 -0.00000000000E+00 -0.45593999997E+02  0.45594000000E+02  0.51100000000E-03 0.  1.
         23    2    1    2    0    0  0.00000000000E+00  0.35527136788E-14  0.00000000000E+00  0.91188000000E+02  0.91188000000E+02 0.  0.
    9900012    2    3    3    0    0  0.23447644674E+02 -0.21837006667E+02 -0.29274182079E+02  0.47787255337E+02  0.19999928382E+02 0.  0.
         12    1    3    3    0    0 -0.23447644674E+02  0.21837006667E+02  0.29274182079E+02  0.43400744663E+02  0.00000000000E+00 0. -1.
         11    1    4    4    0    0  0.56248745674E+01 -0.87400402623E+01 -0.27025910058E+01  0.10739251189E+02  0.51100000000E-03 0. -1.
        -11    1    4    4    0    0  0.16433889416E+02 -0.45035456656E+01 -0.18871853351E+02  0.25426393650E+02  0.51100000000E-03 0.  1.
        -12    1    4    4    0    0  0.13888806909E+01 -0.85934207396E+01 -0.76997377221E+01  0.11621610498E+02  0.00000000000E+00 0.  1.
</event>
<event>
 8    1  0.6239251E-010  0.9118800E+02  0.7816164E-02  0.1184000E+00
        -11   -1    0    0    0    0  0.00000000000E+00  0.00000000000E+00  0.45593999997E+02  0.45594000000E+02  0.51100000000E-03 0. -1.
         11   -1    0    0    0    0 -0.00000000000E+00 -0.00000000000E+00 -0.45593999997E+02  0.45594000000E+02  0.51100000000E-03 0.  1.
         23    2    1    2    0    0  0.13322676296E-14 -0.88817841970E-15  0.71054273576E-14  0.91188000000E+02  0.91188000000E+02 0.  0.
    9900012    2    3    3    0    0 -0.29961703573E+01  0.58138384636E+01 -0.42905074273E+02  0.47787272439E+02  0.20000006358E+02 0.  0.
         12    1    3    3    0    0  0.29961703573E+01 -0.58138384636E+01  0.42905074273E+02  0.43400727561E+02  0.00000000000E+00 0. -1.
         11    1    4    4    0    0 -0.74714300958E+01  0.68652151999E+01 -0.18968502822E+02  0.21511800180E+02  0.51100000000E-03 0. -1.
        -11    1    4    4    0    0  0.54293252355E-01  0.40310888549E+01 -0.75632170015E+01  0.85705820564E+01  0.51100000000E-03 0.  1.
         12    1    4    4    0    0  0.44209664861E+01 -0.50824655911E+01 -0.16373354449E+02  0.17704890202E+02  0.00000000000E+00 0. -1.
</event>
<event>
 8    1  0.6239251E-010  0.9118800E+02  0.7816164E-02  0.1184000E+00
        -11   -1    0    0    0    0  0.00000000000E+00  0.00000000000E+00  0.45593999997E+02  0.45594000000E+02  0.51100000000E-03 0. -1.
         11   -1    0    0    0    0 -0.00000000000E+00 -0.00000000000E+00 -0.45593999997E+02  0.45594000000E+02  0.51100000000E-03 0.  1.
         23    2    1    2    0    0  0.17763568394E-14  0.00000000000E+00  0.00000000000E+00  0.91188000000E+02  0.91188000000E+02 0.  0.
    9900012    2    3    3    0    0  0.84535118222E+01 -0.38565708710E+02  0.18023529518E+02  0.47787269975E+02  0.19999995123E+02 0.  0.
        -12    1    3    3    0    0 -0.84535118222E+01  0.38565708710E+02 -0.18023529518E+02  0.43400730025E+02  0.00000000000E+00 0.  1.
         11    1    4    4    0    0  0.75658176292E+01 -0.93895502343E+01  0.12756534201E+02  0.17553757862E+02  0.51100000000E-03 0. -1.
        -11    1    4    4    0    0  0.33562109823E+01 -0.15275866991E+02  0.32176685439E+01  0.15967769274E+02  0.51100000000E-03 0.  1.
         12    1    4    4    0    0 -0.24685167893E+01 -0.13900291485E+02  0.20493267731E+01  0.14265742839E+02  0.00000000000E+00 0. -1.
</event>
<event>
 8    1  0.6239251E-010  0.9118800E+02  0.7816164E-02  0.1184000E+00
        -11   -1    0    0    0    0  0.00000000000E+00  0.00000000000E+00  0.45593999997E+02  0.45594000000E+02  0.51100000000E-03 0. -1.
         11   -1    0    0    0    0 -0.00000000000E+00 -0.00000000000E+00 -0.45593999997E+02  0.45594000000E+02  0.51100000000E-03 0.  1.
         23    2    1    2    0    0  0.17763568394E-14 -0.35527136788E-14  0.00000000000E+00  0.91188000000E+02  0.91188000000E+02 0.  0.
    9900012    2    3    3    0    0 -0.11560565931E+02  0.19208087416E+02 -0.37162156115E+02  0.47787272426E+02  0.20000006299E+02 0.  0.
         12    1    3    3    0    0  0.11560565931E+02 -0.19208087416E+02  0.37162156115E+02  0.43400727574E+02  0.00000000000E+00 0. -1.
         11    1    4    4    0    0 -0.98650969530E+00  0.94892636672E+01 -0.49652812666E+01  0.10755154329E+02  0.51100000000E-03 0. -1.
        -11    1    4    4    0    0 -0.43535094532E+01  0.41206652542E+01 -0.25830995178E+02  0.26517413879E+02  0.51100000000E-03 0.  1.
         12    1    4    4    0    0 -0.62205467828E+01  0.55981584947E+01 -0.63658796705E+01  0.10514704218E+02  0.00000000000E+00 0. -1.
</event>
<event>
 8    1  0.6239251E-010  0.9118800E+02  0.7816164E-02  0.1184000E+00
        -11   -1    0    0    0    0  0.00000000000E+00  0.00000000000E+00  0.45593999997E+02  0.45594000000E+02  0.51100000000E-03 0. -1.
         11   -1    0    0    0    0 -0.00000000000E+00 -0.00000000000E+00 -0.45593999997E+02  0.45594000000E+02  0.51100000000E-03 0.  1.
         23    2    1    2    0    0  0.00000000000E+00  0.00000000000E+00  0.00000000000E+00  0.91188000000E+02  0.91188000000E+02 0.  0.
    9900012    2    3    3    0    0 -0.21894378948E+02 -0.13872431577E+02  0.34811129612E+02  0.47787274980E+02  0.20000017943E+02 0.  0.
        -12    1    3    3    0    0  0.21894378948E+02  0.13872431577E+02 -0.34811129612E+02  0.43400725020E+02  0.00000000000E+00 0.  1.
         11    1    4    4    0    0 -0.26798866642E+01 -0.33436211976E+00  0.18372867925E+02  0.18570295276E+02  0.51100000000E-03 0. -1.
        -11    1    4    4    0    0 -0.10493953163E+02 -0.97464998473E+01  0.75018489060E+01  0.16167716274E+02  0.51100000000E-03 0.  1.
        -12    1    4    4    0    0 -0.87205391209E+01 -0.37915696100E+01  0.89364127810E+01  0.13049263430E+02  0.00000000000E+00 0.  1.
</event>
<event>
 8    1  0.6239251E-010  0.9118800E+02  0.7816164E-02  0.1184000E+00
        -11   -1    0    0    0    0  0.00000000000E+00  0.00000000000E+00  0.45593999997E+02  0.45594000000E+02  0.51100000000E-03 0. -1.
         11   -1    0    0    0    0 -0.00000000000E+00 -0.00000000000E+00 -0.45593999997E+02  0.45594000000E+02  0.51100000000E-03 0.  1.
         23    2    1    2    0    0  0.35527136788E-14  0.00000000000E+00  0.00000000000E+00  0.91188000000E+02  0.91188000000E+02 0.  0.
    9900012    2    3    3    0    0 -0.29263104579E+02 -0.20115626549E+02 -0.24953044762E+02  0.47787283831E+02  0.20000058301E+02 0.  0.
         12    1    3    3    0    0  0.29263104579E+02  0.20115626549E+02  0.24953044762E+02  0.43400716169E+02  0.00000000000E+00 0. -1.
         11    1    4    4    0    0 -0.45033704729E+01  0.35688536099E+01 -0.46219550081E+01  0.73742477626E+01  0.51100000000E-03 0. -1.
        -11    1    4    4    0    0 -0.98496223296E+01 -0.14107097905E+02 -0.10004881938E+02  0.19902837340E+02  0.51100000000E-03 0.  1.
         12    1    4    4    0    0 -0.14910111777E+02 -0.95773822531E+01 -0.10326207816E+02  0.20510198728E+02  0.00000000000E+00 0. -1.
</event>
<event>
 8    1  0.6239251E-010  0.9118800E+02  0.7816164E-02  0.1184000E+00
        -11   -1    0    0    0    0  0.00000000000E+00  0.00000000000E+00  0.45593999997E+02  0.45594000000E+02  0.51100000000E-03 0.  1.
         11   -1    0    0    0    0 -0.00000000000E+00 -0.00000000000E+00 -0.45593999997E+02  0.45594000000E+02  0.51100000000E-03 0. -1.
         23    2    1    2    0    0  0.00000000000E+00  0.00000000000E+00  0.17763568394E-14  0.91188000000E+02  0.91188000000E+02 0.  0.
    9900012    2    3    3    0    0 -0.19294209688E+02 -0.35658381331E+02 -0.15486685561E+02  0.47787261339E+02  0.19999955749E+02 0.  0.
         12    1    3    3    0    0  0.19294209688E+02  0.35658381331E+02  0.15486685561E+02  0.43400738661E+02  0.00000000000E+00 0. -1.
         11    1    4    4    0    0  0.15001796710E+01 -0.23306039061E+00 -0.10261976710E+00  0.15216396645E+01  0.51100000000E-03 0. -1.
        -11    1    4    4    0    0 -0.19944181786E+02 -0.21731251206E+02 -0.13419474326E+02  0.32405245834E+02  0.51100000000E-03 0.  1.
        -12    1    4    4    0    0 -0.85020757332E+00 -0.13694069735E+02 -0.19645914678E+01  0.13860375841E+02  0.00000000000E+00 0.  1.
</event>
<event>
 8    1  0.6239251E-010  0.9118800E+02  0.7816164E-02  0.1184000E+00
        -11   -1    0    0    0    0  0.00000000000E+00  0.00000000000E+00  0.45593999997E+02  0.45594000000E+02  0.51100000000E-03 0. -1.
         11   -1    0    0    0    0 -0.00000000000E+00 -0.00000000000E+00 -0.45593999997E+02  0.45594000000E+02  0.51100000000E-03 0.  1.
         23    2    1    2    0    0  0.15543122345E-14 -0.35527136788E-14  0.00000000000E+00  0.91188000000E+02  0.91188000000E+02 0.  0.
    9900012    2    3    3    0    0 -0.84939159721E+00  0.29893545538E+02  0.31452768513E+02  0.47787283669E+02  0.20000057560E+02 0.  0.
        -12    1    3    3    0    0  0.84939159721E+00 -0.29893545538E+02 -0.31452768513E+02  0.43400716331E+02  0.00000000000E+00 0.  1.
         11    1    4    4    0    0 -0.81657541701E+01  0.15565897896E+02  0.24088109340E+02  0.29819686959E+02  0.51100000000E-03 0. -1.
        -11    1    4    4    0    0  0.57773593837E+01  0.80636293005E+01  0.40391178381E+01  0.10710484215E+02  0.51100000000E-03 0.  1.
         12    1    4    4    0    0  0.15390031892E+01  0.62640183415E+01  0.33255413347E+01  0.72571124952E+01  0.00000000000E+00 0. -1.
</event>
<event>
 8    1  0.6239251E-010  0.9118800E+02  0.7816164E-02  0.1184000E+00
        -11   -1    0    0    0    0  0.00000000000E+00  0.00000000000E+00  0.45593999997E+02  0.45594000000E+02  0.51100000000E-03 0. -1.
         11   -1    0    0    0    0 -0.00000000000E+00 -0.00000000000E+00 -0.45593999997E+02  0.45594000000E+02  0.51100000000E-03 0.  1.
         23    2    1    2    0    0  0.00000000000E+00  0.00000000000E+00  0.00000000000E+00  0.91188000000E+02  0.91188000000E+02 0.  0.
    9900012    2    3    3    0    0 -0.16067825623E+02  0.82807926756E+01  0.39457323560E+02  0.47787228923E+02  0.19999807948E+02 0.  0.
        -12    1    3    3    0    0  0.16067825623E+02 -0.82807926756E+01 -0.39457323560E+02  0.43400771077E+02  0.00000000000E+00 0.  1.
         11    1    4    4    0    0 -0.23289761349E+01 -0.37850995776E+01  0.80115501554E+00  0.45158563162E+01  0.51100000000E-03 0. -1.
        -11    1    4    4    0    0 -0.80680931367E+01  0.47321465497E+01  0.25628170473E+02  0.27281687263E+02  0.51100000000E-03 0.  1.
        -12    1    4    4    0    0 -0.56707563509E+01  0.73337457034E+01  0.13027998071E+02  0.15989685343E+02  0.00000000000E+00 0.  1.
</event>
<event>
 8    1  0.6239251E-010  0.9118800E+02  0.7816164E-02  0.1184000E+00
        -11   -1    0    0    0    0  0.00000000000E+00  0.00000000000E+00  0.45593999997E+02  0.45594000000E+02  0.51100000000E-03 0. -1.
         11   -1    0    0    0    0 -0.00000000000E+00 -0.00000000000E+00 -0.45593999997E+02  0.45594000000E+02  0.51100000000E-03 0.  1.
         23    2    1    2    0    0 -0.17763568394E-14  0.00000000000E+00 -0.71054273576E-14  0.91188000000E+02  0.91188000000E+02 0.  0.
    9900012    2    3    3    0    0 -0.15445936423E+02  0.10075799812E+02 -0.39287714975E+02  0.47787271415E+02  0.20000001687E+02 0.  0.
         12    1    3    3    0    0  0.15445936423E+02 -0.10075799812E+02  0.39287714975E+02  0.43400728585E+02  0.00000000000E+00 0. -1.
         11    1    4    4    0    0 -0.11257988923E+02 -0.87286217143E+00 -0.74986827211E+01  0.13554867973E+02  0.51100000000E-03 0. -1.
        -11    1    4    4    0    0  0.77883253919E+00  0.41633942656E+01 -0.91718804533E+01  0.10102664166E+02  0.51100000000E-03 0.  1.
         12    1    4    4    0    0 -0.49667800392E+01  0.67852677176E+01 -0.22617151800E+02  0.24129739276E+02  0.00000000000E+00 0. -1.
</event>
<event>
 8    1  0.6239251E-010  0.9118800E+02  0.7816164E-02  0.1184000E+00
        -11   -1    0    0    0    0  0.00000000000E+00  0.00000000000E+00  0.45593999997E+02  0.45594000000E+02  0.51100000000E-03 0. -1.
         11   -1    0    0    0    0 -0.00000000000E+00 -0.00000000000E+00 -0.45593999997E+02  0.45594000000E+02  0.51100000000E-03 0.  1.
         23    2    1    2    0    0  0.00000000000E+00  0.00000000000E+00 -0.71054273576E-14  0.91188000000E+02  0.91188000000E+02 0.  0.
    9900012    2    3    3    0    0 -0.16746648416E+02  0.79518336233E+01  0.39242113228E+02  0.47787247222E+02  0.19999891383E+02 0.  0.
        -12    1    3    3    0    0  0.16746648416E+02 -0.79518336233E+01 -0.39242113228E+02  0.43400752778E+02  0.00000000000E+00 0.  1.
         11    1    4    4    0    0 -0.16311298599E+02  0.53067504012E+01  0.25169733505E+02  0.30458751563E+02  0.51100000000E-03 0.  1.
        -11    1    4    4    0    0 -0.19986597360E+01 -0.23154160020E+01  0.93404309966E+00  0.31981602173E+01  0.51100000000E-03 0. -1.
         12    1    4    4    0    0  0.15633099197E+01  0.49604992241E+01  0.13138336623E+02  0.14130335441E+02  0.00000000000E+00 0. -1.
</event>
<event>
 8    1  0.6239251E-010  0.9118800E+02  0.7816164E-02  0.1184000E+00
        -11   -1    0    0    0    0  0.00000000000E+00  0.00000000000E+00  0.45593999997E+02  0.45594000000E+02  0.51100000000E-03 0. -1.
         11   -1    0    0    0    0 -0.00000000000E+00 -0.00000000000E+00 -0.45593999997E+02  0.45594000000E+02  0.51100000000E-03 0.  1.
         23    2    1    2    0    0  0.00000000000E+00  0.35527136788E-14 -0.35527136788E-14  0.91188000000E+02  0.91188000000E+02 0.  0.
    9900012    2    3    3    0    0 -0.26658408982E+02 -0.23095566839E+02  0.25289265514E+02  0.47787275037E+02  0.20000018204E+02 0.  0.
        -12    1    3    3    0    0  0.26658408982E+02  0.23095566839E+02 -0.25289265514E+02  0.43400724963E+02  0.00000000000E+00 0.  1.
         11    1    4    4    0    0 -0.20316129945E+02 -0.22745647032E+02  0.27256659720E+02  0.40902751670E+02  0.51100000000E-03 0. -1.
        -11    1    4    4    0    0 -0.55131395824E+01  0.32863617204E+00 -0.15693265157E+01  0.57415586527E+01  0.51100000000E-03 0.  1.
         12    1    4    4    0    0 -0.82913945459E+00 -0.67855597930E+00 -0.39806769019E+00  0.11429647143E+01  0.00000000000E+00 0. -1.
</event>
<event>
 8    1  0.6239251E-010  0.9118800E+02  0.7816164E-02  0.1184000E+00
        -11   -1    0    0    0    0  0.00000000000E+00  0.00000000000E+00  0.45593999997E+02  0.45594000000E+02  0.51100000000E-03 0. -1.
         11   -1    0    0    0    0 -0.00000000000E+00 -0.00000000000E+00 -0.45593999997E+02  0.45594000000E+02  0.51100000000E-03 0.  1.
         23    2    1    2    0    0 -0.17763568394E-14  0.00000000000E+00  0.00000000000E+00  0.91188000000E+02  0.91188000000E+02 0.  0.
    9900012    2    3    3    0    0  0.14836590145E+02  0.16629149837E+02 -0.37242049704E+02  0.47787270772E+02  0.19999998756E+02 0.  0.
         12    1    3    3    0    0 -0.14836590145E+02 -0.16629149837E+02  0.37242049704E+02  0.43400729228E+02  0.00000000000E+00 0. -1.
         11    1    4    4    0    0 -0.53819570549E+00  0.35391111262E+01 -0.22445307470E+02  0.22728985676E+02  0.51100000000E-03 0. -1.
        -11    1    4    4    0    0  0.12795896965E+02  0.11105830163E+02 -0.12867107245E+02  0.21275264790E+02  0.51100000000E-03 0.  1.
         12    1    4    4    0    0  0.25788888854E+01  0.19842085475E+01 -0.19296349885E+01  0.37830203055E+01  0.00000000000E+00 0. -1.
</event>
<event>
 8    1  0.6239251E-010  0.9118800E+02  0.7816164E-02  0.1184000E+00
        -11   -1    0    0    0    0  0.00000000000E+00  0.00000000000E+00  0.45593999997E+02  0.45594000000E+02  0.51100000000E-03 0. -1.
         11   -1    0    0    0    0 -0.00000000000E+00 -0.00000000000E+00 -0.45593999997E+02  0.45594000000E+02  0.51100000000E-03 0.  1.
         23    2    1    2    0    0  0.00000000000E+00 -0.35527136788E-14 -0.35527136788E-14  0.91188000000E+02  0.91188000000E+02 0.  0.
    9900012    2    3    3    0    0 -0.24595653129E+01  0.31007725327E+02  0.30267054016E+02  0.47787273621E+02  0.20000011746E+02 0.  0.
        -12    1    3    3    0    0  0.24595653129E+01 -0.31007725327E+02 -0.30267054016E+02  0.43400726379E+02  0.00000000000E+00 0.  1.
         11    1    4    4    0    0 -0.66001385105E+00  0.57635320609E+01 -0.17645004607E+01  0.60636113198E+01  0.51100000000E-03 0. -1.
        -11    1    4    4    0    0 -0.33422215789E+01  0.37632681968E+01  0.43593746571E+01  0.66585869572E+01  0.51100000000E-03 0.  1.
         12    1    4    4    0    0  0.15426701171E+01  0.21480925069E+02  0.27672179819E+02  0.35065075344E+02  0.00000000000E+00 0. -1.
</event>
<event>
 8    1  0.6239251E-010  0.9118800E+02  0.7816164E-02  0.1184000E+00
        -11   -1    0    0    0    0  0.00000000000E+00  0.00000000000E+00  0.45593999997E+02  0.45594000000E+02  0.51100000000E-03 0. -1.
         11   -1    0    0    0    0 -0.00000000000E+00 -0.00000000000E+00 -0.45593999997E+02  0.45594000000E+02  0.51100000000E-03 0.  1.
         23    2    1    2    0    0  0.00000000000E+00  0.00000000000E+00  0.00000000000E+00  0.91188000000E+02  0.91188000000E+02 0.  0.
    9900012    2    3    3    0    0 -0.76632889812E+01 -0.38889095706E+02 -0.17678674283E+02  0.47787270890E+02  0.19999999296E+02 0.  0.
         12    1    3    3    0    0  0.76632889812E+01  0.38889095706E+02  0.17678674283E+02  0.43400729110E+02  0.00000000000E+00 0. -1.
         11    1    4    4    0    0  0.28629727958E+01 -0.18627410683E+02 -0.92557636054E+01  0.20996337827E+02  0.51100000000E-03 0. -1.
        -11    1    4    4    0    0 -0.72195790403E+01 -0.43537512011E+01 -0.60356219113E+01  0.10368519815E+02  0.51100000000E-03 0.  1.
        -12    1    4    4    0    0 -0.33066827366E+01 -0.15907933822E+02 -0.23872887665E+01  0.16422413248E+02  0.00000000000E+00 0.  1.
</event>
<event>
 8    1  0.6239251E-010  0.9118800E+02  0.7816164E-02  0.1184000E+00
        -11   -1    0    0    0    0  0.00000000000E+00  0.00000000000E+00  0.45593999997E+02  0.45594000000E+02  0.51100000000E-03 0. -1.
         11   -1    0    0    0    0 -0.00000000000E+00 -0.00000000000E+00 -0.45593999997E+02  0.45594000000E+02  0.51100000000E-03 0.  1.
         23    2    1    2    0    0  0.17763568394E-14 -0.71054273576E-14  0.35527136788E-14  0.91188000000E+02  0.91188000000E+02 0.  0.
    9900012    2    3    3    0    0  0.10949314328E+02 -0.35920300695E+02  0.21759316751E+02  0.47787270148E+02  0.19999995912E+02 0.  0.
        -12    1    3    3    0    0 -0.10949314328E+02  0.35920300695E+02 -0.21759316751E+02  0.43400729852E+02  0.00000000000E+00 0.  1.
         11    1    4    4    0    0 -0.13457256796E+00 -0.20481667011E+02  0.66237214090E+01  0.21526506426E+02  0.51100000000E-03 0. -1.
        -11    1    4    4    0    0  0.11422383293E+02 -0.12935774512E+02  0.86558263309E+01  0.19306176008E+02  0.51100000000E-03 0.  1.
        -12    1    4    4    0    0 -0.33849639675E+00 -0.25028591718E+01  0.64797690108E+01  0.69545877145E+01  0.00000000000E+00 0.  1.
</event>
<event>
 8    1  0.6239251E-010  0.9118800E+02  0.7816164E-02  0.1184000E+00
        -11   -1    0    0    0    0  0.00000000000E+00  0.00000000000E+00  0.45593999997E+02  0.45594000000E+02  0.51100000000E-03 0. -1.
         11   -1    0    0    0    0 -0.00000000000E+00 -0.00000000000E+00 -0.45593999997E+02  0.45594000000E+02  0.51100000000E-03 0.  1.
         23    2    1    2    0    0  0.00000000000E+00 -0.88817841970E-15  0.35527136788E-14  0.91188000000E+02  0.91188000000E+02 0.  0.
    9900012    2    3    3    0    0  0.35661374657E+02  0.73392944556E+01 -0.23622537813E+02  0.47787272146E+02  0.20000005022E+02 0.  0.
         12    1    3    3    0    0 -0.35661374657E+02 -0.73392944556E+01  0.23622537813E+02  0.43400727854E+02  0.00000000000E+00 0. -1.
         11    1    4    4    0    0  0.20834292328E+00  0.19106760059E+01 -0.33384582859E+01  0.38521933442E+01  0.51100000000E-03 0. -1.
        -11    1    4    4    0    0  0.11580657924E+02 -0.11867501045E+01  0.42197439111E+00  0.11648951730E+02  0.51100000000E-03 0.  1.
        -12    1    4    4    0    0  0.23872373811E+02  0.66153685542E+01 -0.20706053918E+02  0.32286127072E+02  0.00000000000E+00 0.  1.
</event>
<event>
 8    1  0.6239251E-010  0.9118800E+02  0.7816164E-02  0.1184000E+00
        -11   -1    0    0    0    0  0.00000000000E+00  0.00000000000E+00  0.45593999997E+02  0.45594000000E+02  0.51100000000E-03 0. -1.
         11   -1    0    0    0    0 -0.00000000000E+00 -0.00000000000E+00 -0.45593999997E+02  0.45594000000E+02  0.51100000000E-03 0.  1.
         23    2    1    2    0    0  0.88817841970E-15 -0.17763568394E-14 -0.71054273576E-14  0.91188000000E+02  0.91188000000E+02 0.  0.
    9900012    2    3    3    0    0 -0.86993356696E+00  0.10830419607E+02  0.42018660022E+02  0.47787279231E+02  0.20000037324E+02 0.  0.
        -12    1    3    3    0    0  0.86993356696E+00 -0.10830419607E+02 -0.42018660022E+02  0.43400720769E+02  0.00000000000E+00 0.  1.
         11    1    4    4    0    0  0.65761245729E+01  0.68181308278E+01  0.28417567554E+02  0.29954807099E+02  0.51100000000E-03 0. -1.
        -11    1    4    4    0    0 -0.89170552873E+01  0.43791154401E+01  0.11001226404E+02  0.14822871169E+02  0.51100000000E-03 0.  1.
        -12    1    4    4    0    0  0.14709971474E+01 -0.36682666058E+00  0.25998660639E+01  0.30096009631E+01  0.00000000000E+00 0.  1.
</event>
<event>
 8    1  0.6239251E-010  0.9118800E+02  0.7816164E-02  0.1184000E+00
        -11   -1    0    0    0    0  0.00000000000E+00  0.00000000000E+00  0.45593999997E+02  0.45594000000E+02  0.51100000000E-03 0. -1.
         11   -1    0    0    0    0 -0.00000000000E+00 -0.00000000000E+00 -0.45593999997E+02  0.45594000000E+02  0.51100000000E-03 0.  1.
         23    2    1    2    0    0  0.88817841970E-15  0.00000000000E+00  0.71054273576E-14  0.91188000000E+02  0.91188000000E+02 0.  0.
    9900012    2    3    3    0    0 -0.53774668687E+01  0.17240964391E+02 -0.39464617680E+02  0.47787262084E+02  0.19999959145E+02 0.  0.
         12    1    3    3    0    0  0.53774668687E+01 -0.17240964391E+02  0.39464617680E+02  0.43400737916E+02  0.00000000000E+00 0. -1.
         11    1    4    4    0    0 -0.62249091093E+01 -0.10761645917E+01 -0.16475623427E+02  0.17645220067E+02  0.51100000000E-03 0. -1.
        -11    1    4    4    0    0  0.29261449657E+01  0.73560174551E+01 -0.65511284981E+01  0.10275728783E+02  0.51100000000E-03 0.  1.
        -12    1    4    4    0    0 -0.20787027251E+01  0.10961111527E+02 -0.16437865755E+02  0.19866313234E+02  0.00000000000E+00 0.  1.
</event>
<event>
 8    1  0.6239251E-010  0.9118800E+02  0.7816164E-02  0.1184000E+00
        -11   -1    0    0    0    0  0.00000000000E+00  0.00000000000E+00  0.45593999997E+02  0.45594000000E+02  0.51100000000E-03 0. -1.
         11   -1    0    0    0    0 -0.00000000000E+00 -0.00000000000E+00 -0.45593999997E+02  0.45594000000E+02  0.51100000000E-03 0.  1.
         23    2    1    2    0    0  0.00000000000E+00  0.00000000000E+00 -0.35527136788E-14  0.91188000000E+02  0.91188000000E+02 0.  0.
    9900012    2    3    3    0    0 -0.11224771504E+02  0.32458071112E+02  0.26534909470E+02  0.47787270787E+02  0.19999998827E+02 0.  0.
        -12    1    3    3    0    0  0.11224771504E+02 -0.32458071112E+02 -0.26534909470E+02  0.43400729213E+02  0.00000000000E+00 0.  1.
         11    1    4    4    0    0 -0.87749091380E+01  0.22320455014E+02  0.89644803507E+01  0.25603977242E+02  0.51100000000E-03 0. -1.
        -11    1    4    4    0    0 -0.51610502224E+01  0.77724698129E+01  0.15326815160E+02  0.17943215698E+02  0.51100000000E-03 0.  1.
        -12    1    4    4    0    0  0.27111878568E+01  0.23651462851E+01  0.22436139594E+01  0.42400778464E+01  0.00000000000E+00 0.  1.
</event>
<event>
 8    1  0.6239251E-010  0.9118800E+02  0.7816164E-02  0.1184000E+00
        -11   -1    0    0    0    0  0.00000000000E+00  0.00000000000E+00  0.45593999997E+02  0.45594000000E+02  0.51100000000E-03 0. -1.
         11   -1    0    0    0    0 -0.00000000000E+00 -0.00000000000E+00 -0.45593999997E+02  0.45594000000E+02  0.51100000000E-03 0.  1.
         23    2    1    2    0    0  0.00000000000E+00  0.00000000000E+00  0.17763568394E-14  0.91188000000E+02  0.91188000000E+02 0.  0.
    9900012    2    3    3    0    0 -0.42357125368E+02 -0.68143591111E+01 -0.65621138997E+01  0.47787275370E+02  0.20000019723E+02 0.  0.
         12    1    3    3    0    0  0.42357125368E+02  0.68143591111E+01  0.65621138997E+01  0.43400724630E+02  0.00000000000E+00 0. -1.
         11    1    4    4    0    0 -0.18230269659E+02  0.18611867930E+01  0.32492685317E+01  0.18610870329E+02  0.51100000000E-03 0. -1.
        -11    1    4    4    0    0 -0.14702004520E+02 -0.20178497535E+01 -0.14178487355E+01  0.14907412580E+02  0.51100000000E-03 0.  1.
         12    1    4    4    0    0 -0.94248511892E+01 -0.66576961505E+01 -0.83935336960E+01  0.14268992462E+02  0.00000000000E+00 0. -1.
</event>
<event>
 8    1  0.6239251E-010  0.9118800E+02  0.7816164E-02  0.1184000E+00
        -11   -1    0    0    0    0  0.00000000000E+00  0.00000000000E+00  0.45593999997E+02  0.45594000000E+02  0.51100000000E-03 0. -1.
         11   -1    0    0    0    0 -0.00000000000E+00 -0.00000000000E+00 -0.45593999997E+02  0.45594000000E+02  0.51100000000E-03 0.  1.
         23    2    1    2    0    0  0.22204460493E-15  0.00000000000E+00  0.00000000000E+00  0.91188000000E+02  0.91188000000E+02 0.  0.
    9900012    2    3    3    0    0 -0.19228542601E+01 -0.23693706329E+02  0.36311622602E+02  0.47787273922E+02  0.20000013119E+02 0.  0.
        -12    1    3    3    0    0  0.19228542601E+01  0.23693706329E+02 -0.36311622602E+02  0.43400726078E+02  0.00000000000E+00 0.  1.
         11    1    4    4    0    0  0.21531701993E+01 -0.55192030382E+01  0.49804544232E+01  0.77396815572E+01  0.51100000000E-03 0. -1.
        -11    1    4    4    0    0 -0.45679888774E+00 -0.11634817573E+02  0.30352698025E+02  0.32509443594E+02  0.51100000000E-03 0.  1.
        -12    1    4    4    0    0 -0.36192255717E+01 -0.65396857186E+01  0.97847015398E+00  0.75381487700E+01  0.00000000000E+00 0.  1.
</event>
<event>
 8    1  0.6239251E-010  0.9118800E+02  0.7816164E-02  0.1184000E+00
        -11   -1    0    0    0    0  0.00000000000E+00  0.00000000000E+00  0.45593999997E+02  0.45594000000E+02  0.51100000000E-03 0.  1.
         11   -1    0    0    0    0 -0.00000000000E+00 -0.00000000000E+00 -0.45593999997E+02  0.45594000000E+02  0.51100000000E-03 0. -1.
         23    2    1    2    0    0  0.35527136788E-14  0.00000000000E+00 -0.22204460493E-15  0.91188000000E+02  0.91188000000E+02 0.  0.
    9900012    2    3    3    0    0 -0.25392716939E+02 -0.35167144037E+02 -0.14509513933E+01  0.47787270130E+02  0.19999995831E+02 0.  0.
        -12    1    3    3    0    0  0.25392716939E+02  0.35167144037E+02  0.14509513933E+01  0.43400729870E+02  0.00000000000E+00 0.  1.
         11    1    4    4    0    0 -0.17868442175E+02 -0.18492831042E+02 -0.48764951483E+01  0.26173387837E+02  0.51100000000E-03 0. -1.
        -11    1    4    4    0    0 -0.44836430648E+01 -0.12377280268E+02 -0.28023688297E+01  0.13459323656E+02  0.51100000000E-03 0.  1.
         12    1    4    4    0    0 -0.30406316999E+01 -0.42970327276E+01  0.62279125847E+01  0.81545586367E+01  0.00000000000E+00 0. -1.
</event>
<event>
 8    1  0.6239251E-010  0.9118800E+02  0.7816164E-02  0.1184000E+00
        -11   -1    0    0    0    0  0.00000000000E+00  0.00000000000E+00  0.45593999997E+02  0.45594000000E+02  0.51100000000E-03 0. -1.
         11   -1    0    0    0    0 -0.00000000000E+00 -0.00000000000E+00 -0.45593999997E+02  0.45594000000E+02  0.51100000000E-03 0.  1.
         23    2    1    2    0    0  0.35527136788E-14  0.17763568394E-14  0.00000000000E+00  0.91188000000E+02  0.91188000000E+02 0.  0.
    9900012    2    3    3    0    0  0.27644619083E+02  0.93783716764E+01  0.32116091397E+02  0.47787284036E+02  0.20000059233E+02 0.  0.
        -12    1    3    3    0    0 -0.27644619083E+02 -0.93783716764E+01 -0.32116091397E+02  0.43400715964E+02  0.00000000000E+00 0.  1.
         11    1    4    4    0    0  0.99692654279E+01  0.80912372069E+01  0.20276380910E+02  0.23999708243E+02  0.51100000000E-03 0. -1.
        -11    1    4    4    0    0  0.12297900525E+02 -0.13107427018E+01  0.23709278171E+01  0.12592763904E+02  0.51100000000E-03 0.  1.
        -12    1    4    4    0    0  0.53774531301E+01  0.25978771714E+01  0.94687826706E+01  0.11194811889E+02  0.00000000000E+00 0.  1.
</event>
<event>
 8    1  0.6239251E-010  0.9118800E+02  0.7816164E-02  0.1184000E+00
        -11   -1    0    0    0    0  0.00000000000E+00  0.00000000000E+00  0.45593999997E+02  0.45594000000E+02  0.51100000000E-03 0. -1.
         11   -1    0    0    0    0 -0.00000000000E+00 -0.00000000000E+00 -0.45593999997E+02  0.45594000000E+02  0.51100000000E-03 0.  1.
         23    2    1    2    0    0  0.00000000000E+00 -0.35527136788E-14  0.00000000000E+00  0.91188000000E+02  0.91188000000E+02 0.  0.
    9900012    2    3    3    0    0 -0.29944117464E+02 -0.31138521130E+02 -0.41672638348E+01  0.47787265482E+02  0.19999974637E+02 0.  0.
        -12    1    3    3    0    0  0.29944117464E+02  0.31138521130E+02  0.41672638348E+01  0.43400734518E+02  0.00000000000E+00 0.  1.
         11    1    4    4    0    0 -0.25715753256E+02 -0.18519429232E+02 -0.54826007866E+00  0.31694949345E+02  0.51100000000E-03 0. -1.
        -11    1    4    4    0    0 -0.12399373115E+01 -0.12619457612E+02 -0.31687365609E+01  0.13070158630E+02  0.51100000000E-03 0.  1.
         12    1    4    4    0    0 -0.29884268965E+01  0.36571347701E-03 -0.45026719516E+00  0.30221575069E+01  0.00000000000E+00 0. -1.
</event>
<event>
 8    1  0.6239251E-010  0.9118800E+02  0.7816164E-02  0.1184000E+00
        -11   -1    0    0    0    0  0.00000000000E+00  0.00000000000E+00  0.45593999997E+02  0.45594000000E+02  0.51100000000E-03 0. -1.
         11   -1    0    0    0    0 -0.00000000000E+00 -0.00000000000E+00 -0.45593999997E+02  0.45594000000E+02  0.51100000000E-03 0.  1.
         23    2    1    2    0    0  0.00000000000E+00  0.00000000000E+00  0.00000000000E+00  0.91188000000E+02  0.91188000000E+02 0.  0.
    9900012    2    3    3    0    0  0.16696032776E+02 -0.33197710207E+02  0.22422686488E+02  0.47787281771E+02  0.20000048909E+02 0.  0.
        -12    1    3    3    0    0 -0.16696032776E+02  0.33197710207E+02 -0.22422686488E+02  0.43400718229E+02  0.00000000000E+00 0.  1.
         11    1    4    4    0    0  0.17410630795E+02 -0.18898092646E+02  0.19116248219E+02  0.32026534570E+02  0.51100000000E-03 0. -1.
        -11    1    4    4    0    0 -0.12695658196E+01 -0.12240330626E+01 -0.94422558953E+00  0.20004040926E+01  0.51100000000E-03 0.  1.
         12    1    4    4    0    0  0.55496780003E+00 -0.13075584498E+02  0.42506638583E+01  0.13760343109E+02  0.00000000000E+00 0. -1.
</event>
<event>
 8    1  0.6239251E-010  0.9118800E+02  0.7816164E-02  0.1184000E+00
        -11   -1    0    0    0    0  0.00000000000E+00  0.00000000000E+00  0.45593999997E+02  0.45594000000E+02  0.51100000000E-03 0. -1.
         11   -1    0    0    0    0 -0.00000000000E+00 -0.00000000000E+00 -0.45593999997E+02  0.45594000000E+02  0.51100000000E-03 0.  1.
         23    2    1    2    0    0 -0.35527136788E-14  0.00000000000E+00  0.00000000000E+00  0.91188000000E+02  0.91188000000E+02 0.  0.
    9900012    2    3    3    0    0  0.27362786273E+02  0.80160703236E+01  0.32720692564E+02  0.47787272150E+02  0.20000005040E+02 0.  0.
        -12    1    3    3    0    0 -0.27362786273E+02 -0.80160703236E+01 -0.32720692564E+02  0.43400727850E+02  0.00000000000E+00 0.  1.
         11    1    4    4    0    0  0.25194825175E+01  0.27487064336E+01  0.11973245943E+02  0.12540406608E+02  0.51100000000E-03 0. -1.
        -11    1    4    4    0    0  0.14835911969E+02 -0.41373776488E+00  0.48348909024E+01  0.15609344419E+02  0.51100000000E-03 0.  1.
         12    1    4    4    0    0  0.10007391787E+02  0.56811016549E+01  0.15912555718E+02  0.19637521124E+02  0.00000000000E+00 0. -1.
</event>
<event>
 8    1  0.6239251E-010  0.9118800E+02  0.7816164E-02  0.1184000E+00
        -11   -1    0    0    0    0  0.00000000000E+00  0.00000000000E+00  0.45593999997E+02  0.45594000000E+02  0.51100000000E-03 0. -1.
         11   -1    0    0    0    0 -0.00000000000E+00 -0.00000000000E+00 -0.45593999997E+02  0.45594000000E+02  0.51100000000E-03 0.  1.
         23    2    1    2    0    0  0.35527136788E-14  0.17763568394E-14  0.00000000000E+00  0.91188000000E+02  0.91188000000E+02 0.  0.
    9900012    2    3    3    0    0  0.22808075869E+02  0.14390149507E+02  0.34004978560E+02  0.47787270806E+02  0.19999998913E+02 0.  0.
        -12    1    3    3    0    0 -0.22808075869E+02 -0.14390149507E+02 -0.34004978560E+02  0.43400729194E+02  0.00000000000E+00 0.  1.
         11    1    4    4    0    0  0.11061866153E+02  0.14464416957E+02  0.23962680066E+02  0.30096416346E+02  0.51100000000E-03 0. -1.
        -11    1    4    4    0    0  0.37577523005E+01 -0.17941146179E+01  0.83719998839E+01  0.93503974211E+01  0.51100000000E-03 0.  1.
         12    1    4    4    0    0  0.79884574160E+01  0.17198471678E+01  0.16702986102E+01  0.83404570387E+01  0.00000000000E+00 0. -1.
</event>
<event>
 8    1  0.6239251E-010  0.9118800E+02  0.7816164E-02  0.1184000E+00
        -11   -1    0    0    0    0  0.00000000000E+00  0.00000000000E+00  0.45593999997E+02  0.45594000000E+02  0.51100000000E-03 0. -1.
         11   -1    0    0    0    0 -0.00000000000E+00 -0.00000000000E+00 -0.45593999997E+02  0.45594000000E+02  0.51100000000E-03 0.  1.
         23    2    1    2    0    0  0.00000000000E+00  0.00000000000E+00  0.00000000000E+00  0.91188000000E+02  0.91188000000E+02 0.  0.
    9900012    2    3    3    0    0 -0.16273998981E+02  0.23540181243E+02 -0.32628781064E+02  0.47787302661E+02  0.20000144150E+02 0.  0.
         12    1    3    3    0    0  0.16273998981E+02 -0.23540181243E+02  0.32628781064E+02  0.43400697339E+02  0.00000000000E+00 0. -1.
         11    1    4    4    0    0 -0.47737437805E+01  0.22539297381E+00  0.77138052079E+00  0.48409151866E+01  0.51100000000E-03 0. -1.
        -11    1    4    4    0    0 -0.92385450153E+01  0.11660876726E+02 -0.21429808713E+02  0.26087611270E+02  0.51100000000E-03 0.  1.
        -12    1    4    4    0    0 -0.22617101852E+01  0.11653911544E+02 -0.11970352872E+02  0.16858776204E+02  0.00000000000E+00 0.  1.
</event>
<event>
 8    1  0.6239251E-010  0.9118800E+02  0.7816164E-02  0.1184000E+00
        -11   -1    0    0    0    0  0.00000000000E+00  0.00000000000E+00  0.45593999997E+02  0.45594000000E+02  0.51100000000E-03 0. -1.
         11   -1    0    0    0    0 -0.00000000000E+00 -0.00000000000E+00 -0.45593999997E+02  0.45594000000E+02  0.51100000000E-03 0.  1.
         23    2    1    2    0    0 -0.44408920985E-15 -0.88817841970E-15 -0.71054273576E-14  0.91188000000E+02  0.91188000000E+02 0.  0.
    9900012    2    3    3    0    0 -0.27013725448E+01 -0.41761336816E+01 -0.43114801141E+02  0.47787267477E+02  0.19999983734E+02 0.  0.
         12    1    3    3    0    0  0.27013725448E+01  0.41761336816E+01  0.43114801141E+02  0.43400732523E+02  0.00000000000E+00 0. -1.
         11    1    4    4    0    0 -0.44903188732E+01 -0.49627841601E+00 -0.19310164538E+01  0.49130520713E+01  0.51100000000E-03 0. -1.
        -11    1    4    4    0    0  0.63566598697E+01 -0.11710695078E+01 -0.18407526776E+02  0.19509371357E+02  0.51100000000E-03 0.  1.
        -12    1    4    4    0    0 -0.45677135413E+01 -0.25087857578E+01 -0.22776257911E+02  0.23364844049E+02  0.00000000000E+00 0.  1.
</event>
<event>
 8    1  0.6239251E-010  0.9118800E+02  0.7816164E-02  0.1184000E+00
        -11   -1    0    0    0    0  0.00000000000E+00  0.00000000000E+00  0.45593999997E+02  0.45594000000E+02  0.51100000000E-03 0. -1.
         11   -1    0    0    0    0 -0.00000000000E+00 -0.00000000000E+00 -0.45593999997E+02  0.45594000000E+02  0.51100000000E-03 0.  1.
         23    2    1    2    0    0 -0.35527136788E-14  0.00000000000E+00  0.17763568394E-14  0.91188000000E+02  0.91188000000E+02 0.  0.
    9900012    2    3    3    0    0 -0.22818493400E+02  0.35563992823E+02 -0.99066717610E+01  0.47787269914E+02  0.19999994848E+02 0.  0.
         12    1    3    3    0    0  0.22818493400E+02 -0.35563992823E+02  0.99066717610E+01  0.43400730086E+02  0.00000000000E+00 0. -1.
         11    1    4    4    0    0  0.11209377458E+01  0.90946882362E+00 -0.10308999040E+01  0.17738065972E+01  0.51100000000E-03 0. -1.
        -11    1    4    4    0    0 -0.13067398491E+02  0.25289656518E+02 -0.12688876885E+02  0.31166187239E+02  0.51100000000E-03 0.  1.
        -12    1    4    4    0    0 -0.10872032655E+02  0.93648674811E+01  0.38131050283E+01  0.14847276078E+02  0.00000000000E+00 0.  1.
</event>
<event>
 8    1  0.7222075E-010  0.9118800E+02  0.7816164E-02  0.1184000E+00
        -11   -1    0    0    0    0  0.00000000000E+00  0.00000000000E+00  0.45593999997E+02  0.45594000000E+02  0.51100000000E-03 0. -1.
         11   -1    0    0    0    0 -0.00000000000E+00 -0.00000000000E+00 -0.45593999997E+02  0.45594000000E+02  0.51100000000E-03 0.  1.
         23    2    1    2    0    0  0.55511151231E-16  0.71054273576E-14 -0.35527136788E-14  0.91188000000E+02  0.91188000000E+02 0.  0.
    9900012    2    3    3    0    0 -0.36410028623E+00 -0.30900247713E+02  0.30474024227E+02  0.47787262330E+02  0.19999960266E+02 0.  0.
        -12    1    3    3    0    0  0.36410028623E+00  0.30900247713E+02 -0.30474024227E+02  0.43400737670E+02  0.00000000000E+00 0.  1.
         11    1    4    4    0    0  0.30752487191E+01 -0.12017608689E+02  0.13447472780E+02  0.18295206960E+02  0.51100000000E-03 0. -1.
        -11    1    4    4    0    0 -0.46634708056E+00  0.22263260934E+01  0.37269134426E+01  0.43662216554E+01  0.51100000000E-03 0.  1.
        -12    1    4    4    0    0 -0.29730019247E+01 -0.21108965118E+02  0.13299638005E+02  0.25125833715E+02  0.00000000000E+00 0.  1.
</event>
<event>
 8    1  0.6239251E-010  0.9118800E+02  0.7816164E-02  0.1184000E+00
        -11   -1    0    0    0    0  0.00000000000E+00  0.00000000000E+00  0.45593999997E+02  0.45594000000E+02  0.51100000000E-03 0. -1.
         11   -1    0    0    0    0 -0.00000000000E+00 -0.00000000000E+00 -0.45593999997E+02  0.45594000000E+02  0.51100000000E-03 0.  1.
         23    2    1    2    0    0  0.00000000000E+00 -0.35527136788E-14  0.00000000000E+00  0.91188000000E+02  0.91188000000E+02 0.  0.
    9900012    2    3    3    0    0 -0.16641074998E+01  0.20473125110E+02 -0.38232283851E+02  0.47787243855E+02  0.19999876031E+02 0.  0.
         12    1    3    3    0    0  0.16641074998E+01 -0.20473125110E+02  0.38232283851E+02  0.43400756145E+02  0.00000000000E+00 0. -1.
         11    1    4    4    0    0 -0.12435029326E+01  0.21690566916E+02 -0.22725212945E+02  0.31439820234E+02  0.51100000000E-03 0. -1.
        -11    1    4    4    0    0  0.15295685600E+01 -0.23630368626E+01 -0.10135063564E+02  0.10518699392E+02  0.51100000000E-03 0.  1.
         12    1    4    4    0    0 -0.19501731271E+01  0.11455950566E+01 -0.53720073410E+01  0.58287242284E+01  0.00000000000E+00 0. -1.
</event>
<event>
 8    1  0.6239251E-010  0.9118800E+02  0.7816164E-02  0.1184000E+00
        -11   -1    0    0    0    0  0.00000000000E+00  0.00000000000E+00  0.45593999997E+02  0.45594000000E+02  0.51100000000E-03 0.  1.
         11   -1    0    0    0    0 -0.00000000000E+00 -0.00000000000E+00 -0.45593999997E+02  0.45594000000E+02  0.51100000000E-03 0. -1.
         23    2    1    2    0    0  0.00000000000E+00  0.22204460493E-15  0.00000000000E+00  0.91188000000E+02  0.91188000000E+02 0.  0.
    9900012    2    3    3    0    0  0.42462964163E+02 -0.13079426404E+01  0.88774324894E+01  0.47787275961E+02  0.20000022418E+02 0.  0.
        -12    1    3    3    0    0 -0.42462964163E+02  0.13079426404E+01 -0.88774324894E+01  0.43400724039E+02  0.00000000000E+00 0.  1.
         11    1    4    4    0    0  0.56073835681E+01 -0.24646838690E+01  0.27091619387E+01  0.66975350485E+01  0.51100000000E-03 0.  1.
        -11    1    4    4    0    0  0.29204598573E+02 -0.60072956903E+01  0.68268526410E+01  0.30587613450E+02  0.51100000000E-03 0. -1.
        -12    1    4    4    0    0  0.76509820226E+01  0.71640369189E+01 -0.65858209041E+00  0.10502127463E+02  0.00000000000E+00 0.  1.
</event>
<event>
 8    1  0.6239251E-010  0.9118800E+02  0.7816164E-02  0.1184000E+00
        -11   -1    0    0    0    0  0.00000000000E+00  0.00000000000E+00  0.45593999997E+02  0.45594000000E+02  0.51100000000E-03 0. -1.
         11   -1    0    0    0    0 -0.00000000000E+00 -0.00000000000E+00 -0.45593999997E+02  0.45594000000E+02  0.51100000000E-03 0.  1.
         23    2    1    2    0    0  0.00000000000E+00  0.71054273576E-14  0.22204460493E-15  0.91188000000E+02  0.91188000000E+02 0.  0.
    9900012    2    3    3    0    0 -0.36042938969E+02  0.24119202712E+02 -0.16714588808E+01  0.47787272313E+02  0.20000005783E+02 0.  0.
         12    1    3    3    0    0  0.36042938969E+02 -0.24119202712E+02  0.16714588808E+01  0.43400727687E+02  0.00000000000E+00 0. -1.
         11    1    4    4    0    0 -0.37544617503E+01 -0.17594947383E+01 -0.37325579134E+01  0.55788702805E+01  0.51100000000E-03 0. -1.
        -11    1    4    4    0    0 -0.32134855116E+02  0.26292422092E+02  0.15726855339E+01  0.41550134932E+02  0.51100000000E-03 0.  1.
         12    1    4    4    0    0 -0.15362210269E+00 -0.41372464186E+00  0.48841349868E+00  0.65826710036E+00  0.00000000000E+00 0. -1.
</event>
<event>
 8    1  0.6239251E-010  0.9118800E+02  0.7816164E-02  0.1184000E+00
        -11   -1    0    0    0    0  0.00000000000E+00  0.00000000000E+00  0.45593999997E+02  0.45594000000E+02  0.51100000000E-03 0. -1.
         11   -1    0    0    0    0 -0.00000000000E+00 -0.00000000000E+00 -0.45593999997E+02  0.45594000000E+02  0.51100000000E-03 0.  1.
         23    2    1    2    0    0  0.00000000000E+00 -0.17763568394E-14  0.00000000000E+00  0.91188000000E+02  0.91188000000E+02 0.  0.
    9900012    2    3    3    0    0 -0.19718152677E+01  0.11188166606E+02  0.41887463165E+02  0.47787277680E+02  0.20000030255E+02 0.  0.
        -12    1    3    3    0    0  0.19718152677E+01 -0.11188166606E+02 -0.41887463165E+02  0.43400722320E+02  0.00000000000E+00 0.  1.
         11    1    4    4    0    0 -0.60151825578E+00  0.65357702649E+01  0.73427628775E+01  0.98485676168E+01  0.51100000000E-03 0. -1.
        -11    1    4    4    0    0  0.45920512617E+01 -0.26741827304E+01  0.68000689759E+01  0.86301289911E+01  0.51100000000E-03 0.  1.
        -12    1    4    4    0    0 -0.59623482736E+01  0.73265790719E+01  0.27744631312E+02  0.29308581072E+02  0.00000000000E+00 0.  1.
</event>
<event>
 8    1  0.6239251E-010  0.9118800E+02  0.7816164E-02  0.1184000E+00
        -11   -1    0    0    0    0  0.00000000000E+00  0.00000000000E+00  0.45593999997E+02  0.45594000000E+02  0.51100000000E-03 0.  1.
         11   -1    0    0    0    0 -0.00000000000E+00 -0.00000000000E+00 -0.45593999997E+02  0.45594000000E+02  0.51100000000E-03 0. -1.
         23    2    1    2    0    0  0.00000000000E+00  0.00000000000E+00 -0.44408920985E-15  0.91188000000E+02  0.91188000000E+02 0.  0.
    9900012    2    3    3    0    0 -0.20558273639E+02 -0.38170050099E+02  0.20070662066E+01  0.47787266661E+02  0.19999980013E+02 0.  0.
         12    1    3    3    0    0  0.20558273639E+02  0.38170050099E+02 -0.20070662066E+01  0.43400733339E+02  0.00000000000E+00 0. -1.
         11    1    4    4    0    0 -0.36468221223E+01 -0.22726344873E+02 -0.14435617182E+01  0.23062305470E+02  0.51100000000E-03 0. -1.
        -11    1    4    4    0    0 -0.64273919352E+01 -0.81259315877E+01 -0.24458815320E+01  0.10645396563E+02  0.51100000000E-03 0.  1.
         12    1    4    4    0    0 -0.10484059582E+02 -0.73177736387E+01  0.58965094567E+01  0.14079564628E+02  0.00000000000E+00 0. -1.
</event>
<event>
 8    1  0.6239251E-010  0.9118800E+02  0.7816164E-02  0.1184000E+00
        -11   -1    0    0    0    0  0.00000000000E+00  0.00000000000E+00  0.45593999997E+02  0.45594000000E+02  0.51100000000E-03 0. -1.
         11   -1    0    0    0    0 -0.00000000000E+00 -0.00000000000E+00 -0.45593999997E+02  0.45594000000E+02  0.51100000000E-03 0.  1.
         23    2    1    2    0    0  0.00000000000E+00  0.00000000000E+00  0.00000000000E+00  0.91188000000E+02  0.91188000000E+02 0.  0.
    9900012    2    3    3    0    0 -0.25435433442E+02  0.13614625168E+02  0.32423813207E+02  0.47787274709E+02  0.20000016710E+02 0.  0.
        -12    1    3    3    0    0  0.25435433442E+02 -0.13614625168E+02 -0.32423813207E+02  0.43400725291E+02  0.00000000000E+00 0.  1.
         11    1    4    4    0    0 -0.26460461664E+02  0.11491251665E+02  0.24634137202E+02  0.37934754675E+02  0.51100000000E-03 0. -1.
        -11    1    4    4    0    0  0.29284465699E+01 -0.30715773315E+00  0.38928833380E+01  0.48810537931E+01  0.51100000000E-03 0.  1.
        -12    1    4    4    0    0 -0.19034183479E+01  0.24305312369E+01  0.38967926666E+01  0.49714662412E+01  0.00000000000E+00 0.  1.
</event>
<event>
 8    1  0.6239251E-010  0.9118800E+02  0.7816164E-02  0.1184000E+00
        -11   -1    0    0    0    0  0.00000000000E+00  0.00000000000E+00  0.45593999997E+02  0.45594000000E+02  0.51100000000E-03 0. -1.
         11   -1    0    0    0    0 -0.00000000000E+00 -0.00000000000E+00 -0.45593999997E+02  0.45594000000E+02  0.51100000000E-03 0.  1.
         23    2    1    2    0    0  0.44408920985E-15 -0.35527136788E-14  0.00000000000E+00  0.91188000000E+02  0.91188000000E+02 0.  0.
    9900012    2    3    3    0    0  0.97744711708E+00 -0.13950159724E+02 -0.41086015256E+02  0.47787274098E+02  0.20000013922E+02 0.  0.
         12    1    3    3    0    0 -0.97744711708E+00  0.13950159724E+02  0.41086015256E+02  0.43400725902E+02  0.00000000000E+00 0. -1.
         11    1    4    4    0    0  0.12345794235E+01 -0.41871241918E+00 -0.50556404086E+01  0.52210158633E+01  0.51100000000E-03 0. -1.
        -11    1    4    4    0    0 -0.40106171997E+01  0.33261376081E+01 -0.62149589497E+01  0.81101144701E+01  0.51100000000E-03 0.  1.
        -12    1    4    4    0    0  0.37534848932E+01 -0.16857584913E+02 -0.29815415898E+02  0.34456143764E+02  0.00000000000E+00 0.  1.
</event>
<event>
 8    1  0.6239251E-010  0.9118800E+02  0.7816164E-02  0.1184000E+00
        -11   -1    0    0    0    0  0.00000000000E+00  0.00000000000E+00  0.45593999997E+02  0.45594000000E+02  0.51100000000E-03 0. -1.
         11   -1    0    0    0    0 -0.00000000000E+00 -0.00000000000E+00 -0.45593999997E+02  0.45594000000E+02  0.51100000000E-03 0.  1.
         23    2    1    2    0    0  0.00000000000E+00  0.88817841970E-15  0.00000000000E+00  0.91188000000E+02  0.91188000000E+02 0.  0.
    9900012    2    3    3    0    0  0.20727729605E+02  0.72395636597E+01  0.37437589825E+02  0.47787272029E+02  0.20000004488E+02 0.  0.
        -12    1    3    3    0    0 -0.20727729605E+02 -0.72395636597E+01 -0.37437589825E+02  0.43400727971E+02  0.00000000000E+00 0.  1.
         11    1    4    4    0    0  0.77041790146E+01 -0.13637518915E+01  0.23737181458E+02  0.24993358665E+02  0.51100000000E-03 0. -1.
        -11    1    4    4    0    0  0.35754010546E+01 -0.46450408364E+00 -0.30688160422E+00  0.36184849488E+01  0.51100000000E-03 0.  1.
         12    1    4    4    0    0  0.94481495355E+01  0.90678196348E+01  0.14007289971E+02  0.19175428415E+02  0.00000000000E+00 0. -1.
</event>
<event>
 8    1  0.6239251E-010  0.9118800E+02  0.7816164E-02  0.1184000E+00
        -11   -1    0    0    0    0  0.00000000000E+00  0.00000000000E+00  0.45593999997E+02  0.45594000000E+02  0.51100000000E-03 0. -1.
         11   -1    0    0    0    0 -0.00000000000E+00 -0.00000000000E+00 -0.45593999997E+02  0.45594000000E+02  0.51100000000E-03 0.  1.
         23    2    1    2    0    0  0.88817841970E-15  0.00000000000E+00  0.00000000000E+00  0.91188000000E+02  0.91188000000E+02 0.  0.
    9900012    2    3    3    0    0 -0.75381183275E+01 -0.12372115028E+02 -0.40911273401E+02  0.47787254044E+02  0.19999922490E+02 0.  0.
         12    1    3    3    0    0  0.75381183275E+01  0.12372115028E+02  0.40911273401E+02  0.43400745956E+02  0.00000000000E+00 0. -1.
         11    1    4    4    0    0 -0.43220606555E+01 -0.10420328371E+00 -0.10313134928E+02  0.11182657061E+02  0.51100000000E-03 0. -1.
        -11    1    4    4    0    0  0.13438902879E+01 -0.97048365556E+01 -0.60711407819E+01  0.11525998626E+02  0.51100000000E-03 0.  1.
        -12    1    4    4    0    0 -0.45599479599E+01 -0.25630751891E+01 -0.24526997691E+02  0.25078598357E+02  0.00000000000E+00 0.  1.
</event>
<event>
 8    1  0.6239251E-010  0.9118800E+02  0.7816164E-02  0.1184000E+00
        -11   -1    0    0    0    0  0.00000000000E+00  0.00000000000E+00  0.45593999997E+02  0.45594000000E+02  0.51100000000E-03 0. -1.
         11   -1    0    0    0    0 -0.00000000000E+00 -0.00000000000E+00 -0.45593999997E+02  0.45594000000E+02  0.51100000000E-03 0.  1.
         23    2    1    2    0    0  0.00000000000E+00  0.22204460493E-15 -0.71054273576E-14  0.91188000000E+02  0.91188000000E+02 0.  0.
    9900012    2    3    3    0    0 -0.21499139757E+02 -0.15813771444E+01 -0.37668416674E+02  0.47787269837E+02  0.19999994496E+02 0.  0.
         12    1    3    3    0    0  0.21499139757E+02  0.15813771444E+01  0.37668416674E+02  0.43400730163E+02  0.00000000000E+00 0. -1.
         11    1    4    4    0    0 -0.21885872681E+02 -0.47396820660E-02 -0.34681752695E+02  0.41009942888E+02  0.51100000000E-03 0. -1.
        -11    1    4    4    0    0  0.14797635817E+01 -0.30279392610E+01 -0.35304823740E+01  0.48808219062E+01  0.51100000000E-03 0.  1.
        -12    1    4    4    0    0 -0.10930306578E+01  0.14513017987E+01  0.54381839507E+00  0.18965050426E+01  0.00000000000E+00 0.  1.
</event>
<event>
 8    1  0.6239251E-010  0.9118800E+02  0.7816164E-02  0.1184000E+00
        -11   -1    0    0    0    0  0.00000000000E+00  0.00000000000E+00  0.45593999997E+02  0.45594000000E+02  0.51100000000E-03 0. -1.
         11   -1    0    0    0    0 -0.00000000000E+00 -0.00000000000E+00 -0.45593999997E+02  0.45594000000E+02  0.51100000000E-03 0.  1.
         23    2    1    2    0    0  0.00000000000E+00  0.00000000000E+00  0.00000000000E+00  0.91188000000E+02  0.91188000000E+02 0.  0.
    9900012    2    3    3    0    0  0.11390317308E+02  0.22458959740E+02 -0.35347970737E+02  0.47787271479E+02  0.20000001979E+02 0.  0.
         12    1    3    3    0    0 -0.11390317308E+02 -0.22458959740E+02  0.35347970737E+02  0.43400728521E+02  0.00000000000E+00 0. -1.
         11    1    4    4    0    0 -0.24133077368E+01  0.63118658267E+00 -0.47272571853E+01  0.53450361544E+01  0.51100000000E-03 0. -1.
        -11    1    4    4    0    0  0.15658731345E+02  0.21592733252E+02 -0.25147517153E+02  0.36658418076E+02  0.51100000000E-03 0.  1.
        -12    1    4    4    0    0 -0.18551063000E+01  0.23503990520E+00 -0.54731963982E+01  0.57838172477E+01  0.00000000000E+00 0.  1.
</event>
<event>
 8    1  0.6239251E-010  0.9118800E+02  0.7816164E-02  0.1184000E+00
        -11   -1    0    0    0    0  0.00000000000E+00  0.00000000000E+00  0.45593999997E+02  0.45594000000E+02  0.51100000000E-03 0.  1.
         11   -1    0    0    0    0 -0.00000000000E+00 -0.00000000000E+00 -0.45593999997E+02  0.45594000000E+02  0.51100000000E-03 0. -1.
         23    2    1    2    0    0  0.00000000000E+00  0.00000000000E+00 -0.17763568394E-14  0.91188000000E+02  0.91188000000E+02 0.  0.
    9900012    2    3    3    0    0 -0.38198905632E+02  0.16723246823E+02  0.12033280084E+02  0.47787271834E+02  0.20000003600E+02 0.  0.
        -12    1    3    3    0    0  0.38198905632E+02 -0.16723246823E+02 -0.12033280084E+02  0.43400728166E+02  0.00000000000E+00 0.  1.
         11    1    4    4    0    0 -0.23301946113E+02  0.29222914407E+01  0.10769225806E+02  0.25835957591E+02  0.51100000000E-03 0. -1.
        -11    1    4    4    0    0 -0.61902697789E+00  0.18974558710E+01 -0.22770944700E+01  0.30279849188E+01  0.51100000000E-03 0.  1.
         12    1    4    4    0    0 -0.14277932540E+02  0.11903499512E+02  0.35411487473E+01  0.18923329324E+02  0.00000000000E+00 0. -1.
</event>
<event>
 8    1  0.6239251E-010  0.9118800E+02  0.7816164E-02  0.1184000E+00
        -11   -1    0    0    0    0  0.00000000000E+00  0.00000000000E+00  0.45593999997E+02  0.45594000000E+02  0.51100000000E-03 0. -1.
         11   -1    0    0    0    0 -0.00000000000E+00 -0.00000000000E+00 -0.45593999997E+02  0.45594000000E+02  0.51100000000E-03 0.  1.
         23    2    1    2    0    0  0.00000000000E+00 -0.88817841970E-15  0.00000000000E+00  0.91188000000E+02  0.91188000000E+02 0.  0.
    9900012    2    3    3    0    0 -0.30542118006E+01  0.21116406290E+01 -0.43241654820E+02  0.47787217202E+02  0.19999754512E+02 0.  0.
         12    1    3    3    0    0  0.30542118006E+01 -0.21116406290E+01  0.43241654820E+02  0.43400782798E+02  0.00000000000E+00 0. -1.
         11    1    4    4    0    0 -0.97561743038E+00  0.80756275532E+01 -0.86440419933E+01  0.11869585165E+02  0.51100000000E-03 0. -1.
        -11    1    4    4    0    0  0.25774459308E+01 -0.32451717764E+01 -0.17792972154E+02  0.18269215247E+02  0.51100000000E-03 0.  1.
         12    1    4    4    0    0 -0.46560403010E+01 -0.27188151477E+01 -0.16804640673E+02  0.17648416791E+02  0.00000000000E+00 0. -1.
</event>
<event>
 8    1  0.6239251E-010  0.9118800E+02  0.7816164E-02  0.1184000E+00
        -11   -1    0    0    0    0  0.00000000000E+00  0.00000000000E+00  0.45593999997E+02  0.45594000000E+02  0.51100000000E-03 0. -1.
         11   -1    0    0    0    0 -0.00000000000E+00 -0.00000000000E+00 -0.45593999997E+02  0.45594000000E+02  0.51100000000E-03 0.  1.
         23    2    1    2    0    0  0.71054273576E-14 -0.17763568394E-14 -0.35527136788E-14  0.91188000000E+02  0.91188000000E+02 0.  0.
    9900012    2    3    3    0    0 -0.29865803397E+02  0.47619549196E+01  0.31128458614E+02  0.47787270019E+02  0.19999995325E+02 0.  0.
        -12    1    3    3    0    0  0.29865803397E+02 -0.47619549196E+01 -0.31128458614E+02  0.43400729981E+02  0.00000000000E+00 0.  1.
         11    1    4    4    0    0 -0.99074585620E+01  0.96527716913E+01  0.10762222845E+02  0.17525957244E+02  0.51100000000E-03 0. -1.
        -11    1    4    4    0    0  0.58836993520E-01  0.13976499137E+01  0.11863696513E+01  0.18342192573E+01  0.51100000000E-03 0.  1.
         12    1    4    4    0    0 -0.20017181828E+02 -0.62884666854E+01  0.19179866118E+02  0.28427093518E+02  0.00000000000E+00 0. -1.
</event>
<event>
 8    1  0.6239251E-010  0.9118800E+02  0.7816164E-02  0.1184000E+00
        -11   -1    0    0    0    0  0.00000000000E+00  0.00000000000E+00  0.45593999997E+02  0.45594000000E+02  0.51100000000E-03 0. -1.
         11   -1    0    0    0    0 -0.00000000000E+00 -0.00000000000E+00 -0.45593999997E+02  0.45594000000E+02  0.51100000000E-03 0.  1.
         23    2    1    2    0    0  0.00000000000E+00  0.00000000000E+00  0.00000000000E+00  0.91188000000E+02  0.91188000000E+02 0.  0.
    9900012    2    3    3    0    0 -0.57961393157E+01  0.33944381887E+02  0.26416041841E+02  0.47787267757E+02  0.19999985013E+02 0.  0.
        -12    1    3    3    0    0  0.57961393157E+01 -0.33944381887E+02 -0.26416041841E+02  0.43400732243E+02  0.00000000000E+00 0.  1.
         11    1    4    4    0    0 -0.36806325890E+01  0.23053698498E+02  0.10372515175E+02  0.25546215806E+02  0.51100000000E-03 0. -1.
        -11    1    4    4    0    0  0.20659877507E+01 -0.13453522728E+01  0.28262768502E+01  0.37504825315E+01  0.51100000000E-03 0.  1.
        -12    1    4    4    0    0 -0.41814944774E+01  0.12236035662E+02  0.13217249815E+02  0.18490569420E+02  0.00000000000E+00 0.  1.
</event>
<event>
 8    1  0.6239251E-010  0.9118800E+02  0.7816164E-02  0.1184000E+00
        -11   -1    0    0    0    0  0.00000000000E+00  0.00000000000E+00  0.45593999997E+02  0.45594000000E+02  0.51100000000E-03 0.  1.
         11   -1    0    0    0    0 -0.00000000000E+00 -0.00000000000E+00 -0.45593999997E+02  0.45594000000E+02  0.51100000000E-03 0. -1.
         23    2    1    2    0    0  0.44408920985E-15 -0.71054273576E-14  0.00000000000E+00  0.91188000000E+02  0.91188000000E+02 0.  0.
    9900012    2    3    3    0    0  0.38722178085E+01  0.37281316997E+02 -0.21879991497E+02  0.47787254664E+02  0.19999925315E+02 0.  0.
         12    1    3    3    0    0 -0.38722178085E+01 -0.37281316997E+02  0.21879991497E+02  0.43400745336E+02  0.00000000000E+00 0. -1.
         11    1    4    4    0    0  0.14620479377E+01  0.14997045391E+01  0.17672559388E+01  0.27404181599E+01  0.51100000000E-03 0. -1.
        -11    1    4    4    0    0  0.52351282873E+01  0.18886966206E+02 -0.19003354669E+02  0.27299295771E+02  0.51100000000E-03 0.  1.
        -12    1    4    4    0    0 -0.28249584166E+01  0.16894646253E+02 -0.46438927665E+01  0.17747540733E+02  0.00000000000E+00 0.  1.
</event>
<event>
 8    1  0.6239251E-010  0.9118800E+02  0.7816164E-02  0.1184000E+00
        -11   -1    0    0    0    0  0.00000000000E+00  0.00000000000E+00  0.45593999997E+02  0.45594000000E+02  0.51100000000E-03 0. -1.
         11   -1    0    0    0    0 -0.00000000000E+00 -0.00000000000E+00 -0.45593999997E+02  0.45594000000E+02  0.51100000000E-03 0.  1.
         23    2    1    2    0    0  0.00000000000E+00  0.17763568394E-14  0.00000000000E+00  0.91188000000E+02  0.91188000000E+02 0.  0.
    9900012    2    3    3    0    0 -0.28125583029E+02 -0.12856238629E+02 -0.30451470211E+02  0.47787270393E+02  0.19999997029E+02 0.  0.
         12    1    3    3    0    0  0.28125583029E+02  0.12856238629E+02  0.30451470211E+02  0.43400729607E+02  0.00000000000E+00 0. -1.
         11    1    4    4    0    0 -0.46782566282E+01  0.48047380774E+00 -0.61750931874E+01  0.77620046568E+01  0.51100000000E-03 0. -1.
        -11    1    4    4    0    0 -0.21174965181E+02 -0.64662914813E+01 -0.24184197414E+02  0.32788221678E+02  0.51100000000E-03 0.  1.
        -12    1    4    4    0    0 -0.22723612199E+01 -0.68704209557E+01 -0.92179609445E-01  0.72370440583E+01  0.00000000000E+00 0.  1.
</event>
<event>
 8    1  0.6239251E-010  0.9118800E+02  0.7816164E-02  0.1184000E+00
        -11   -1    0    0    0    0  0.00000000000E+00  0.00000000000E+00  0.45593999997E+02  0.45594000000E+02  0.51100000000E-03 0. -1.
         11   -1    0    0    0    0 -0.00000000000E+00 -0.00000000000E+00 -0.45593999997E+02  0.45594000000E+02  0.51100000000E-03 0.  1.
         23    2    1    2    0    0 -0.17763568394E-14 -0.71054273576E-14 -0.35527136788E-14  0.91188000000E+02  0.91188000000E+02 0.  0.
    9900012    2    3    3    0    0 -0.15024754776E+02 -0.33570833913E+02 -0.23040827901E+02  0.47787263877E+02  0.19999967319E+02 0.  0.
         12    1    3    3    0    0  0.15024754776E+02  0.33570833913E+02  0.23040827901E+02  0.43400736123E+02  0.00000000000E+00 0. -1.
         11    1    4    4    0    0 -0.50771750207E+00 -0.63523693458E+01 -0.12378889025E+02  0.13922904407E+02  0.51100000000E-03 0. -1.
        -11    1    4    4    0    0 -0.94768446051E+01 -0.84231937690E+01 -0.44566167004E+01  0.13439576244E+02  0.51100000000E-03 0.  1.
         12    1    4    4    0    0 -0.50401926684E+01 -0.18795270798E+02 -0.62053221754E+01  0.20424783226E+02  0.00000000000E+00 0. -1.
</event>
<event>
 8    1  0.6239251E-010  0.9118800E+02  0.7816164E-02  0.1184000E+00
        -11   -1    0    0    0    0  0.00000000000E+00  0.00000000000E+00  0.45593999997E+02  0.45594000000E+02  0.51100000000E-03 0. -1.
         11   -1    0    0    0    0 -0.00000000000E+00 -0.00000000000E+00 -0.45593999997E+02  0.45594000000E+02  0.51100000000E-03 0.  1.
         23    2    1    2    0    0  0.00000000000E+00  0.00000000000E+00  0.00000000000E+00  0.91188000000E+02  0.91188000000E+02 0.  0.
    9900012    2    3    3    0    0  0.32293141719E+02 -0.63859931832E+01 -0.28284192156E+02  0.47787269166E+02  0.19999991434E+02 0.  0.
         12    1    3    3    0    0 -0.32293141719E+02  0.63859931832E+01  0.28284192156E+02  0.43400730834E+02  0.00000000000E+00 0. -1.
         11    1    4    4    0    0  0.15336576533E+02 -0.23625808575E+01 -0.23703426880E+01  0.15697480459E+02  0.51100000000E-03 0. -1.
        -11    1    4    4    0    0  0.62708560957E+01 -0.41818866649E+00 -0.15555511693E+02  0.16777141062E+02  0.51100000000E-03 0.  1.
         12    1    4    4    0    0  0.10685709091E+02 -0.36052236591E+01 -0.10358337775E+02  0.15312647644E+02  0.00000000000E+00 0. -1.
</event>
<event>
 8    1  0.6239251E-010  0.9118800E+02  0.7816164E-02  0.1184000E+00
        -11   -1    0    0    0    0  0.00000000000E+00  0.00000000000E+00  0.45593999997E+02  0.45594000000E+02  0.51100000000E-03 0. -1.
         11   -1    0    0    0    0 -0.00000000000E+00 -0.00000000000E+00 -0.45593999997E+02  0.45594000000E+02  0.51100000000E-03 0.  1.
         23    2    1    2    0    0  0.00000000000E+00 -0.17763568394E-14  0.00000000000E+00  0.91188000000E+02  0.91188000000E+02 0.  0.
    9900012    2    3    3    0    0 -0.18981213748E+02  0.14068289837E+02  0.36406330728E+02  0.47787260705E+02  0.19999952857E+02 0.  0.
        -12    1    3    3    0    0  0.18981213748E+02 -0.14068289837E+02 -0.36406330728E+02  0.43400739295E+02  0.00000000000E+00 0.  1.
         11    1    4    4    0    0 -0.50145757452E+01 -0.74953282564E-01  0.22654709614E+02  0.23203177710E+02  0.51100000000E-03 0. -1.
        -11    1    4    4    0    0 -0.40479377166E+01  0.69917745320E+01  0.44760701584E+01  0.92361201371E+01  0.51100000000E-03 0.  1.
         12    1    4    4    0    0 -0.99187002866E+01  0.71514685875E+01  0.92755509556E+01  0.15347962857E+02  0.00000000000E+00 0. -1.
</event>
<event>
 8    1  0.6239251E-010  0.9118800E+02  0.7816164E-02  0.1184000E+00
        -11   -1    0    0    0    0  0.00000000000E+00  0.00000000000E+00  0.45593999997E+02  0.45594000000E+02  0.51100000000E-03 0.  1.
         11   -1    0    0    0    0 -0.00000000000E+00 -0.00000000000E+00 -0.45593999997E+02  0.45594000000E+02  0.51100000000E-03 0. -1.
         23    2    1    2    0    0  0.71054273576E-14  0.00000000000E+00  0.00000000000E+00  0.91188000000E+02  0.91188000000E+02 0.  0.
    9900012    2    3    3    0    0  0.32413353101E+02 -0.23425019385E+02 -0.16860199914E+02  0.47787270356E+02  0.19999996863E+02 0.  0.
         12    1    3    3    0    0 -0.32413353101E+02  0.23425019385E+02  0.16860199914E+02  0.43400729644E+02  0.00000000000E+00 0. -1.
         11    1    4    4    0    0  0.19666386987E+02 -0.74512401364E+01 -0.50746694823E+01  0.21634232764E+02  0.51100000000E-03 0. -1.
        -11    1    4    4    0    0  0.12564365571E+02 -0.16036220344E+02 -0.13492599267E+02  0.24435095260E+02  0.51100000000E-03 0.  1.
         12    1    4    4    0    0  0.18260054342E+00  0.62441094980E-01  0.17070688352E+01  0.17179423323E+01  0.00000000000E+00 0. -1.
</event>
<event>
 8    1  0.6239251E-010  0.9118800E+02  0.7816164E-02  0.1184000E+00
        -11   -1    0    0    0    0  0.00000000000E+00  0.00000000000E+00  0.45593999997E+02  0.45594000000E+02  0.51100000000E-03 0. -1.
         11   -1    0    0    0    0 -0.00000000000E+00 -0.00000000000E+00 -0.45593999997E+02  0.45594000000E+02  0.51100000000E-03 0.  1.
         23    2    1    2    0    0  0.17763568394E-14  0.00000000000E+00  0.00000000000E+00  0.91188000000E+02  0.91188000000E+02 0.  0.
    9900012    2    3    3    0    0 -0.15454507394E+02 -0.99062604521E+01  0.39327437690E+02  0.47787272469E+02  0.20000006495E+02 0.  0.
        -12    1    3    3    0    0  0.15454507394E+02  0.99062604521E+01 -0.39327437690E+02  0.43400727531E+02  0.00000000000E+00 0.  1.
         11    1    4    4    0    0 -0.87241420487E+01 -0.12589773707E+02  0.16578512790E+02  0.22571223783E+02  0.51100000000E-03 0. -1.
        -11    1    4    4    0    0 -0.32604175733E+01  0.17307694200E+01  0.20797610115E+02  0.21122653060E+02  0.51100000000E-03 0.  1.
        -12    1    4    4    0    0 -0.34699477724E+01  0.95274383493E+00  0.19513147853E+01  0.40933956258E+01  0.00000000000E+00 0.  1.
</event>
<event>
 8    1  0.6239251E-010  0.9118800E+02  0.7816164E-02  0.1184000E+00
        -11   -1    0    0    0    0  0.00000000000E+00  0.00000000000E+00  0.45593999997E+02  0.45594000000E+02  0.51100000000E-03 0. -1.
         11   -1    0    0    0    0 -0.00000000000E+00 -0.00000000000E+00 -0.45593999997E+02  0.45594000000E+02  0.51100000000E-03 0.  1.
         23    2    1    2    0    0  0.00000000000E+00  0.00000000000E+00  0.00000000000E+00  0.91188000000E+02  0.91188000000E+02 0.  0.
    9900012    2    3    3    0    0 -0.24255659472E+02  0.11517735349E+02 -0.34097333502E+02  0.47787269638E+02  0.19999993588E+02 0.  0.
         12    1    3    3    0    0  0.24255659472E+02 -0.11517735349E+02  0.34097333502E+02  0.43400730362E+02  0.00000000000E+00 0. -1.
         11    1    4    4    0    0  0.11602659562E+01  0.38934864035E+00 -0.61427624107E+01  0.62634926158E+01  0.51100000000E-03 0. -1.
        -11    1    4    4    0    0 -0.11373709594E+01  0.47353172449E+01 -0.16030585825E+01  0.51270497548E+01  0.51100000000E-03 0.  1.
        -12    1    4    4    0    0 -0.24278554469E+02  0.63930694640E+01 -0.26351512509E+02  0.36396727267E+02  0.00000000000E+00 0.  1.
</event>
<event>
 8    1  0.6239251E-010  0.9118800E+02  0.7816164E-02  0.1184000E+00
        -11   -1    0    0    0    0  0.00000000000E+00  0.00000000000E+00  0.45593999997E+02  0.45594000000E+02  0.51100000000E-03 0. -1.
         11   -1    0    0    0    0 -0.00000000000E+00 -0.00000000000E+00 -0.45593999997E+02  0.45594000000E+02  0.51100000000E-03 0.  1.
         23    2    1    2    0    0  0.35527136788E-14  0.00000000000E+00  0.00000000000E+00  0.91188000000E+02  0.91188000000E+02 0.  0.
    9900012    2    3    3    0    0  0.18922927684E+02  0.32355116186E+02  0.21879084295E+02  0.47787250409E+02  0.19999905912E+02 0.  0.
        -12    1    3    3    0    0 -0.18922927684E+02 -0.32355116186E+02 -0.21879084295E+02  0.43400749591E+02  0.00000000000E+00 0.  1.
         11    1    4    4    0    0 -0.91918641711E+00  0.15033115115E+02  0.68513035737E+01  0.16546293079E+02  0.51100000000E-03 0. -1.
        -11    1    4    4    0    0  0.17084637351E+01  0.52938661425E+01  0.22057314512E+01  0.59840720722E+01  0.51100000000E-03 0.  1.
         12    1    4    4    0    0  0.18133650366E+02  0.12028134929E+02  0.12822049270E+02  0.25256885258E+02  0.00000000000E+00 0. -1.
</event>
<event>
 8    1  0.6239251E-010  0.9118800E+02  0.7816164E-02  0.1184000E+00
        -11   -1    0    0    0    0  0.00000000000E+00  0.00000000000E+00  0.45593999997E+02  0.45594000000E+02  0.51100000000E-03 0. -1.
         11   -1    0    0    0    0 -0.00000000000E+00 -0.00000000000E+00 -0.45593999997E+02  0.45594000000E+02  0.51100000000E-03 0.  1.
         23    2    1    2    0    0  0.00000000000E+00  0.00000000000E+00  0.00000000000E+00  0.91188000000E+02  0.91188000000E+02 0.  0.
    9900012    2    3    3    0    0  0.84922596054E+01 -0.40467598619E+02  0.13186292724E+02  0.47787270433E+02  0.19999997210E+02 0.  0.
        -12    1    3    3    0    0 -0.84922596054E+01  0.40467598619E+02 -0.13186292724E+02  0.43400729567E+02  0.00000000000E+00 0.  1.
         11    1    4    4    0    0 -0.48033191178E+01 -0.17001666666E+02  0.10398492139E+02  0.20500175194E+02  0.51100000000E-03 0. -1.
        -11    1    4    4    0    0  0.62423347057E+01 -0.10751030685E+02  0.28163126532E+01  0.12746882779E+02  0.51100000000E-03 0.  1.
         12    1    4    4    0    0  0.70532440174E+01 -0.12714901268E+02 -0.28512067933E-01  0.14540212459E+02  0.00000000000E+00 0. -1.
</event>
<event>
 8    1  0.6239251E-010  0.9118800E+02  0.7816164E-02  0.1184000E+00
        -11   -1    0    0    0    0  0.00000000000E+00  0.00000000000E+00  0.45593999997E+02  0.45594000000E+02  0.51100000000E-03 0. -1.
         11   -1    0    0    0    0 -0.00000000000E+00 -0.00000000000E+00 -0.45593999997E+02  0.45594000000E+02  0.51100000000E-03 0.  1.
         23    2    1    2    0    0  0.00000000000E+00  0.00000000000E+00  0.00000000000E+00  0.91188000000E+02  0.91188000000E+02 0.  0.
    9900012    2    3    3    0    0  0.40793335473E+01  0.17726880385E+02 -0.39404819860E+02  0.47787273294E+02  0.20000010256E+02 0.  0.
         12    1    3    3    0    0 -0.40793335473E+01 -0.17726880385E+02  0.39404819860E+02  0.43400726706E+02  0.00000000000E+00 0. -1.
         11    1    4    4    0    0  0.85122291836E+01  0.94687266243E+01 -0.17020290015E+02  0.21255707516E+02  0.51100000000E-03 0. -1.
        -11    1    4    4    0    0 -0.49663739711E+01  0.74832353857E+01 -0.23449469976E+02  0.25110581926E+02  0.51100000000E-03 0.  1.
        -12    1    4    4    0    0  0.53347833488E+00  0.77491837552E+00  0.10649401310E+01  0.14209838511E+01  0.00000000000E+00 0.  1.
</event>
<event>
 8    1  0.6239251E-010  0.9118800E+02  0.7816164E-02  0.1184000E+00
        -11   -1    0    0    0    0  0.00000000000E+00  0.00000000000E+00  0.45593999997E+02  0.45594000000E+02  0.51100000000E-03 0. -1.
         11   -1    0    0    0    0 -0.00000000000E+00 -0.00000000000E+00 -0.45593999997E+02  0.45594000000E+02  0.51100000000E-03 0.  1.
         23    2    1    2    0    0  0.00000000000E+00  0.35527136788E-14  0.00000000000E+00  0.91188000000E+02  0.91188000000E+02 0.  0.
    9900012    2    3    3    0    0  0.21862943401E+02  0.17327229915E+02 -0.33247585280E+02  0.47787272845E+02  0.20000008210E+02 0.  0.
         12    1    3    3    0    0 -0.21862943401E+02 -0.17327229915E+02  0.33247585280E+02  0.43400727155E+02  0.00000000000E+00 0. -1.
         11    1    4    4    0    0  0.11558039736E+02  0.12412732120E+02 -0.28950766683E+02  0.33553108545E+02  0.51100000000E-03 0. -1.
        -11    1    4    4    0    0  0.41667820694E+01  0.21005329537E+01 -0.56703166981E+01  0.73434871296E+01  0.51100000000E-03 0.  1.
         12    1    4    4    0    0  0.61381215949E+01  0.28139648412E+01  0.13734981014E+01  0.68906771711E+01  0.00000000000E+00 0. -1.
</event>
<event>
 8    1  0.6239251E-010  0.9118800E+02  0.7816164E-02  0.1184000E+00
        -11   -1    0    0    0    0  0.00000000000E+00  0.00000000000E+00  0.45593999997E+02  0.45594000000E+02  0.51100000000E-03 0.  1.
         11   -1    0    0    0    0 -0.00000000000E+00 -0.00000000000E+00 -0.45593999997E+02  0.45594000000E+02  0.51100000000E-03 0. -1.
         23    2    1    2    0    0 -0.71054273576E-14  0.00000000000E+00 -0.88817841970E-15  0.91188000000E+02  0.91188000000E+02 0.  0.
    9900012    2    3    3    0    0  0.34782216006E+02  0.24853186422E+02 -0.74926802837E+01  0.47787266327E+02  0.19999978489E+02 0.  0.
        -12    1    3    3    0    0 -0.34782216006E+02 -0.24853186422E+02  0.74926802837E+01  0.43400733673E+02  0.00000000000E+00 0.  1.
         11    1    4    4    0    0  0.13375662540E+02  0.64407830655E+01 -0.23877129230E+01  0.15036396115E+02  0.51100000000E-03 0. -1.
        -11    1    4    4    0    0 -0.55850266727E+00  0.51806769143E+01  0.28027768904E+01  0.59166626639E+01  0.51100000000E-03 0.  1.
        -12    1    4    4    0    0  0.21965056133E+02  0.13231726442E+02 -0.79077442510E+01  0.26834207547E+02  0.00000000000E+00 0.  1.
</event>
<event>
 8    1  0.6239251E-010  0.9118800E+02  0.7816164E-02  0.1184000E+00
        -11   -1    0    0    0    0  0.00000000000E+00  0.00000000000E+00  0.45593999997E+02  0.45594000000E+02  0.51100000000E-03 0. -1.
         11   -1    0    0    0    0 -0.00000000000E+00 -0.00000000000E+00 -0.45593999997E+02  0.45594000000E+02  0.51100000000E-03 0.  1.
         23    2    1    2    0    0  0.00000000000E+00 -0.26645352591E-14  0.00000000000E+00  0.91188000000E+02  0.91188000000E+02 0.  0.
    9900012    2    3    3    0    0 -0.10224076108E+02  0.64645589174E+01 -0.41680943676E+02  0.47787270513E+02  0.19999997576E+02 0.  0.
         12    1    3    3    0    0  0.10224076108E+02 -0.64645589174E+01  0.41680943676E+02  0.43400729487E+02  0.00000000000E+00 0. -1.
         11    1    4    4    0    0 -0.11930826311E+01  0.70079212594E+01 -0.10061215818E+02  0.12319191148E+02  0.51100000000E-03 0. -1.
        -11    1    4    4    0    0 -0.27909863211E+01 -0.25888074992E+01 -0.71492249928E+00  0.38733245867E+01  0.51100000000E-03 0.  1.
        -12    1    4    4    0    0 -0.62400071562E+01  0.20454451572E+01 -0.30904805359E+02  0.31594754778E+02  0.00000000000E+00 0.  1.
</event>
<event>
 8    1  0.6239251E-010  0.9118800E+02  0.7816164E-02  0.1184000E+00
        -11   -1    0    0    0    0  0.00000000000E+00  0.00000000000E+00  0.45593999997E+02  0.45594000000E+02  0.51100000000E-03 0. -1.
         11   -1    0    0    0    0 -0.00000000000E+00 -0.00000000000E+00 -0.45593999997E+02  0.45594000000E+02  0.51100000000E-03 0.  1.
         23    2    1    2    0    0 -0.44408920985E-15  0.00000000000E+00 -0.71054273576E-14  0.91188000000E+02  0.91188000000E+02 0.  0.
    9900012    2    3    3    0    0  0.28774675650E+01 -0.19586356703E+02 -0.38622767497E+02  0.47787270080E+02  0.19999995601E+02 0.  0.
         12    1    3    3    0    0 -0.28774675650E+01  0.19586356703E+02  0.38622767497E+02  0.43400729920E+02  0.00000000000E+00 0. -1.
         11    1    4    4    0    0 -0.49224278948E-01  0.28456984443E+01 -0.81999006066E+01  0.86797922143E+01  0.51100000000E-03 0. -1.
        -11    1    4    4    0    0  0.18578090637E+01 -0.22965891494E+02 -0.27070115754E+02  0.35548203806E+02  0.51100000000E-03 0.  1.
        -12    1    4    4    0    0  0.10688827803E+01  0.53383634701E+00 -0.33527511368E+01  0.35592740592E+01  0.00000000000E+00 0.  1.
</event>
<event>
 8    1  0.6239251E-010  0.9118800E+02  0.7816164E-02  0.1184000E+00
        -11   -1    0    0    0    0  0.00000000000E+00  0.00000000000E+00  0.45593999997E+02  0.45594000000E+02  0.51100000000E-03 0.  1.
         11   -1    0    0    0    0 -0.00000000000E+00 -0.00000000000E+00 -0.45593999997E+02  0.45594000000E+02  0.51100000000E-03 0. -1.
         23    2    1    2    0    0  0.17763568394E-14 -0.71054273576E-14  0.35527136788E-14  0.91188000000E+02  0.91188000000E+02 0.  0.
    9900012    2    3    3    0    0 -0.38549746801E+01  0.39176977092E+02 -0.18273670011E+02  0.47787269827E+02  0.19999994451E+02 0.  0.
         12    1    3    3    0    0  0.38549746801E+01 -0.39176977092E+02  0.18273670011E+02  0.43400730173E+02  0.00000000000E+00 0. -1.
         11    1    4    4    0    0 -0.17542674169E+00 -0.33770889659E+00 -0.60025834996E+00  0.71072652149E+00  0.51100000000E-03 0. -1.
        -11    1    4    4    0    0  0.13151457789E+01  0.18433330761E+02  0.95384774758E+00  0.18504786331E+02  0.51100000000E-03 0.  1.
        -12    1    4    4    0    0 -0.49946937174E+01  0.21081355227E+02 -0.18627259409E+02  0.28571756975E+02  0.00000000000E+00 0.  1.
</event>
<event>
 8    1  0.6239251E-010  0.9118800E+02  0.7816164E-02  0.1184000E+00
        -11   -1    0    0    0    0  0.00000000000E+00  0.00000000000E+00  0.45593999997E+02  0.45594000000E+02  0.51100000000E-03 0. -1.
         11   -1    0    0    0    0 -0.00000000000E+00 -0.00000000000E+00 -0.45593999997E+02  0.45594000000E+02  0.51100000000E-03 0.  1.
         23    2    1    2    0    0 -0.17763568394E-14  0.00000000000E+00  0.00000000000E+00  0.91188000000E+02  0.91188000000E+02 0.  0.
    9900012    2    3    3    0    0 -0.14770818827E+02 -0.16218902324E+02 -0.37448544048E+02  0.47787270366E+02  0.19999996909E+02 0.  0.
         12    1    3    3    0    0  0.14770818827E+02  0.16218902324E+02  0.37448544048E+02  0.43400729634E+02  0.00000000000E+00 0. -1.
         11    1    4    4    0    0 -0.11383296224E+02 -0.91440095900E+01 -0.31808923939E+02  0.34999999810E+02  0.51100000000E-03 0. -1.
        -11    1    4    4    0    0 -0.62045700846E+01 -0.45623339740E+01 -0.38284244425E+01  0.86004892418E+01  0.51100000000E-03 0.  1.
         12    1    4    4    0    0  0.28170474813E+01 -0.25125587596E+01 -0.18111956665E+01  0.41867813144E+01  0.00000000000E+00 0. -1.
</event>
<event>
 8    1  0.6239251E-010  0.9118800E+02  0.7816164E-02  0.1184000E+00
        -11   -1    0    0    0    0  0.00000000000E+00  0.00000000000E+00  0.45593999997E+02  0.45594000000E+02  0.51100000000E-03 0. -1.
         11   -1    0    0    0    0 -0.00000000000E+00 -0.00000000000E+00 -0.45593999997E+02  0.45594000000E+02  0.51100000000E-03 0.  1.
         23    2    1    2    0    0  0.00000000000E+00  0.00000000000E+00 -0.71054273576E-14  0.91188000000E+02  0.91188000000E+02 0.  0.
    9900012    2    3    3    0    0 -0.81370224292E+01  0.32645409379E+02  0.27416954046E+02  0.47787271242E+02  0.20000000900E+02 0.  0.
        -12    1    3    3    0    0  0.81370224292E+01 -0.32645409379E+02 -0.27416954046E+02  0.43400728758E+02  0.00000000000E+00 0.  1.
         11    1    4    4    0    0 -0.55837761386E+01  0.12777327930E+02  0.21897470558E+01  0.14115015318E+02  0.51100000000E-03 0. -1.
        -11    1    4    4    0    0 -0.60614752275E+01  0.14973716320E+02  0.16714580636E+02  0.23245018143E+02  0.51100000000E-03 0.  1.
         12    1    4    4    0    0  0.35082289368E+01  0.48943651298E+01  0.85126263542E+01  0.10427237781E+02  0.00000000000E+00 0. -1.
</event>
<event>
 8    1  0.6239251E-010  0.9118800E+02  0.7816164E-02  0.1184000E+00
        -11   -1    0    0    0    0  0.00000000000E+00  0.00000000000E+00  0.45593999997E+02  0.45594000000E+02  0.51100000000E-03 0. -1.
         11   -1    0    0    0    0 -0.00000000000E+00 -0.00000000000E+00 -0.45593999997E+02  0.45594000000E+02  0.51100000000E-03 0.  1.
         23    2    1    2    0    0 -0.35527136788E-14  0.22204460493E-15  0.00000000000E+00  0.91188000000E+02  0.91188000000E+02 0.  0.
    9900012    2    3    3    0    0  0.27844278282E+02  0.12900966210E+01  0.33266425995E+02  0.47787270965E+02  0.19999999637E+02 0.  0.
        -12    1    3    3    0    0 -0.27844278282E+02 -0.12900966210E+01 -0.33266425995E+02  0.43400729035E+02  0.00000000000E+00 0.  1.
         11    1    4    4    0    0  0.13244858647E+02  0.92180074273E+01  0.10344104295E+02  0.19167640320E+02  0.51100000000E-03 0. -1.
        -11    1    4    4    0    0  0.90068288501E+01 -0.71186707523E+01  0.15032419105E+02  0.18914863563E+02  0.51100000000E-03 0.  1.
        -12    1    4    4    0    0  0.55925907845E+01 -0.80924005392E+00  0.78899025950E+01  0.97047670815E+01  0.00000000000E+00 0.  1.
</event>
<event>
 8    1  0.6239251E-010  0.9118800E+02  0.7816164E-02  0.1184000E+00
        -11   -1    0    0    0    0  0.00000000000E+00  0.00000000000E+00  0.45593999997E+02  0.45594000000E+02  0.51100000000E-03 0. -1.
         11   -1    0    0    0    0 -0.00000000000E+00 -0.00000000000E+00 -0.45593999997E+02  0.45594000000E+02  0.51100000000E-03 0.  1.
         23    2    1    2    0    0  0.71054273576E-14  0.00000000000E+00  0.00000000000E+00  0.91188000000E+02  0.91188000000E+02 0.  0.
    9900012    2    3    3    0    0 -0.40618273307E+02 -0.11018967516E+02  0.10600067705E+02  0.47787271816E+02  0.20000003516E+02 0.  0.
        -12    1    3    3    0    0  0.40618273307E+02  0.11018967516E+02 -0.10600067705E+02  0.43400728184E+02  0.00000000000E+00 0.  1.
         11    1    4    4    0    0 -0.35998029098E+02 -0.78873368114E+01  0.84874482563E+01  0.37816728561E+02  0.51100000000E-03 0. -1.
        -11    1    4    4    0    0 -0.65071429293E+01 -0.81784115512E+00  0.23709622454E+01  0.69737533286E+01  0.51100000000E-03 0.  1.
         12    1    4    4    0    0  0.18868987199E+01 -0.23137895495E+01 -0.25834279649E+00  0.29967899257E+01  0.00000000000E+00 0. -1.
</event>
<event>
 8    1  0.6239251E-010  0.9118800E+02  0.7816164E-02  0.1184000E+00
        -11   -1    0    0    0    0  0.00000000000E+00  0.00000000000E+00  0.45593999997E+02  0.45594000000E+02  0.51100000000E-03 0. -1.
         11   -1    0    0    0    0 -0.00000000000E+00 -0.00000000000E+00 -0.45593999997E+02  0.45594000000E+02  0.51100000000E-03 0.  1.
         23    2    1    2    0    0  0.00000000000E+00  0.00000000000E+00  0.00000000000E+00  0.91188000000E+02  0.91188000000E+02 0.  0.
    9900012    2    3    3    0    0  0.32086560510E+02  0.15747686747E+02  0.24618818478E+02  0.47787271590E+02  0.20000002486E+02 0.  0.
        -12    1    3    3    0    0 -0.32086560510E+02 -0.15747686747E+02 -0.24618818478E+02  0.43400728410E+02  0.00000000000E+00 0.  1.
         11    1    4    4    0    0 -0.25433489762E+00  0.21876587118E+01 -0.17700581281E+01  0.28255340942E+01  0.51100000000E-03 0. -1.
        -11    1    4    4    0    0  0.26661338177E+02  0.14494846747E+02  0.19909077101E+02  0.36294612367E+02  0.51100000000E-03 0.  1.
         12    1    4    4    0    0  0.56795572309E+01 -0.93481871139E+00  0.64797995055E+01  0.86671251285E+01  0.00000000000E+00 0. -1.
</event>
<event>
 8    1  0.6543539E-010  0.9118800E+02  0.7816164E-02  0.1184000E+00
        -11   -1    0    0    0    0  0.00000000000E+00  0.00000000000E+00  0.45593999997E+02  0.45594000000E+02  0.51100000000E-03 0. -1.
         11   -1    0    0    0    0 -0.00000000000E+00 -0.00000000000E+00 -0.45593999997E+02  0.45594000000E+02  0.51100000000E-03 0.  1.
         23    2    1    2    0    0  0.00000000000E+00  0.00000000000E+00  0.71054273576E-14  0.91188000000E+02  0.91188000000E+02 0.  0.
    9900012    2    3    3    0    0 -0.22507005155E+02  0.16938745209E+02  0.33017220754E+02  0.47787271474E+02  0.20000001958E+02 0.  0.
        -12    1    3    3    0    0  0.22507005155E+02 -0.16938745209E+02 -0.33017220754E+02  0.43400728526E+02  0.00000000000E+00 0.  1.
         11    1    4    4    0    0 -0.16957657223E+02  0.12879776172E+02  0.18974891800E+02  0.28521873918E+02  0.51100000000E-03 0. -1.
        -11    1    4    4    0    0  0.12923178126E+01 -0.30565938258E+01  0.35304783170E+01  0.48453202734E+01  0.51100000000E-03 0.  1.
        -12    1    4    4    0    0 -0.68416657451E+01  0.71155628627E+01  0.10511850637E+02  0.14420077282E+02  0.00000000000E+00 0.  1.
</event>
<event>
 8    1  0.6239251E-010  0.9118800E+02  0.7816164E-02  0.1184000E+00
        -11   -1    0    0    0    0  0.00000000000E+00  0.00000000000E+00  0.45593999997E+02  0.45594000000E+02  0.51100000000E-03 0.  1.
         11   -1    0    0    0    0 -0.00000000000E+00 -0.00000000000E+00 -0.45593999997E+02  0.45594000000E+02  0.51100000000E-03 0. -1.
         23    2    1    2    0    0  0.00000000000E+00  0.35527136788E-14  0.35527136788E-14  0.91188000000E+02  0.91188000000E+02 0.  0.
    9900012    2    3    3    0    0  0.19964764179E+02 -0.28632991939E+02 -0.25791145925E+02  0.47787271386E+02  0.20000001559E+02 0.  0.
         12    1    3    3    0    0 -0.19964764179E+02  0.28632991939E+02  0.25791145925E+02  0.43400728614E+02  0.00000000000E+00 0. -1.
         11    1    4    4    0    0  0.10276121494E+02 -0.94227552928E+01 -0.57392625772E+01  0.15077338143E+02  0.51100000000E-03 0. -1.
        -11    1    4    4    0    0  0.41800192857E+01 -0.17887675859E+02 -0.19843665874E+02  0.27040942743E+02  0.51100000000E-03 0.  1.
        -12    1    4    4    0    0  0.55086233986E+01 -0.13225607871E+01 -0.20821747385E+00  0.56689905009E+01  0.00000000000E+00 0.  1.
</event>
<event>
 8    1  0.6239251E-010  0.9118800E+02  0.7816164E-02  0.1184000E+00
        -11   -1    0    0    0    0  0.00000000000E+00  0.00000000000E+00  0.45593999997E+02  0.45594000000E+02  0.51100000000E-03 0. -1.
         11   -1    0    0    0    0 -0.00000000000E+00 -0.00000000000E+00 -0.45593999997E+02  0.45594000000E+02  0.51100000000E-03 0.  1.
         23    2    1    2    0    0 -0.17763568394E-14  0.00000000000E+00 -0.71054273576E-14  0.91188000000E+02  0.91188000000E+02 0.  0.
    9900012    2    3    3    0    0 -0.12276305085E+02 -0.19160038046E+02 -0.36956846599E+02  0.47787271492E+02  0.20000002041E+02 0.  0.
         12    1    3    3    0    0  0.12276305085E+02  0.19160038046E+02  0.36956846599E+02  0.43400728508E+02  0.00000000000E+00 0. -1.
         11    1    4    4    0    0 -0.67146172347E+00  0.25534962231E+01 -0.64130040373E+01  0.69352595374E+01  0.51100000000E-03 0. -1.
        -11    1    4    4    0    0 -0.45374886284E+01 -0.12289509748E+02 -0.78212200772E+01  0.15257533767E+02  0.51100000000E-03 0.  1.
        -12    1    4    4    0    0 -0.70673547331E+01 -0.94240245207E+01 -0.22722622485E+02  0.25594478187E+02  0.00000000000E+00 0.  1.
</event>
<event>
 8    1  0.6301325E-010  0.9118800E+02  0.7816164E-02  0.1184000E+00
        -11   -1    0    0    0    0  0.00000000000E+00  0.00000000000E+00  0.45593999997E+02  0.45594000000E+02  0.51100000000E-03 0. -1.
         11   -1    0    0    0    0 -0.00000000000E+00 -0.00000000000E+00 -0.45593999997E+02  0.45594000000E+02  0.51100000000E-03 0.  1.
         23    2    1    2    0    0  0.88817841970E-15  0.00000000000E+00  0.00000000000E+00  0.91188000000E+02  0.91188000000E+02 0.  0.
    9900012    2    3    3    0    0 -0.50934619885E+01 -0.70272817056E+01  0.42524069831E+02  0.47787279289E+02  0.20000037592E+02 0.  0.
        -12    1    3    3    0    0  0.50934619885E+01  0.70272817056E+01 -0.42524069831E+02  0.43400720711E+02  0.00000000000E+00 0.  1.
         11    1    4    4    0    0 -0.84913086225E+01 -0.79443063285E+01  0.29553938681E+02  0.31759244591E+02  0.51100000000E-03 0. -1.
        -11    1    4    4    0    0  0.22563723732E+01 -0.26439202039E+01  0.11984021515E+01  0.36766422601E+01  0.51100000000E-03 0.  1.
         12    1    4    4    0    0  0.11414742608E+01  0.35609448268E+01  0.11771728999E+02  0.12351392438E+02  0.00000000000E+00 0. -1.
</event>
<event>
 8    1  0.6239251E-010  0.9118800E+02  0.7816164E-02  0.1184000E+00
        -11   -1    0    0    0    0  0.00000000000E+00  0.00000000000E+00  0.45593999997E+02  0.45594000000E+02  0.51100000000E-03 0. -1.
         11   -1    0    0    0    0 -0.00000000000E+00 -0.00000000000E+00 -0.45593999997E+02  0.45594000000E+02  0.51100000000E-03 0.  1.
         23    2    1    2    0    0  0.00000000000E+00  0.00000000000E+00 -0.22204460493E-15  0.91188000000E+02  0.91188000000E+02 0.  0.
    9900012    2    3    3    0    0  0.38677631076E+02  0.19589863000E+02 -0.19752931111E+01  0.47787266586E+02  0.19999979670E+02 0.  0.
         12    1    3    3    0    0 -0.38677631076E+02 -0.19589863000E+02  0.19752931111E+01  0.43400733414E+02  0.00000000000E+00 0. -1.
         11    1    4    4    0    0  0.21091125208E+00  0.61998007323E+01 -0.25035366780E+00  0.62084369930E+01  0.51100000000E-03 0. -1.
        -11    1    4    4    0    0  0.31796506639E+02  0.75875980935E+01 -0.17818337712E+01  0.32737813169E+02  0.51100000000E-03 0.  1.
        -12    1    4    4    0    0  0.66702131856E+01  0.58024641744E+01  0.56894327841E-01  0.88410164235E+01  0.00000000000E+00 0.  1.
</event>
<event>
 8    1  0.6239251E-010  0.9118800E+02  0.7816164E-02  0.1184000E+00
        -11   -1    0    0    0    0  0.00000000000E+00  0.00000000000E+00  0.45593999997E+02  0.45594000000E+02  0.51100000000E-03 0. -1.
         11   -1    0    0    0    0 -0.00000000000E+00 -0.00000000000E+00 -0.45593999997E+02  0.45594000000E+02  0.51100000000E-03 0.  1.
         23    2    1    2    0    0  0.00000000000E+00  0.71054273576E-14 -0.71054273576E-14  0.91188000000E+02  0.91188000000E+02 0.  0.
    9900012    2    3    3    0    0 -0.20505175101E+02 -0.22833259408E+02  0.30688813760E+02  0.47787271537E+02  0.20000002246E+02 0.  0.
        -12    1    3    3    0    0  0.20505175101E+02  0.22833259408E+02 -0.30688813760E+02  0.43400728463E+02  0.00000000000E+00 0.  1.
         11    1    4    4    0    0 -0.38363147504E+01 -0.28413981270E+01  0.13642662329E+01  0.49650857793E+01  0.51100000000E-03 0. -1.
        -11    1    4    4    0    0 -0.11065117783E+02 -0.92619765284E+00  0.80825958722E+01  0.13734009973E+02  0.51100000000E-03 0.  1.
        -12    1    4    4    0    0 -0.56037425670E+01 -0.19065663628E+02  0.21241951655E+02  0.29088175784E+02  0.00000000000E+00 0.  1.
</event>
<event>
 8    1  0.6239251E-010  0.9118800E+02  0.7816164E-02  0.1184000E+00
        -11   -1    0    0    0    0  0.00000000000E+00  0.00000000000E+00  0.45593999997E+02  0.45594000000E+02  0.51100000000E-03 0.  1.
         11   -1    0    0    0    0 -0.00000000000E+00 -0.00000000000E+00 -0.45593999997E+02  0.45594000000E+02  0.51100000000E-03 0. -1.
         23    2    1    2    0    0  0.35527136788E-14 -0.35527136788E-14  0.00000000000E+00  0.91188000000E+02  0.91188000000E+02 0.  0.
    9900012    2    3    3    0    0  0.30940383082E+02 -0.30419672080E+02  0.97868566008E+00  0.47787290555E+02  0.20000088955E+02 0.  0.
        -12    1    3    3    0    0 -0.30940383082E+02  0.30419672080E+02 -0.97868566008E+00  0.43400709445E+02  0.00000000000E+00 0.  1.
         11    1    4    4    0    0  0.16360342019E+02 -0.71195148357E+01  0.28049315155E+01  0.18061448545E+02  0.51100000000E-03 0. -1.
        -11    1    4    4    0    0  0.15186617592E+02 -0.21171372317E+02 -0.42988368197E+01  0.26407202766E+02  0.51100000000E-03 0.  1.
        -12    1    4    4    0    0 -0.60657652888E+00 -0.21287849271E+01  0.24725909643E+01  0.33186392434E+01  0.00000000000E+00 0.  1.
</event>
<event>
 8    1  0.6239251E-010  0.9118800E+02  0.7816164E-02  0.1184000E+00
        -11   -1    0    0    0    0  0.00000000000E+00  0.00000000000E+00  0.45593999997E+02  0.45594000000E+02  0.51100000000E-03 0. -1.
         11   -1    0    0    0    0 -0.00000000000E+00 -0.00000000000E+00 -0.45593999997E+02  0.45594000000E+02  0.51100000000E-03 0.  1.
         23    2    1    2    0    0  0.00000000000E+00  0.00000000000E+00  0.00000000000E+00  0.91188000000E+02  0.91188000000E+02 0.  0.
    9900012    2    3    3    0    0  0.31629431986E+02 -0.24280176151E+02  0.17136960170E+02  0.47787270449E+02  0.19999997284E+02 0.  0.
        -12    1    3    3    0    0 -0.31629431986E+02  0.24280176151E+02 -0.17136960170E+02  0.43400729551E+02  0.00000000000E+00 0.  1.
         11    1    4    4    0    0  0.41282061488E+01 -0.22254413714E+01  0.10275292273E+02  0.11294968210E+02  0.51100000000E-03 0. -1.
        -11    1    4    4    0    0  0.22236424119E+02 -0.14201388103E+02  0.48742582307E+01  0.26830884727E+02  0.51100000000E-03 0.  1.
        -12    1    4    4    0    0  0.52648017183E+01 -0.78533466772E+01  0.19874096669E+01  0.96614175124E+01  0.00000000000E+00 0.  1.
</event>
<event>
 8    1  0.6239251E-010  0.9118800E+02  0.7816164E-02  0.1184000E+00
        -11   -1    0    0    0    0  0.00000000000E+00  0.00000000000E+00  0.45593999997E+02  0.45594000000E+02  0.51100000000E-03 0. -1.
         11   -1    0    0    0    0 -0.00000000000E+00 -0.00000000000E+00 -0.45593999997E+02  0.45594000000E+02  0.51100000000E-03 0.  1.
         23    2    1    2    0    0  0.35527136788E-14  0.00000000000E+00 -0.17763568394E-14  0.91188000000E+02  0.91188000000E+02 0.  0.
    9900012    2    3    3    0    0 -0.23915884691E+02 -0.33531697535E+02  0.13684975864E+02  0.47787275991E+02  0.20000022552E+02 0.  0.
        -12    1    3    3    0    0  0.23915884691E+02  0.33531697535E+02 -0.13684975864E+02  0.43400724009E+02  0.00000000000E+00 0.  1.
         11    1    4    4    0    0 -0.14356405170E+02 -0.21412481122E+02  0.14064693882E+02  0.29366925809E+02  0.51100000000E-03 0. -1.
        -11    1    4    4    0    0  0.10678633917E+01 -0.55751405948E+01 -0.15519625765E+01  0.58848205559E+01  0.51100000000E-03 0.  1.
         12    1    4    4    0    0 -0.10627342913E+02 -0.65440758184E+01  0.11722445585E+01  0.12535529626E+02  0.00000000000E+00 0. -1.
</event>
<event>
 8    1  0.6239251E-010  0.9118800E+02  0.7816164E-02  0.1184000E+00
        -11   -1    0    0    0    0  0.00000000000E+00  0.00000000000E+00  0.45593999997E+02  0.45594000000E+02  0.51100000000E-03 0. -1.
         11   -1    0    0    0    0 -0.00000000000E+00 -0.00000000000E+00 -0.45593999997E+02  0.45594000000E+02  0.51100000000E-03 0.  1.
         23    2    1    2    0    0  0.00000000000E+00  0.71054273576E-14  0.00000000000E+00  0.91188000000E+02  0.91188000000E+02 0.  0.
    9900012    2    3    3    0    0  0.59687525528E+01  0.36728219004E+02 -0.22339091623E+02  0.47787273131E+02  0.20000009511E+02 0.  0.
         12    1    3    3    0    0 -0.59687525528E+01 -0.36728219004E+02  0.22339091623E+02  0.43400726869E+02  0.00000000000E+00 0. -1.
         11    1    4    4    0    0  0.10256039072E+01 -0.38933235906E+00 -0.75159015601E+00  0.13297861046E+01  0.51100000000E-03 0. -1.
        -11    1    4    4    0    0  0.61499584476E+01  0.79438606891E+01  0.16384558811E+00  0.10047574692E+02  0.51100000000E-03 0.  1.
        -12    1    4    4    0    0 -0.12068098021E+01  0.29173690674E+02 -0.21751347055E+02  0.36409912334E+02  0.00000000000E+00 0.  1.
</event>
<event>
 8    1  0.6239251E-010  0.9118800E+02  0.7816164E-02  0.1184000E+00
        -11   -1    0    0    0    0  0.00000000000E+00  0.00000000000E+00  0.45593999997E+02  0.45594000000E+02  0.51100000000E-03 0. -1.
         11   -1    0    0    0    0 -0.00000000000E+00 -0.00000000000E+00 -0.45593999997E+02  0.45594000000E+02  0.51100000000E-03 0.  1.
         23    2    1    2    0    0 -0.17763568394E-14  0.35527136788E-14  0.00000000000E+00  0.91188000000E+02  0.91188000000E+02 0.  0.
    9900012    2    3    3    0    0  0.10241209346E+02  0.26354287998E+02  0.32927077548E+02  0.47787270736E+02  0.19999998594E+02 0.  0.
        -12    1    3    3    0    0 -0.10241209346E+02 -0.26354287998E+02 -0.32927077548E+02  0.43400729264E+02  0.00000000000E+00 0.  1.
         11    1    4    4    0    0 -0.19057441350E+01  0.17755322432E+02  0.14004359279E+02  0.22693730730E+02  0.51100000000E-03 0. -1.
        -11    1    4    4    0    0  0.11513309190E+02  0.54514426243E+01  0.17333616824E+02  0.21511131715E+02  0.51100000000E-03 0.  1.
        -12    1    4    4    0    0  0.63364429072E+00  0.31475229419E+01  0.15891014450E+01  0.35824082904E+01  0.00000000000E+00 0.  1.
</event>
<event>
 8    1  0.6239251E-010  0.9118800E+02  0.7816164E-02  0.1184000E+00
        -11   -1    0    0    0    0  0.00000000000E+00  0.00000000000E+00  0.45593999997E+02  0.45594000000E+02  0.51100000000E-03 0. -1.
         11   -1    0    0    0    0 -0.00000000000E+00 -0.00000000000E+00 -0.45593999997E+02  0.45594000000E+02  0.51100000000E-03 0.  1.
         23    2    1    2    0    0 -0.71054273576E-14  0.00000000000E+00 -0.35527136788E-14  0.91188000000E+02  0.91188000000E+02 0.  0.
    9900012    2    3    3    0    0 -0.24195601665E+02  0.25551175635E+02  0.25403421985E+02  0.47787267692E+02  0.19999984715E+02 0.  0.
        -12    1    3    3    0    0  0.24195601665E+02 -0.25551175635E+02 -0.25403421985E+02  0.43400732308E+02  0.00000000000E+00 0.  1.
         11    1    4    4    0    0 -0.16844972185E+02  0.14524554591E+02  0.21616782030E+02  0.31016141598E+02  0.51100000000E-03 0. -1.
        -11    1    4    4    0    0  0.14073695828E+01  0.61392542755E+01  0.11735030924E+01  0.64068901950E+01  0.51100000000E-03 0.  1.
        -12    1    4    4    0    0 -0.87579990627E+01  0.48873667692E+01  0.26131368626E+01  0.10364235900E+02  0.00000000000E+00 0.  1.
</event>
<event>
 8    1  0.6239251E-010  0.9118800E+02  0.7816164E-02  0.1184000E+00
        -11   -1    0    0    0    0  0.00000000000E+00  0.00000000000E+00  0.45593999997E+02  0.45594000000E+02  0.51100000000E-03 0. -1.
         11   -1    0    0    0    0 -0.00000000000E+00 -0.00000000000E+00 -0.45593999997E+02  0.45594000000E+02  0.51100000000E-03 0.  1.
         23    2    1    2    0    0  0.00000000000E+00  0.00000000000E+00  0.00000000000E+00  0.91188000000E+02  0.91188000000E+02 0.  0.
    9900012    2    3    3    0    0 -0.16675308372E+02 -0.19049910728E+02  0.35251360253E+02  0.47787269502E+02  0.19999992969E+02 0.  0.
        -12    1    3    3    0    0  0.16675308372E+02  0.19049910728E+02 -0.35251360253E+02  0.43400730498E+02  0.00000000000E+00 0.  1.
         11    1    4    4    0    0 -0.46385988227E+01 -0.39164020752E+01  0.10475474185E+02  0.12107450761E+02  0.51100000000E-03 0. -1.
        -11    1    4    4    0    0 -0.57938999491E+01 -0.17914691697E+02  0.18661771796E+02  0.26509756356E+02  0.51100000000E-03 0.  1.
        -12    1    4    4    0    0 -0.62428096000E+01  0.27811830444E+01  0.61141142717E+01  0.91700623856E+01  0.00000000000E+00 0.  1.
</event>
<event>
 8    1  0.6239251E-010  0.9118800E+02  0.7816164E-02  0.1184000E+00
        -11   -1    0    0    0    0  0.00000000000E+00  0.00000000000E+00  0.45593999997E+02  0.45594000000E+02  0.51100000000E-03 0. -1.
         11   -1    0    0    0    0 -0.00000000000E+00 -0.00000000000E+00 -0.45593999997E+02  0.45594000000E+02  0.51100000000E-03 0.  1.
         23    2    1    2    0    0  0.17763568394E-14  0.17763568394E-14  0.71054273576E-14  0.91188000000E+02  0.91188000000E+02 0.  0.
    9900012    2    3    3    0    0  0.66591945556E+01  0.10285682891E+02  0.41635119707E+02  0.47787270309E+02  0.19999996648E+02 0.  0.
        -12    1    3    3    0    0 -0.66591945556E+01 -0.10285682891E+02 -0.41635119707E+02  0.43400729691E+02  0.00000000000E+00 0.  1.
         11    1    4    4    0    0  0.11488549492E+02  0.71119360558E+01  0.27669615779E+02  0.30792434810E+02  0.51100000000E-03 0. -1.
        -11    1    4    4    0    0  0.16636558715E+01 -0.33977039905E+00  0.55306182254E+01  0.57854069000E+01  0.51100000000E-03 0.  1.
         12    1    4    4    0    0 -0.64930108078E+01  0.35135172342E+01  0.84348857024E+01  0.11209428599E+02  0.00000000000E+00 0. -1.
</event>
<event>
 8    1  0.6704472E-010  0.9118800E+02  0.7816164E-02  0.1184000E+00
        -11   -1    0    0    0    0  0.00000000000E+00  0.00000000000E+00  0.45593999997E+02  0.45594000000E+02  0.51100000000E-03 0. -1.
         11   -1    0    0    0    0 -0.00000000000E+00 -0.00000000000E+00 -0.45593999997E+02  0.45594000000E+02  0.51100000000E-03 0.  1.
         23    2    1    2    0    0  0.00000000000E+00  0.00000000000E+00  0.71054273576E-14  0.91188000000E+02  0.91188000000E+02 0.  0.
    9900012    2    3    3    0    0  0.25719803208E+02 -0.92959056056E+01  0.33700169257E+02  0.47787267908E+02  0.19999985702E+02 0.  0.
        -12    1    3    3    0    0 -0.25719803208E+02  0.92959056056E+01 -0.33700169257E+02  0.43400732092E+02  0.00000000000E+00 0.  1.
         11    1    4    4    0    0  0.89793653079E+01 -0.15096935859E+01  0.10284135200E+02  0.13735778577E+02  0.51100000000E-03 0. -1.
        -11    1    4    4    0    0  0.15799100930E+02 -0.11818142603E+02  0.15398010453E+02  0.25027561027E+02  0.51100000000E-03 0.  1.
        -12    1    4    4    0    0  0.94133697080E+00  0.40319305833E+01  0.80180236048E+01  0.90239283046E+01  0.00000000000E+00 0.  1.
</event>
<event>
 8    1  0.6239251E-010  0.9118800E+02  0.7816164E-02  0.1184000E+00
        -11   -1    0    0    0    0  0.00000000000E+00  0.00000000000E+00  0.45593999997E+02  0.45594000000E+02  0.51100000000E-03 0. -1.
         11   -1    0    0    0    0 -0.00000000000E+00 -0.00000000000E+00 -0.45593999997E+02  0.45594000000E+02  0.51100000000E-03 0.  1.
         23    2    1    2    0    0  0.00000000000E+00  0.00000000000E+00  0.71054273576E-14  0.91188000000E+02  0.91188000000E+02 0.  0.
    9900012    2    3    3    0    0  0.17921663111E+02 -0.41691074811E+01  0.39307200324E+02  0.47787268864E+02  0.19999990059E+02 0.  0.
        -12    1    3    3    0    0 -0.17921663111E+02  0.41691074811E+01 -0.39307200324E+02  0.43400731136E+02  0.00000000000E+00 0.  1.
         11    1    4    4    0    0  0.16892765007E+02  0.20639649459E+00  0.38205957613E+02  0.41774433646E+02  0.51100000000E-03 0. -1.
        -11    1    4    4    0    0 -0.17193876496E+00 -0.36139740463E+01  0.21834996682E+01  0.42258777087E+01  0.51100000000E-03 0.  1.
         12    1    4    4    0    0  0.12008368691E+01 -0.76152992942E+00 -0.10822569572E+01  0.17869575096E+01  0.00000000000E+00 0. -1.
</event>
<event>
 8    1  0.6239251E-010  0.9118800E+02  0.7816164E-02  0.1184000E+00
        -11   -1    0    0    0    0  0.00000000000E+00  0.00000000000E+00  0.45593999997E+02  0.45594000000E+02  0.51100000000E-03 0. -1.
         11   -1    0    0    0    0 -0.00000000000E+00 -0.00000000000E+00 -0.45593999997E+02  0.45594000000E+02  0.51100000000E-03 0.  1.
         23    2    1    2    0    0  0.00000000000E+00 -0.35527136788E-14  0.35527136788E-14  0.91188000000E+02  0.91188000000E+02 0.  0.
    9900012    2    3    3    0    0  0.20138878005E+02 -0.25610518395E+02 -0.28673155720E+02  0.47787275136E+02  0.20000018656E+02 0.  0.
         12    1    3    3    0    0 -0.20138878005E+02  0.25610518395E+02  0.28673155720E+02  0.43400724864E+02  0.00000000000E+00 0. -1.
         11    1    4    4    0    0  0.62841000690E+01 -0.16704265294E+02 -0.79915680877E+01  0.19554732252E+02  0.51100000000E-03 0. -1.
        -11    1    4    4    0    0 -0.19470724901E+00 -0.19251746343E+01  0.37817087204E+00  0.19716038534E+01  0.51100000000E-03 0.  1.
        -12    1    4    4    0    0  0.14049485185E+02 -0.69810784672E+01 -0.21059758504E+02  0.26260939031E+02  0.00000000000E+00 0.  1.
</event>
<event>
 8    1  0.6647034E-010  0.9118800E+02  0.7816164E-02  0.1184000E+00
        -11   -1    0    0    0    0  0.00000000000E+00  0.00000000000E+00  0.45593999997E+02  0.45594000000E+02  0.51100000000E-03 0. -1.
         11   -1    0    0    0    0 -0.00000000000E+00 -0.00000000000E+00 -0.45593999997E+02  0.45594000000E+02  0.51100000000E-03 0.  1.
         23    2    1    2    0    0  0.17763568394E-14  0.00000000000E+00  0.00000000000E+00  0.91188000000E+02  0.91188000000E+02 0.  0.
    9900012    2    3    3    0    0  0.15182017446E+02  0.28452362178E+02  0.29044666727E+02  0.47787271521E+02  0.20000002173E+02 0.  0.
        -12    1    3    3    0    0 -0.15182017446E+02 -0.28452362178E+02 -0.29044666727E+02  0.43400728479E+02  0.00000000000E+00 0.  1.
         11    1    4    4    0    0  0.58099513601E+01  0.16509131742E+02  0.21950876033E+02  0.28073972369E+02  0.51100000000E-03 0. -1.
        -11    1    4    4    0    0  0.10601828248E+02  0.57576390250E+01  0.51104766824E+01  0.13102142631E+02  0.51100000000E-03 0.  1.
        -12    1    4    4    0    0 -0.12297621627E+01  0.61855914106E+01  0.19833140114E+01  0.66111565209E+01  0.00000000000E+00 0.  1.
</event>
<event>
 8    1  0.6239251E-010  0.9118800E+02  0.7816164E-02  0.1184000E+00
        -11   -1    0    0    0    0  0.00000000000E+00  0.00000000000E+00  0.45593999997E+02  0.45594000000E+02  0.51100000000E-03 0. -1.
         11   -1    0    0    0    0 -0.00000000000E+00 -0.00000000000E+00 -0.45593999997E+02  0.45594000000E+02  0.51100000000E-03 0.  1.
         23    2    1    2    0    0 -0.35527136788E-14  0.17763568394E-14 -0.71054273576E-14  0.91188000000E+02  0.91188000000E+02 0.  0.
    9900012    2    3    3    0    0 -0.23010542886E+02  0.12396850133E+02 -0.34647602043E+02  0.47787270692E+02  0.19999998393E+02 0.  0.
         12    1    3    3    0    0  0.23010542886E+02 -0.12396850133E+02  0.34647602043E+02  0.43400729308E+02  0.00000000000E+00 0. -1.
         11    1    4    4    0    0  0.18122757125E+01  0.27727920821E+01 -0.10259467570E+02  0.10780973716E+02  0.51100000000E-03 0. -1.
        -11    1    4    4    0    0 -0.11964566051E+02  0.89183520069E+01 -0.12193010438E+02  0.19270634321E+02  0.51100000000E-03 0.  1.
         12    1    4    4    0    0 -0.12858252547E+02  0.70570604431E+00 -0.12195124035E+02  0.17735662655E+02  0.00000000000E+00 0. -1.
</event>
<event>
 8    1  0.6239251E-010  0.9118800E+02  0.7816164E-02  0.1184000E+00
        -11   -1    0    0    0    0  0.00000000000E+00  0.00000000000E+00  0.45593999997E+02  0.45594000000E+02  0.51100000000E-03 0. -1.
         11   -1    0    0    0    0 -0.00000000000E+00 -0.00000000000E+00 -0.45593999997E+02  0.45594000000E+02  0.51100000000E-03 0.  1.
         23    2    1    2    0    0  0.00000000000E+00  0.00000000000E+00  0.00000000000E+00  0.91188000000E+02  0.91188000000E+02 0.  0.
    9900012    2    3    3    0    0  0.11589797297E+02  0.11413584691E+02 -0.40237171968E+02  0.47787270457E+02  0.19999997323E+02 0.  0.
         12    1    3    3    0    0 -0.11589797297E+02 -0.11413584691E+02  0.40237171968E+02  0.43400729543E+02  0.00000000000E+00 0. -1.
         11    1    4    4    0    0  0.32980828432E+01  0.83877634227E+01 -0.49587800433E+01  0.10286954139E+02  0.51100000000E-03 0. -1.
        -11    1    4    4    0    0  0.46581459680E+01 -0.58537888539E+00 -0.29091127763E+02  0.29467519527E+02  0.51100000000E-03 0.  1.
        -12    1    4    4    0    0  0.36335684856E+01  0.36112001537E+01 -0.61872641617E+01  0.80327967917E+01  0.00000000000E+00 0.  1.
</event>
<event>
 8    1  0.6239251E-010  0.9118800E+02  0.7816164E-02  0.1184000E+00
        -11   -1    0    0    0    0  0.00000000000E+00  0.00000000000E+00  0.45593999997E+02  0.45594000000E+02  0.51100000000E-03 0. -1.
         11   -1    0    0    0    0 -0.00000000000E+00 -0.00000000000E+00 -0.45593999997E+02  0.45594000000E+02  0.51100000000E-03 0.  1.
         23    2    1    2    0    0  0.35527136788E-14  0.00000000000E+00  0.00000000000E+00  0.91188000000E+02  0.91188000000E+02 0.  0.
    9900012    2    3    3    0    0 -0.18082477581E+02  0.31605277484E+02 -0.23616811709E+02  0.47787270102E+02  0.19999995705E+02 0.  0.
         12    1    3    3    0    0  0.18082477581E+02 -0.31605277484E+02  0.23616811709E+02  0.43400729898E+02  0.00000000000E+00 0. -1.
         11    1    4    4    0    0 -0.32827453283E+01  0.11443625637E+01 -0.13247801422E+01  0.37203528400E+01  0.51100000000E-03 0. -1.
        -11    1    4    4    0    0 -0.46679351659E+01  0.28624195629E+01 -0.11521736219E+02  0.12756702953E+02  0.51100000000E-03 0.  1.
        -12    1    4    4    0    0 -0.10131797087E+02  0.27598495358E+02 -0.10770295348E+02  0.31310214309E+02  0.00000000000E+00 0.  1.
</event>
<event>
 8    1  0.6239251E-010  0.9118800E+02  0.7816164E-02  0.1184000E+00
        -11   -1    0    0    0    0  0.00000000000E+00  0.00000000000E+00  0.45593999997E+02  0.45594000000E+02  0.51100000000E-03 0.  1.
         11   -1    0    0    0    0 -0.00000000000E+00 -0.00000000000E+00 -0.45593999997E+02  0.45594000000E+02  0.51100000000E-03 0. -1.
         23    2    1    2    0    0  0.00000000000E+00  0.00000000000E+00  0.00000000000E+00  0.91188000000E+02  0.91188000000E+02 0.  0.
    9900012    2    3    3    0    0  0.67362765039E+01 -0.41891137306E+02 -0.91311915337E+01  0.47787268845E+02  0.19999989972E+02 0.  0.
        -12    1    3    3    0    0 -0.67362765039E+01  0.41891137306E+02  0.91311915337E+01  0.43400731155E+02  0.00000000000E+00 0.  1.
         11    1    4    4    0    0  0.70953143984E+01 -0.91703464210E+01 -0.85544468835E+01  0.14408931315E+02  0.51100000000E-03 0. -1.
        -11    1    4    4    0    0  0.18915045675E+01 -0.28691819113E+02 -0.31135938109E+00  0.28755785825E+02  0.51100000000E-03 0.  1.
         12    1    4    4    0    0 -0.22505424620E+01 -0.40289717730E+01 -0.26538526917E+00  0.46225517046E+01  0.00000000000E+00 0. -1.
</event>
<event>
 8    1  0.6456796E-010  0.9118800E+02  0.7816164E-02  0.1184000E+00
        -11   -1    0    0    0    0  0.00000000000E+00  0.00000000000E+00  0.45593999997E+02  0.45594000000E+02  0.51100000000E-03 0. -1.
         11   -1    0    0    0    0 -0.00000000000E+00 -0.00000000000E+00 -0.45593999997E+02  0.45594000000E+02  0.51100000000E-03 0.  1.
         23    2    1    2    0    0  0.17763568394E-14  0.00000000000E+00  0.00000000000E+00  0.91188000000E+02  0.91188000000E+02 0.  0.
    9900012    2    3    3    0    0  0.15110330463E+02 -0.10845797491E+02  0.39213128800E+02  0.47787275580E+02  0.20000020680E+02 0.  0.
        -12    1    3    3    0    0 -0.15110330463E+02  0.10845797491E+02 -0.39213128800E+02  0.43400724420E+02  0.00000000000E+00 0.  1.
         11    1    4    4    0    0  0.10215490552E+02 -0.87529741139E+01  0.18930925912E+02  0.23223926438E+02  0.51100000000E-03 0. -1.
        -11    1    4    4    0    0 -0.22624084461E+01  0.60238296280E+00  0.15203571229E+02  0.15382780489E+02  0.51100000000E-03 0.  1.
        -12    1    4    4    0    0  0.71572483571E+01 -0.26952063398E+01  0.50786316589E+01  0.91805686527E+01  0.00000000000E+00 0.  1.
</event>
<event>
 8    1  0.6239251E-010  0.9118800E+02  0.7816164E-02  0.1184000E+00
        -11   -1    0    0    0    0  0.00000000000E+00  0.00000000000E+00  0.45593999997E+02  0.45594000000E+02  0.51100000000E-03 0. -1.
         11   -1    0    0    0    0 -0.00000000000E+00 -0.00000000000E+00 -0.45593999997E+02  0.45594000000E+02  0.51100000000E-03 0.  1.
         23    2    1    2    0    0  0.00000000000E+00  0.00000000000E+00  0.00000000000E+00  0.91188000000E+02  0.91188000000E+02 0.  0.
    9900012    2    3    3    0    0  0.88510892225E+01  0.77960725476E+01  0.41767243681E+02  0.47787272214E+02  0.20000005334E+02 0.  0.
        -12    1    3    3    0    0 -0.88510892225E+01 -0.77960725476E+01 -0.41767243681E+02  0.43400727786E+02  0.00000000000E+00 0.  1.
         11    1    4    4    0    0 -0.46361532758E+01  0.37194303548E+01  0.93251469930E+01  0.11058320219E+02  0.51100000000E-03 0. -1.
        -11    1    4    4    0    0 -0.15443877487E+01  0.25731029465E+00  0.18013902582E+01  0.23867025851E+01  0.51100000000E-03 0.  1.
         12    1    4    4    0    0  0.15031630247E+02  0.38193318982E+01  0.30640706430E+02  0.34342249410E+02  0.00000000000E+00 0. -1.
</event>
<event>
 8    1  0.6239251E-010  0.9118800E+02  0.7816164E-02  0.1184000E+00
        -11   -1    0    0    0    0  0.00000000000E+00  0.00000000000E+00  0.45593999997E+02  0.45594000000E+02  0.51100000000E-03 0.  1.
         11   -1    0    0    0    0 -0.00000000000E+00 -0.00000000000E+00 -0.45593999997E+02  0.45594000000E+02  0.51100000000E-03 0. -1.
         23    2    1    2    0    0  0.71054273576E-14  0.00000000000E+00  0.88817841970E-15  0.91188000000E+02  0.91188000000E+02 0.  0.
    9900012    2    3    3    0    0  0.40682540856E+02  0.14286534892E+02 -0.49446090318E+01  0.47787269958E+02  0.19999995045E+02 0.  0.
        -12    1    3    3    0    0 -0.40682540856E+02 -0.14286534892E+02  0.49446090318E+01  0.43400730042E+02  0.00000000000E+00 0.  1.
         11    1    4    4    0    0  0.17494169549E+02  0.99526768919E+01  0.44682244882E+01  0.20617147617E+02  0.51100000000E-03 0. -1.
        -11    1    4    4    0    0  0.11452783479E+02  0.60366059853E+01 -0.80223754477E+01  0.15230409361E+02  0.51100000000E-03 0.  1.
         12    1    4    4    0    0  0.11735587828E+02 -0.17027479852E+01 -0.13904580724E+01  0.11939712979E+02  0.00000000000E+00 0. -1.
</event>
<event>
 8    1  0.6239251E-010  0.9118800E+02  0.7816164E-02  0.1184000E+00
        -11   -1    0    0    0    0  0.00000000000E+00  0.00000000000E+00  0.45593999997E+02  0.45594000000E+02  0.51100000000E-03 0. -1.
         11   -1    0    0    0    0 -0.00000000000E+00 -0.00000000000E+00 -0.45593999997E+02  0.45594000000E+02  0.51100000000E-03 0.  1.
         23    2    1    2    0    0 -0.35527136788E-14  0.00000000000E+00  0.00000000000E+00  0.91188000000E+02  0.91188000000E+02 0.  0.
    9900012    2    3    3    0    0  0.26649811237E+02 -0.27482812710E+02 -0.20447636213E+02  0.47787271203E+02  0.20000000723E+02 0.  0.
         12    1    3    3    0    0 -0.26649811237E+02  0.27482812710E+02  0.20447636213E+02  0.43400728797E+02  0.00000000000E+00 0. -1.
         11    1    4    4    0    0  0.10070968614E+02  0.73606940287E+00 -0.32493084403E+01  0.10607743049E+02  0.51100000000E-03 0. -1.
        -11    1    4    4    0    0  0.85610890796E+01 -0.11895374143E+02 -0.61022667842E+01  0.15875447471E+02  0.51100000000E-03 0.  1.
         12    1    4    4    0    0  0.80177535440E+01 -0.16323507969E+02 -0.11096060988E+02  0.21304080684E+02  0.00000000000E+00 0. -1.
</event>
<event>
 8    1  0.6239251E-010  0.9118800E+02  0.7816164E-02  0.1184000E+00
        -11   -1    0    0    0    0  0.00000000000E+00  0.00000000000E+00  0.45593999997E+02  0.45594000000E+02  0.51100000000E-03 0.  1.
         11   -1    0    0    0    0 -0.00000000000E+00 -0.00000000000E+00 -0.45593999997E+02  0.45594000000E+02  0.51100000000E-03 0. -1.
         23    2    1    2    0    0  0.00000000000E+00  0.35527136788E-14  0.17763568394E-14  0.91188000000E+02  0.91188000000E+02 0.  0.
    9900012    2    3    3    0    0  0.33665076349E+02  0.24611333037E+02  0.12023651707E+02  0.47787270976E+02  0.19999999689E+02 0.  0.
        -12    1    3    3    0    0 -0.33665076349E+02 -0.24611333037E+02 -0.12023651707E+02  0.43400729024E+02  0.00000000000E+00 0.  1.
         11    1    4    4    0    0  0.33519966520E+02  0.19666379444E+02  0.14053744691E+02  0.41326291584E+02  0.51100000000E-03 0. -1.
        -11    1    4    4    0    0 -0.57956181903E+00  0.48559818417E+01 -0.69539713995E+00  0.49396385487E+01  0.51100000000E-03 0.  1.
         12    1    4    4    0    0  0.72467164760E+00  0.88971751073E-01 -0.13346958434E+01  0.15213408440E+01  0.00000000000E+00 0. -1.
</event>
<event>
 8    1  0.6239251E-010  0.9118800E+02  0.7816164E-02  0.1184000E+00
        -11   -1    0    0    0    0  0.00000000000E+00  0.00000000000E+00  0.45593999997E+02  0.45594000000E+02  0.51100000000E-03 0. -1.
         11   -1    0    0    0    0 -0.00000000000E+00 -0.00000000000E+00 -0.45593999997E+02  0.45594000000E+02  0.51100000000E-03 0.  1.
         23    2    1    2    0    0  0.17763568394E-14  0.00000000000E+00 -0.71054273576E-14  0.91188000000E+02  0.91188000000E+02 0.  0.
    9900012    2    3    3    0    0 -0.10775009190E+02 -0.55906053489E+01  0.41668543390E+02  0.47787271901E+02  0.20000003907E+02 0.  0.
        -12    1    3    3    0    0  0.10775009190E+02  0.55906053489E+01 -0.41668543390E+02  0.43400728099E+02  0.00000000000E+00 0.  1.
         11    1    4    4    0    0 -0.29744874850E+01  0.23921338915E+01  0.97142594328E+01  0.10437275360E+02  0.51100000000E-03 0. -1.
        -11    1    4    4    0    0 -0.25230798808E+01  0.56069458899E+00 -0.10962971652E+01  0.28075217261E+01  0.51100000000E-03 0.  1.
        -12    1    4    4    0    0 -0.52774418246E+01 -0.85434338294E+01  0.33050581123E+02  0.34542474815E+02  0.00000000000E+00 0.  1.
</event>
<event>
 8    1  0.6239251E-010  0.9118800E+02  0.7816164E-02  0.1184000E+00
        -11   -1    0    0    0    0  0.00000000000E+00  0.00000000000E+00  0.45593999997E+02  0.45594000000E+02  0.51100000000E-03 0. -1.
         11   -1    0    0    0    0 -0.00000000000E+00 -0.00000000000E+00 -0.45593999997E+02  0.45594000000E+02  0.51100000000E-03 0.  1.
         23    2    1    2    0    0  0.00000000000E+00 -0.88817841970E-15  0.00000000000E+00  0.91188000000E+02  0.91188000000E+02 0.  0.
    9900012    2    3    3    0    0  0.12079377294E+02 -0.65407018131E+01 -0.41169540868E+02  0.47787271535E+02  0.20000002238E+02 0.  0.
         12    1    3    3    0    0 -0.12079377294E+02  0.65407018131E+01  0.41169540868E+02  0.43400728465E+02  0.00000000000E+00 0. -1.
         11    1    4    4    0    0  0.17705118496E+01 -0.14010739378E+01  0.70330917791E+00  0.23648180585E+01  0.51100000000E-03 0. -1.
        -11    1    4    4    0    0  0.66858605551E+01 -0.36759660066E+01 -0.40603241487E+02  0.41313879955E+02  0.51100000000E-03 0.  1.
        -12    1    4    4    0    0  0.36230048892E+01 -0.14636618687E+01 -0.12696085589E+01  0.41085735220E+01  0.00000000000E+00 0.  1.
</event>
<event>
 8    1  0.6239251E-010  0.9118800E+02  0.7816164E-02  0.1184000E+00
        -11   -1    0    0    0    0  0.00000000000E+00  0.00000000000E+00  0.45593999997E+02  0.45594000000E+02  0.51100000000E-03 0. -1.
         11   -1    0    0    0    0 -0.00000000000E+00 -0.00000000000E+00 -0.45593999997E+02  0.45594000000E+02  0.51100000000E-03 0.  1.
         23    2    1    2    0    0  0.35527136788E-14 -0.35527136788E-14  0.00000000000E+00  0.91188000000E+02  0.91188000000E+02 0.  0.
    9900012    2    3    3    0    0  0.25884635703E+02  0.18262604635E+02 -0.29666244966E+02  0.47787272081E+02  0.20000004725E+02 0.  0.
         12    1    3    3    0    0 -0.25884635703E+02 -0.18262604635E+02  0.29666244966E+02  0.43400727919E+02  0.00000000000E+00 0. -1.
         11    1    4    4    0    0  0.13880929263E+01 -0.47169612718E+00 -0.12160757182E+02  0.12248808706E+02  0.51100000000E-03 0. -1.
        -11    1    4    4    0    0  0.92836175904E+01  0.81274729750E+01 -0.60724243040E+01  0.13751934763E+02  0.51100000000E-03 0.  1.
         12    1    4    4    0    0  0.15212925186E+02  0.10606827788E+02 -0.11433063480E+02  0.21786528612E+02  0.00000000000E+00 0. -1.
</event>
<event>
 8    1  0.6239251E-010  0.9118800E+02  0.7816164E-02  0.1184000E+00
        -11   -1    0    0    0    0  0.00000000000E+00  0.00000000000E+00  0.45593999997E+02  0.45594000000E+02  0.51100000000E-03 0. -1.
         11   -1    0    0    0    0 -0.00000000000E+00 -0.00000000000E+00 -0.45593999997E+02  0.45594000000E+02  0.51100000000E-03 0.  1.
         23    2    1    2    0    0  0.17763568394E-14  0.00000000000E+00  0.00000000000E+00  0.91188000000E+02  0.91188000000E+02 0.  0.
    9900012    2    3    3    0    0 -0.11097553894E+02  0.31068543072E+01 -0.41842743633E+02  0.47787269121E+02  0.19999991231E+02 0.  0.
         12    1    3    3    0    0  0.11097553894E+02 -0.31068543072E+01  0.41842743633E+02  0.43400730879E+02  0.00000000000E+00 0. -1.
         11    1    4    4    0    0  0.72091930138E+00  0.45872970020E+01 -0.23660852774E+01  0.52116579152E+01  0.51100000000E-03 0. -1.
        -11    1    4    4    0    0 -0.11999374102E+02  0.19628945548E+01 -0.26633803495E+02  0.29277934059E+02  0.51100000000E-03 0.  1.
        -12    1    4    4    0    0  0.18090090616E+00 -0.34433372497E+01 -0.12842854860E+02  0.13297677147E+02  0.00000000000E+00 0.  1.
</event>
<event>
 8    1  0.6239251E-010  0.9118800E+02  0.7816164E-02  0.1184000E+00
        -11   -1    0    0    0    0  0.00000000000E+00  0.00000000000E+00  0.45593999997E+02  0.45594000000E+02  0.51100000000E-03 0. -1.
         11   -1    0    0    0    0 -0.00000000000E+00 -0.00000000000E+00 -0.45593999997E+02  0.45594000000E+02  0.51100000000E-03 0.  1.
         23    2    1    2    0    0  0.00000000000E+00  0.00000000000E+00  0.00000000000E+00  0.91188000000E+02  0.91188000000E+02 0.  0.
    9900012    2    3    3    0    0 -0.43424171312E+01 -0.21922582962E+02 -0.37204396067E+02  0.47787270548E+02  0.19999997736E+02 0.  0.
         12    1    3    3    0    0  0.43424171312E+01  0.21922582962E+02  0.37204396067E+02  0.43400729452E+02  0.00000000000E+00 0. -1.
         11    1    4    4    0    0  0.33058541557E+01  0.11735396997E+01 -0.59360745888E+01  0.68951322620E+01  0.51100000000E-03 0. -1.
        -11    1    4    4    0    0 -0.38745703852E+01 -0.15244079653E+02 -0.26865051166E+02  0.31130776325E+02  0.51100000000E-03 0.  1.
         12    1    4    4    0    0 -0.37737009017E+01 -0.78520430085E+01 -0.44032703117E+01  0.97613619614E+01  0.00000000000E+00 0. -1.
</event>
<event>
 8    1  0.6239251E-010  0.9118800E+02  0.7816164E-02  0.1184000E+00
        -11   -1    0    0    0    0  0.00000000000E+00  0.00000000000E+00  0.45593999997E+02  0.45594000000E+02  0.51100000000E-03 0. -1.
         11   -1    0    0    0    0 -0.00000000000E+00 -0.00000000000E+00 -0.45593999997E+02  0.45594000000E+02  0.51100000000E-03 0.  1.
         23    2    1    2    0    0 -0.17763568394E-14  0.00000000000E+00  0.00000000000E+00  0.91188000000E+02  0.91188000000E+02 0.  0.
    9900012    2    3    3    0    0 -0.90642272472E+01  0.35522091542E+02 -0.23230244244E+02  0.47787269007E+02  0.19999990710E+02 0.  0.
         12    1    3    3    0    0  0.90642272472E+01 -0.35522091542E+02  0.23230244244E+02  0.43400730993E+02  0.00000000000E+00 0. -1.
         11    1    4    4    0    0 -0.41910039929E+01  0.18193815378E+02 -0.33399966856E+01  0.18966681591E+02  0.51100000000E-03 0. -1.
        -11    1    4    4    0    0 -0.76439451390E+01  0.78548378802E+01 -0.97439308829E+01  0.14665352526E+02  0.51100000000E-03 0.  1.
         12    1    4    4    0    0  0.27707218847E+01  0.94734382837E+01 -0.10146316676E+02  0.14155234889E+02  0.00000000000E+00 0. -1.
</event>
<event>
 8    1  0.6239251E-010  0.9118800E+02  0.7816164E-02  0.1184000E+00
        -11   -1    0    0    0    0  0.00000000000E+00  0.00000000000E+00  0.45593999997E+02  0.45594000000E+02  0.51100000000E-03 0. -1.
         11   -1    0    0    0    0 -0.00000000000E+00 -0.00000000000E+00 -0.45593999997E+02  0.45594000000E+02  0.51100000000E-03 0.  1.
         23    2    1    2    0    0 -0.17763568394E-14  0.00000000000E+00  0.00000000000E+00  0.91188000000E+02  0.91188000000E+02 0.  0.
    9900012    2    3    3    0    0  0.15457771464E+02  0.19954821026E+02 -0.35305613057E+02  0.47787263899E+02  0.19999967420E+02 0.  0.
         12    1    3    3    0    0 -0.15457771464E+02 -0.19954821026E+02  0.35305613057E+02  0.43400736101E+02  0.00000000000E+00 0. -1.
         11    1    4    4    0    0  0.63162552565E+01  0.19843375357E+02 -0.15485756383E+02  0.25951171015E+02  0.51100000000E-03 0. -1.
        -11    1    4    4    0    0  0.37408570912E+01  0.29441450692E-01 -0.88667710085E+01  0.96236431228E+01  0.51100000000E-03 0.  1.
         12    1    4    4    0    0  0.54006591161E+01  0.82004218538E-01 -0.10953085665E+02  0.12212449761E+02  0.00000000000E+00 0. -1.
</event>
<event>
 8    1  0.6239251E-010  0.9118800E+02  0.7816164E-02  0.1184000E+00
        -11   -1    0    0    0    0  0.00000000000E+00  0.00000000000E+00  0.45593999997E+02  0.45594000000E+02  0.51100000000E-03 0.  1.
         11   -1    0    0    0    0 -0.00000000000E+00 -0.00000000000E+00 -0.45593999997E+02  0.45594000000E+02  0.51100000000E-03 0. -1.
         23    2    1    2    0    0  0.88817841970E-15 -0.14210854715E-13  0.00000000000E+00  0.91188000000E+02  0.91188000000E+02 0.  0.
    9900012    2    3    3    0    0 -0.73243316871E+01 -0.41150286270E+02  0.11688941936E+02  0.47787271223E+02  0.20000000815E+02 0.  0.
        -12    1    3    3    0    0  0.73243316871E+01  0.41150286270E+02 -0.11688941936E+02  0.43400728777E+02  0.00000000000E+00 0.  1.
         11    1    4    4    0    0  0.98502091655E+00 -0.28105235981E+02  0.39147529604E+01  0.28393658566E+02  0.51100000000E-03 0. -1.
        -11    1    4    4    0    0 -0.85975235090E+01 -0.73490044836E+01  0.77129463625E+01  0.13689953223E+02  0.51100000000E-03 0.  1.
        -12    1    4    4    0    0  0.28817090532E+00 -0.56960458053E+01  0.61242612927E-01  0.57036594345E+01  0.00000000000E+00 0.  1.
</event>
<event>
 8    1  0.7785786E-010  0.9118800E+02  0.7816164E-02  0.1184000E+00
        -11   -1    0    0    0    0  0.00000000000E+00  0.00000000000E+00  0.45593999997E+02  0.45594000000E+02  0.51100000000E-03 0. -1.
         11   -1    0    0    0    0 -0.00000000000E+00 -0.00000000000E+00 -0.45593999997E+02  0.45594000000E+02  0.51100000000E-03 0.  1.
         23    2    1    2    0    0  0.00000000000E+00 -0.17763568394E-14  0.00000000000E+00  0.91188000000E+02  0.91188000000E+02 0.  0.
    9900012    2    3    3    0    0 -0.11453979548E+02  0.10846646507E+02  0.40432411636E+02  0.47787270759E+02  0.19999998700E+02 0.  0.
        -12    1    3    3    0    0  0.11453979548E+02 -0.10846646507E+02 -0.40432411636E+02  0.43400729241E+02  0.00000000000E+00 0.  1.
         11    1    4    4    0    0 -0.37824621381E+01  0.56779942663E+01  0.88211349011E+01  0.11151639338E+02  0.51100000000E-03 0.  1.
        -11    1    4    4    0    0 -0.11180569437E+02 -0.47268055398E-01  0.13880798306E+02  0.17823690108E+02  0.51100000000E-03 0. -1.
        -12    1    4    4    0    0  0.35090520267E+01  0.52159202960E+01  0.17730478429E+02  0.18811941313E+02  0.00000000000E+00 0.  1.
</event>
<event>
 8    1  0.6239251E-010  0.9118800E+02  0.7816164E-02  0.1184000E+00
        -11   -1    0    0    0    0  0.00000000000E+00  0.00000000000E+00  0.45593999997E+02  0.45594000000E+02  0.51100000000E-03 0. -1.
         11   -1    0    0    0    0 -0.00000000000E+00 -0.00000000000E+00 -0.45593999997E+02  0.45594000000E+02  0.51100000000E-03 0.  1.
         23    2    1    2    0    0  0.44408920985E-15 -0.35527136788E-14  0.71054273576E-14  0.91188000000E+02  0.91188000000E+02 0.  0.
    9900012    2    3    3    0    0 -0.25217096131E+01  0.28606945847E+02 -0.32540848934E+02  0.47787271672E+02  0.20000002861E+02 0.  0.
         12    1    3    3    0    0  0.25217096131E+01 -0.28606945847E+02  0.32540848934E+02  0.43400728328E+02  0.00000000000E+00 0. -1.
         11    1    4    4    0    0 -0.76536390538E+01  0.10915278264E+02 -0.72727811758E+01  0.15186007923E+02  0.51100000000E-03 0. -1.
        -11    1    4    4    0    0  0.24013060898E+01  0.15689974308E+02 -0.24395911289E+02  0.29105017654E+02  0.51100000000E-03 0.  1.
         12    1    4    4    0    0  0.27306233509E+01  0.20016932755E+01 -0.87215646845E+00  0.34962460954E+01  0.00000000000E+00 0. -1.
</event>
<event>
 8    1  0.6239251E-010  0.9118800E+02  0.7816164E-02  0.1184000E+00
        -11   -1    0    0    0    0  0.00000000000E+00  0.00000000000E+00  0.45593999997E+02  0.45594000000E+02  0.51100000000E-03 0. -1.
         11   -1    0    0    0    0 -0.00000000000E+00 -0.00000000000E+00 -0.45593999997E+02  0.45594000000E+02  0.51100000000E-03 0.  1.
         23    2    1    2    0    0  0.44408920985E-15  0.00000000000E+00 -0.71054273576E-14  0.91188000000E+02  0.91188000000E+02 0.  0.
    9900012    2    3    3    0    0 -0.35907748907E+01  0.10093871311E+02 -0.42057619438E+02  0.47787271260E+02  0.20000000984E+02 0.  0.
         12    1    3    3    0    0  0.35907748907E+01 -0.10093871311E+02  0.42057619438E+02  0.43400728740E+02  0.00000000000E+00 0. -1.
         11    1    4    4    0    0 -0.21355618901E+01  0.59076340687E+01 -0.20578761005E+01  0.66102661960E+01  0.51100000000E-03 0. -1.
        -11    1    4    4    0    0 -0.24691541018E+01  0.10063144694E+01 -0.29468127835E+01  0.39740529226E+01  0.51100000000E-03 0.  1.
         12    1    4    4    0    0  0.10139411012E+01  0.31799227724E+01 -0.37052930554E+02  0.37202952142E+02  0.00000000000E+00 0. -1.
</event>
<event>
 8    1  0.6239251E-010  0.9118800E+02  0.7816164E-02  0.1184000E+00
        -11   -1    0    0    0    0  0.00000000000E+00  0.00000000000E+00  0.45593999997E+02  0.45594000000E+02  0.51100000000E-03 0. -1.
         11   -1    0    0    0    0 -0.00000000000E+00 -0.00000000000E+00 -0.45593999997E+02  0.45594000000E+02  0.51100000000E-03 0.  1.
         23    2    1    2    0    0  0.00000000000E+00  0.71054273576E-14  0.00000000000E+00  0.91188000000E+02  0.91188000000E+02 0.  0.
    9900012    2    3    3    0    0 -0.10068172940E+02  0.36301168651E+02 -0.21551788582E+02  0.47787279466E+02  0.20000038399E+02 0.  0.
         12    1    3    3    0    0  0.10068172940E+02 -0.36301168651E+02  0.21551788582E+02  0.43400720534E+02  0.00000000000E+00 0. -1.
         11    1    4    4    0    0 -0.38835867561E+01  0.32380736379E+01  0.29133215388E+01  0.58356498889E+01  0.51100000000E-03 0. -1.
        -11    1    4    4    0    0 -0.56149825368E+01  0.16322811879E+02 -0.11094175569E+02  0.20519331089E+02  0.51100000000E-03 0.  1.
         12    1    4    4    0    0 -0.56960364711E+00  0.16740283134E+02 -0.13370934552E+02  0.21432298489E+02  0.00000000000E+00 0. -1.
</event>
<event>
 8    1  0.6239251E-010  0.9118800E+02  0.7816164E-02  0.1184000E+00
        -11   -1    0    0    0    0  0.00000000000E+00  0.00000000000E+00  0.45593999997E+02  0.45594000000E+02  0.51100000000E-03 0. -1.
         11   -1    0    0    0    0 -0.00000000000E+00 -0.00000000000E+00 -0.45593999997E+02  0.45594000000E+02  0.51100000000E-03 0.  1.
         23    2    1    2    0    0  0.88817841970E-15  0.35527136788E-14  0.71054273576E-14  0.91188000000E+02  0.91188000000E+02 0.  0.
    9900012    2    3    3    0    0  0.31571698597E+01 -0.27668228737E+02 -0.33288505195E+02  0.47787272113E+02  0.20000004874E+02 0.  0.
         12    1    3    3    0    0 -0.31571698597E+01  0.27668228737E+02  0.33288505195E+02  0.43400727887E+02  0.00000000000E+00 0. -1.
         11    1    4    4    0    0  0.74776590961E+01 -0.91461026538E+01 -0.66682281755E+01  0.13565833796E+02  0.51100000000E-03 0. -1.
        -11    1    4    4    0    0 -0.34182371720E+00 -0.16782045761E+02 -0.23478126586E+02  0.28861329346E+02  0.51100000000E-03 0.  1.
         12    1    4    4    0    0 -0.39786655192E+01 -0.17400803223E+01 -0.31421504338E+01  0.53601089719E+01  0.00000000000E+00 0. -1.
</event>
<event>
 8    1  0.6239251E-010  0.9118800E+02  0.7816164E-02  0.1184000E+00
        -11   -1    0    0    0    0  0.00000000000E+00  0.00000000000E+00  0.45593999997E+02  0.45594000000E+02  0.51100000000E-03 0. -1.
         11   -1    0    0    0    0 -0.00000000000E+00 -0.00000000000E+00 -0.45593999997E+02  0.45594000000E+02  0.51100000000E-03 0.  1.
         23    2    1    2    0    0  0.44408920985E-15  0.17763568394E-14  0.00000000000E+00  0.91188000000E+02  0.91188000000E+02 0.  0.
    9900012    2    3    3    0    0 -0.22562243073E+01 -0.14107452752E+02  0.40981859380E+02  0.47787267638E+02  0.19999984470E+02 0.  0.
        -12    1    3    3    0    0  0.22562243073E+01  0.14107452752E+02 -0.40981859380E+02  0.43400732362E+02  0.00000000000E+00 0.  1.
         11    1    4    4    0    0  0.37583439965E+01  0.10997481148E+01  0.96573504405E+01  0.10421085035E+02  0.51100000000E-03 0.  1.
        -11    1    4    4    0    0 -0.41751211547E+01 -0.11685681802E+02  0.30986444710E+02  0.33378833891E+02  0.51100000000E-03 0. -1.
        -12    1    4    4    0    0 -0.18394471491E+01 -0.35215190643E+01  0.33806422941E+00  0.39873487128E+01  0.00000000000E+00 0.  1.
</event>
<event>
 8    1  0.6239251E-010  0.9118800E+02  0.7816164E-02  0.1184000E+00
        -11   -1    0    0    0    0  0.00000000000E+00  0.00000000000E+00  0.45593999997E+02  0.45594000000E+02  0.51100000000E-03 0. -1.
         11   -1    0    0    0    0 -0.00000000000E+00 -0.00000000000E+00 -0.45593999997E+02  0.45594000000E+02  0.51100000000E-03 0.  1.
         23    2    1    2    0    0 -0.35527136788E-14  0.17763568394E-14 -0.35527136788E-14  0.91188000000E+02  0.91188000000E+02 0.  0.
    9900012    2    3    3    0    0  0.26121100715E+02 -0.14178342160E+02  0.31627298565E+02  0.47787270704E+02  0.19999998446E+02 0.  0.
        -12    1    3    3    0    0 -0.26121100715E+02  0.14178342160E+02 -0.31627298565E+02  0.43400729296E+02  0.00000000000E+00 0.  1.
         11    1    4    4    0    0  0.51200951352E+01 -0.13131220551E+02  0.96746816678E+01  0.17095139455E+02  0.51100000000E-03 0. -1.
        -11    1    4    4    0    0  0.12815689777E+02  0.11609124694E+01  0.11737253207E+02  0.17417024296E+02  0.51100000000E-03 0.  1.
         12    1    4    4    0    0  0.81853158024E+01 -0.22080340788E+01  0.10215363690E+02  0.13275106953E+02  0.00000000000E+00 0. -1.
</event>
<event>
 8    1  0.6239251E-010  0.9118800E+02  0.7816164E-02  0.1184000E+00
        -11   -1    0    0    0    0  0.00000000000E+00  0.00000000000E+00  0.45593999997E+02  0.45594000000E+02  0.51100000000E-03 0.  1.
         11   -1    0    0    0    0 -0.00000000000E+00 -0.00000000000E+00 -0.45593999997E+02  0.45594000000E+02  0.51100000000E-03 0. -1.
         23    2    1    2    0    0 -0.17763568394E-14  0.00000000000E+00  0.00000000000E+00  0.91188000000E+02  0.91188000000E+02 0.  0.
    9900012    2    3    3    0    0 -0.12363487968E+02 -0.31320141345E+02  0.27382772641E+02  0.47787270442E+02  0.19999997254E+02 0.  0.
        -12    1    3    3    0    0  0.12363487968E+02  0.31320141345E+02 -0.27382772641E+02  0.43400729558E+02  0.00000000000E+00 0.  1.
         11    1    4    4    0    0  0.92811187395E+00 -0.12894618928E+02  0.18112615156E+02  0.22253076573E+02  0.51100000000E-03 0.  1.
        -11    1    4    4    0    0 -0.10142164586E+02 -0.17933848491E+02  0.81203088916E+01  0.22145560299E+02  0.51100000000E-03 0. -1.
        -12    1    4    4    0    0 -0.31494352564E+01 -0.49167392651E+00  0.11498485942E+01  0.33886335703E+01  0.00000000000E+00 0.  1.
</event>
<event>
 8    1  0.6239251E-010  0.9118800E+02  0.7816164E-02  0.1184000E+00
        -11   -1    0    0    0    0  0.00000000000E+00  0.00000000000E+00  0.45593999997E+02  0.45594000000E+02  0.51100000000E-03 0. -1.
         11   -1    0    0    0    0 -0.00000000000E+00 -0.00000000000E+00 -0.45593999997E+02  0.45594000000E+02  0.51100000000E-03 0.  1.
         23    2    1    2    0    0  0.00000000000E+00  0.00000000000E+00  0.00000000000E+00  0.91188000000E+02  0.91188000000E+02 0.  0.
    9900012    2    3    3    0    0 -0.82858174363E+01 -0.22190237201E+01 -0.42544617771E+02  0.47787270304E+02  0.19999996625E+02 0.  0.
         12    1    3    3    0    0  0.82858174363E+01  0.22190237201E+01  0.42544617771E+02  0.43400729696E+02  0.00000000000E+00 0. -1.
         11    1    4    4    0    0  0.30772138675E+01  0.10543355897E+01 -0.60595518065E+00  0.33087838649E+01  0.51100000000E-03 0. -1.
        -11    1    4    4    0    0 -0.10115972656E+02 -0.54672684370E+01 -0.38703097380E+02  0.40375161597E+02  0.51100000000E-03 0.  1.
        -12    1    4    4    0    0 -0.12470586481E+01  0.21939091272E+01 -0.32355652105E+01  0.41033248423E+01  0.00000000000E+00 0.  1.
</event>
<event>
 8    1  0.6239251E-010  0.9118800E+02  0.7816164E-02  0.1184000E+00
        -11   -1    0    0    0    0  0.00000000000E+00  0.00000000000E+00  0.45593999997E+02  0.45594000000E+02  0.51100000000E-03 0. -1.
         11   -1    0    0    0    0 -0.00000000000E+00 -0.00000000000E+00 -0.45593999997E+02  0.45594000000E+02  0.51100000000E-03 0.  1.
         23    2    1    2    0    0  0.00000000000E+00  0.53290705182E-14 -0.17763568394E-14  0.91188000000E+02  0.91188000000E+02 0.  0.
    9900012    2    3    3    0    0  0.40004367335E+02  0.11121732828E+02  0.12632608342E+02  0.47787249540E+02  0.19999901951E+02 0.  0.
        -12    1    3    3    0    0 -0.40004367335E+02 -0.11121732828E+02 -0.12632608342E+02  0.43400750460E+02  0.00000000000E+00 0.  1.
         11    1    4    4    0    0  0.13109436116E+02  0.88978558777E+01  0.70295843264E+01  0.17333326587E+02  0.51100000000E-03 0. -1.
        -11    1    4    4    0    0  0.18984996990E+02 -0.40265051310E+01  0.11746643988E+01  0.19442805635E+02  0.51100000000E-03 0.  1.
        -12    1    4    4    0    0  0.79099342297E+01  0.62503820814E+01  0.44283596167E+01  0.11011117317E+02  0.00000000000E+00 0.  1.
</event>
<event>
 8    1  0.6239251E-010  0.9118800E+02  0.7816164E-02  0.1184000E+00
        -11   -1    0    0    0    0  0.00000000000E+00  0.00000000000E+00  0.45593999997E+02  0.45594000000E+02  0.51100000000E-03 0.  1.
         11   -1    0    0    0    0 -0.00000000000E+00 -0.00000000000E+00 -0.45593999997E+02  0.45594000000E+02  0.51100000000E-03 0. -1.
         23    2    1    2    0    0  0.35527136788E-14  0.00000000000E+00 -0.17763568394E-14  0.91188000000E+02  0.91188000000E+02 0.  0.
    9900012    2    3    3    0    0  0.18520455382E+02 -0.36926881563E+02 -0.13304950865E+02  0.47787267667E+02  0.19999984600E+02 0.  0.
         12    1    3    3    0    0 -0.18520455382E+02  0.36926881563E+02  0.13304950865E+02  0.43400732333E+02  0.00000000000E+00 0. -1.
         11    1    4    4    0    0 -0.69555443352E+00 -0.87870769020E+00  0.26235435941E+01  0.28528765178E+01  0.51100000000E-03 0. -1.
        -11    1    4    4    0    0  0.19493663030E+02 -0.36560297944E+02 -0.15665281171E+02  0.44295138768E+02  0.51100000000E-03 0.  1.
        -12    1    4    4    0    0 -0.27765321461E+00  0.51212407062E+00 -0.26321328844E+00  0.63925238091E+00  0.00000000000E+00 0.  1.
</event>
<event>
 8    1  0.6239251E-010  0.9118800E+02  0.7816164E-02  0.1184000E+00
        -11   -1    0    0    0    0  0.00000000000E+00  0.00000000000E+00  0.45593999997E+02  0.45594000000E+02  0.51100000000E-03 0. -1.
         11   -1    0    0    0    0 -0.00000000000E+00 -0.00000000000E+00 -0.45593999997E+02  0.45594000000E+02  0.51100000000E-03 0.  1.
         23    2    1    2    0    0  0.00000000000E+00  0.00000000000E+00  0.71054273576E-14  0.91188000000E+02  0.91188000000E+02 0.  0.
    9900012    2    3    3    0    0  0.86740748097E+01  0.16340332943E+02  0.39260376871E+02  0.47787271360E+02  0.20000001438E+02 0.  0.
        -12    1    3    3    0    0 -0.86740748097E+01 -0.16340332943E+02 -0.39260376871E+02  0.43400728640E+02  0.00000000000E+00 0.  1.
         11    1    4    4    0    0  0.68089897266E+01  0.54667910355E+01  0.14765817753E+02  0.17154518924E+02  0.51100000000E-03 0. -1.
        -11    1    4    4    0    0 -0.24513729883E+01  0.46580824283E+01  0.28874209645E+00  0.52716537914E+01  0.51100000000E-03 0.  1.
        -12    1    4    4    0    0  0.43164580714E+01  0.62154594790E+01  0.24205817021E+02  0.25361098645E+02  0.00000000000E+00 0.  1.
</event>
<event>
 8    1  0.6239251E-010  0.9118800E+02  0.7816164E-02  0.1184000E+00
        -11   -1    0    0    0    0  0.00000000000E+00  0.00000000000E+00  0.45593999997E+02  0.45594000000E+02  0.51100000000E-03 0. -1.
         11   -1    0    0    0    0 -0.00000000000E+00 -0.00000000000E+00 -0.45593999997E+02  0.45594000000E+02  0.51100000000E-03 0.  1.
         23    2    1    2    0    0 -0.88817841970E-15  0.00000000000E+00 -0.35527136788E-14  0.91188000000E+02  0.91188000000E+02 0.  0.
    9900012    2    3    3    0    0  0.46979233753E+01  0.30064931688E+02  0.30945962278E+02  0.47787272095E+02  0.20000004788E+02 0.  0.
        -12    1    3    3    0    0 -0.46979233753E+01 -0.30064931688E+02 -0.30945962278E+02  0.43400727905E+02  0.00000000000E+00 0.  1.
         11    1    4    4    0    0  0.54662839198E+01  0.17387723700E+02  0.23726213952E+02  0.29918997712E+02  0.51100000000E-03 0. -1.
        -11    1    4    4    0    0  0.62581704968E-01  0.53623082541E+01 -0.22990784067E+01  0.58347260487E+01  0.51100000000E-03 0.  1.
        -12    1    4    4    0    0 -0.83094224949E+00  0.73148997340E+01  0.95188267321E+01  0.12033548334E+02  0.00000000000E+00 0.  1.
</event>
<event>
 8    1  0.6239251E-010  0.9118800E+02  0.7816164E-02  0.1184000E+00
        -11   -1    0    0    0    0  0.00000000000E+00  0.00000000000E+00  0.45593999997E+02  0.45594000000E+02  0.51100000000E-03 0.  1.
         11   -1    0    0    0    0 -0.00000000000E+00 -0.00000000000E+00 -0.45593999997E+02  0.45594000000E+02  0.51100000000E-03 0. -1.
         23    2    1    2    0    0  0.71054273576E-14  0.35527136788E-14  0.00000000000E+00  0.91188000000E+02  0.91188000000E+02 0.  0.
    9900012    2    3    3    0    0 -0.32246510212E+02 -0.28560984214E+02  0.52967655681E+01  0.47787274596E+02  0.20000016192E+02 0.  0.
        -12    1    3    3    0    0  0.32246510212E+02  0.28560984214E+02 -0.52967655681E+01  0.43400725404E+02  0.00000000000E+00 0.  1.
         11    1    4    4    0    0 -0.24191564532E+02 -0.24752072606E+02  0.16664512313E+01  0.34650742456E+02  0.51100000000E-03 0. -1.
        -11    1    4    4    0    0 -0.11062256173E+01 -0.38891353195E+00  0.51176430498E+01  0.52502628028E+01  0.51100000000E-03 0.  1.
        -12    1    4    4    0    0 -0.69487200627E+01 -0.34199980759E+01 -0.14873287130E+01  0.78862693365E+01  0.00000000000E+00 0.  1.
</event>
<event>
 8    1  0.6239251E-010  0.9118800E+02  0.7816164E-02  0.1184000E+00
        -11   -1    0    0    0    0  0.00000000000E+00  0.00000000000E+00  0.45593999997E+02  0.45594000000E+02  0.51100000000E-03 0. -1.
         11   -1    0    0    0    0 -0.00000000000E+00 -0.00000000000E+00 -0.45593999997E+02  0.45594000000E+02  0.51100000000E-03 0.  1.
         23    2    1    2    0    0  0.88817841970E-15  0.00000000000E+00  0.71054273576E-14  0.91188000000E+02  0.91188000000E+02 0.  0.
    9900012    2    3    3    0    0 -0.23907512737E+01 -0.11494347041E+02  0.41782626110E+02  0.47787267861E+02  0.19999985486E+02 0.  0.
        -12    1    3    3    0    0  0.23907512737E+01  0.11494347041E+02 -0.41782626110E+02  0.43400732139E+02  0.00000000000E+00 0.  1.
         11    1    4    4    0    0  0.71673872357E+00 -0.17896879170E+01 -0.11810963345E+01  0.22609038128E+01  0.51100000000E-03 0. -1.
        -11    1    4    4    0    0 -0.11833730492E+01 -0.56317239694E+01  0.60911711907E+01  0.83796809830E+01  0.51100000000E-03 0.  1.
         12    1    4    4    0    0 -0.19241169481E+01 -0.40729351545E+01  0.36872551254E+02  0.37146683065E+02  0.00000000000E+00 0. -1.
</event>
<event>
 8    1  0.6239251E-010  0.9118800E+02  0.7816164E-02  0.1184000E+00
        -11   -1    0    0    0    0  0.00000000000E+00  0.00000000000E+00  0.45593999997E+02  0.45594000000E+02  0.51100000000E-03 0. -1.
         11   -1    0    0    0    0 -0.00000000000E+00 -0.00000000000E+00 -0.45593999997E+02  0.45594000000E+02  0.51100000000E-03 0.  1.
         23    2    1    2    0    0  0.00000000000E+00 -0.17763568394E-14  0.17763568394E-14  0.91188000000E+02  0.91188000000E+02 0.  0.
    9900012    2    3    3    0    0  0.39495715617E+02 -0.11969453815E+02 -0.13432938186E+02  0.47787271838E+02  0.20000003618E+02 0.  0.
         12    1    3    3    0    0 -0.39495715617E+02  0.11969453815E+02  0.13432938186E+02  0.43400728162E+02  0.00000000000E+00 0. -1.
         11    1    4    4    0    0  0.22097345529E+02 -0.14694929248E+02 -0.86681283049E+01  0.27917200318E+02  0.51100000000E-03 0.  1.
        -11    1    4    4    0    0  0.55821714606E+01 -0.25178564498E+01 -0.92863057328E-01  0.61244479854E+01  0.51100000000E-03 0. -1.
         12    1    4    4    0    0  0.11816198627E+02  0.52433318830E+01 -0.46719468236E+01  0.13745623534E+02  0.00000000000E+00 0. -1.
</event>
<event>
 8    1  0.6239251E-010  0.9118800E+02  0.7816164E-02  0.1184000E+00
        -11   -1    0    0    0    0  0.00000000000E+00  0.00000000000E+00  0.45593999997E+02  0.45594000000E+02  0.51100000000E-03 0. -1.
         11   -1    0    0    0    0 -0.00000000000E+00 -0.00000000000E+00 -0.45593999997E+02  0.45594000000E+02  0.51100000000E-03 0.  1.
         23    2    1    2    0    0 -0.35527136788E-14  0.00000000000E+00  0.17763568394E-14  0.91188000000E+02  0.91188000000E+02 0.  0.
    9900012    2    3    3    0    0 -0.30813132683E+02  0.26057661757E+02 -0.15974132367E+02  0.47787265135E+02  0.19999973055E+02 0.  0.
         12    1    3    3    0    0  0.30813132683E+02 -0.26057661757E+02  0.15974132367E+02  0.43400734865E+02  0.00000000000E+00 0. -1.
         11    1    4    4    0    0 -0.24146670545E+02  0.14963762727E+02 -0.10454064805E+02  0.30269842493E+02  0.51100000000E-03 0. -1.
        -11    1    4    4    0    0 -0.36311946604E+00  0.12198129708E+00  0.25046182183E+01  0.25337418700E+01  0.51100000000E-03 0.  1.
        -12    1    4    4    0    0 -0.63033426717E+01  0.10971917733E+02 -0.80246857810E+01  0.14983680772E+02  0.00000000000E+00 0.  1.
</event>
<event>
 8    1 -0.6239251E-010  0.9118800E+02  0.7816164E-02  0.1184000E+00
        -11   -1    0    0    0    0  0.00000000000E+00  0.00000000000E+00  0.45593999997E+02  0.45594000000E+02  0.51100000000E-03 0. -1.
         11   -1    0    0    0    0 -0.00000000000E+00 -0.00000000000E+00 -0.45593999997E+02  0.45594000000E+02  0.51100000000E-03 0.  1.
         23    2    1    2    0    0  0.17763568394E-14  0.88817841970E-15  0.00000000000E+00  0.91188000000E+02  0.91188000000E+02 0.  0.
    9900012    2    3    3    0    0  0.12993824876E+02  0.69756541094E+01 -0.40818182984E+02  0.47787270775E+02  0.19999998771E+02 0.  0.
         12    1    3    3    0    0 -0.12993824876E+02 -0.69756541094E+01  0.40818182984E+02  0.43400729225E+02  0.00000000000E+00 0. -1.
         11    1    4    4    0    0  0.14589898183E+02  0.11961388915E+02 -0.33334010805E+02  0.38302692208E+02  0.51100000000E-03 0. -1.
        -11    1    4    4    0    0 -0.11330533497E+01 -0.45927683053E+00 -0.21508757961E+01  0.24740679157E+01  0.51100000000E-03 0.  1.
         12    1    4    4    0    0 -0.46301995760E+00 -0.45264579752E+01 -0.53332963831E+01  0.70105106514E+01  0.00000000000E+00 0. -1.
</event>
<event>
 8    1  0.6239251E-010  0.9118800E+02  0.7816164E-02  0.1184000E+00
        -11   -1    0    0    0    0  0.00000000000E+00  0.00000000000E+00  0.45593999997E+02  0.45594000000E+02  0.51100000000E-03 0. -1.
         11   -1    0    0    0    0 -0.00000000000E+00 -0.00000000000E+00 -0.45593999997E+02  0.45594000000E+02  0.51100000000E-03 0.  1.
         23    2    1    2    0    0  0.71054273576E-14 -0.35527136788E-14  0.00000000000E+00  0.91188000000E+02  0.91188000000E+02 0.  0.
    9900012    2    3    3    0    0 -0.35602194632E+02  0.16207354357E+02  0.18799625408E+02  0.47787302847E+02  0.20000145000E+02 0.  0.
        -12    1    3    3    0    0  0.35602194632E+02 -0.16207354357E+02 -0.18799625408E+02  0.43400697153E+02  0.00000000000E+00 0.  1.
         11    1    4    4    0    0 -0.23724791273E+02  0.12703571243E+02  0.96140951141E+01  0.28577565823E+02  0.51100000000E-03 0. -1.
        -11    1    4    4    0    0 -0.21611321202E+00  0.16695663026E+01 -0.22260917931E+01  0.27909929222E+01  0.51100000000E-03 0.  1.
         12    1    4    4    0    0 -0.11661290148E+02  0.18342168110E+01  0.11411622087E+02  0.16418744102E+02  0.00000000000E+00 0. -1.
</event>
<event>
 8    1  0.6239251E-010  0.9118800E+02  0.7816164E-02  0.1184000E+00
        -11   -1    0    0    0    0  0.00000000000E+00  0.00000000000E+00  0.45593999997E+02  0.45594000000E+02  0.51100000000E-03 0. -1.
         11   -1    0    0    0    0 -0.00000000000E+00 -0.00000000000E+00 -0.45593999997E+02  0.45594000000E+02  0.51100000000E-03 0.  1.
         23    2    1    2    0    0  0.00000000000E+00  0.35527136788E-14  0.00000000000E+00  0.91188000000E+02  0.91188000000E+02 0.  0.
    9900012    2    3    3    0    0 -0.23222034387E+01 -0.22010297374E+02  0.37333326582E+02  0.47787273128E+02  0.20000009500E+02 0.  0.
        -12    1    3    3    0    0  0.23222034387E+01  0.22010297374E+02 -0.37333326582E+02  0.43400726872E+02  0.00000000000E+00 0.  1.
         11    1    4    4    0    0 -0.70286853692E+01 -0.57430115750E+01  0.17561421581E+02  0.19768361798E+02  0.51100000000E-03 0. -1.
        -11    1    4    4    0    0  0.15620556189E+01 -0.14966652079E+02  0.11087173208E+02  0.18691337625E+02  0.51100000000E-03 0.  1.
        -12    1    4    4    0    0  0.31444263116E+01 -0.13006337204E+01  0.86847317932E+01  0.93275737051E+01  0.00000000000E+00 0.  1.
</event>
<event>
 8    1  0.6239251E-010  0.9118800E+02  0.7816164E-02  0.1184000E+00
        -11   -1    0    0    0    0  0.00000000000E+00  0.00000000000E+00  0.45593999997E+02  0.45594000000E+02  0.51100000000E-03 0. -1.
         11   -1    0    0    0    0 -0.00000000000E+00 -0.00000000000E+00 -0.45593999997E+02  0.45594000000E+02  0.51100000000E-03 0.  1.
         23    2    1    2    0    0  0.00000000000E+00  0.00000000000E+00  0.00000000000E+00  0.91188000000E+02  0.91188000000E+02 0.  0.
    9900012    2    3    3    0    0  0.91185966928E+01  0.41573049035E+02 -0.84944670772E+01  0.47787272095E+02  0.20000004791E+02 0.  0.
         12    1    3    3    0    0 -0.91185966928E+01 -0.41573049035E+02  0.84944670772E+01  0.43400727905E+02  0.00000000000E+00 0. -1.
         11    1    4    4    0    0  0.10772124484E+02  0.14441098945E+02 -0.40407251947E+00  0.18020745808E+02  0.51100000000E-03 0. -1.
        -11    1    4    4    0    0  0.28123889507E+01  0.42106650594E+01 -0.29325037895E+01  0.58513939014E+01  0.51100000000E-03 0.  1.
         12    1    4    4    0    0 -0.44659167420E+01  0.22921285031E+02 -0.51578907682E+01  0.23915132385E+02  0.00000000000E+00 0. -1.
</event>
<event>
 8    1  0.6239251E-010  0.9118800E+02  0.7816164E-02  0.1184000E+00
        -11   -1    0    0    0    0  0.00000000000E+00  0.00000000000E+00  0.45593999997E+02  0.45594000000E+02  0.51100000000E-03 0. -1.
         11   -1    0    0    0    0 -0.00000000000E+00 -0.00000000000E+00 -0.45593999997E+02  0.45594000000E+02  0.51100000000E-03 0.  1.
         23    2    1    2    0    0  0.88817841970E-15  0.00000000000E+00  0.00000000000E+00  0.91188000000E+02  0.91188000000E+02 0.  0.
    9900012    2    3    3    0    0  0.55634982595E+01 -0.77666341892E+01  0.42336154555E+02  0.47787273024E+02  0.20000009025E+02 0.  0.
        -12    1    3    3    0    0 -0.55634982595E+01  0.77666341892E+01 -0.42336154555E+02  0.43400726976E+02  0.00000000000E+00 0.  1.
         11    1    4    4    0    0  0.28809882651E+01 -0.73716379654E+00  0.15285962373E+01  0.33436672329E+01  0.51100000000E-03 0.  1.
        -11    1    4    4    0    0  0.55193308447E+01 -0.11162864037E+02  0.31492866777E+02  0.33865516452E+02  0.51100000000E-03 0. -1.
        -12    1    4    4    0    0 -0.28368208504E+01  0.41333936440E+01  0.93146915409E+01  0.10578089339E+02  0.00000000000E+00 0.  1.
</event>
<event>
 8    1  0.6239251E-010  0.9118800E+02  0.7816164E-02  0.1184000E+00
        -11   -1    0    0    0    0  0.00000000000E+00  0.00000000000E+00  0.45593999997E+02  0.45594000000E+02  0.51100000000E-03 0. -1.
         11   -1    0    0    0    0 -0.00000000000E+00 -0.00000000000E+00 -0.45593999997E+02  0.45594000000E+02  0.51100000000E-03 0.  1.
         23    2    1    2    0    0  0.35527136788E-14  0.71054273576E-14 -0.88817841970E-15  0.91188000000E+02  0.91188000000E+02 0.  0.
    9900012    2    3    3    0    0 -0.19695996185E+02 -0.38066340904E+02 -0.68301104786E+01  0.47787205253E+02  0.19999700028E+02 0.  0.
         12    1    3    3    0    0  0.19695996185E+02  0.38066340904E+02  0.68301104786E+01  0.43400794747E+02  0.00000000000E+00 0. -1.
         11    1    4    4    0    0 -0.63520014323E+00 -0.14021733673E+02  0.29196076640E+01  0.14336547827E+02  0.51100000000E-03 0. -1.
        -11    1    4    4    0    0 -0.13530001421E+02 -0.19379962776E+02 -0.11063956665E+02  0.26097031115E+02  0.51100000000E-03 0.  1.
        -12    1    4    4    0    0 -0.55307946213E+01 -0.46646444542E+01  0.13142385228E+01  0.73536263110E+01  0.00000000000E+00 0.  1.
</event>
<event>
 8    1  0.6239251E-010  0.9118800E+02  0.7816164E-02  0.1184000E+00
        -11   -1    0    0    0    0  0.00000000000E+00  0.00000000000E+00  0.45593999997E+02  0.45594000000E+02  0.51100000000E-03 0. -1.
         11   -1    0    0    0    0 -0.00000000000E+00 -0.00000000000E+00 -0.45593999997E+02  0.45594000000E+02  0.51100000000E-03 0.  1.
         23    2    1    2    0    0  0.00000000000E+00  0.71054273576E-14  0.00000000000E+00  0.91188000000E+02  0.91188000000E+02 0.  0.
    9900012    2    3    3    0    0  0.22631743628E+02  0.32689822936E+02  0.17401251003E+02  0.47787264065E+02  0.19999968179E+02 0.  0.
        -12    1    3    3    0    0 -0.22631743628E+02 -0.32689822936E+02 -0.17401251003E+02  0.43400735935E+02  0.00000000000E+00 0.  1.
         11    1    4    4    0    0  0.14258561788E+02  0.90395605605E+01  0.31522797735E+01  0.17174315341E+02  0.51100000000E-03 0. -1.
        -11    1    4    4    0    0  0.30272611452E+01  0.73419299358E+00  0.36677217448E+01  0.48120195814E+01  0.51100000000E-03 0.  1.
         12    1    4    4    0    0  0.53459206946E+01  0.22916069382E+02  0.10581249485E+02  0.25800929143E+02  0.00000000000E+00 0. -1.
</event>
<event>
 8    1  0.6239251E-010  0.9118800E+02  0.7816164E-02  0.1184000E+00
        -11   -1    0    0    0    0  0.00000000000E+00  0.00000000000E+00  0.45593999997E+02  0.45594000000E+02  0.51100000000E-03 0. -1.
         11   -1    0    0    0    0 -0.00000000000E+00 -0.00000000000E+00 -0.45593999997E+02  0.45594000000E+02  0.51100000000E-03 0.  1.
         23    2    1    2    0    0  0.00000000000E+00 -0.22204460493E-15  0.71054273576E-14  0.91188000000E+02  0.91188000000E+02 0.  0.
    9900012    2    3    3    0    0 -0.13537947203E+02 -0.19917916727E+01  0.41187141478E+02  0.47787264158E+02  0.19999968601E+02 0.  0.
        -12    1    3    3    0    0  0.13537947203E+02  0.19917916727E+01 -0.41187141478E+02  0.43400735842E+02  0.00000000000E+00 0.  1.
         11    1    4    4    0    0  0.14389974612E+01  0.14763637244E+01  0.22278171518E+00  0.20736430488E+01  0.51100000000E-03 0. -1.
        -11    1    4    4    0    0 -0.16012945110E+02 -0.12248456588E+01  0.39923157214E+02  0.43032233734E+02  0.51100000000E-03 0.  1.
        -12    1    4    4    0    0  0.10360004461E+01 -0.22433097383E+01  0.10412025489E+01  0.26813873749E+01  0.00000000000E+00 0.  1.
</event>
<event>
 8    1  0.6239251E-010  0.9118800E+02  0.7816164E-02  0.1184000E+00
        -11   -1    0    0    0    0  0.00000000000E+00  0.00000000000E+00  0.45593999997E+02  0.45594000000E+02  0.51100000000E-03 0.  1.
         11   -1    0    0    0    0 -0.00000000000E+00 -0.00000000000E+00 -0.45593999997E+02  0.45594000000E+02  0.51100000000E-03 0. -1.
         23    2    1    2    0    0  0.00000000000E+00  0.00000000000E+00  0.00000000000E+00  0.91188000000E+02  0.91188000000E+02 0.  0.
    9900012    2    3    3    0    0 -0.41142333338E+02 -0.65783597092E+01 -0.12151481488E+02  0.47787252181E+02  0.19999913993E+02 0.  0.
         12    1    3    3    0    0  0.41142333338E+02  0.65783597092E+01  0.12151481488E+02  0.43400747819E+02  0.00000000000E+00 0. -1.
         11    1    4    4    0    0 -0.15107317057E+02 -0.11771220431E+02 -0.45920960448E+01  0.19694669468E+02  0.51100000000E-03 0.  1.
        -11    1    4    4    0    0 -0.19225614404E+02  0.53547074428E+01 -0.73821885947E+01  0.21278953210E+02  0.51100000000E-03 0. -1.
         12    1    4    4    0    0 -0.68094018766E+01 -0.16184672085E+00 -0.17719684798E+00  0.68136295027E+01  0.00000000000E+00 0. -1.
</event>
<event>
 8    1  0.6239251E-010  0.9118800E+02  0.7816164E-02  0.1184000E+00
        -11   -1    0    0    0    0  0.00000000000E+00  0.00000000000E+00  0.45593999997E+02  0.45594000000E+02  0.51100000000E-03 0. -1.
         11   -1    0    0    0    0 -0.00000000000E+00 -0.00000000000E+00 -0.45593999997E+02  0.45594000000E+02  0.51100000000E-03 0.  1.
         23    2    1    2    0    0  0.88817841970E-15  0.00000000000E+00  0.00000000000E+00  0.91188000000E+02  0.91188000000E+02 0.  0.
    9900012    2    3    3    0    0 -0.17683740099E+01 -0.32974035054E+02  0.28163967512E+02  0.47787271891E+02  0.20000003858E+02 0.  0.
        -12    1    3    3    0    0  0.17683740099E+01  0.32974035054E+02 -0.28163967512E+02  0.43400728109E+02  0.00000000000E+00 0.  1.
         11    1    4    4    0    0  0.34223325920E+01 -0.28868763484E+02  0.19580648292E+02  0.35050244696E+02  0.51100000000E-03 0. -1.
        -11    1    4    4    0    0  0.76434590873E+00  0.48619179582E+00  0.36092072404E+01  0.37211536243E+01  0.51100000000E-03 0.  1.
         12    1    4    4    0    0 -0.59550525107E+01 -0.45914633660E+01  0.49741119792E+01  0.90158735699E+01  0.00000000000E+00 0. -1.
</event>
<event>
 8    1  0.6239251E-010  0.9118800E+02  0.7816164E-02  0.1184000E+00
        -11   -1    0    0    0    0  0.00000000000E+00  0.00000000000E+00  0.45593999997E+02  0.45594000000E+02  0.51100000000E-03 0. -1.
         11   -1    0    0    0    0 -0.00000000000E+00 -0.00000000000E+00 -0.45593999997E+02  0.45594000000E+02  0.51100000000E-03 0.  1.
         23    2    1    2    0    0 -0.35527136788E-14  0.00000000000E+00  0.00000000000E+00  0.91188000000E+02  0.91188000000E+02 0.  0.
    9900012    2    3    3    0    0  0.24918880876E+02  0.21573506563E+02  0.28235718264E+02  0.47787278860E+02  0.20000035635E+02 0.  0.
        -12    1    3    3    0    0 -0.24918880876E+02 -0.21573506563E+02 -0.28235718264E+02  0.43400721140E+02  0.00000000000E+00 0.  1.
         11    1    4    4    0    0  0.19071067889E+01  0.34624401094E+01  0.51286827234E+01  0.64752555590E+01  0.51100000000E-03 0. -1.
        -11    1    4    4    0    0  0.37440896840E+00  0.81086623890E+01  0.11241638780E+02  0.13865966629E+02  0.51100000000E-03 0.  1.
        -12    1    4    4    0    0  0.22637365119E+02  0.10002404065E+02  0.11865396761E+02  0.27446056673E+02  0.00000000000E+00 0.  1.
</event>
<event>
 8    1  0.6239251E-010  0.9118800E+02  0.7816164E-02  0.1184000E+00
        -11   -1    0    0    0    0  0.00000000000E+00  0.00000000000E+00  0.45593999997E+02  0.45594000000E+02  0.51100000000E-03 0. -1.
         11   -1    0    0    0    0 -0.00000000000E+00 -0.00000000000E+00 -0.45593999997E+02  0.45594000000E+02  0.51100000000E-03 0.  1.
         23    2    1    2    0    0  0.00000000000E+00  0.00000000000E+00  0.00000000000E+00  0.91188000000E+02  0.91188000000E+02 0.  0.
    9900012    2    3    3    0    0  0.52211726302E+00 -0.36894161022E+02 -0.22851080789E+02  0.47787267090E+02  0.19999981969E+02 0.  0.
         12    1    3    3    0    0 -0.52211726302E+00  0.36894161022E+02  0.22851080789E+02  0.43400732910E+02  0.00000000000E+00 0. -1.
         11    1    4    4    0    0 -0.12281978596E+01 -0.18498389229E+01  0.16146997709E+01  0.27454743915E+01  0.51100000000E-03 0. -1.
        -11    1    4    4    0    0  0.72725831756E+00 -0.34738845430E+02 -0.25840020439E+02  0.43301535112E+02  0.51100000000E-03 0.  1.
        -12    1    4    4    0    0  0.10230568051E+01 -0.30547666860E+00  0.13742398794E+01  0.17402575866E+01  0.00000000000E+00 0.  1.
</event>
<event>
 8    1  0.6239251E-010  0.9118800E+02  0.7816164E-02  0.1184000E+00
        -11   -1    0    0    0    0  0.00000000000E+00  0.00000000000E+00  0.45593999997E+02  0.45594000000E+02  0.51100000000E-03 0. -1.
         11   -1    0    0    0    0 -0.00000000000E+00 -0.00000000000E+00 -0.45593999997E+02  0.45594000000E+02  0.51100000000E-03 0.  1.
         23    2    1    2    0    0  0.00000000000E+00  0.00000000000E+00  0.00000000000E+00  0.91188000000E+02  0.91188000000E+02 0.  0.
    9900012    2    3    3    0    0  0.14820021927E+02 -0.21139890143E+02  0.34886891767E+02  0.47787271638E+02  0.20000002706E+02 0.  0.
        -12    1    3    3    0    0 -0.14820021927E+02  0.21139890143E+02 -0.34886891767E+02  0.43400728362E+02  0.00000000000E+00 0.  1.
         11    1    4    4    0    0 -0.49280067153E+00 -0.60465062529E+01  0.43813411888E+01  0.74832640767E+01  0.51100000000E-03 0. -1.
        -11    1    4    4    0    0 -0.25102651638E+01 -0.51734391458E+00  0.67560913527E+01  0.72259149280E+01  0.51100000000E-03 0.  1.
        -12    1    4    4    0    0  0.17823087762E+02 -0.14576039976E+02  0.23749459226E+02  0.33078092633E+02  0.00000000000E+00 0.  1.
</event>
<event>
 8    1  0.6239251E-010  0.9118800E+02  0.7816164E-02  0.1184000E+00
        -11   -1    0    0    0    0  0.00000000000E+00  0.00000000000E+00  0.45593999997E+02  0.45594000000E+02  0.51100000000E-03 0. -1.
         11   -1    0    0    0    0 -0.00000000000E+00 -0.00000000000E+00 -0.45593999997E+02  0.45594000000E+02  0.51100000000E-03 0.  1.
         23    2    1    2    0    0  0.17763568394E-14  0.00000000000E+00 -0.71054273576E-14  0.91188000000E+02  0.91188000000E+02 0.  0.
    9900012    2    3    3    0    0 -0.12431965040E+02 -0.22917469332E+02  0.34696672420E+02  0.47787271523E+02  0.20000002180E+02 0.  0.
        -12    1    3    3    0    0  0.12431965040E+02  0.22917469332E+02 -0.34696672420E+02  0.43400728477E+02  0.00000000000E+00 0.  1.
         11    1    4    4    0    0 -0.93972181110E+01 -0.66611550307E+01  0.16259370289E+02  0.19926008558E+02  0.51100000000E-03 0. -1.
        -11    1    4    4    0    0 -0.40704779955E+01 -0.17960523506E+02  0.14469234800E+02  0.23420246618E+02  0.51100000000E-03 0.  1.
        -12    1    4    4    0    0  0.10357310666E+01  0.17042092039E+01  0.39680673302E+01  0.44410163465E+01  0.00000000000E+00 0.  1.
</event>
<event>
 8    1  0.6239251E-010  0.9118800E+02  0.7816164E-02  0.1184000E+00
        -11   -1    0    0    0    0  0.00000000000E+00  0.00000000000E+00  0.45593999997E+02  0.45594000000E+02  0.51100000000E-03 0. -1.
         11   -1    0    0    0    0 -0.00000000000E+00 -0.00000000000E+00 -0.45593999997E+02  0.45594000000E+02  0.51100000000E-03 0.  1.
         23    2    1    2    0    0  0.00000000000E+00  0.00000000000E+00 -0.35527136788E-14  0.91188000000E+02  0.91188000000E+02 0.  0.
    9900012    2    3    3    0    0  0.11034113588E+01 -0.34835544395E+02  0.25862918525E+02  0.47787271613E+02  0.20000002591E+02 0.  0.
        -12    1    3    3    0    0 -0.11034113588E+01  0.34835544395E+02 -0.25862918525E+02  0.43400728387E+02  0.00000000000E+00 0.  1.
         11    1    4    4    0    0 -0.36956977533E+01 -0.94964158350E+01  0.12713059691E+02  0.16293004099E+02  0.51100000000E-03 0. -1.
        -11    1    4    4    0    0  0.16119945570E+01 -0.12327255151E+02  0.13151767300E+02  0.18097754816E+02  0.51100000000E-03 0.  1.
        -12    1    4    4    0    0  0.31871145550E+01 -0.13011873409E+02 -0.19084671705E-02  0.13396512697E+02  0.00000000000E+00 0.  1.
</event>
<event>
 8    1  0.6239251E-010  0.9118800E+02  0.7816164E-02  0.1184000E+00
        -11   -1    0    0    0    0  0.00000000000E+00  0.00000000000E+00  0.45593999997E+02  0.45594000000E+02  0.51100000000E-03 0. -1.
         11   -1    0    0    0    0 -0.00000000000E+00 -0.00000000000E+00 -0.45593999997E+02  0.45594000000E+02  0.51100000000E-03 0.  1.
         23    2    1    2    0    0  0.00000000000E+00  0.00000000000E+00  0.88817841970E-15  0.91188000000E+02  0.91188000000E+02 0.  0.
    9900012    2    3    3    0    0 -0.19848652176E+02  0.38287279599E+02  0.48722155139E+01  0.47787271246E+02  0.20000000921E+02 0.  0.
        -12    1    3    3    0    0  0.19848652176E+02 -0.38287279599E+02 -0.48722155139E+01  0.43400728754E+02  0.00000000000E+00 0.  1.
         11    1    4    4    0    0 -0.10620586665E+02  0.33549494684E+02  0.39113768637E+01  0.35407122502E+02  0.51100000000E-03 0. -1.
        -11    1    4    4    0    0 -0.57784886253E+01  0.54078423928E+00  0.30539057579E+01  0.65581795511E+01  0.51100000000E-03 0.  1.
        -12    1    4    4    0    0 -0.34495768862E+01  0.41970006764E+01 -0.20930671077E+01  0.58219691933E+01  0.00000000000E+00 0.  1.
</event>
<event>
 8    1  0.6239251E-010  0.9118800E+02  0.7816164E-02  0.1184000E+00
        -11   -1    0    0    0    0  0.00000000000E+00  0.00000000000E+00  0.45593999997E+02  0.45594000000E+02  0.51100000000E-03 0. -1.
         11   -1    0    0    0    0 -0.00000000000E+00 -0.00000000000E+00 -0.45593999997E+02  0.45594000000E+02  0.51100000000E-03 0.  1.
         23    2    1    2    0    0  0.00000000000E+00  0.17763568394E-14 -0.71054273576E-14  0.91188000000E+02  0.91188000000E+02 0.  0.
    9900012    2    3    3    0    0  0.16111106055E+02 -0.15710360613E+02  0.37111194354E+02  0.47787263655E+02  0.19999966308E+02 0.  0.
        -12    1    3    3    0    0 -0.16111106055E+02  0.15710360613E+02 -0.37111194354E+02  0.43400736345E+02  0.00000000000E+00 0.  1.
         11    1    4    4    0    0  0.11783491467E+02 -0.13965104008E+02  0.20847777256E+02  0.27721915841E+02  0.51100000000E-03 0. -1.
        -11    1    4    4    0    0  0.23233340315E+01  0.12809469373E+01 -0.67892465611E+00  0.27385479780E+01  0.51100000000E-03 0.  1.
        -12    1    4    4    0    0  0.20042805556E+01 -0.30262035418E+01  0.16942341755E+02  0.17326799836E+02  0.00000000000E+00 0.  1.
</event>
<event>
 8    1  0.6239251E-010  0.9118800E+02  0.7816164E-02  0.1184000E+00
        -11   -1    0    0    0    0  0.00000000000E+00  0.00000000000E+00  0.45593999997E+02  0.45594000000E+02  0.51100000000E-03 0. -1.
         11   -1    0    0    0    0 -0.00000000000E+00 -0.00000000000E+00 -0.45593999997E+02  0.45594000000E+02  0.51100000000E-03 0.  1.
         23    2    1    2    0    0  0.00000000000E+00  0.35527136788E-14  0.00000000000E+00  0.91188000000E+02  0.91188000000E+02 0.  0.
    9900012    2    3    3    0    0 -0.17751527220E+02 -0.14042100088E+02 -0.37031413139E+02  0.47787275898E+02  0.20000022128E+02 0.  0.
         12    1    3    3    0    0  0.17751527220E+02  0.14042100088E+02  0.37031413139E+02  0.43400724102E+02  0.00000000000E+00 0. -1.
         11    1    4    4    0    0  0.19019778903E+01  0.23287461623E+01 -0.52688968591E+01  0.60664530787E+01  0.51100000000E-03 0. -1.
        -11    1    4    4    0    0 -0.51161412790E+01 -0.53957891293E+01 -0.15957011727E+02  0.17604421758E+02  0.51100000000E-03 0.  1.
         12    1    4    4    0    0 -0.14537363831E+02 -0.10975057121E+02 -0.15805504554E+02  0.24116401061E+02  0.00000000000E+00 0. -1.
</event>
<event>
 8    1  0.6239251E-010  0.9118800E+02  0.7816164E-02  0.1184000E+00
        -11   -1    0    0    0    0  0.00000000000E+00  0.00000000000E+00  0.45593999997E+02  0.45594000000E+02  0.51100000000E-03 0. -1.
         11   -1    0    0    0    0 -0.00000000000E+00 -0.00000000000E+00 -0.45593999997E+02  0.45594000000E+02  0.51100000000E-03 0.  1.
         23    2    1    2    0    0  0.00000000000E+00  0.44408920985E-15  0.00000000000E+00  0.91188000000E+02  0.91188000000E+02 0.  0.
    9900012    2    3    3    0    0  0.42544829107E+02  0.21711728233E+01 -0.82973559466E+01  0.47787278913E+02  0.20000035875E+02 0.  0.
         12    1    3    3    0    0 -0.42544829107E+02 -0.21711728233E+01  0.82973559466E+01  0.43400721087E+02  0.00000000000E+00 0. -1.
         11    1    4    4    0    0  0.43488087298E+00  0.11499530279E+01 -0.73543209088E+00  0.14326108898E+01  0.51100000000E-03 0.  1.
        -11    1    4    4    0    0  0.11320500499E+01  0.40874598132E+01  0.10502761037E+01  0.43694330520E+01  0.51100000000E-03 0. -1.
        -12    1    4    4    0    0  0.40977898184E+02 -0.30662400179E+01 -0.86121999594E+01  0.41985234971E+02  0.00000000000E+00 0.  1.
</event>
<event>
 8    1  0.6239251E-010  0.9118800E+02  0.7816164E-02  0.1184000E+00
        -11   -1    0    0    0    0  0.00000000000E+00  0.00000000000E+00  0.45593999997E+02  0.45594000000E+02  0.51100000000E-03 0. -1.
         11   -1    0    0    0    0 -0.00000000000E+00 -0.00000000000E+00 -0.45593999997E+02  0.45594000000E+02  0.51100000000E-03 0.  1.
         23    2    1    2    0    0  0.00000000000E+00  0.35527136788E-14  0.00000000000E+00  0.91188000000E+02  0.91188000000E+02 0.  0.
    9900012    2    3    3    0    0 -0.10486213040E+02 -0.25136365826E+02 -0.33790913611E+02  0.47787269666E+02  0.19999993716E+02 0.  0.
         12    1    3    3    0    0  0.10486213040E+02  0.25136365826E+02  0.33790913611E+02  0.43400730334E+02  0.00000000000E+00 0. -1.
         11    1    4    4    0    0 -0.10794627410E+02 -0.92705797218E+01 -0.85720928472E+01  0.16611694836E+02  0.51100000000E-03 0. -1.
        -11    1    4    4    0    0 -0.23717020216E+01 -0.15387915527E+02 -0.22130045936E+02  0.27058304606E+02  0.51100000000E-03 0.  1.
         12    1    4    4    0    0  0.26801163913E+01 -0.47787057684E+00 -0.30887748276E+01  0.41172702237E+01  0.00000000000E+00 0. -1.
</event>
<event>
 8    1  0.6239251E-010  0.9118800E+02  0.7816164E-02  0.1184000E+00
        -11   -1    0    0    0    0  0.00000000000E+00  0.00000000000E+00  0.45593999997E+02  0.45594000000E+02  0.51100000000E-03 0. -1.
         11   -1    0    0    0    0 -0.00000000000E+00 -0.00000000000E+00 -0.45593999997E+02  0.45594000000E+02  0.51100000000E-03 0.  1.
         23    2    1    2    0    0  0.17763568394E-14  0.00000000000E+00  0.00000000000E+00  0.91188000000E+02  0.91188000000E+02 0.  0.
    9900012    2    3    3    0    0 -0.82783619926E+01 -0.38188622147E+01 -0.42432407103E+02  0.47787260854E+02  0.19999953538E+02 0.  0.
         12    1    3    3    0    0  0.82783619926E+01  0.38188622147E+01  0.42432407103E+02  0.43400739146E+02  0.00000000000E+00 0. -1.
         11    1    4    4    0    0 -0.10237045133E+02  0.42988388077E+01 -0.20524062777E+02  0.23334829361E+02  0.51100000000E-03 0. -1.
        -11    1    4    4    0    0  0.25803259541E+01 -0.83745489055E+01 -0.22082452007E+02  0.23757647996E+02  0.51100000000E-03 0.  1.
        -12    1    4    4    0    0 -0.62164281372E+00  0.25684788300E+00  0.17410768199E+00  0.69478349705E+00  0.00000000000E+00 0.  1.
</event>
<event>
 8    1  0.6239251E-010  0.9118800E+02  0.7816164E-02  0.1184000E+00
        -11   -1    0    0    0    0  0.00000000000E+00  0.00000000000E+00  0.45593999997E+02  0.45594000000E+02  0.51100000000E-03 0. -1.
         11   -1    0    0    0    0 -0.00000000000E+00 -0.00000000000E+00 -0.45593999997E+02  0.45594000000E+02  0.51100000000E-03 0.  1.
         23    2    1    2    0    0  0.00000000000E+00  0.88817841970E-15 -0.71054273576E-14  0.91188000000E+02  0.91188000000E+02 0.  0.
    9900012    2    3    3    0    0  0.24592251217E+02  0.68201119438E+01  0.35104567256E+02  0.47787269717E+02  0.19999993949E+02 0.  0.
        -12    1    3    3    0    0 -0.24592251217E+02 -0.68201119438E+01 -0.35104567256E+02  0.43400730283E+02  0.00000000000E+00 0.  1.
         11    1    4    4    0    0  0.99206572042E+00  0.41106982024E+00 -0.12250469146E+01  0.16290834831E+01  0.51100000000E-03 0.  1.
        -11    1    4    4    0    0  0.11355678269E+02  0.81691203641E+01  0.10407383171E+02  0.17435583764E+02  0.51100000000E-03 0. -1.
         12    1    4    4    0    0  0.12244507228E+02 -0.17600782405E+01  0.25922231000E+02  0.28722602470E+02  0.00000000000E+00 0. -1.
</event>
<event>
 8    1  0.6239251E-010  0.9118800E+02  0.7816164E-02  0.1184000E+00
        -11   -1    0    0    0    0  0.00000000000E+00  0.00000000000E+00  0.45593999997E+02  0.45594000000E+02  0.51100000000E-03 0.  1.
         11   -1    0    0    0    0 -0.00000000000E+00 -0.00000000000E+00 -0.45593999997E+02  0.45594000000E+02  0.51100000000E-03 0. -1.
         23    2    1    2    0    0  0.44408920985E-15  0.00000000000E+00  0.35527136788E-14  0.91188000000E+02  0.91188000000E+02 0.  0.
    9900012    2    3    3    0    0  0.27373209993E+01 -0.39839499362E+02  0.16998348223E+02  0.47787280214E+02  0.20000041808E+02 0.  0.
         12    1    3    3    0    0 -0.27373209993E+01  0.39839499362E+02 -0.16998348223E+02  0.43400719786E+02  0.00000000000E+00 0. -1.
         11    1    4    4    0    0 -0.16932604590E+01 -0.44959562443E+01 -0.40431617184E+01  0.62791647912E+01  0.51100000000E-03 0. -1.
        -11    1    4    4    0    0  0.13366317438E+01 -0.21924853342E+02  0.11934259170E+02  0.24998246353E+02  0.51100000000E-03 0.  1.
         12    1    4    4    0    0  0.30939497145E+01 -0.13418689775E+02  0.91072507710E+01  0.16509869070E+02  0.00000000000E+00 0. -1.
</event>
<event>
 8    1  0.6239251E-010  0.9118800E+02  0.7816164E-02  0.1184000E+00
        -11   -1    0    0    0    0  0.00000000000E+00  0.00000000000E+00  0.45593999997E+02  0.45594000000E+02  0.51100000000E-03 0.  1.
         11   -1    0    0    0    0 -0.00000000000E+00 -0.00000000000E+00 -0.45593999997E+02  0.45594000000E+02  0.51100000000E-03 0. -1.
         23    2    1    2    0    0  0.00000000000E+00  0.17763568394E-14  0.17763568394E-14  0.91188000000E+02  0.91188000000E+02 0.  0.
    9900012    2    3    3    0    0 -0.40744865669E+02 -0.14581397509E+02  0.32957891623E+01  0.47787268924E+02  0.19999990334E+02 0.  0.
        -12    1    3    3    0    0  0.40744865669E+02  0.14581397509E+02 -0.32957891623E+01  0.43400731076E+02  0.00000000000E+00 0.  1.
         11    1    4    4    0    0 -0.18062183170E+02 -0.11502087305E+02 -0.58016081525E+01  0.22185561310E+02  0.51100000000E-03 0. -1.
        -11    1    4    4    0    0 -0.18031056571E+02 -0.41615763956E+01  0.46605771378E+01  0.19082942611E+02  0.51100000000E-03 0.  1.
         12    1    4    4    0    0 -0.46516259285E+01  0.10822661922E+01  0.44368201770E+01  0.65187650036E+01  0.00000000000E+00 0. -1.
</event>
<event>
 8    1  0.6239251E-010  0.9118800E+02  0.7816164E-02  0.1184000E+00
        -11   -1    0    0    0    0  0.00000000000E+00  0.00000000000E+00  0.45593999997E+02  0.45594000000E+02  0.51100000000E-03 0. -1.
         11   -1    0    0    0    0 -0.00000000000E+00 -0.00000000000E+00 -0.45593999997E+02  0.45594000000E+02  0.51100000000E-03 0.  1.
         23    2    1    2    0    0  0.00000000000E+00  0.00000000000E+00  0.00000000000E+00  0.91188000000E+02  0.91188000000E+02 0.  0.
    9900012    2    3    3    0    0  0.17712101702E+02 -0.15070091240E+01 -0.39593355330E+02  0.47787269482E+02  0.19999992877E+02 0.  0.
         12    1    3    3    0    0 -0.17712101702E+02  0.15070091240E+01  0.39593355330E+02  0.43400730518E+02  0.00000000000E+00 0. -1.
         11    1    4    4    0    0  0.25160613875E+00 -0.36309273438E+00  0.60520917020E+00  0.74927991007E+00  0.51100000000E-03 0. -1.
        -11    1    4    4    0    0  0.40484561060E+01  0.37397760615E+01 -0.13845448047E+01  0.56826830291E+01  0.51100000000E-03 0.  1.
        -12    1    4    4    0    0  0.13412039457E+02 -0.48836924511E+01 -0.38814019695E+02  0.41355306543E+02  0.00000000000E+00 0.  1.
</event>
<event>
 8    1  0.6239251E-010  0.9118800E+02  0.7816164E-02  0.1184000E+00
        -11   -1    0    0    0    0  0.00000000000E+00  0.00000000000E+00  0.45593999997E+02  0.45594000000E+02  0.51100000000E-03 0. -1.
         11   -1    0    0    0    0 -0.00000000000E+00 -0.00000000000E+00 -0.45593999997E+02  0.45594000000E+02  0.51100000000E-03 0.  1.
         23    2    1    2    0    0  0.22204460493E-15  0.44408920985E-15 -0.71054273576E-14  0.91188000000E+02  0.91188000000E+02 0.  0.
    9900012    2    3    3    0    0  0.65031495217E+00 -0.24505235869E+01  0.43326628426E+02  0.47787254544E+02  0.19999924768E+02 0.  0.
        -12    1    3    3    0    0 -0.65031495217E+00  0.24505235869E+01 -0.43326628426E+02  0.43400745456E+02  0.00000000000E+00 0.  1.
         11    1    4    4    0    0  0.73873938818E+01  0.39158109537E+01  0.10194178630E+02  0.13184401465E+02  0.51100000000E-03 0.  1.
        -11    1    4    4    0    0 -0.17767210632E+01 -0.28983260495E+01  0.17748045687E+02  0.18070698868E+02  0.51100000000E-03 0. -1.
         12    1    4    4    0    0 -0.49603578664E+01 -0.34680084911E+01  0.15384404109E+02  0.16532154211E+02  0.00000000000E+00 0. -1.
</event>
<event>
 8    1  0.6239251E-010  0.9118800E+02  0.7816164E-02  0.1184000E+00
        -11   -1    0    0    0    0  0.00000000000E+00  0.00000000000E+00  0.45593999997E+02  0.45594000000E+02  0.51100000000E-03 0.  1.
         11   -1    0    0    0    0 -0.00000000000E+00 -0.00000000000E+00 -0.45593999997E+02  0.45594000000E+02  0.51100000000E-03 0. -1.
         23    2    1    2    0    0  0.71054273576E-14 -0.88817841970E-15  0.00000000000E+00  0.91188000000E+02  0.91188000000E+02 0.  0.
    9900012    2    3    3    0    0 -0.42982669577E+02  0.17880936163E+01  0.57372761780E+01  0.47787268432E+02  0.19999988088E+02 0.  0.
        -12    1    3    3    0    0  0.42982669577E+02 -0.17880936163E+01 -0.57372761780E+01  0.43400731568E+02  0.00000000000E+00 0.  1.
         11    1    4    4    0    0 -0.10323981096E+02  0.26742818635E+01  0.83322862082E+01  0.13533785977E+02  0.51100000000E-03 0.  1.
        -11    1    4    4    0    0 -0.17983625397E+02 -0.54000092781E+01 -0.78076868290E+00  0.18793096674E+02  0.51100000000E-03 0. -1.
         12    1    4    4    0    0 -0.14675063084E+02  0.45138210309E+01 -0.18142413473E+01  0.15460385780E+02  0.00000000000E+00 0. -1.
</event>
<event>
 8    1  0.6239251E-010  0.9118800E+02  0.7816164E-02  0.1184000E+00
        -11   -1    0    0    0    0  0.00000000000E+00  0.00000000000E+00  0.45593999997E+02  0.45594000000E+02  0.51100000000E-03 0. -1.
         11   -1    0    0    0    0 -0.00000000000E+00 -0.00000000000E+00 -0.45593999997E+02  0.45594000000E+02  0.51100000000E-03 0.  1.
         23    2    1    2    0    0  0.00000000000E+00 -0.17763568394E-14  0.00000000000E+00  0.91188000000E+02  0.91188000000E+02 0.  0.
    9900012    2    3    3    0    0 -0.26514687829E+02 -0.13281542593E+02 -0.31689042760E+02  0.47787268723E+02  0.19999989418E+02 0.  0.
         12    1    3    3    0    0  0.26514687829E+02  0.13281542593E+02  0.31689042760E+02  0.43400731277E+02  0.00000000000E+00 0. -1.
         11    1    4    4    0    0 -0.12460044049E+02  0.40700343898E+01 -0.10583925924E+02  0.16847473575E+02  0.51100000000E-03 0. -1.
        -11    1    4    4    0    0 -0.94022037967E+01 -0.94886437225E+01 -0.10884973562E+02  0.17231321645E+02  0.51100000000E-03 0.  1.
         12    1    4    4    0    0 -0.46524399829E+01 -0.78629332606E+01 -0.10220143274E+02  0.13708473503E+02  0.00000000000E+00 0. -1.
</event>
<event>
 8    1  0.6702474E-010  0.9118800E+02  0.7816164E-02  0.1184000E+00
        -11   -1    0    0    0    0  0.00000000000E+00  0.00000000000E+00  0.45593999997E+02  0.45594000000E+02  0.51100000000E-03 0. -1.
         11   -1    0    0    0    0 -0.00000000000E+00 -0.00000000000E+00 -0.45593999997E+02  0.45594000000E+02  0.51100000000E-03 0.  1.
         23    2    1    2    0    0 -0.88817841970E-15  0.00000000000E+00  0.00000000000E+00  0.91188000000E+02  0.91188000000E+02 0.  0.
    9900012    2    3    3    0    0  0.42846311106E+01 -0.23533766712E+02  0.36213629083E+02  0.47787272232E+02  0.20000005416E+02 0.  0.
        -12    1    3    3    0    0 -0.42846311106E+01  0.23533766712E+02 -0.36213629083E+02  0.43400727768E+02  0.00000000000E+00 0.  1.
         11    1    4    4    0    0 -0.14046723725E+01 -0.10509059603E+02  0.21934270040E+02  0.24362381671E+02  0.51100000000E-03 0. -1.
        -11    1    4    4    0    0  0.48175180635E+01 -0.14955837677E+01 -0.92395902753E-02  0.50443370952E+01  0.51100000000E-03 0.  1.
        -12    1    4    4    0    0  0.87178541951E+00 -0.11529123342E+02  0.14288598633E+02  0.18380553467E+02  0.00000000000E+00 0.  1.
</event>
<event>
 8    1  0.6239251E-010  0.9118800E+02  0.7816164E-02  0.1184000E+00
        -11   -1    0    0    0    0  0.00000000000E+00  0.00000000000E+00  0.45593999997E+02  0.45594000000E+02  0.51100000000E-03 0. -1.
         11   -1    0    0    0    0 -0.00000000000E+00 -0.00000000000E+00 -0.45593999997E+02  0.45594000000E+02  0.51100000000E-03 0.  1.
         23    2    1    2    0    0  0.00000000000E+00  0.88817841970E-15  0.00000000000E+00  0.91188000000E+02  0.91188000000E+02 0.  0.
    9900012    2    3    3    0    0 -0.22975506778E+02 -0.64700651122E+01 -0.36247553229E+02  0.47787299898E+02  0.20000131553E+02 0.  0.
         12    1    3    3    0    0  0.22975506778E+02  0.64700651122E+01  0.36247553229E+02  0.43400700102E+02  0.00000000000E+00 0. -1.
         11    1    4    4    0    0  0.28941267372E+01  0.13583908260E+01 -0.28095893130E+01  0.42561705295E+01  0.51100000000E-03 0. -1.
        -11    1    4    4    0    0 -0.20248290016E+02 -0.37018536669E+01 -0.27638170465E+02  0.34461071313E+02  0.51100000000E-03 0.  1.
         12    1    4    4    0    0 -0.56213434992E+01 -0.41266022713E+01 -0.57997934511E+01  0.90700580548E+01  0.00000000000E+00 0. -1.
</event>
<event>
 8    1  0.6239251E-010  0.9118800E+02  0.7816164E-02  0.1184000E+00
        -11   -1    0    0    0    0  0.00000000000E+00  0.00000000000E+00  0.45593999997E+02  0.45594000000E+02  0.51100000000E-03 0.  1.
         11   -1    0    0    0    0 -0.00000000000E+00 -0.00000000000E+00 -0.45593999997E+02  0.45594000000E+02  0.51100000000E-03 0. -1.
         23    2    1    2    0    0  0.00000000000E+00  0.00000000000E+00  0.00000000000E+00  0.91188000000E+02  0.91188000000E+02 0.  0.
    9900012    2    3    3    0    0  0.38896614337E+02 -0.12744697279E+02 -0.14430851583E+02  0.47787269672E+02  0.19999993741E+02 0.  0.
         12    1    3    3    0    0 -0.38896614337E+02  0.12744697279E+02  0.14430851583E+02  0.43400730328E+02  0.00000000000E+00 0. -1.
         11    1    4    4    0    0  0.65596432444E+01 -0.25141930986E+01  0.50248858011E+01  0.86371039132E+01  0.51100000000E-03 0. -1.
        -11    1    4    4    0    0  0.27236604371E+02 -0.83046068331E+01 -0.17069958024E+02  0.33199135223E+02  0.51100000000E-03 0.  1.
         12    1    4    4    0    0  0.51003667211E+01 -0.19258973473E+01 -0.23857793604E+01  0.59510305359E+01  0.00000000000E+00 0. -1.
</event>
<event>
 8    1  0.6239251E-010  0.9118800E+02  0.7816164E-02  0.1184000E+00
        -11   -1    0    0    0    0  0.00000000000E+00  0.00000000000E+00  0.45593999997E+02  0.45594000000E+02  0.51100000000E-03 0.  1.
         11   -1    0    0    0    0 -0.00000000000E+00 -0.00000000000E+00 -0.45593999997E+02  0.45594000000E+02  0.51100000000E-03 0. -1.
         23    2    1    2    0    0  0.00000000000E+00  0.00000000000E+00  0.88817841970E-15  0.91188000000E+02  0.91188000000E+02 0.  0.
    9900012    2    3    3    0    0 -0.40551087050E+02  0.13409160449E+02 -0.77088774268E+01  0.47787273784E+02  0.20000012490E+02 0.  0.
         12    1    3    3    0    0  0.40551087050E+02 -0.13409160449E+02  0.77088774268E+01  0.43400726216E+02  0.00000000000E+00 0. -1.
         11    1    4    4    0    0 -0.31265797872E+02  0.10949263428E+02 -0.41585773499E+01  0.33387576313E+02  0.51100000000E-03 0. -1.
        -11    1    4    4    0    0 -0.15031399146E+01  0.13965734648E+01  0.33607788258E+01  0.39375984588E+01  0.51100000000E-03 0.  1.
         12    1    4    4    0    0 -0.77821492636E+01  0.10633235557E+01 -0.69110789027E+01  0.10462099012E+02  0.00000000000E+00 0. -1.
</event>
<event>
 8    1  0.6239251E-010  0.9118800E+02  0.7816164E-02  0.1184000E+00
        -11   -1    0    0    0    0  0.00000000000E+00  0.00000000000E+00  0.45593999997E+02  0.45594000000E+02  0.51100000000E-03 0. -1.
         11   -1    0    0    0    0 -0.00000000000E+00 -0.00000000000E+00 -0.45593999997E+02  0.45594000000E+02  0.51100000000E-03 0.  1.
         23    2    1    2    0    0  0.35527136788E-14  0.00000000000E+00  0.00000000000E+00  0.91188000000E+02  0.91188000000E+02 0.  0.
    9900012    2    3    3    0    0  0.23998333214E+02 -0.43365229250E+01 -0.35901223706E+02  0.47787270839E+02  0.19999999063E+02 0.  0.
         12    1    3    3    0    0 -0.23998333214E+02  0.43365229250E+01  0.35901223706E+02  0.43400729161E+02  0.00000000000E+00 0. -1.
         11    1    4    4    0    0  0.14775928304E+02 -0.61545235474E+01 -0.21809011075E+02  0.27052526345E+02  0.51100000000E-03 0.  1.
        -11    1    4    4    0    0 -0.21428873098E+01  0.31040461453E+01 -0.34568130773E+01  0.51163097450E+01  0.51100000000E-03 0. -1.
         12    1    4    4    0    0  0.11365292220E+02 -0.12860455230E+01 -0.10635399554E+02  0.15618434749E+02  0.00000000000E+00 0. -1.
</event>
<event>
 8    1  0.6239251E-010  0.9118800E+02  0.7816164E-02  0.1184000E+00
        -11   -1    0    0    0    0  0.00000000000E+00  0.00000000000E+00  0.45593999997E+02  0.45594000000E+02  0.51100000000E-03 0.  1.
         11   -1    0    0    0    0 -0.00000000000E+00 -0.00000000000E+00 -0.45593999997E+02  0.45594000000E+02  0.51100000000E-03 0. -1.
         23    2    1    2    0    0  0.00000000000E+00  0.00000000000E+00 -0.44408920985E-15  0.91188000000E+02  0.91188000000E+02 0.  0.
    9900012    2    3    3    0    0 -0.40264579071E+02  0.16030056355E+02  0.23290054091E+01  0.47787270735E+02  0.19999998589E+02 0.  0.
        -12    1    3    3    0    0  0.40264579071E+02 -0.16030056355E+02 -0.23290054091E+01  0.43400729265E+02  0.00000000000E+00 0.  1.
         11    1    4    4    0    0 -0.22129211710E+02  0.32513215049E+01  0.61348583023E+01  0.23192877982E+02  0.51100000000E-03 0. -1.
        -11    1    4    4    0    0 -0.16022222307E+02  0.10946877845E+02 -0.67390229094E+01  0.20541669168E+02  0.51100000000E-03 0.  1.
        -12    1    4    4    0    0 -0.21131450545E+01  0.18318570051E+01  0.29331700161E+01  0.40527235844E+01  0.00000000000E+00 0.  1.
</event>
<event>
 8    1  0.6239251E-010  0.9118800E+02  0.7816164E-02  0.1184000E+00
        -11   -1    0    0    0    0  0.00000000000E+00  0.00000000000E+00  0.45593999997E+02  0.45594000000E+02  0.51100000000E-03 0. -1.
         11   -1    0    0    0    0 -0.00000000000E+00 -0.00000000000E+00 -0.45593999997E+02  0.45594000000E+02  0.51100000000E-03 0.  1.
         23    2    1    2    0    0 -0.17763568394E-14  0.00000000000E+00  0.00000000000E+00  0.91188000000E+02  0.91188000000E+02 0.  0.
    9900012    2    3    3    0    0 -0.12934860832E+02  0.15261044638E+02  0.38515100901E+02  0.47787272983E+02  0.20000008839E+02 0.  0.
        -12    1    3    3    0    0  0.12934860832E+02 -0.15261044638E+02 -0.38515100901E+02  0.43400727017E+02  0.00000000000E+00 0.  1.
         11    1    4    4    0    0 -0.53762761422E+01  0.10430528359E+02  0.21312447720E+02  0.24329420360E+02  0.51100000000E-03 0. -1.
        -11    1    4    4    0    0 -0.85367047338E+01  0.38585788876E+01  0.19004996179E+02  0.21188530831E+02  0.51100000000E-03 0.  1.
        -12    1    4    4    0    0  0.97812004405E+00  0.97193739170E+00 -0.18023429978E+01  0.22693217920E+01  0.00000000000E+00 0.  1.
</event>
<event>
 8    1  0.6239251E-010  0.9118800E+02  0.7816164E-02  0.1184000E+00
        -11   -1    0    0    0    0  0.00000000000E+00  0.00000000000E+00  0.45593999997E+02  0.45594000000E+02  0.51100000000E-03 0. -1.
         11   -1    0    0    0    0 -0.00000000000E+00 -0.00000000000E+00 -0.45593999997E+02  0.45594000000E+02  0.51100000000E-03 0.  1.
         23    2    1    2    0    0 -0.88817841970E-15  0.00000000000E+00  0.00000000000E+00  0.91188000000E+02  0.91188000000E+02 0.  0.
    9900012    2    3    3    0    0 -0.74575119959E+01  0.54393183896E+01  0.42407815497E+02  0.47787268613E+02  0.19999988915E+02 0.  0.
        -12    1    3    3    0    0  0.74575119959E+01 -0.54393183896E+01 -0.42407815497E+02  0.43400731387E+02  0.00000000000E+00 0.  1.
         11    1    4    4    0    0 -0.12748479898E+02  0.59099737935E+01  0.21051887975E+02  0.25310739174E+02  0.51100000000E-03 0. -1.
        -11    1    4    4    0    0  0.43042841126E+01  0.16726623907E+01  0.15104407570E+02  0.15794549360E+02  0.51100000000E-03 0.  1.
         12    1    4    4    0    0  0.98668378958E+00 -0.21433177947E+01  0.62515199520E+01  0.66819800792E+01  0.00000000000E+00 0. -1.
</event>
<event>
 8    1  0.6239251E-010  0.9118800E+02  0.7816164E-02  0.1184000E+00
        -11   -1    0    0    0    0  0.00000000000E+00  0.00000000000E+00  0.45593999997E+02  0.45594000000E+02  0.51100000000E-03 0. -1.
         11   -1    0    0    0    0 -0.00000000000E+00 -0.00000000000E+00 -0.45593999997E+02  0.45594000000E+02  0.51100000000E-03 0.  1.
         23    2    1    2    0    0  0.71054273576E-14  0.55511151231E-16  0.00000000000E+00  0.91188000000E+02  0.91188000000E+02 0.  0.
    9900012    2    3    3    0    0 -0.34316987084E+02 -0.46150213853E+00 -0.26566041688E+02  0.47787272383E+02  0.20000006103E+02 0.  0.
         12    1    3    3    0    0  0.34316987084E+02  0.46150213853E+00  0.26566041688E+02  0.43400727617E+02  0.00000000000E+00 0. -1.
         11    1    4    4    0    0 -0.22395643044E+01 -0.50102967155E+01 -0.28494588526E+01  0.61836993349E+01  0.51100000000E-03 0. -1.
        -11    1    4    4    0    0 -0.30064440850E+02  0.28122145358E+01 -0.17639533355E+02  0.34970448831E+02  0.51100000000E-03 0.  1.
        -12    1    4    4    0    0 -0.20129819290E+01  0.17365800412E+01 -0.60770494807E+01  0.66331242169E+01  0.00000000000E+00 0.  1.
</event>
<event>
 8    1  0.6239251E-010  0.9118800E+02  0.7816164E-02  0.1184000E+00
        -11   -1    0    0    0    0  0.00000000000E+00  0.00000000000E+00  0.45593999997E+02  0.45594000000E+02  0.51100000000E-03 0. -1.
         11   -1    0    0    0    0 -0.00000000000E+00 -0.00000000000E+00 -0.45593999997E+02  0.45594000000E+02  0.51100000000E-03 0.  1.
         23    2    1    2    0    0  0.00000000000E+00  0.00000000000E+00  0.00000000000E+00  0.91188000000E+02  0.91188000000E+02 0.  0.
    9900012    2    3    3    0    0  0.24762036935E+02  0.25840319608E+02  0.24550816329E+02  0.47787272206E+02  0.20000005296E+02 0.  0.
        -12    1    3    3    0    0 -0.24762036935E+02 -0.25840319608E+02 -0.24550816329E+02  0.43400727794E+02  0.00000000000E+00 0.  1.
         11    1    4    4    0    0  0.16194832875E+02  0.51267733043E+01  0.13467699784E+02  0.21677992391E+02  0.51100000000E-03 0. -1.
        -11    1    4    4    0    0 -0.56350644756E+00  0.48267961063E+01  0.34693397640E+00  0.48719465939E+01  0.51100000000E-03 0.  1.
         12    1    4    4    0    0  0.91307105081E+01  0.15886750197E+02  0.10736182569E+02  0.21237333221E+02  0.00000000000E+00 0. -1.
</event>
<event>
 8    1  0.6239251E-010  0.9118800E+02  0.7816164E-02  0.1184000E+00
        -11   -1    0    0    0    0  0.00000000000E+00  0.00000000000E+00  0.45593999997E+02  0.45594000000E+02  0.51100000000E-03 0.  1.
         11   -1    0    0    0    0 -0.00000000000E+00 -0.00000000000E+00 -0.45593999997E+02  0.45594000000E+02  0.51100000000E-03 0. -1.
         23    2    1    2    0    0  0.35527136788E-14  0.00000000000E+00  0.17763568394E-14  0.91188000000E+02  0.91188000000E+02 0.  0.
    9900012    2    3    3    0    0 -0.30822055841E+02 -0.27607495296E+02  0.13093985604E+02  0.47787246760E+02  0.19999889277E+02 0.  0.
        -12    1    3    3    0    0  0.30822055841E+02  0.27607495296E+02 -0.13093985604E+02  0.43400753240E+02  0.00000000000E+00 0.  1.
         11    1    4    4    0    0 -0.25540815472E+02 -0.24715393394E+02  0.13071562665E+02  0.37868848363E+02  0.51100000000E-03 0. -1.
        -11    1    4    4    0    0  0.75934442950E+00  0.22610416893E+00  0.25465686821E+01  0.26669719480E+01  0.51100000000E-03 0.  1.
         12    1    4    4    0    0 -0.60405847986E+01 -0.31182060713E+01 -0.25241457430E+01  0.72514264489E+01  0.00000000000E+00 0. -1.
</event>
<event>
 8    1  0.6239251E-010  0.9118800E+02  0.7816164E-02  0.1184000E+00
        -11   -1    0    0    0    0  0.00000000000E+00  0.00000000000E+00  0.45593999997E+02  0.45594000000E+02  0.51100000000E-03 0. -1.
         11   -1    0    0    0    0 -0.00000000000E+00 -0.00000000000E+00 -0.45593999997E+02  0.45594000000E+02  0.51100000000E-03 0.  1.
         23    2    1    2    0    0 -0.11102230246E-15  0.00000000000E+00  0.00000000000E+00  0.91188000000E+02  0.91188000000E+02 0.  0.
    9900012    2    3    3    0    0  0.53060630137E+00 -0.32768586952E+02 -0.28452796389E+02  0.47787268944E+02  0.19999990422E+02 0.  0.
         12    1    3    3    0    0 -0.53060630137E+00  0.32768586952E+02  0.28452796389E+02  0.43400731056E+02  0.00000000000E+00 0. -1.
         11    1    4    4    0    0  0.12591123311E+01 -0.36058440862E+01  0.11657961987E+01  0.39933139714E+01  0.51100000000E-03 0. -1.
        -11    1    4    4    0    0  0.54104100791E+01 -0.17707211702E+02 -0.21899978125E+02  0.28677986778E+02  0.51100000000E-03 0.  1.
        -12    1    4    4    0    0 -0.61389161088E+01 -0.11455531164E+02 -0.77186144619E+01  0.15115968194E+02  0.00000000000E+00 0.  1.
</event>
<event>
 8    1  0.6243319E-010  0.9118800E+02  0.7816164E-02  0.1184000E+00
        -11   -1    0    0    0    0  0.00000000000E+00  0.00000000000E+00  0.45593999997E+02  0.45594000000E+02  0.51100000000E-03 0. -1.
         11   -1    0    0    0    0 -0.00000000000E+00 -0.00000000000E+00 -0.45593999997E+02  0.45594000000E+02  0.51100000000E-03 0.  1.
         23    2    1    2    0    0 -0.35527136788E-14  0.17763568394E-14 -0.35527136788E-14  0.91188000000E+02  0.91188000000E+02 0.  0.
    9900012    2    3    3    0    0 -0.29292975951E+02  0.95270562464E+01  0.30574166384E+02  0.47787275457E+02  0.20000020117E+02 0.  0.
        -12    1    3    3    0    0  0.29292975951E+02 -0.95270562464E+01 -0.30574166384E+02  0.43400724543E+02  0.00000000000E+00 0.  1.
         11    1    4    4    0    0 -0.18406487072E+01  0.10626037460E+01  0.54785859268E+01  0.58763950176E+01  0.51100000000E-03 0. -1.
        -11    1    4    4    0    0  0.11717504536E+01 -0.26168914521E+01  0.19370610891E+01  0.34602494017E+01  0.51100000000E-03 0.  1.
        -12    1    4    4    0    0 -0.28624077698E+02  0.11081343953E+02  0.23158519368E+02  0.38450631037E+02  0.00000000000E+00 0.  1.
</event>
<event>
 8    1  0.6239251E-010  0.9118800E+02  0.7816164E-02  0.1184000E+00
        -11   -1    0    0    0    0  0.00000000000E+00  0.00000000000E+00  0.45593999997E+02  0.45594000000E+02  0.51100000000E-03 0. -1.
         11   -1    0    0    0    0 -0.00000000000E+00 -0.00000000000E+00 -0.45593999997E+02  0.45594000000E+02  0.51100000000E-03 0.  1.
         23    2    1    2    0    0  0.00000000000E+00  0.00000000000E+00  0.00000000000E+00  0.91188000000E+02  0.91188000000E+02 0.  0.
    9900012    2    3    3    0    0  0.12350589622E+02 -0.25090956390E+02 -0.33189307206E+02  0.47787271096E+02  0.20000000236E+02 0.  0.
         12    1    3    3    0    0 -0.12350589622E+02  0.25090956390E+02  0.33189307206E+02  0.43400728904E+02  0.00000000000E+00 0. -1.
         11    1    4    4    0    0  0.90371816217E+01 -0.16313137650E+02 -0.31749249302E+02  0.36821243096E+02  0.51100000000E-03 0. -1.
        -11    1    4    4    0    0  0.10034465956E+01 -0.49125929922E+01 -0.33968778544E+01  0.60563400166E+01  0.51100000000E-03 0.  1.
         12    1    4    4    0    0  0.23099614048E+01 -0.38652257479E+01  0.19568199507E+01  0.49096879833E+01  0.00000000000E+00 0. -1.
</event>
<event>
 8    1  0.6239251E-010  0.9118800E+02  0.7816164E-02  0.1184000E+00
        -11   -1    0    0    0    0  0.00000000000E+00  0.00000000000E+00  0.45593999997E+02  0.45594000000E+02  0.51100000000E-03 0. -1.
         11   -1    0    0    0    0 -0.00000000000E+00 -0.00000000000E+00 -0.45593999997E+02  0.45594000000E+02  0.51100000000E-03 0.  1.
         23    2    1    2    0    0  0.00000000000E+00  0.00000000000E+00  0.35527136788E-14  0.91188000000E+02  0.91188000000E+02 0.  0.
    9900012    2    3    3    0    0 -0.33010579253E+02 -0.28593525426E+01  0.28031205419E+02  0.47787277462E+02  0.20000029260E+02 0.  0.
        -12    1    3    3    0    0  0.33010579253E+02  0.28593525426E+01 -0.28031205419E+02  0.43400722538E+02  0.00000000000E+00 0.  1.
         11    1    4    4    0    0 -0.22002993535E+02  0.20270493381E+01  0.11918226123E+02  0.25105472863E+02  0.51100000000E-03 0. -1.
        -11    1    4    4    0    0 -0.64916240679E+01 -0.99568153659E+00  0.15320086439E+02  0.16668461642E+02  0.51100000000E-03 0.  1.
        -12    1    4    4    0    0 -0.45159616506E+01 -0.38907203441E+01  0.79289285697E+00  0.60133429562E+01  0.00000000000E+00 0.  1.
</event>
<event>
 8    1  0.6239251E-010  0.9118800E+02  0.7816164E-02  0.1184000E+00
        -11   -1    0    0    0    0  0.00000000000E+00  0.00000000000E+00  0.45593999997E+02  0.45594000000E+02  0.51100000000E-03 0. -1.
         11   -1    0    0    0    0 -0.00000000000E+00 -0.00000000000E+00 -0.45593999997E+02  0.45594000000E+02  0.51100000000E-03 0.  1.
         23    2    1    2    0    0  0.35527136788E-14 -0.88817841970E-15  0.71054273576E-14  0.91188000000E+02  0.91188000000E+02 0.  0.
    9900012    2    3    3    0    0 -0.13696585262E+02  0.56434488500E+01 -0.40794344269E+02  0.47787268588E+02  0.19999988801E+02 0.  0.
         12    1    3    3    0    0  0.13696585262E+02 -0.56434488500E+01  0.40794344269E+02  0.43400731412E+02  0.00000000000E+00 0. -1.
         11    1    4    4    0    0  0.43380503059E+00 -0.52039362722E+01 -0.13020375975E+02  0.14028518465E+02  0.51100000000E-03 0.  1.
        -11    1    4    4    0    0 -0.11366934151E+02  0.51648026044E+01 -0.21449058801E+02  0.24818229220E+02  0.51100000000E-03 0. -1.
         12    1    4    4    0    0 -0.27634561420E+01  0.56825825178E+01 -0.63249094927E+01  0.89405209027E+01  0.00000000000E+00 0. -1.
</event>
<event>
 8    1  0.6239251E-010  0.9118800E+02  0.7816164E-02  0.1184000E+00
        -11   -1    0    0    0    0  0.00000000000E+00  0.00000000000E+00  0.45593999997E+02  0.45594000000E+02  0.51100000000E-03 0. -1.
         11   -1    0    0    0    0 -0.00000000000E+00 -0.00000000000E+00 -0.45593999997E+02  0.45594000000E+02  0.51100000000E-03 0.  1.
         23    2    1    2    0    0  0.00000000000E+00  0.00000000000E+00 -0.71054273576E-14  0.91188000000E+02  0.91188000000E+02 0.  0.
    9900012    2    3    3    0    0 -0.18499293326E+02 -0.45630241169E+01 -0.38994599724E+02  0.47787264404E+02  0.19999969724E+02 0.  0.
         12    1    3    3    0    0  0.18499293326E+02  0.45630241169E+01  0.38994599724E+02  0.43400735596E+02  0.00000000000E+00 0. -1.
         11    1    4    4    0    0  0.14115583852E+01 -0.11552776708E+01 -0.46570291299E+00  0.18825628903E+01  0.51100000000E-03 0. -1.
        -11    1    4    4    0    0 -0.18089248754E+02 -0.44087343966E+01 -0.39456334281E+02  0.43628662306E+02  0.51100000000E-03 0.  1.
        -12    1    4    4    0    0 -0.18216029573E+01  0.10009879505E+01  0.92743747081E+00  0.22760392074E+01  0.00000000000E+00 0.  1.
</event>
<event>
 8    1  0.6239251E-010  0.9118800E+02  0.7816164E-02  0.1184000E+00
        -11   -1    0    0    0    0  0.00000000000E+00  0.00000000000E+00  0.45593999997E+02  0.45594000000E+02  0.51100000000E-03 0. -1.
         11   -1    0    0    0    0 -0.00000000000E+00 -0.00000000000E+00 -0.45593999997E+02  0.45594000000E+02  0.51100000000E-03 0.  1.
         23    2    1    2    0    0  0.00000000000E+00  0.00000000000E+00  0.00000000000E+00  0.91188000000E+02  0.91188000000E+02 0.  0.
    9900012    2    3    3    0    0  0.74010467732E+01 -0.23504058323E+02 -0.35726839773E+02  0.47787270384E+02  0.19999996991E+02 0.  0.
         12    1    3    3    0    0 -0.74010467732E+01  0.23504058323E+02  0.35726839773E+02  0.43400729616E+02  0.00000000000E+00 0. -1.
         11    1    4    4    0    0 -0.19354650599E+01 -0.16395597505E+01  0.13158385306E+01  0.28575535819E+01  0.51100000000E-03 0. -1.
        -11    1    4    4    0    0  0.60397691751E+00 -0.39812154644E+00 -0.67520963098E+01  0.67907358747E+01  0.51100000000E-03 0.  1.
         12    1    4    4    0    0  0.87325349156E+01 -0.21466377026E+02 -0.30290581994E+02  0.38138980928E+02  0.00000000000E+00 0. -1.
</event>
<event>
 8    1  0.6239251E-010  0.9118800E+02  0.7816164E-02  0.1184000E+00
        -11   -1    0    0    0    0  0.00000000000E+00  0.00000000000E+00  0.45593999997E+02  0.45594000000E+02  0.51100000000E-03 0. -1.
         11   -1    0    0    0    0 -0.00000000000E+00 -0.00000000000E+00 -0.45593999997E+02  0.45594000000E+02  0.51100000000E-03 0.  1.
         23    2    1    2    0    0  0.00000000000E+00  0.00000000000E+00  0.00000000000E+00  0.91188000000E+02  0.91188000000E+02 0.  0.
    9900012    2    3    3    0    0 -0.10179366162E+02 -0.68516637326E+01  0.41630028945E+02  0.47787261512E+02  0.19999956536E+02 0.  0.
        -12    1    3    3    0    0  0.10179366162E+02  0.68516637326E+01 -0.41630028945E+02  0.43400738488E+02  0.00000000000E+00 0.  1.
         11    1    4    4    0    0 -0.37218420995E+01 -0.38351222737E+01  0.16278705414E+02  0.17133491228E+02  0.51100000000E-03 0. -1.
        -11    1    4    4    0    0 -0.36288446178E+01  0.51413270949E+01  0.18770941072E+02  0.19797726803E+02  0.51100000000E-03 0.  1.
        -12    1    4    4    0    0 -0.28286794447E+01 -0.81578685538E+01  0.65803824590E+01  0.10856043480E+02  0.00000000000E+00 0.  1.
</event>
<event>
 8    1  0.6239251E-010  0.9118800E+02  0.7816164E-02  0.1184000E+00
        -11   -1    0    0    0    0  0.00000000000E+00  0.00000000000E+00  0.45593999997E+02  0.45594000000E+02  0.51100000000E-03 0. -1.
         11   -1    0    0    0    0 -0.00000000000E+00 -0.00000000000E+00 -0.45593999997E+02  0.45594000000E+02  0.51100000000E-03 0.  1.
         23    2    1    2    0    0  0.00000000000E+00  0.35527136788E-14  0.35527136788E-14  0.91188000000E+02  0.91188000000E+02 0.  0.
    9900012    2    3    3    0    0 -0.22151330911E+02  0.20568449633E+02  0.31142871404E+02  0.47787297002E+02  0.20000118349E+02 0.  0.
        -12    1    3    3    0    0  0.22151330911E+02 -0.20568449633E+02 -0.31142871404E+02  0.43400702998E+02  0.00000000000E+00 0.  1.
         11    1    4    4    0    0 -0.52010079770E+01  0.12966582399E+02  0.15032864093E+02  0.20522420573E+02  0.51100000000E-03 0. -1.
        -11    1    4    4    0    0 -0.50585509461E+01  0.23518427495E+01 -0.11114061209E+01  0.56881742079E+01  0.51100000000E-03 0.  1.
        -12    1    4    4    0    0 -0.11891771988E+02  0.52500244844E+01  0.17221413432E+02  0.21576702220E+02  0.00000000000E+00 0.  1.
</event>
<event>
 8    1  0.6239251E-010  0.9118800E+02  0.7816164E-02  0.1184000E+00
        -11   -1    0    0    0    0  0.00000000000E+00  0.00000000000E+00  0.45593999997E+02  0.45594000000E+02  0.51100000000E-03 0. -1.
         11   -1    0    0    0    0 -0.00000000000E+00 -0.00000000000E+00 -0.45593999997E+02  0.45594000000E+02  0.51100000000E-03 0.  1.
         23    2    1    2    0    0  0.00000000000E+00  0.00000000000E+00  0.00000000000E+00  0.91188000000E+02  0.91188000000E+02 0.  0.
    9900012    2    3    3    0    0  0.23886587309E+02 -0.23331583762E+02 -0.27725289159E+02  0.47787268289E+02  0.19999987436E+02 0.  0.
         12    1    3    3    0    0 -0.23886587309E+02  0.23331583762E+02  0.27725289159E+02  0.43400731711E+02  0.00000000000E+00 0. -1.
         11    1    4    4    0    0  0.13338523543E+02 -0.48554867669E+01 -0.46801503767E+01  0.14946430004E+02  0.51100000000E-03 0. -1.
        -11    1    4    4    0    0  0.57322038377E+01 -0.17487845450E+02 -0.19236684246E+02  0.26622038246E+02  0.51100000000E-03 0.  1.
        -12    1    4    4    0    0  0.48158599283E+01 -0.98825154487E+00 -0.38084545359E+01  0.62188000384E+01  0.00000000000E+00 0.  1.
</event>
<event>
 8    1  0.6239251E-010  0.9118800E+02  0.7816164E-02  0.1184000E+00
        -11   -1    0    0    0    0  0.00000000000E+00  0.00000000000E+00  0.45593999997E+02  0.45594000000E+02  0.51100000000E-03 0.  1.
         11   -1    0    0    0    0 -0.00000000000E+00 -0.00000000000E+00 -0.45593999997E+02  0.45594000000E+02  0.51100000000E-03 0. -1.
         23    2    1    2    0    0  0.00000000000E+00  0.00000000000E+00  0.88817841970E-15  0.91188000000E+02  0.91188000000E+02 0.  0.
    9900012    2    3    3    0    0 -0.38578992539E+02 -0.18385788437E+02 -0.75662030471E+01  0.47787270625E+02  0.19999998086E+02 0.  0.
         12    1    3    3    0    0  0.38578992539E+02  0.18385788437E+02  0.75662030471E+01  0.43400729375E+02  0.00000000000E+00 0. -1.
         11    1    4    4    0    0 -0.18789298412E+02 -0.99949849260E+00 -0.41139037607E+01  0.19260346219E+02  0.51100000000E-03 0. -1.
        -11    1    4    4    0    0 -0.13829087204E+01 -0.70448533035E+01 -0.35544619089E+00  0.71880968867E+01  0.51100000000E-03 0.  1.
         12    1    4    4    0    0 -0.18406785406E+02 -0.10341436641E+02 -0.30968530955E+01  0.21338827519E+02  0.00000000000E+00 0. -1.
</event>
<event>
 8    1  0.6850659E-010  0.9118800E+02  0.7816164E-02  0.1184000E+00
        -11   -1    0    0    0    0  0.00000000000E+00  0.00000000000E+00  0.45593999997E+02  0.45594000000E+02  0.51100000000E-03 0. -1.
         11   -1    0    0    0    0 -0.00000000000E+00 -0.00000000000E+00 -0.45593999997E+02  0.45594000000E+02  0.51100000000E-03 0.  1.
         23    2    1    2    0    0 -0.17763568394E-14  0.00000000000E+00  0.00000000000E+00  0.91188000000E+02  0.91188000000E+02 0.  0.
    9900012    2    3    3    0    0  0.12243834919E+02  0.31902023912E+02  0.26757662401E+02  0.47787272813E+02  0.20000008065E+02 0.  0.
        -12    1    3    3    0    0 -0.12243834919E+02 -0.31902023912E+02 -0.26757662401E+02  0.43400727187E+02  0.00000000000E+00 0.  1.
         11    1    4    4    0    0  0.10753062874E+02  0.11706195337E+02  0.16330236725E+02  0.22789032498E+02  0.51100000000E-03 0. -1.
        -11    1    4    4    0    0  0.67778144476E-01  0.21015146608E+02  0.91639095622E+01  0.22926365162E+02  0.51100000000E-03 0.  1.
        -12    1    4    4    0    0  0.14229939003E+01 -0.81931803328E+00  0.12635161137E+01  0.20718751530E+01  0.00000000000E+00 0.  1.
</event>
<event>
 8    1  0.6239251E-010  0.9118800E+02  0.7816164E-02  0.1184000E+00
        -11   -1    0    0    0    0  0.00000000000E+00  0.00000000000E+00  0.45593999997E+02  0.45594000000E+02  0.51100000000E-03 0. -1.
         11   -1    0    0    0    0 -0.00000000000E+00 -0.00000000000E+00 -0.45593999997E+02  0.45594000000E+02  0.51100000000E-03 0.  1.
         23    2    1    2    0    0  0.00000000000E+00 -0.17763568394E-14  0.00000000000E+00  0.91188000000E+02  0.91188000000E+02 0.  0.
    9900012    2    3    3    0    0  0.40759098548E+02  0.11357922145E+02 -0.96600564096E+01  0.47787271898E+02  0.20000003893E+02 0.  0.
         12    1    3    3    0    0 -0.40759098548E+02 -0.11357922145E+02  0.96600564096E+01  0.43400728102E+02  0.00000000000E+00 0. -1.
         11    1    4    4    0    0  0.10023258018E+02 -0.14003260284E+01  0.23629049318E+01  0.10392782797E+02  0.51100000000E-03 0. -1.
        -11    1    4    4    0    0  0.30556167252E+02  0.10621733190E+02 -0.13211031279E+02  0.34943267174E+02  0.51100000000E-03 0.  1.
         12    1    4    4    0    0  0.17967327822E+00  0.21365149833E+01  0.11880699377E+01  0.24512219274E+01  0.00000000000E+00 0. -1.
</event>
<event>
 8    1  0.6239251E-010  0.9118800E+02  0.7816164E-02  0.1184000E+00
        -11   -1    0    0    0    0  0.00000000000E+00  0.00000000000E+00  0.45593999997E+02  0.45594000000E+02  0.51100000000E-03 0. -1.
         11   -1    0    0    0    0 -0.00000000000E+00 -0.00000000000E+00 -0.45593999997E+02  0.45594000000E+02  0.51100000000E-03 0.  1.
         23    2    1    2    0    0  0.00000000000E+00  0.00000000000E+00  0.00000000000E+00  0.91188000000E+02  0.91188000000E+02 0.  0.
    9900012    2    3    3    0    0 -0.17206629392E+02 -0.20235459804E+02 -0.34323233482E+02  0.47787236353E+02  0.19999841826E+02 0.  0.
         12    1    3    3    0    0  0.17206629392E+02  0.20235459804E+02  0.34323233482E+02  0.43400763647E+02  0.00000000000E+00 0. -1.
         11    1    4    4    0    0 -0.84359673065E+00  0.15627497843E+01  0.25681995524E+00  0.17943798602E+01  0.51100000000E-03 0. -1.
        -11    1    4    4    0    0 -0.17721343698E+02 -0.17698275541E+02 -0.24543767803E+02  0.35066672466E+02  0.51100000000E-03 0.  1.
        -12    1    4    4    0    0  0.13583110366E+01 -0.40999340473E+01 -0.10036285634E+02  0.10926184027E+02  0.00000000000E+00 0.  1.
</event>
<event>
 8    1  0.6239251E-010  0.9118800E+02  0.7816164E-02  0.1184000E+00
        -11   -1    0    0    0    0  0.00000000000E+00  0.00000000000E+00  0.45593999997E+02  0.45594000000E+02  0.51100000000E-03 0. -1.
         11   -1    0    0    0    0 -0.00000000000E+00 -0.00000000000E+00 -0.45593999997E+02  0.45594000000E+02  0.51100000000E-03 0.  1.
         23    2    1    2    0    0 -0.35527136788E-14 -0.35527136788E-14 -0.35527136788E-14  0.91188000000E+02  0.91188000000E+02 0.  0.
    9900012    2    3    3    0    0 -0.16912821820E+02  0.27088835422E+02 -0.29390043874E+02  0.47787271604E+02  0.20000002552E+02 0.  0.
         12    1    3    3    0    0  0.16912821820E+02 -0.27088835422E+02  0.29390043874E+02  0.43400728396E+02  0.00000000000E+00 0. -1.
         11    1    4    4    0    0 -0.88602634369E+01  0.12789598029E+02 -0.31366988890E+01  0.15871892329E+02  0.51100000000E-03 0. -1.
        -11    1    4    4    0    0 -0.62730806232E+01  0.61485807166E+01 -0.18704709017E+02  0.20664528182E+02  0.51100000000E-03 0.  1.
        -12    1    4    4    0    0 -0.17794777596E+01  0.81506566754E+01 -0.75486359677E+01  0.11250851093E+02  0.00000000000E+00 0.  1.
</event>
<event>
 8    1  0.6239251E-010  0.9118800E+02  0.7816164E-02  0.1184000E+00
        -11   -1    0    0    0    0  0.00000000000E+00  0.00000000000E+00  0.45593999997E+02  0.45594000000E+02  0.51100000000E-03 0. -1.
         11   -1    0    0    0    0 -0.00000000000E+00 -0.00000000000E+00 -0.45593999997E+02  0.45594000000E+02  0.51100000000E-03 0.  1.
         23    2    1    2    0    0  0.35527136788E-14 -0.35527136788E-14  0.35527136788E-14  0.91188000000E+02  0.91188000000E+02 0.  0.
    9900012    2    3    3    0    0  0.26367766083E+02 -0.28334866581E+02  0.19634133720E+02  0.47787274669E+02  0.20000016526E+02 0.  0.
        -12    1    3    3    0    0 -0.26367766083E+02  0.28334866581E+02 -0.19634133720E+02  0.43400725331E+02  0.00000000000E+00 0.  1.
         11    1    4    4    0    0 -0.21707284647E+01 -0.61532434905E+01  0.58122695027E+01  0.87382460799E+01  0.51100000000E-03 0. -1.
        -11    1    4    4    0    0  0.26970517775E+01 -0.63698514224E+00  0.29429597083E+00  0.27868348967E+01  0.51100000000E-03 0.  1.
         12    1    4    4    0    0  0.25841442770E+02 -0.21544637948E+02  0.13527568246E+02  0.36262193692E+02  0.00000000000E+00 0. -1.
</event>
<event>
 8    1  0.6239251E-010  0.9118800E+02  0.7816164E-02  0.1184000E+00
        -11   -1    0    0    0    0  0.00000000000E+00  0.00000000000E+00  0.45593999997E+02  0.45594000000E+02  0.51100000000E-03 0. -1.
         11   -1    0    0    0    0 -0.00000000000E+00 -0.00000000000E+00 -0.45593999997E+02  0.45594000000E+02  0.51100000000E-03 0.  1.
         23    2    1    2    0    0  0.00000000000E+00 -0.71054273576E-14  0.00000000000E+00  0.91188000000E+02  0.91188000000E+02 0.  0.
    9900012    2    3    3    0    0 -0.13389801697E+02 -0.35774791810E+02  0.20603419574E+02  0.47787269399E+02  0.19999992499E+02 0.  0.
        -12    1    3    3    0    0  0.13389801697E+02  0.35774791810E+02 -0.20603419574E+02  0.43400730601E+02  0.00000000000E+00 0.  1.
         11    1    4    4    0    0 -0.41931222091E+00 -0.18209258999E+02  0.16189186233E+02  0.24368887689E+02  0.51100000000E-03 0. -1.
        -11    1    4    4    0    0 -0.98516157865E+01 -0.16252711180E+02  0.17015941588E+01  0.19081414446E+02  0.51100000000E-03 0.  1.
         12    1    4    4    0    0 -0.31188736896E+01 -0.13128216311E+01  0.27126391816E+01  0.43369672648E+01  0.00000000000E+00 0. -1.
</event>
<event>
 8    1  0.6239251E-010  0.9118800E+02  0.7816164E-02  0.1184000E+00
        -11   -1    0    0    0    0  0.00000000000E+00  0.00000000000E+00  0.45593999997E+02  0.45594000000E+02  0.51100000000E-03 0. -1.
         11   -1    0    0    0    0 -0.00000000000E+00 -0.00000000000E+00 -0.45593999997E+02  0.45594000000E+02  0.51100000000E-03 0.  1.
         23    2    1    2    0    0 -0.17763568394E-14  0.00000000000E+00 -0.71054273576E-14  0.91188000000E+02  0.91188000000E+02 0.  0.
    9900012    2    3    3    0    0  0.10786989578E+02  0.51520629139E+01  0.41721945520E+02  0.47787266891E+02  0.19999981061E+02 0.  0.
        -12    1    3    3    0    0 -0.10786989578E+02 -0.51520629139E+01 -0.41721945520E+02  0.43400733109E+02  0.00000000000E+00 0.  1.
         11    1    4    4    0    0 -0.37577771461E+01 -0.87144008496E+00  0.22343828551E+01  0.44578878300E+01  0.51100000000E-03 0. -1.
        -11    1    4    4    0    0 -0.10062629967E+01 -0.20861870161E+00  0.15806949735E+01  0.18853869209E+01  0.51100000000E-03 0.  1.
         12    1    4    4    0    0  0.15551029720E+02  0.62321217005E+01  0.37906867692E+02  0.41443992140E+02  0.00000000000E+00 0. -1.
</event>
<event>
 8    1  0.6239251E-010  0.9118800E+02  0.7816164E-02  0.1184000E+00
        -11   -1    0    0    0    0  0.00000000000E+00  0.00000000000E+00  0.45593999997E+02  0.45594000000E+02  0.51100000000E-03 0. -1.
         11   -1    0    0    0    0 -0.00000000000E+00 -0.00000000000E+00 -0.45593999997E+02  0.45594000000E+02  0.51100000000E-03 0.  1.
         23    2    1    2    0    0  0.22204460493E-15  0.00000000000E+00 -0.17763568394E-14  0.91188000000E+02  0.91188000000E+02 0.  0.
    9900012    2    3    3    0    0  0.75253808462E+00  0.41043664000E+02  0.14088116806E+02  0.47787266098E+02  0.19999977447E+02 0.  0.
        -12    1    3    3    0    0 -0.75253808462E+00 -0.41043664000E+02 -0.14088116806E+02  0.43400733902E+02  0.00000000000E+00 0.  1.
         11    1    4    4    0    0 -0.11608485811E+01  0.39554435781E+02  0.15233190092E+02  0.42402252771E+02  0.51100000000E-03 0. -1.
        -11    1    4    4    0    0  0.70989236433E+00  0.39981937345E-01 -0.27930357075E+01  0.28821163142E+01  0.51100000000E-03 0.  1.
         12    1    4    4    0    0  0.12034943014E+01  0.14492462814E+01  0.16479624210E+01  0.25028970132E+01  0.00000000000E+00 0. -1.
</event>
<event>
 8    1  0.6239251E-010  0.9118800E+02  0.7816164E-02  0.1184000E+00
        -11   -1    0    0    0    0  0.00000000000E+00  0.00000000000E+00  0.45593999997E+02  0.45594000000E+02  0.51100000000E-03 0. -1.
         11   -1    0    0    0    0 -0.00000000000E+00 -0.00000000000E+00 -0.45593999997E+02  0.45594000000E+02  0.51100000000E-03 0.  1.
         23    2    1    2    0    0  0.00000000000E+00  0.00000000000E+00  0.00000000000E+00  0.91188000000E+02  0.91188000000E+02 0.  0.
    9900012    2    3    3    0    0 -0.16710439520E+02  0.33164238163E+02  0.22461469977E+02  0.47787272870E+02  0.20000008325E+02 0.  0.
        -12    1    3    3    0    0  0.16710439520E+02 -0.33164238163E+02 -0.22461469977E+02  0.43400727130E+02  0.00000000000E+00 0.  1.
         11    1    4    4    0    0 -0.19103977106E+02  0.25687957741E+02  0.18107440167E+02  0.36779240121E+02  0.51100000000E-03 0. -1.
        -11    1    4    4    0    0  0.69332170904E+00  0.10246366077E+01 -0.16295817046E+01  0.20459990135E+01  0.51100000000E-03 0.  1.
         12    1    4    4    0    0  0.17002158773E+01  0.64516438139E+01  0.59836115142E+01  0.89620337359E+01  0.00000000000E+00 0. -1.
</event>
<event>
 8    1  0.6239251E-010  0.9118800E+02  0.7816164E-02  0.1184000E+00
        -11   -1    0    0    0    0  0.00000000000E+00  0.00000000000E+00  0.45593999997E+02  0.45594000000E+02  0.51100000000E-03 0. -1.
         11   -1    0    0    0    0 -0.00000000000E+00 -0.00000000000E+00 -0.45593999997E+02  0.45594000000E+02  0.51100000000E-03 0.  1.
         23    2    1    2    0    0 -0.35527136788E-14 -0.35527136788E-14  0.71054273576E-14  0.91188000000E+02  0.91188000000E+02 0.  0.
    9900012    2    3    3    0    0 -0.18722644092E+02 -0.29335042107E+02  0.25933375791E+02  0.47787284831E+02  0.20000062860E+02 0.  0.
        -12    1    3    3    0    0  0.18722644092E+02  0.29335042107E+02 -0.25933375791E+02  0.43400715169E+02  0.00000000000E+00 0.  1.
         11    1    4    4    0    0 -0.90923176119E+01 -0.12473573713E+02  0.12048936511E+02  0.19581551319E+02  0.51100000000E-03 0. -1.
        -11    1    4    4    0    0  0.35420927526E+01 -0.72001911279E+01  0.62658512538E+01  0.10180867622E+02  0.51100000000E-03 0.  1.
        -12    1    4    4    0    0 -0.13172419233E+02 -0.96612772663E+01  0.76185880257E+01  0.18024865891E+02  0.00000000000E+00 0.  1.
</event>
<event>
 8    1  0.7699078E-010  0.9118800E+02  0.7816164E-02  0.1184000E+00
        -11   -1    0    0    0    0  0.00000000000E+00  0.00000000000E+00  0.45593999997E+02  0.45594000000E+02  0.51100000000E-03 0. -1.
         11   -1    0    0    0    0 -0.00000000000E+00 -0.00000000000E+00 -0.45593999997E+02  0.45594000000E+02  0.51100000000E-03 0.  1.
         23    2    1    2    0    0  0.22204460493E-15  0.00000000000E+00  0.00000000000E+00  0.91188000000E+02  0.91188000000E+02 0.  0.
    9900012    2    3    3    0    0  0.11795977484E+01  0.72767049685E+01  0.42770095910E+02  0.47787274313E+02  0.20000014902E+02 0.  0.
        -12    1    3    3    0    0 -0.11795977484E+01 -0.72767049685E+01 -0.42770095910E+02  0.43400725687E+02  0.00000000000E+00 0.  1.
         11    1    4    4    0    0 -0.23475315262E+01  0.40727808992E+01  0.27336362048E+02  0.27737612348E+02  0.51100000000E-03 0. -1.
        -11    1    4    4    0    0  0.33610872506E+01  0.31934569497E+01  0.21296892447E-01  0.46363270608E+01  0.51100000000E-03 0.  1.
        -12    1    4    4    0    0  0.16604202402E+00  0.10467119602E-01  0.15412436970E+02  0.15413334904E+02  0.00000000000E+00 0.  1.
</event>
<event>
 8    1  0.6239251E-010  0.9118800E+02  0.7816164E-02  0.1184000E+00
        -11   -1    0    0    0    0  0.00000000000E+00  0.00000000000E+00  0.45593999997E+02  0.45594000000E+02  0.51100000000E-03 0. -1.
         11   -1    0    0    0    0 -0.00000000000E+00 -0.00000000000E+00 -0.45593999997E+02  0.45594000000E+02  0.51100000000E-03 0.  1.
         23    2    1    2    0    0 -0.35527136788E-14 -0.17763568394E-14  0.00000000000E+00  0.91188000000E+02  0.91188000000E+02 0.  0.
    9900012    2    3    3    0    0  0.25171413435E+02  0.58077345374E+01 -0.34875403404E+02  0.47787267318E+02  0.19999983007E+02 0.  0.
         12    1    3    3    0    0 -0.25171413435E+02 -0.58077345374E+01  0.34875403404E+02  0.43400732682E+02  0.00000000000E+00 0. -1.
         11    1    4    4    0    0  0.13673921887E+01 -0.47138082809E+00  0.10344234051E+01  0.17781994615E+01  0.51100000000E-03 0. -1.
        -11    1    4    4    0    0  0.21712952872E+02  0.10248183556E+02 -0.32325559150E+02  0.40266851916E+02  0.51100000000E-03 0.  1.
        -12    1    4    4    0    0  0.20910683749E+01 -0.39690681905E+01 -0.35842676587E+01  0.57422159397E+01  0.00000000000E+00 0.  1.
</event>
<event>
 8    1  0.6239251E-010  0.9118800E+02  0.7816164E-02  0.1184000E+00
        -11   -1    0    0    0    0  0.00000000000E+00  0.00000000000E+00  0.45593999997E+02  0.45594000000E+02  0.51100000000E-03 0. -1.
         11   -1    0    0    0    0 -0.00000000000E+00 -0.00000000000E+00 -0.45593999997E+02  0.45594000000E+02  0.51100000000E-03 0.  1.
         23    2    1    2    0    0  0.35527136788E-14  0.00000000000E+00  0.00000000000E+00  0.91188000000E+02  0.91188000000E+02 0.  0.
    9900012    2    3    3    0    0  0.27706929592E+02 -0.18237809033E+02  0.27988059974E+02  0.47787272738E+02  0.20000007721E+02 0.  0.
        -12    1    3    3    0    0 -0.27706929592E+02  0.18237809033E+02 -0.27988059974E+02  0.43400727262E+02  0.00000000000E+00 0.  1.
         11    1    4    4    0    0  0.11054259271E+02 -0.18646290736E+02  0.12520135564E+02  0.25032670674E+02  0.51100000000E-03 0. -1.
        -11    1    4    4    0    0  0.12786905518E+02  0.13141468839E+00  0.11325927744E+02  0.17082121124E+02  0.51100000000E-03 0.  1.
         12    1    4    4    0    0  0.38657648033E+01  0.27706701471E+00  0.41419966654E+01  0.56724809406E+01  0.00000000000E+00 0. -1.
</event>
<event>
 8    1  0.6239251E-010  0.9118800E+02  0.7816164E-02  0.1184000E+00
        -11   -1    0    0    0    0  0.00000000000E+00  0.00000000000E+00  0.45593999997E+02  0.45594000000E+02  0.51100000000E-03 0. -1.
         11   -1    0    0    0    0 -0.00000000000E+00 -0.00000000000E+00 -0.45593999997E+02  0.45594000000E+02  0.51100000000E-03 0.  1.
         23    2    1    2    0    0  0.00000000000E+00  0.00000000000E+00 -0.44408920985E-15  0.91188000000E+02  0.91188000000E+02 0.  0.
    9900012    2    3    3    0    0  0.15308375052E+02  0.40433228544E+02 -0.37988389675E+01  0.47787268500E+02  0.19999988399E+02 0.  0.
        -12    1    3    3    0    0 -0.15308375052E+02 -0.40433228544E+02  0.37988389675E+01  0.43400731500E+02  0.00000000000E+00 0.  1.
         11    1    4    4    0    0  0.10585800581E+01  0.50180845199E+01  0.48503388922E+01  0.70588633376E+01  0.51100000000E-03 0. -1.
        -11    1    4    4    0    0  0.33114412861E+00  0.59891189808E+01 -0.53007833862E+01  0.80048427448E+01  0.51100000000E-03 0.  1.
         12    1    4    4    0    0  0.13918650865E+02  0.29426025043E+02 -0.33483944735E+01  0.32723562418E+02  0.00000000000E+00 0. -1.
</event>
<event>
 8    1  0.6239251E-010  0.9118800E+02  0.7816164E-02  0.1184000E+00
        -11   -1    0    0    0    0  0.00000000000E+00  0.00000000000E+00  0.45593999997E+02  0.45594000000E+02  0.51100000000E-03 0. -1.
         11   -1    0    0    0    0 -0.00000000000E+00 -0.00000000000E+00 -0.45593999997E+02  0.45594000000E+02  0.51100000000E-03 0.  1.
         23    2    1    2    0    0  0.00000000000E+00  0.00000000000E+00  0.26645352591E-14  0.91188000000E+02  0.91188000000E+02 0.  0.
    9900012    2    3    3    0    0  0.17697047564E+02  0.39170764399E+02 -0.60074517368E+01  0.47787265531E+02  0.19999974860E+02 0.  0.
        -12    1    3    3    0    0 -0.17697047564E+02 -0.39170764399E+02  0.60074517368E+01  0.43400734469E+02  0.00000000000E+00 0.  1.
         11    1    4    4    0    0  0.41049544755E+01  0.21779409344E+02  0.37490464112E+01  0.22477737250E+02  0.51100000000E-03 0. -1.
        -11    1    4    4    0    0  0.12185924272E+02  0.10047737758E+02 -0.56176034875E+01  0.16763390278E+02  0.51100000000E-03 0.  1.
         12    1    4    4    0    0  0.14061688169E+01  0.73436172971E+01 -0.41388946605E+01  0.85461380026E+01  0.00000000000E+00 0. -1.
</event>
<event>
 8    1  0.6239251E-010  0.9118800E+02  0.7816164E-02  0.1184000E+00
        -11   -1    0    0    0    0  0.00000000000E+00  0.00000000000E+00  0.45593999997E+02  0.45594000000E+02  0.51100000000E-03 0. -1.
         11   -1    0    0    0    0 -0.00000000000E+00 -0.00000000000E+00 -0.45593999997E+02  0.45594000000E+02  0.51100000000E-03 0.  1.
         23    2    1    2    0    0  0.00000000000E+00  0.00000000000E+00  0.00000000000E+00  0.91188000000E+02  0.91188000000E+02 0.  0.
    9900012    2    3    3    0    0 -0.42345573537E+01  0.80040535863E+01  0.42445576232E+02  0.47787270842E+02  0.19999999076E+02 0.  0.
        -12    1    3    3    0    0  0.42345573537E+01 -0.80040535863E+01 -0.42445576232E+02  0.43400729158E+02  0.00000000000E+00 0.  1.
         11    1    4    4    0    0 -0.14264171053E+01  0.43062853436E+01 -0.90902168923E-02  0.45363908686E+01  0.51100000000E-03 0.  1.
        -11    1    4    4    0    0  0.14928234048E+01  0.10503750785E+01  0.25364245937E+02  0.25429840379E+02  0.51100000000E-03 0. -1.
         12    1    4    4    0    0 -0.43009636533E+01  0.26473931641E+01  0.17090420512E+02  0.17821039594E+02  0.00000000000E+00 0. -1.
</event>
<event>
 8    1  0.6239251E-010  0.9118800E+02  0.7816164E-02  0.1184000E+00
        -11   -1    0    0    0    0  0.00000000000E+00  0.00000000000E+00  0.45593999997E+02  0.45594000000E+02  0.51100000000E-03 0. -1.
         11   -1    0    0    0    0 -0.00000000000E+00 -0.00000000000E+00 -0.45593999997E+02  0.45594000000E+02  0.51100000000E-03 0.  1.
         23    2    1    2    0    0  0.00000000000E+00  0.71054273576E-14  0.00000000000E+00  0.91188000000E+02  0.91188000000E+02 0.  0.
    9900012    2    3    3    0    0 -0.12205580319E+02 -0.33189586902E+02 -0.25161455023E+02  0.47787266267E+02  0.19999978220E+02 0.  0.
         12    1    3    3    0    0  0.12205580319E+02  0.33189586902E+02  0.25161455023E+02  0.43400733733E+02  0.00000000000E+00 0. -1.
         11    1    4    4    0    0 -0.12106343263E+02 -0.88499017133E+01 -0.12064528232E+02  0.19246743861E+02  0.51100000000E-03 0. -1.
        -11    1    4    4    0    0 -0.19587189080E+01 -0.62275541225E+01 -0.63957002198E+01  0.91391461128E+01  0.51100000000E-03 0.  1.
         12    1    4    4    0    0  0.18594818519E+01 -0.18112131067E+02 -0.67012265709E+01  0.19401376294E+02  0.00000000000E+00 0. -1.
</event>
<event>
 8    1  0.6239251E-010  0.9118800E+02  0.7816164E-02  0.1184000E+00
        -11   -1    0    0    0    0  0.00000000000E+00  0.00000000000E+00  0.45593999997E+02  0.45594000000E+02  0.51100000000E-03 0. -1.
         11   -1    0    0    0    0 -0.00000000000E+00 -0.00000000000E+00 -0.45593999997E+02  0.45594000000E+02  0.51100000000E-03 0.  1.
         23    2    1    2    0    0  0.00000000000E+00  0.22204460493E-15 -0.35527136788E-14  0.91188000000E+02  0.91188000000E+02 0.  0.
    9900012    2    3    3    0    0 -0.39480699350E+02 -0.15893486480E+01  0.17954697355E+02  0.47787276418E+02  0.20000024502E+02 0.  0.
        -12    1    3    3    0    0  0.39480699350E+02  0.15893486480E+01 -0.17954697355E+02  0.43400723582E+02  0.00000000000E+00 0.  1.
         11    1    4    4    0    0 -0.17052019488E+02  0.39494624465E+01  0.12970288506E+02  0.21785270400E+02  0.51100000000E-03 0. -1.
        -11    1    4    4    0    0 -0.96662042202E+01 -0.43210658049E+01 -0.28658205302E+01  0.10969049243E+02  0.51100000000E-03 0.  1.
         12    1    4    4    0    0 -0.12762475642E+02 -0.12177452897E+01  0.78502293791E+01  0.15032956775E+02  0.00000000000E+00 0. -1.
</event>
<event>
 8    1  0.6239251E-010  0.9118800E+02  0.7816164E-02  0.1184000E+00
        -11   -1    0    0    0    0  0.00000000000E+00  0.00000000000E+00  0.45593999997E+02  0.45594000000E+02  0.51100000000E-03 0. -1.
         11   -1    0    0    0    0 -0.00000000000E+00 -0.00000000000E+00 -0.45593999997E+02  0.45594000000E+02  0.51100000000E-03 0.  1.
         23    2    1    2    0    0  0.00000000000E+00 -0.35527136788E-14  0.71054273576E-14  0.91188000000E+02  0.91188000000E+02 0.  0.
    9900012    2    3    3    0    0 -0.17418741759E+02  0.22335054257E+02 -0.32883973338E+02  0.47787275171E+02  0.20000018816E+02 0.  0.
         12    1    3    3    0    0  0.17418741759E+02 -0.22335054257E+02  0.32883973338E+02  0.43400724829E+02  0.00000000000E+00 0. -1.
         11    1    4    4    0    0 -0.15196599739E+02  0.23397260401E+02 -0.25870971340E+02  0.38048332371E+02  0.51100000000E-03 0. -1.
        -11    1    4    4    0    0 -0.17024996540E+01  0.14623422459E+01 -0.67906283996E+01  0.71518937519E+01  0.51100000000E-03 0.  1.
         12    1    4    4    0    0 -0.51964236625E+00 -0.25245483894E+01 -0.22237359851E+00  0.25870490480E+01  0.00000000000E+00 0. -1.
</event>
<event>
 8    1  0.6239251E-010  0.9118800E+02  0.7816164E-02  0.1184000E+00
        -11   -1    0    0    0    0  0.00000000000E+00  0.00000000000E+00  0.45593999997E+02  0.45594000000E+02  0.51100000000E-03 0. -1.
         11   -1    0    0    0    0 -0.00000000000E+00 -0.00000000000E+00 -0.45593999997E+02  0.45594000000E+02  0.51100000000E-03 0.  1.
         23    2    1    2    0    0  0.00000000000E+00  0.00000000000E+00  0.00000000000E+00  0.91188000000E+02  0.91188000000E+02 0.  0.
    9900012    2    3    3    0    0 -0.15982696782E+02 -0.20254817950E+02 -0.34898693047E+02  0.47787273934E+02  0.20000013176E+02 0.  0.
         12    1    3    3    0    0  0.15982696782E+02  0.20254817950E+02  0.34898693047E+02  0.43400726066E+02  0.00000000000E+00 0. -1.
         11    1    4    4    0    0 -0.15540276564E+02 -0.16688583152E+02 -0.20595738917E+02  0.30727731207E+02  0.51100000000E-03 0. -1.
        -11    1    4    4    0    0 -0.97754141497E+00 -0.31292286820E+00 -0.13662358095E+02  0.13700858985E+02  0.51100000000E-03 0.  1.
        -12    1    4    4    0    0  0.53512119624E+00 -0.32533119292E+01 -0.64059603507E+00  0.33586837427E+01  0.00000000000E+00 0.  1.
</event>
<event>
 8    1  0.6239251E-010  0.9118800E+02  0.7816164E-02  0.1184000E+00
        -11   -1    0    0    0    0  0.00000000000E+00  0.00000000000E+00  0.45593999997E+02  0.45594000000E+02  0.51100000000E-03 0. -1.
         11   -1    0    0    0    0 -0.00000000000E+00 -0.00000000000E+00 -0.45593999997E+02  0.45594000000E+02  0.51100000000E-03 0.  1.
         23    2    1    2    0    0  0.00000000000E+00 -0.35527136788E-14 -0.35527136788E-14  0.91188000000E+02  0.91188000000E+02 0.  0.
    9900012    2    3    3    0    0  0.25112859836E+02 -0.25027868264E+02 -0.25031456886E+02  0.47787265527E+02  0.19999974842E+02 0.  0.
         12    1    3    3    0    0 -0.25112859836E+02  0.25027868264E+02  0.25031456886E+02  0.43400734473E+02  0.00000000000E+00 0. -1.
         11    1    4    4    0    0  0.12336316080E+02 -0.61740317017E+01 -0.14491306217E+02  0.20007531533E+02  0.51100000000E-03 0. -1.
        -11    1    4    4    0    0  0.80263427146E+01 -0.18520003273E+02 -0.56639781992E+01  0.20964096639E+02  0.51100000000E-03 0.  1.
         12    1    4    4    0    0  0.47502010408E+01 -0.33383328955E+00 -0.48761724698E+01  0.68156373546E+01  0.00000000000E+00 0. -1.
</event>
<event>
 8    1  0.6239251E-010  0.9118800E+02  0.7816164E-02  0.1184000E+00
        -11   -1    0    0    0    0  0.00000000000E+00  0.00000000000E+00  0.45593999997E+02  0.45594000000E+02  0.51100000000E-03 0. -1.
         11   -1    0    0    0    0 -0.00000000000E+00 -0.00000000000E+00 -0.45593999997E+02  0.45594000000E+02  0.51100000000E-03 0.  1.
         23    2    1    2    0    0 -0.35527136788E-14  0.00000000000E+00  0.00000000000E+00  0.91188000000E+02  0.91188000000E+02 0.  0.
    9900012    2    3    3    0    0 -0.26815294935E+02  0.25106266515E+02 -0.23113607898E+02  0.47787268085E+02  0.19999986505E+02 0.  0.
         12    1    3    3    0    0  0.26815294935E+02 -0.25106266515E+02  0.23113607898E+02  0.43400731915E+02  0.00000000000E+00 0. -1.
         11    1    4    4    0    0 -0.41760160993E+01 -0.63710459896E+00 -0.65071670227E+01  0.77581077366E+01  0.51100000000E-03 0. -1.
        -11    1    4    4    0    0 -0.79629611282E+01  0.17156869637E+02 -0.12045232425E+02  0.22424418613E+02  0.51100000000E-03 0.  1.
         12    1    4    4    0    0 -0.14676317707E+02  0.85865014767E+01 -0.45612084495E+01  0.17604741735E+02  0.00000000000E+00 0. -1.
</event>
<event>
 8    1  0.6239251E-010  0.9118800E+02  0.7816164E-02  0.1184000E+00
        -11   -1    0    0    0    0  0.00000000000E+00  0.00000000000E+00  0.45593999997E+02  0.45594000000E+02  0.51100000000E-03 0. -1.
         11   -1    0    0    0    0 -0.00000000000E+00 -0.00000000000E+00 -0.45593999997E+02  0.45594000000E+02  0.51100000000E-03 0.  1.
         23    2    1    2    0    0 -0.35527136788E-14  0.00000000000E+00  0.00000000000E+00  0.91188000000E+02  0.91188000000E+02 0.  0.
    9900012    2    3    3    0    0  0.19881987537E+02  0.39009348895E+01 -0.38381148666E+02  0.47787270808E+02  0.19999998924E+02 0.  0.
         12    1    3    3    0    0 -0.19881987537E+02 -0.39009348895E+01  0.38381148666E+02  0.43400729192E+02  0.00000000000E+00 0. -1.
         11    1    4    4    0    0  0.43639726703E+01  0.28471614180E+01  0.48657975866E+00  0.52332920547E+01  0.51100000000E-03 0. -1.
        -11    1    4    4    0    0  0.53031399213E+01  0.32160300628E+01 -0.20593949159E+02  0.21507600625E+02  0.51100000000E-03 0.  1.
         12    1    4    4    0    0  0.10214874946E+02 -0.21622565913E+01 -0.18273779265E+02  0.21046378129E+02  0.00000000000E+00 0. -1.
</event>
<event>
 8    1  0.6239251E-010  0.9118800E+02  0.7816164E-02  0.1184000E+00
        -11   -1    0    0    0    0  0.00000000000E+00  0.00000000000E+00  0.45593999997E+02  0.45594000000E+02  0.51100000000E-03 0. -1.
         11   -1    0    0    0    0 -0.00000000000E+00 -0.00000000000E+00 -0.45593999997E+02  0.45594000000E+02  0.51100000000E-03 0.  1.
         23    2    1    2    0    0  0.00000000000E+00  0.00000000000E+00  0.00000000000E+00  0.91188000000E+02  0.91188000000E+02 0.  0.
    9900012    2    3    3    0    0  0.27553200549E+02  0.94634870919E+01  0.32169656596E+02  0.47787271274E+02  0.20000001046E+02 0.  0.
        -12    1    3    3    0    0 -0.27553200549E+02 -0.94634870919E+01 -0.32169656596E+02  0.43400728726E+02  0.00000000000E+00 0.  1.
         11    1    4    4    0    0  0.12837380949E+02  0.41529877806E+01  0.10839300073E+02  0.17307110778E+02  0.51100000000E-03 0. -1.
        -11    1    4    4    0    0  0.12750829342E+02 -0.96192802131E+00  0.66887209593E+01  0.14430798411E+02  0.51100000000E-03 0.  1.
        -12    1    4    4    0    0  0.19649902571E+01  0.62724273327E+01  0.14641635564E+02  0.16049362085E+02  0.00000000000E+00 0.  1.
</event>
<event>
 8    1  0.6239251E-010  0.9118800E+02  0.7816164E-02  0.1184000E+00
        -11   -1    0    0    0    0  0.00000000000E+00  0.00000000000E+00  0.45593999997E+02  0.45594000000E+02  0.51100000000E-03 0. -1.
         11   -1    0    0    0    0 -0.00000000000E+00 -0.00000000000E+00 -0.45593999997E+02  0.45594000000E+02  0.51100000000E-03 0.  1.
         23    2    1    2    0    0 -0.88817841970E-15  0.88817841970E-15  0.71054273576E-14  0.91188000000E+02  0.91188000000E+02 0.  0.
    9900012    2    3    3    0    0 -0.23891777151E+01 -0.54003247558E+01 -0.42997110821E+02  0.47787271704E+02  0.20000003009E+02 0.  0.
         12    1    3    3    0    0  0.23891777151E+01  0.54003247558E+01  0.42997110821E+02  0.43400728296E+02  0.00000000000E+00 0. -1.
         11    1    4    4    0    0 -0.69629539809E+01 -0.51076833146E+01 -0.32567201271E+02  0.33692636523E+02  0.51100000000E-03 0. -1.
        -11    1    4    4    0    0  0.90858009502E+00 -0.24075966877E+01  0.27085522165E+00  0.25875475671E+01  0.51100000000E-03 0.  1.
         12    1    4    4    0    0  0.36651961707E+01  0.21149552466E+01 -0.10700764772E+02  0.11507087614E+02  0.00000000000E+00 0. -1.
</event>
<event>
 8    1  0.6239251E-010  0.9118800E+02  0.7816164E-02  0.1184000E+00
        -11   -1    0    0    0    0  0.00000000000E+00  0.00000000000E+00  0.45593999997E+02  0.45594000000E+02  0.51100000000E-03 0. -1.
         11   -1    0    0    0    0 -0.00000000000E+00 -0.00000000000E+00 -0.45593999997E+02  0.45594000000E+02  0.51100000000E-03 0.  1.
         23    2    1    2    0    0  0.00000000000E+00  0.00000000000E+00 -0.71054273576E-14  0.91188000000E+02  0.91188000000E+02 0.  0.
    9900012    2    3    3    0    0  0.20700926966E+02  0.20097221574E+02  0.32422170821E+02  0.47787264373E+02  0.19999969582E+02 0.  0.
        -12    1    3    3    0    0 -0.20700926966E+02 -0.20097221574E+02 -0.32422170821E+02  0.43400735627E+02  0.00000000000E+00 0.  1.
         11    1    4    4    0    0  0.11233777096E+02  0.12131680714E+01  0.64377121305E+01  0.13004370894E+02  0.51100000000E-03 0. -1.
        -11    1    4    4    0    0  0.90661145473E+01  0.15718359152E+02  0.25857845012E+02  0.31589387401E+02  0.51100000000E-03 0.  1.
         12    1    4    4    0    0  0.40103532243E+00  0.31656943499E+01  0.12661367837E+00  0.31935060780E+01  0.00000000000E+00 0. -1.
</event>
<event>
 8    1  0.6239251E-010  0.9118800E+02  0.7816164E-02  0.1184000E+00
        -11   -1    0    0    0    0  0.00000000000E+00  0.00000000000E+00  0.45593999997E+02  0.45594000000E+02  0.51100000000E-03 0. -1.
         11   -1    0    0    0    0 -0.00000000000E+00 -0.00000000000E+00 -0.45593999997E+02  0.45594000000E+02  0.51100000000E-03 0.  1.
         23    2    1    2    0    0 -0.66613381478E-15  0.35527136788E-14  0.00000000000E+00  0.91188000000E+02  0.91188000000E+02 0.  0.
    9900012    2    3    3    0    0  0.13387351036E+01  0.25972180896E+02  0.34745896004E+02  0.47787266351E+02  0.19999978599E+02 0.  0.
        -12    1    3    3    0    0 -0.13387351036E+01 -0.25972180896E+02 -0.34745896004E+02  0.43400733649E+02  0.00000000000E+00 0.  1.
         11    1    4    4    0    0 -0.29037530128E+01  0.23570718772E+02  0.19160439700E+02  0.30514472218E+02  0.51100000000E-03 0. -1.
        -11    1    4    4    0    0  0.40695647149E+01  0.31504072738E+01  0.15675659507E+02  0.16498870392E+02  0.51100000000E-03 0.  1.
        -12    1    4    4    0    0  0.17292340148E+00 -0.74894514942E+00 -0.90203202370E-01  0.77392374129E+00  0.00000000000E+00 0.  1.
</event>
<event>
 8    1  0.6239251E-010  0.9118800E+02  0.7816164E-02  0.1184000E+00
        -11   -1    0    0    0    0  0.00000000000E+00  0.00000000000E+00  0.45593999997E+02  0.45594000000E+02  0.51100000000E-03 0. -1.
         11   -1    0    0    0    0 -0.00000000000E+00 -0.00000000000E+00 -0.45593999997E+02  0.45594000000E+02  0.51100000000E-03 0.  1.
         23    2    1    2    0    0  0.35527136788E-14  0.00000000000E+00 -0.35527136788E-14  0.91188000000E+02  0.91188000000E+02 0.  0.
    9900012    2    3    3    0    0  0.26628967857E+02 -0.16417910752E+02 -0.30082771900E+02  0.47787275492E+02  0.20000020278E+02 0.  0.
         12    1    3    3    0    0 -0.26628967857E+02  0.16417910752E+02  0.30082771900E+02  0.43400724508E+02  0.00000000000E+00 0. -1.
         11    1    4    4    0    0  0.42760773319E+01 -0.25016040014E+00 -0.23199989758E+01  0.48713255981E+01  0.51100000000E-03 0. -1.
        -11    1    4    4    0    0  0.13591863921E+02 -0.13303733276E+02 -0.71188732034E+01  0.20307792590E+02  0.51100000000E-03 0.  1.
        -12    1    4    4    0    0  0.87610266041E+01 -0.28640170761E+01 -0.20643899721E+02  0.22608157304E+02  0.00000000000E+00 0.  1.
</event>
<event>
 8    1  0.6239251E-010  0.9118800E+02  0.7816164E-02  0.1184000E+00
        -11   -1    0    0    0    0  0.00000000000E+00  0.00000000000E+00  0.45593999997E+02  0.45594000000E+02  0.51100000000E-03 0.  1.
         11   -1    0    0    0    0 -0.00000000000E+00 -0.00000000000E+00 -0.45593999997E+02  0.45594000000E+02  0.51100000000E-03 0. -1.
         23    2    1    2    0    0 -0.71054273576E-14  0.00000000000E+00  0.00000000000E+00  0.91188000000E+02  0.91188000000E+02 0.  0.
    9900012    2    3    3    0    0 -0.33320385729E+02  0.27042023690E+02 -0.64888067772E+01  0.47787265401E+02  0.19999974269E+02 0.  0.
        -12    1    3    3    0    0  0.33320385729E+02 -0.27042023690E+02  0.64888067772E+01  0.43400734599E+02  0.00000000000E+00 0.  1.
         11    1    4    4    0    0 -0.73152938770E+01  0.14274597827E+02  0.24184840859E+01  0.16221181620E+02  0.51100000000E-03 0. -1.
        -11    1    4    4    0    0 -0.23085191698E+02  0.14071512694E+02 -0.85106889347E+01  0.28343700740E+02  0.51100000000E-03 0.  1.
        -12    1    4    4    0    0 -0.29199001541E+01 -0.13040868310E+01 -0.39660192839E+00  0.32223830409E+01  0.00000000000E+00 0.  1.
</event>
<event>
 8    1  0.8872491E-010  0.9118800E+02  0.7816164E-02  0.1184000E+00
        -11   -1    0    0    0    0  0.00000000000E+00  0.00000000000E+00  0.45593999997E+02  0.45594000000E+02  0.51100000000E-03 0. -1.
         11   -1    0    0    0    0 -0.00000000000E+00 -0.00000000000E+00 -0.45593999997E+02  0.45594000000E+02  0.51100000000E-03 0.  1.
         23    2    1    2    0    0  0.00000000000E+00  0.00000000000E+00  0.00000000000E+00  0.91188000000E+02  0.91188000000E+02 0.  0.
    9900012    2    3    3    0    0  0.10042718432E+02 -0.87496951541E+01  0.41306289758E+02  0.47787274979E+02  0.20000017940E+02 0.  0.
        -12    1    3    3    0    0 -0.10042718432E+02  0.87496951541E+01 -0.41306289758E+02  0.43400725021E+02  0.00000000000E+00 0.  1.
         11    1    4    4    0    0 -0.29141060517E+01 -0.27369184663E+00  0.13811602432E+02  0.14118331464E+02  0.51100000000E-03 0. -1.
        -11    1    4    4    0    0  0.91709201841E+01 -0.99957221756E+01  0.13684375014E+02  0.19268688554E+02  0.51100000000E-03 0.  1.
        -12    1    4    4    0    0  0.37859042995E+01  0.15197188681E+01  0.13810312312E+02  0.14400254961E+02  0.00000000000E+00 0.  1.
</event>
<event>
 8    1  0.6239251E-010  0.9118800E+02  0.7816164E-02  0.1184000E+00
        -11   -1    0    0    0    0  0.00000000000E+00  0.00000000000E+00  0.45593999997E+02  0.45594000000E+02  0.51100000000E-03 0. -1.
         11   -1    0    0    0    0 -0.00000000000E+00 -0.00000000000E+00 -0.45593999997E+02  0.45594000000E+02  0.51100000000E-03 0.  1.
         23    2    1    2    0    0  0.35527136788E-14 -0.88817841970E-15  0.00000000000E+00  0.91188000000E+02  0.91188000000E+02 0.  0.
    9900012    2    3    3    0    0  0.15902227473E+02 -0.76441247467E+01 -0.39652359192E+02  0.47787273379E+02  0.20000010646E+02 0.  0.
         12    1    3    3    0    0 -0.15902227473E+02  0.76441247467E+01  0.39652359192E+02  0.43400726621E+02  0.00000000000E+00 0. -1.
         11    1    4    4    0    0  0.70778058355E+01  0.27295913454E+01 -0.68229250734E+01  0.10202857991E+02  0.51100000000E-03 0. -1.
        -11    1    4    4    0    0 -0.11266881286E+01 -0.78595399554E+01 -0.12450728478E+02  0.14766937202E+02  0.51100000000E-03 0.  1.
        -12    1    4    4    0    0  0.99511097657E+01 -0.25141761368E+01 -0.20378705640E+02  0.22817478187E+02  0.00000000000E+00 0.  1.
</event>
<event>
 8    1  0.6239251E-010  0.9118800E+02  0.7816164E-02  0.1184000E+00
        -11   -1    0    0    0    0  0.00000000000E+00  0.00000000000E+00  0.45593999997E+02  0.45594000000E+02  0.51100000000E-03 0. -1.
         11   -1    0    0    0    0 -0.00000000000E+00 -0.00000000000E+00 -0.45593999997E+02  0.45594000000E+02  0.51100000000E-03 0.  1.
         23    2    1    2    0    0  0.00000000000E+00 -0.88817841970E-15  0.00000000000E+00  0.91188000000E+02  0.91188000000E+02 0.  0.
    9900012    2    3    3    0    0 -0.38309426009E+02  0.71062236727E+01  0.19118395610E+02  0.47787267440E+02  0.19999983567E+02 0.  0.
        -12    1    3    3    0    0  0.38309426009E+02 -0.71062236727E+01 -0.19118395610E+02  0.43400732560E+02  0.00000000000E+00 0.  1.
         11    1    4    4    0    0 -0.26617199208E+02 -0.51766360659E+00  0.20162491858E+02  0.33395648630E+02  0.51100000000E-03 0. -1.
        -11    1    4    4    0    0 -0.10140059246E+02  0.71852805452E+01 -0.18894578737E+01  0.12570565196E+02  0.51100000000E-03 0.  1.
         12    1    4    4    0    0 -0.15521675552E+01  0.43860673406E+00  0.84536162638E+00  0.18210536143E+01  0.00000000000E+00 0. -1.
</event>
<event>
 8    1  0.6239251E-010  0.9118800E+02  0.7816164E-02  0.1184000E+00
        -11   -1    0    0    0    0  0.00000000000E+00  0.00000000000E+00  0.45593999997E+02  0.45594000000E+02  0.51100000000E-03 0. -1.
         11   -1    0    0    0    0 -0.00000000000E+00 -0.00000000000E+00 -0.45593999997E+02  0.45594000000E+02  0.51100000000E-03 0.  1.
         23    2    1    2    0    0  0.71054273576E-14  0.00000000000E+00 -0.35527136788E-14  0.91188000000E+02  0.91188000000E+02 0.  0.
    9900012    2    3    3    0    0  0.33968640646E+02  0.37930870540E+01 -0.26746343712E+02  0.47787274675E+02  0.20000016554E+02 0.  0.
         12    1    3    3    0    0 -0.33968640646E+02 -0.37930870540E+01  0.26746343712E+02  0.43400725325E+02  0.00000000000E+00 0. -1.
         11    1    4    4    0    0  0.12951575198E+01  0.13088720637E+01  0.67751055751E+00  0.19620397287E+01  0.51100000000E-03 0. -1.
        -11    1    4    4    0    0  0.44815122594E+01  0.50103313120E+00 -0.13669920271E+02  0.14394502660E+02  0.51100000000E-03 0.  1.
        -12    1    4    4    0    0  0.28191970867E+02  0.19831818591E+01 -0.13753933999E+02  0.31430732287E+02  0.00000000000E+00 0.  1.
</event>
<event>
 8    1  0.7400328E-010  0.9118800E+02  0.7816164E-02  0.1184000E+00
        -11   -1    0    0    0    0  0.00000000000E+00  0.00000000000E+00  0.45593999997E+02  0.45594000000E+02  0.51100000000E-03 0. -1.
         11   -1    0    0    0    0 -0.00000000000E+00 -0.00000000000E+00 -0.45593999997E+02  0.45594000000E+02  0.51100000000E-03 0.  1.
         23    2    1    2    0    0  0.00000000000E+00  0.00000000000E+00  0.71054273576E-14  0.91188000000E+02  0.91188000000E+02 0.  0.
    9900012    2    3    3    0    0 -0.46075111934E+01 -0.10187853654E+02  0.41935689877E+02  0.47787267208E+02  0.19999982506E+02 0.  0.
        -12    1    3    3    0    0  0.46075111934E+01  0.10187853654E+02 -0.41935689877E+02  0.43400732792E+02  0.00000000000E+00 0.  1.
         11    1    4    4    0    0 -0.29716555539E+01 -0.41333682927E+01  0.12460497305E+02  0.13460292104E+02  0.51100000000E-03 0. -1.
        -11    1    4    4    0    0 -0.90851550480E-01 -0.81536931124E+01  0.30466131175E+02  0.31538486242E+02  0.51100000000E-03 0.  1.
        -12    1    4    4    0    0 -0.15450040890E+01  0.20992077507E+01 -0.99093860361E+00  0.27884888617E+01  0.00000000000E+00 0.  1.
</event>
<event>
 8    1  0.6239251E-010  0.9118800E+02  0.7816164E-02  0.1184000E+00
        -11   -1    0    0    0    0  0.00000000000E+00  0.00000000000E+00  0.45593999997E+02  0.45594000000E+02  0.51100000000E-03 0. -1.
         11   -1    0    0    0    0 -0.00000000000E+00 -0.00000000000E+00 -0.45593999997E+02  0.45594000000E+02  0.51100000000E-03 0.  1.
         23    2    1    2    0    0  0.88817841970E-15  0.71054273576E-14  0.35527136788E-14  0.91188000000E+02  0.91188000000E+02 0.  0.
    9900012    2    3    3    0    0  0.40435398756E+01 -0.33086351997E+02 -0.27795077080E+02  0.47787271745E+02  0.20000003194E+02 0.  0.
         12    1    3    3    0    0 -0.40435398756E+01  0.33086351997E+02  0.27795077080E+02  0.43400728255E+02  0.00000000000E+00 0. -1.
         11    1    4    4    0    0  0.10055023030E+02 -0.14097552259E+02 -0.12339688851E+02  0.21262934629E+02  0.51100000000E-03 0. -1.
        -11    1    4    4    0    0  0.18225571858E+01 -0.61017945141E+01 -0.58251267888E+01  0.86305106079E+01  0.51100000000E-03 0.  1.
         12    1    4    4    0    0 -0.78340403406E+01 -0.12887005224E+02 -0.96302614397E+01  0.17893826508E+02  0.00000000000E+00 0. -1.
</event>
<event>
 8    1  0.6239251E-010  0.9118800E+02  0.7816164E-02  0.1184000E+00
        -11   -1    0    0    0    0  0.00000000000E+00  0.00000000000E+00  0.45593999997E+02  0.45594000000E+02  0.51100000000E-03 0. -1.
         11   -1    0    0    0    0 -0.00000000000E+00 -0.00000000000E+00 -0.45593999997E+02  0.45594000000E+02  0.51100000000E-03 0.  1.
         23    2    1    2    0    0  0.44408920985E-15  0.00000000000E+00  0.00000000000E+00  0.91188000000E+02  0.91188000000E+02 0.  0.
    9900012    2    3    3    0    0 -0.27963112965E+01 -0.35298291320E+02 -0.25096500387E+02  0.47787273524E+02  0.20000011306E+02 0.  0.
         12    1    3    3    0    0  0.27963112965E+01  0.35298291320E+02  0.25096500387E+02  0.43400726476E+02  0.00000000000E+00 0. -1.
         11    1    4    4    0    0 -0.56818822958E+01 -0.13095705827E+02 -0.54998789351E+01  0.15298037982E+02  0.51100000000E-03 0. -1.
        -11    1    4    4    0    0 -0.28920492448E+01 -0.17371036266E+02 -0.98697810234E+01  0.20187358111E+02  0.51100000000E-03 0.  1.
         12    1    4    4    0    0  0.57776202441E+01 -0.48315492271E+01 -0.97268404284E+01  0.12301877431E+02  0.00000000000E+00 0. -1.
</event>
<event>
 8    1  0.6239251E-010  0.9118800E+02  0.7816164E-02  0.1184000E+00
        -11   -1    0    0    0    0  0.00000000000E+00  0.00000000000E+00  0.45593999997E+02  0.45594000000E+02  0.51100000000E-03 0. -1.
         11   -1    0    0    0    0 -0.00000000000E+00 -0.00000000000E+00 -0.45593999997E+02  0.45594000000E+02  0.51100000000E-03 0.  1.
         23    2    1    2    0    0  0.00000000000E+00  0.00000000000E+00  0.00000000000E+00  0.91188000000E+02  0.91188000000E+02 0.  0.
    9900012    2    3    3    0    0 -0.18519189489E+02  0.34658116245E+02  0.18424844338E+02  0.47787305422E+02  0.20000156738E+02 0.  0.
         12    1    3    3    0    0  0.18519189489E+02 -0.34658116245E+02 -0.18424844338E+02  0.43400694578E+02  0.00000000000E+00 0. -1.
         11    1    4    4    0    0  0.18883029339E+01  0.25992856553E+00  0.32252203613E+01  0.37463712402E+01  0.51100000000E-03 0. -1.
        -11    1    4    4    0    0 -0.13267579980E+02  0.30168515543E+02  0.11031634464E+02  0.34754351782E+02  0.51100000000E-03 0.  1.
        -12    1    4    4    0    0 -0.71399124426E+01  0.42296721366E+01  0.41679895131E+01  0.92865823990E+01  0.00000000000E+00 0.  1.
</event>
<event>
 8    1  0.6239251E-010  0.9118800E+02  0.7816164E-02  0.1184000E+00
        -11   -1    0    0    0    0  0.00000000000E+00  0.00000000000E+00  0.45593999997E+02  0.45594000000E+02  0.51100000000E-03 0. -1.
         11   -1    0    0    0    0 -0.00000000000E+00 -0.00000000000E+00 -0.45593999997E+02  0.45594000000E+02  0.51100000000E-03 0.  1.
         23    2    1    2    0    0 -0.44408920985E-15  0.00000000000E+00 -0.35527136788E-14  0.91188000000E+02  0.91188000000E+02 0.  0.
    9900012    2    3    3    0    0 -0.32487888561E+01  0.30457639560E+02 -0.30747371355E+02  0.47787270953E+02  0.19999999583E+02 0.  0.
         12    1    3    3    0    0  0.32487888561E+01 -0.30457639560E+02  0.30747371355E+02  0.43400729047E+02  0.00000000000E+00 0. -1.
         11    1    4    4    0    0 -0.73781080784E+01  0.86960385228E+01 -0.75290922295E+01  0.13665459922E+02  0.51100000000E-03 0. -1.
        -11    1    4    4    0    0  0.59614224546E+01  0.40714043858E+01 -0.67806264172E+01  0.99041297561E+01  0.51100000000E-03 0.  1.
        -12    1    4    4    0    0 -0.18321032323E+01  0.17690196651E+02 -0.16437652708E+02  0.24217681275E+02  0.00000000000E+00 0.  1.
</event>
<event>
 8    1  0.7529359E-010  0.9118800E+02  0.7816164E-02  0.1184000E+00
        -11   -1    0    0    0    0  0.00000000000E+00  0.00000000000E+00  0.45593999997E+02  0.45594000000E+02  0.51100000000E-03 0. -1.
         11   -1    0    0    0    0 -0.00000000000E+00 -0.00000000000E+00 -0.45593999997E+02  0.45594000000E+02  0.51100000000E-03 0.  1.
         23    2    1    2    0    0  0.00000000000E+00  0.00000000000E+00  0.00000000000E+00  0.91188000000E+02  0.91188000000E+02 0.  0.
    9900012    2    3    3    0    0 -0.17471170983E+02 -0.64842992260E+01  0.39196113582E+02  0.47787271067E+02  0.20000000105E+02 0.  0.
        -12    1    3    3    0    0  0.17471170983E+02  0.64842992260E+01 -0.39196113582E+02  0.43400728933E+02  0.00000000000E+00 0.  1.
         11    1    4    4    0    0 -0.23439522396E+01 -0.22823267481E+01  0.16145999035E+02  0.16474113409E+02  0.51100000000E-03 0. -1.
        -11    1    4    4    0    0 -0.11856666357E+02  0.28426314265E+01  0.86411530640E+01  0.14944250301E+02  0.51100000000E-03 0.  1.
        -12    1    4    4    0    0 -0.32705523862E+01 -0.70446039045E+01  0.14408961482E+02  0.16368907358E+02  0.00000000000E+00 0.  1.
</event>
<event>
 8    1  0.6245148E-010  0.9118800E+02  0.7816164E-02  0.1184000E+00
        -11   -1    0    0    0    0  0.00000000000E+00  0.00000000000E+00  0.45593999997E+02  0.45594000000E+02  0.51100000000E-03 0. -1.
         11   -1    0    0    0    0 -0.00000000000E+00 -0.00000000000E+00 -0.45593999997E+02  0.45594000000E+02  0.51100000000E-03 0.  1.
         23    2    1    2    0    0  0.35527136788E-14  0.35527136788E-14  0.00000000000E+00  0.91188000000E+02  0.91188000000E+02 0.  0.
    9900012    2    3    3    0    0 -0.18749957654E+02 -0.23654582048E+02  0.31185306143E+02  0.47787268634E+02  0.19999989008E+02 0.  0.
        -12    1    3    3    0    0  0.18749957654E+02  0.23654582048E+02 -0.31185306143E+02  0.43400731366E+02  0.00000000000E+00 0.  1.
         11    1    4    4    0    0 -0.35731388815E+01 -0.15740935851E+02  0.17156097755E+02  0.23555807636E+02  0.51100000000E-03 0. -1.
        -11    1    4    4    0    0 -0.97178441785E+01  0.42481311018E+00  0.59588663847E+01  0.11407236760E+02  0.51100000000E-03 0.  1.
        -12    1    4    4    0    0 -0.54589745938E+01 -0.83384593074E+01  0.80703420036E+01  0.12824224237E+02  0.00000000000E+00 0.  1.
</event>
<event>
 8    1  0.6239251E-010  0.9118800E+02  0.7816164E-02  0.1184000E+00
        -11   -1    0    0    0    0  0.00000000000E+00  0.00000000000E+00  0.45593999997E+02  0.45594000000E+02  0.51100000000E-03 0. -1.
         11   -1    0    0    0    0 -0.00000000000E+00 -0.00000000000E+00 -0.45593999997E+02  0.45594000000E+02  0.51100000000E-03 0.  1.
         23    2    1    2    0    0  0.00000000000E+00  0.00000000000E+00  0.00000000000E+00  0.91188000000E+02  0.91188000000E+02 0.  0.
    9900012    2    3    3    0    0 -0.27711429569E+02 -0.17212068367E+02 -0.28625943947E+02  0.47787270823E+02  0.19999998992E+02 0.  0.
         12    1    3    3    0    0  0.27711429569E+02  0.17212068367E+02  0.28625943947E+02  0.43400729177E+02  0.00000000000E+00 0. -1.
         11    1    4    4    0    0 -0.15477510510E+01 -0.21531972935E+01 -0.47079688592E+00  0.26932214669E+01  0.51100000000E-03 0. -1.
        -11    1    4    4    0    0 -0.45936638592E+01  0.16863616486E+01  0.11620667778E+01  0.50295091926E+01  0.51100000000E-03 0.  1.
        -12    1    4    4    0    0 -0.21570014658E+02 -0.16745232722E+02 -0.29317213839E+02  0.40064540164E+02  0.00000000000E+00 0.  1.
</event>
<event>
 8    1  0.6239251E-010  0.9118800E+02  0.7816164E-02  0.1184000E+00
        -11   -1    0    0    0    0  0.00000000000E+00  0.00000000000E+00  0.45593999997E+02  0.45594000000E+02  0.51100000000E-03 0. -1.
         11   -1    0    0    0    0 -0.00000000000E+00 -0.00000000000E+00 -0.45593999997E+02  0.45594000000E+02  0.51100000000E-03 0.  1.
         23    2    1    2    0    0 -0.35527136788E-14 -0.35527136788E-14 -0.35527136788E-14  0.91188000000E+02  0.91188000000E+02 0.  0.
    9900012    2    3    3    0    0  0.21538818219E+02  0.28525221513E+02  0.24617357807E+02  0.47787271226E+02  0.20000000830E+02 0.  0.
        -12    1    3    3    0    0 -0.21538818219E+02 -0.28525221513E+02 -0.24617357807E+02  0.43400728774E+02  0.00000000000E+00 0.  1.
         11    1    4    4    0    0  0.42212026515E+01 -0.72490204064E+00  0.91154453263E+00  0.43789209275E+01  0.51100000000E-03 0.  1.
        -11    1    4    4    0    0  0.15391779780E+02  0.26853192561E+02  0.15439504231E+02  0.34588713863E+02  0.51100000000E-03 0. -1.
        -12    1    4    4    0    0  0.19258357876E+01  0.23969309929E+01  0.82663090432E+01  0.88196364360E+01  0.00000000000E+00 0.  1.
</event>
<event>
 8    1  0.6239251E-010  0.9118800E+02  0.7816164E-02  0.1184000E+00
        -11   -1    0    0    0    0  0.00000000000E+00  0.00000000000E+00  0.45593999997E+02  0.45594000000E+02  0.51100000000E-03 0. -1.
         11   -1    0    0    0    0 -0.00000000000E+00 -0.00000000000E+00 -0.45593999997E+02  0.45594000000E+02  0.51100000000E-03 0.  1.
         23    2    1    2    0    0  0.00000000000E+00  0.17763568394E-14  0.00000000000E+00  0.91188000000E+02  0.91188000000E+02 0.  0.
    9900012    2    3    3    0    0 -0.21461382065E+02 -0.12093341802E+02 -0.35732128577E+02  0.47787252902E+02  0.19999917280E+02 0.  0.
         12    1    3    3    0    0  0.21461382065E+02  0.12093341802E+02  0.35732128577E+02  0.43400747098E+02  0.00000000000E+00 0. -1.
         11    1    4    4    0    0 -0.44905188492E+00  0.23510576904E+01 -0.12199936729E+01  0.26865413978E+01  0.51100000000E-03 0. -1.
        -11    1    4    4    0    0 -0.21442937179E+02 -0.10526732503E+02 -0.33291387227E+02  0.40974725329E+02  0.51100000000E-03 0.  1.
        -12    1    4    4    0    0  0.43060699926E+00 -0.39176669888E+01 -0.12207476773E+01  0.41259861748E+01  0.00000000000E+00 0.  1.
</event>
<event>
 8    1  0.6239251E-010  0.9118800E+02  0.7816164E-02  0.1184000E+00
        -11   -1    0    0    0    0  0.00000000000E+00  0.00000000000E+00  0.45593999997E+02  0.45594000000E+02  0.51100000000E-03 0. -1.
         11   -1    0    0    0    0 -0.00000000000E+00 -0.00000000000E+00 -0.45593999997E+02  0.45594000000E+02  0.51100000000E-03 0.  1.
         23    2    1    2    0    0  0.35527136788E-14 -0.35527136788E-14  0.00000000000E+00  0.91188000000E+02  0.91188000000E+02 0.  0.
    9900012    2    3    3    0    0  0.29447278272E+02 -0.20588499308E+02 -0.24343268883E+02  0.47787271420E+02  0.20000001711E+02 0.  0.
         12    1    3    3    0    0 -0.29447278272E+02  0.20588499308E+02  0.24343268883E+02  0.43400728580E+02  0.00000000000E+00 0. -1.
         11    1    4    4    0    0  0.56838728771E+01  0.32038792951E+01 -0.62620316887E+01  0.90434669543E+01  0.51100000000E-03 0. -1.
        -11    1    4    4    0    0  0.21930461461E+02 -0.18829730096E+02 -0.14358415379E+02  0.32274881376E+02  0.51100000000E-03 0.  1.
         12    1    4    4    0    0  0.18329439341E+01 -0.49626485071E+01 -0.37228218148E+01  0.64689230893E+01  0.00000000000E+00 0. -1.
</event>
<event>
 8    1  0.6239251E-010  0.9118800E+02  0.7816164E-02  0.1184000E+00
        -11   -1    0    0    0    0  0.00000000000E+00  0.00000000000E+00  0.45593999997E+02  0.45594000000E+02  0.51100000000E-03 0. -1.
         11   -1    0    0    0    0 -0.00000000000E+00 -0.00000000000E+00 -0.45593999997E+02  0.45594000000E+02  0.51100000000E-03 0.  1.
         23    2    1    2    0    0 -0.17763568394E-14  0.00000000000E+00  0.00000000000E+00  0.91188000000E+02  0.91188000000E+02 0.  0.
    9900012    2    3    3    0    0  0.88610488734E+01  0.26682369153E+02  0.33062908488E+02  0.47787275024E+02  0.20000018144E+02 0.  0.
        -12    1    3    3    0    0 -0.88610488734E+01 -0.26682369153E+02 -0.33062908488E+02  0.43400724976E+02  0.00000000000E+00 0.  1.
         11    1    4    4    0    0  0.21176770922E+01  0.77875105226E+01  0.88026151813E+01  0.11942190364E+02  0.51100000000E-03 0. -1.
        -11    1    4    4    0    0  0.11787711446E+02  0.90343129953E+01  0.17133776479E+02  0.22674550693E+02  0.51100000000E-03 0.  1.
        -12    1    4    4    0    0 -0.50443396646E+01  0.98605456352E+01  0.71265168274E+01  0.13170533967E+02  0.00000000000E+00 0.  1.
</event>
<event>
 8    1  0.6239251E-010  0.9118800E+02  0.7816164E-02  0.1184000E+00
        -11   -1    0    0    0    0  0.00000000000E+00  0.00000000000E+00  0.45593999997E+02  0.45594000000E+02  0.51100000000E-03 0. -1.
         11   -1    0    0    0    0 -0.00000000000E+00 -0.00000000000E+00 -0.45593999997E+02  0.45594000000E+02  0.51100000000E-03 0.  1.
         23    2    1    2    0    0  0.00000000000E+00  0.88817841970E-15  0.00000000000E+00  0.91188000000E+02  0.91188000000E+02 0.  0.
    9900012    2    3    3    0    0 -0.27440534358E+02  0.47994914831E+01 -0.33280707276E+02  0.47787268196E+02  0.19999987011E+02 0.  0.
         12    1    3    3    0    0  0.27440534358E+02 -0.47994914831E+01  0.33280707276E+02  0.43400731804E+02  0.00000000000E+00 0. -1.
         11    1    4    4    0    0 -0.40092542970E+01 -0.20350508520E+00 -0.10303439107E+02  0.11057865618E+02  0.51100000000E-03 0. -1.
        -11    1    4    4    0    0 -0.70729340527E+01 -0.42338555316E+01 -0.13171050771E+02  0.15537969862E+02  0.51100000000E-03 0.  1.
        -12    1    4    4    0    0 -0.16358346008E+02  0.92368521000E+01 -0.98062173984E+01  0.21191432715E+02  0.00000000000E+00 0.  1.
</event>
<event>
 8    1  0.6239251E-010  0.9118800E+02  0.7816164E-02  0.1184000E+00
        -11   -1    0    0    0    0  0.00000000000E+00  0.00000000000E+00  0.45593999997E+02  0.45594000000E+02  0.51100000000E-03 0. -1.
         11   -1    0    0    0    0 -0.00000000000E+00 -0.00000000000E+00 -0.45593999997E+02  0.45594000000E+02  0.51100000000E-03 0.  1.
         23    2    1    2    0    0 -0.35527136788E-14  0.35527136788E-14  0.00000000000E+00  0.91188000000E+02  0.91188000000E+02 0.  0.
    9900012    2    3    3    0    0 -0.25896718712E+02 -0.28448516554E+02 -0.20091432978E+02  0.47787264830E+02  0.19999971666E+02 0.  0.
         12    1    3    3    0    0  0.25896718712E+02  0.28448516554E+02  0.20091432978E+02  0.43400735170E+02  0.00000000000E+00 0. -1.
         11    1    4    4    0    0 -0.56655775029E+01 -0.34555657677E+01  0.28669927218E+01  0.72290629230E+01  0.51100000000E-03 0. -1.
        -11    1    4    4    0    0 -0.20083102678E+02 -0.19869305100E+02 -0.20266550742E+02  0.34768568817E+02  0.51100000000E-03 0.  1.
        -12    1    4    4    0    0 -0.14803853098E+00 -0.51236456868E+01 -0.26918749575E+01  0.57896330900E+01  0.00000000000E+00 0.  1.
</event>
<event>
 8    1  0.6239251E-010  0.9118800E+02  0.7816164E-02  0.1184000E+00
        -11   -1    0    0    0    0  0.00000000000E+00  0.00000000000E+00  0.45593999997E+02  0.45594000000E+02  0.51100000000E-03 0. -1.
         11   -1    0    0    0    0 -0.00000000000E+00 -0.00000000000E+00 -0.45593999997E+02  0.45594000000E+02  0.51100000000E-03 0.  1.
         23    2    1    2    0    0  0.00000000000E+00  0.00000000000E+00  0.00000000000E+00  0.91188000000E+02  0.91188000000E+02 0.  0.
    9900012    2    3    3    0    0  0.24613299636E+02  0.65873204958E+01  0.35134257621E+02  0.47787269950E+02  0.19999995011E+02 0.  0.
        -12    1    3    3    0    0 -0.24613299636E+02 -0.65873204958E+01 -0.35134257621E+02  0.43400730050E+02  0.00000000000E+00 0.  1.
         11    1    4    4    0    0  0.19676320681E+02 -0.11420827103E+01  0.14509446719E+02  0.24474190341E+02  0.51100000000E-03 0. -1.
        -11    1    4    4    0    0 -0.73857657721E+00  0.26335142727E+01  0.27486766388E+01  0.38776431386E+01  0.51100000000E-03 0.  1.
         12    1    4    4    0    0  0.56755555314E+01  0.50958889335E+01  0.17876134263E+02  0.19435436471E+02  0.00000000000E+00 0. -1.
</event>
<event>
 8    1  0.7230277E-010  0.9118800E+02  0.7816164E-02  0.1184000E+00
        -11   -1    0    0    0    0  0.00000000000E+00  0.00000000000E+00  0.45593999997E+02  0.45594000000E+02  0.51100000000E-03 0. -1.
         11   -1    0    0    0    0 -0.00000000000E+00 -0.00000000000E+00 -0.45593999997E+02  0.45594000000E+02  0.51100000000E-03 0.  1.
         23    2    1    2    0    0  0.00000000000E+00  0.00000000000E+00  0.00000000000E+00  0.91188000000E+02  0.91188000000E+02 0.  0.
    9900012    2    3    3    0    0  0.19222195296E+02  0.11945029173E+02  0.37033046318E+02  0.47787273813E+02  0.20000012622E+02 0.  0.
        -12    1    3    3    0    0 -0.19222195296E+02 -0.11945029173E+02 -0.37033046318E+02  0.43400726187E+02  0.00000000000E+00 0.  1.
         11    1    4    4    0    0  0.72471040856E+01  0.89174512155E+01  0.22496085205E+02  0.25260944234E+02  0.51100000000E-03 0. -1.
        -11    1    4    4    0    0  0.19807479657E+01  0.80509353641E+00 -0.20964204144E+01  0.29944142868E+01  0.51100000000E-03 0.  1.
         12    1    4    4    0    0  0.99943432452E+01  0.22224844205E+01  0.16633381528E+02  0.19531915292E+02  0.00000000000E+00 0. -1.
</event>
<event>
 8    1  0.6239251E-010  0.9118800E+02  0.7816164E-02  0.1184000E+00
        -11   -1    0    0    0    0  0.00000000000E+00  0.00000000000E+00  0.45593999997E+02  0.45594000000E+02  0.51100000000E-03 0.  1.
         11   -1    0    0    0    0 -0.00000000000E+00 -0.00000000000E+00 -0.45593999997E+02  0.45594000000E+02  0.51100000000E-03 0. -1.
         23    2    1    2    0    0  0.00000000000E+00  0.17763568394E-14 -0.35527136788E-14  0.91188000000E+02  0.91188000000E+02 0.  0.
    9900012    2    3    3    0    0  0.31731000994E+02 -0.15866589983E+02  0.25000367891E+02  0.47787268480E+02  0.19999988309E+02 0.  0.
        -12    1    3    3    0    0 -0.31731000994E+02  0.15866589983E+02 -0.25000367891E+02  0.43400731520E+02  0.00000000000E+00 0.  1.
         11    1    4    4    0    0  0.31524145081E+01 -0.59109083710E+01  0.21181400007E+01  0.70258858747E+01  0.51100000000E-03 0. -1.
        -11    1    4    4    0    0  0.23979246006E+02 -0.70761272171E+01  0.24594885879E+02  0.35071130964E+02  0.51100000000E-03 0.  1.
        -12    1    4    4    0    0  0.45993404794E+01 -0.28795543949E+01 -0.17126579885E+01  0.56902516416E+01  0.00000000000E+00 0.  1.
</event>
<event>
 8    1  0.6239251E-010  0.9118800E+02  0.7816164E-02  0.1184000E+00
        -11   -1    0    0    0    0  0.00000000000E+00  0.00000000000E+00  0.45593999997E+02  0.45594000000E+02  0.51100000000E-03 0. -1.
         11   -1    0    0    0    0 -0.00000000000E+00 -0.00000000000E+00 -0.45593999997E+02  0.45594000000E+02  0.51100000000E-03 0.  1.
         23    2    1    2    0    0  0.00000000000E+00  0.00000000000E+00  0.71054273576E-14  0.91188000000E+02  0.91188000000E+02 0.  0.
    9900012    2    3    3    0    0 -0.10064062749E+02 -0.15419183559E+02 -0.39301235775E+02  0.47787265973E+02  0.19999976876E+02 0.  0.
         12    1    3    3    0    0  0.10064062749E+02  0.15419183559E+02  0.39301235775E+02  0.43400734027E+02  0.00000000000E+00 0. -1.
         11    1    4    4    0    0 -0.11551838350E+02 -0.78558117745E+01 -0.18437270503E+02  0.23132049018E+02  0.51100000000E-03 0.  1.
        -11    1    4    4    0    0  0.31054407758E+01 -0.20868669013E+01 -0.17771725171E+02  0.18161304790E+02  0.51100000000E-03 0. -1.
        -12    1    4    4    0    0 -0.16176651745E+01 -0.54765048834E+01 -0.30922401012E+01  0.64939121644E+01  0.00000000000E+00 0.  1.
</event>
<event>
 8    1  0.6239251E-010  0.9118800E+02  0.7816164E-02  0.1184000E+00
        -11   -1    0    0    0    0  0.00000000000E+00  0.00000000000E+00  0.45593999997E+02  0.45594000000E+02  0.51100000000E-03 0. -1.
         11   -1    0    0    0    0 -0.00000000000E+00 -0.00000000000E+00 -0.45593999997E+02  0.45594000000E+02  0.51100000000E-03 0.  1.
         23    2    1    2    0    0  0.00000000000E+00 -0.17763568394E-14  0.00000000000E+00  0.91188000000E+02  0.91188000000E+02 0.  0.
    9900012    2    3    3    0    0 -0.10457035716E+02 -0.85604197125E+01 -0.41243105605E+02  0.47787261048E+02  0.19999954422E+02 0.  0.
         12    1    3    3    0    0  0.10457035716E+02  0.85604197125E+01  0.41243105605E+02  0.43400738952E+02  0.00000000000E+00 0. -1.
         11    1    4    4    0    0 -0.82679414008E+01 -0.44796258365E+01 -0.56455018202E+01  0.10968025971E+02  0.51100000000E-03 0. -1.
        -11    1    4    4    0    0  0.17850844946E-01 -0.34370665298E+01 -0.33595085065E+02  0.33770452851E+02  0.51100000000E-03 0.  1.
        -12    1    4    4    0    0 -0.22069451598E+01 -0.64372734617E+00 -0.20025187204E+01  0.30487822258E+01  0.00000000000E+00 0.  1.
</event>
<event>
 8    1  0.6239251E-010  0.9118800E+02  0.7816164E-02  0.1184000E+00
        -11   -1    0    0    0    0  0.00000000000E+00  0.00000000000E+00  0.45593999997E+02  0.45594000000E+02  0.51100000000E-03 0. -1.
         11   -1    0    0    0    0 -0.00000000000E+00 -0.00000000000E+00 -0.45593999997E+02  0.45594000000E+02  0.51100000000E-03 0.  1.
         23    2    1    2    0    0  0.00000000000E+00  0.00000000000E+00  0.35527136788E-14  0.91188000000E+02  0.91188000000E+02 0.  0.
    9900012    2    3    3    0    0 -0.26372760351E+02 -0.16434227516E+02  0.30298792912E+02  0.47787272189E+02  0.20000005219E+02 0.  0.
        -12    1    3    3    0    0  0.26372760351E+02  0.16434227516E+02 -0.30298792912E+02  0.43400727811E+02  0.00000000000E+00 0.  1.
         11    1    4    4    0    0 -0.94782316505E+01 -0.12577509802E+02  0.15881528615E+02  0.22366349265E+02  0.51100000000E-03 0. -1.
        -11    1    4    4    0    0 -0.15220763145E+02  0.11327462629E+00  0.14623469000E+02  0.21107588866E+02  0.51100000000E-03 0.  1.
         12    1    4    4    0    0 -0.16737655554E+01 -0.39699923398E+01 -0.20620470351E+00  0.43133340576E+01  0.00000000000E+00 0. -1.
</event>
<event>
 8    1  0.6239251E-010  0.9118800E+02  0.7816164E-02  0.1184000E+00
        -11   -1    0    0    0    0  0.00000000000E+00  0.00000000000E+00  0.45593999997E+02  0.45594000000E+02  0.51100000000E-03 0.  1.
         11   -1    0    0    0    0 -0.00000000000E+00 -0.00000000000E+00 -0.45593999997E+02  0.45594000000E+02  0.51100000000E-03 0. -1.
         23    2    1    2    0    0  0.19984014443E-14  0.00000000000E+00  0.35527136788E-14  0.91188000000E+02  0.91188000000E+02 0.  0.
    9900012    2    3    3    0    0  0.15038534199E+01  0.41571896431E+02 -0.12374935168E+02  0.47787272260E+02  0.20000005541E+02 0.  0.
         12    1    3    3    0    0 -0.15038534199E+01 -0.41571896431E+02  0.12374935168E+02  0.43400727740E+02  0.00000000000E+00 0. -1.
         11    1    4    4    0    0 -0.70082717664E+01  0.17454354444E+02 -0.34143766290E+01  0.19116179803E+02  0.51100000000E-03 0. -1.
        -11    1    4    4    0    0  0.41656309340E+01  0.12012242183E+02 -0.93841083042E+01  0.15802149609E+02  0.51100000000E-03 0.  1.
         12    1    4    4    0    0  0.43464942523E+01  0.12105299804E+02  0.42354976492E+00  0.12868942848E+02  0.00000000000E+00 0. -1.
</event>
<event>
 8    1  0.6239251E-010  0.9118800E+02  0.7816164E-02  0.1184000E+00
        -11   -1    0    0    0    0  0.00000000000E+00  0.00000000000E+00  0.45593999997E+02  0.45594000000E+02  0.51100000000E-03 0. -1.
         11   -1    0    0    0    0 -0.00000000000E+00 -0.00000000000E+00 -0.45593999997E+02  0.45594000000E+02  0.51100000000E-03 0.  1.
         23    2    1    2    0    0  0.00000000000E+00  0.35527136788E-14 -0.35527136788E-14  0.91188000000E+02  0.91188000000E+02 0.  0.
    9900012    2    3    3    0    0 -0.32845618875E+02 -0.15364096537E+02  0.23848025495E+02  0.47787326484E+02  0.20000252767E+02 0.  0.
        -12    1    3    3    0    0  0.32845618875E+02  0.15364096537E+02 -0.23848025495E+02  0.43400673516E+02  0.00000000000E+00 0.  1.
         11    1    4    4    0    0 -0.37691357734E+01 -0.44609038140E+01  0.10726521780E+02  0.12213284450E+02  0.51100000000E-03 0. -1.
        -11    1    4    4    0    0 -0.14949579004E+02 -0.18752336945E+01  0.14293568993E+01  0.15134380569E+02  0.51100000000E-03 0.  1.
        -12    1    4    4    0    0 -0.14126904098E+02 -0.90279590280E+01  0.11692146816E+02  0.20439661464E+02  0.00000000000E+00 0.  1.
</event>
<event>
 8    1  0.6239251E-010  0.9118800E+02  0.7816164E-02  0.1184000E+00
        -11   -1    0    0    0    0  0.00000000000E+00  0.00000000000E+00  0.45593999997E+02  0.45594000000E+02  0.51100000000E-03 0. -1.
         11   -1    0    0    0    0 -0.00000000000E+00 -0.00000000000E+00 -0.45593999997E+02  0.45594000000E+02  0.51100000000E-03 0.  1.
         23    2    1    2    0    0 -0.35527136788E-14 -0.17763568394E-14  0.00000000000E+00  0.91188000000E+02  0.91188000000E+02 0.  0.
    9900012    2    3    3    0    0 -0.16748384242E+02 -0.81201973440E+01 -0.39206851104E+02  0.47787272436E+02  0.20000006343E+02 0.  0.
         12    1    3    3    0    0  0.16748384242E+02  0.81201973440E+01  0.39206851104E+02  0.43400727564E+02  0.00000000000E+00 0. -1.
         11    1    4    4    0    0 -0.85740439260E+01  0.22600566170E+01 -0.25613803364E+02  0.27105147264E+02  0.51100000000E-03 0. -1.
        -11    1    4    4    0    0 -0.50599171930E+00 -0.36418645562E+01 -0.85268541064E+01  0.92858196341E+01  0.51100000000E-03 0.  1.
         12    1    4    4    0    0 -0.76683485965E+01 -0.67383894048E+01 -0.50661936335E+01  0.11396305537E+02  0.00000000000E+00 0. -1.
</event>
<event>
 8    1  0.6239251E-010  0.9118800E+02  0.7816164E-02  0.1184000E+00
        -11   -1    0    0    0    0  0.00000000000E+00  0.00000000000E+00  0.45593999997E+02  0.45594000000E+02  0.51100000000E-03 0. -1.
         11   -1    0    0    0    0 -0.00000000000E+00 -0.00000000000E+00 -0.45593999997E+02  0.45594000000E+02  0.51100000000E-03 0.  1.
         23    2    1    2    0    0  0.00000000000E+00  0.35527136788E-14  0.35527136788E-14  0.91188000000E+02  0.91188000000E+02 0.  0.
    9900012    2    3    3    0    0  0.15183721103E+02  0.31573199676E+02  0.25616617886E+02  0.47787269174E+02  0.19999991472E+02 0.  0.
        -12    1    3    3    0    0 -0.15183721103E+02 -0.31573199676E+02 -0.25616617886E+02  0.43400730826E+02  0.00000000000E+00 0.  1.
         11    1    4    4    0    0  0.66028686142E+01  0.14590971693E+02  0.84886958158E+01  0.18126011304E+02  0.51100000000E-03 0. -1.
        -11    1    4    4    0    0  0.49753446135E+01  0.40783268033E+01 -0.16047021993E+01  0.66303750231E+01  0.51100000000E-03 0.  1.
        -12    1    4    4    0    0  0.36055078754E+01  0.12903901180E+02  0.18732624269E+02  0.23030882847E+02  0.00000000000E+00 0.  1.
</event>
<event>
 8    1  0.6239251E-010  0.9118800E+02  0.7816164E-02  0.1184000E+00
        -11   -1    0    0    0    0  0.00000000000E+00  0.00000000000E+00  0.45593999997E+02  0.45594000000E+02  0.51100000000E-03 0. -1.
         11   -1    0    0    0    0 -0.00000000000E+00 -0.00000000000E+00 -0.45593999997E+02  0.45594000000E+02  0.51100000000E-03 0.  1.
         23    2    1    2    0    0  0.35527136788E-14 -0.17763568394E-14 -0.35527136788E-14  0.91188000000E+02  0.91188000000E+02 0.  0.
    9900012    2    3    3    0    0  0.27777811331E+02 -0.97517658369E+01 -0.31889168337E+02  0.47787276544E+02  0.20000025075E+02 0.  0.
         12    1    3    3    0    0 -0.27777811331E+02  0.97517658369E+01  0.31889168337E+02  0.43400723456E+02  0.00000000000E+00 0. -1.
         11    1    4    4    0    0 -0.18464753559E+01  0.18355265052E+01 -0.24670065838E+01  0.35867465114E+01  0.51100000000E-03 0. -1.
        -11    1    4    4    0    0  0.11146045624E+02 -0.33831762958E+01 -0.16531404104E+02  0.20222945799E+02  0.51100000000E-03 0.  1.
         12    1    4    4    0    0  0.18478241064E+02 -0.82041160462E+01 -0.12890757649E+02  0.23977584233E+02  0.00000000000E+00 0. -1.
</event>
<event>
 8    1  0.6239251E-010  0.9118800E+02  0.7816164E-02  0.1184000E+00
        -11   -1    0    0    0    0  0.00000000000E+00  0.00000000000E+00  0.45593999997E+02  0.45594000000E+02  0.51100000000E-03 0.  1.
         11   -1    0    0    0    0 -0.00000000000E+00 -0.00000000000E+00 -0.45593999997E+02  0.45594000000E+02  0.51100000000E-03 0. -1.
         23    2    1    2    0    0 -0.71054273576E-14  0.00000000000E+00  0.44408920985E-15  0.91188000000E+02  0.91188000000E+02 0.  0.
    9900012    2    3    3    0    0  0.39600577233E+02 -0.17615425825E+02 -0.22614950406E+01  0.47787270697E+02  0.19999998417E+02 0.  0.
        -12    1    3    3    0    0 -0.39600577233E+02  0.17615425825E+02  0.22614950406E+01  0.43400729303E+02  0.00000000000E+00 0.  1.
         11    1    4    4    0    0  0.25518502046E+02 -0.17785161715E+02 -0.27012053465E+00  0.31105930131E+02  0.51100000000E-03 0. -1.
        -11    1    4    4    0    0  0.44714017930E+01 -0.40142537336E+01 -0.14715662968E+01  0.61865317149E+01  0.51100000000E-03 0.  1.
         12    1    4    4    0    0  0.96106733940E+01  0.41839896243E+01 -0.51980820914E+00  0.10494808852E+02  0.00000000000E+00 0. -1.
</event>
<event>
 8    1  0.6239251E-010  0.9118800E+02  0.7816164E-02  0.1184000E+00
        -11   -1    0    0    0    0  0.00000000000E+00  0.00000000000E+00  0.45593999997E+02  0.45594000000E+02  0.51100000000E-03 0. -1.
         11   -1    0    0    0    0 -0.00000000000E+00 -0.00000000000E+00 -0.45593999997E+02  0.45594000000E+02  0.51100000000E-03 0.  1.
         23    2    1    2    0    0  0.00000000000E+00  0.88817841970E-15  0.00000000000E+00  0.91188000000E+02  0.91188000000E+02 0.  0.
    9900012    2    3    3    0    0 -0.28925103525E+02 -0.73695556862E+01 -0.31506367635E+02  0.47787272282E+02  0.20000005641E+02 0.  0.
         12    1    3    3    0    0  0.28925103525E+02  0.73695556862E+01  0.31506367635E+02  0.43400727718E+02  0.00000000000E+00 0. -1.
         11    1    4    4    0    0 -0.42967066989E+01 -0.31983470245E+01 -0.72084125882E+01  0.89806639202E+01  0.51100000000E-03 0. -1.
        -11    1    4    4    0    0 -0.32427611913E+01 -0.14206255990E+01 -0.14849141632E+02  0.15265342601E+02  0.51100000000E-03 0.  1.
        -12    1    4    4    0    0 -0.21385635634E+02 -0.27505830628E+01 -0.94488134147E+01  0.23541265761E+02  0.00000000000E+00 0.  1.
</event>
<event>
 8    1  0.6239251E-010  0.9118800E+02  0.7816164E-02  0.1184000E+00
        -11   -1    0    0    0    0  0.00000000000E+00  0.00000000000E+00  0.45593999997E+02  0.45594000000E+02  0.51100000000E-03 0. -1.
         11   -1    0    0    0    0 -0.00000000000E+00 -0.00000000000E+00 -0.45593999997E+02  0.45594000000E+02  0.51100000000E-03 0.  1.
         23    2    1    2    0    0 -0.35527136788E-14  0.35527136788E-14  0.35527136788E-14  0.91188000000E+02  0.91188000000E+02 0.  0.
    9900012    2    3    3    0    0  0.22844992989E+02 -0.24366432844E+02 -0.27712920004E+02  0.47787277779E+02  0.20000030705E+02 0.  0.
         12    1    3    3    0    0 -0.22844992989E+02  0.24366432844E+02  0.27712920004E+02  0.43400722221E+02  0.00000000000E+00 0. -1.
         11    1    4    4    0    0  0.14154165346E+01 -0.11163054707E+01  0.27535406377E+01  0.32911287084E+01  0.51100000000E-03 0. -1.
        -11    1    4    4    0    0  0.14076011125E+02 -0.11683391234E+02 -0.13782197980E+02  0.22903814122E+02  0.51100000000E-03 0.  1.
         12    1    4    4    0    0  0.73535653292E+01 -0.11566736139E+02 -0.16684262662E+02  0.21592334949E+02  0.00000000000E+00 0. -1.
</event>
<event>
 8    1  0.6239251E-010  0.9118800E+02  0.7816164E-02  0.1184000E+00
        -11   -1    0    0    0    0  0.00000000000E+00  0.00000000000E+00  0.45593999997E+02  0.45594000000E+02  0.51100000000E-03 0.  1.
         11   -1    0    0    0    0 -0.00000000000E+00 -0.00000000000E+00 -0.45593999997E+02  0.45594000000E+02  0.51100000000E-03 0. -1.
         23    2    1    2    0    0  0.71054273576E-14 -0.35527136788E-14  0.17763568394E-14  0.91188000000E+02  0.91188000000E+02 0.  0.
    9900012    2    3    3    0    0 -0.33440029598E+02  0.25578637699E+02 -0.10541403605E+02  0.47787268715E+02  0.19999989381E+02 0.  0.
         12    1    3    3    0    0  0.33440029598E+02 -0.25578637699E+02  0.10541403605E+02  0.43400731285E+02  0.00000000000E+00 0. -1.
         11    1    4    4    0    0 -0.15480316378E+02  0.61223381426E+01 -0.60812303507E+01  0.17722995862E+02  0.51100000000E-03 0. -1.
        -11    1    4    4    0    0 -0.15718631430E+02  0.21261403723E+02 -0.54956144189E+01  0.27006007487E+02  0.51100000000E-03 0.  1.
         12    1    4    4    0    0 -0.22410817903E+01 -0.18051041668E+01  0.10354411642E+01  0.30582653659E+01  0.00000000000E+00 0. -1.
</event>
<event>
 8    1  0.6239251E-010  0.9118800E+02  0.7816164E-02  0.1184000E+00
        -11   -1    0    0    0    0  0.00000000000E+00  0.00000000000E+00  0.45593999997E+02  0.45594000000E+02  0.51100000000E-03 0. -1.
         11   -1    0    0    0    0 -0.00000000000E+00 -0.00000000000E+00 -0.45593999997E+02  0.45594000000E+02  0.51100000000E-03 0.  1.
         23    2    1    2    0    0  0.00000000000E+00  0.00000000000E+00  0.00000000000E+00  0.91188000000E+02  0.91188000000E+02 0.  0.
    9900012    2    3    3    0    0  0.11354423814E+02  0.32258229144E+02 -0.26722785197E+02  0.47787268020E+02  0.19999986212E+02 0.  0.
         12    1    3    3    0    0 -0.11354423814E+02 -0.32258229144E+02  0.26722785197E+02  0.43400731980E+02  0.00000000000E+00 0. -1.
         11    1    4    4    0    0  0.12151691049E+01  0.83305934986E+01 -0.29637235513E+00  0.84239694222E+01  0.51100000000E-03 0. -1.
        -11    1    4    4    0    0  0.44492067377E+01  0.11579652790E+02 -0.21651279351E+02  0.24953190119E+02  0.51100000000E-03 0.  1.
        -12    1    4    4    0    0  0.56900479718E+01  0.12347982855E+02 -0.47751334913E+01  0.14410108479E+02  0.00000000000E+00 0.  1.
</event>
<event>
 8    1  0.6239251E-010  0.9118800E+02  0.7816164E-02  0.1184000E+00
        -11   -1    0    0    0    0  0.00000000000E+00  0.00000000000E+00  0.45593999997E+02  0.45594000000E+02  0.51100000000E-03 0. -1.
         11   -1    0    0    0    0 -0.00000000000E+00 -0.00000000000E+00 -0.45593999997E+02  0.45594000000E+02  0.51100000000E-03 0.  1.
         23    2    1    2    0    0  0.00000000000E+00  0.35527136788E-14  0.71054273576E-14  0.91188000000E+02  0.91188000000E+02 0.  0.
    9900012    2    3    3    0    0 -0.11987869252E+02  0.16041556666E+02  0.38504320158E+02  0.47787271662E+02  0.20000002816E+02 0.  0.
        -12    1    3    3    0    0  0.11987869252E+02 -0.16041556666E+02 -0.38504320158E+02  0.43400728338E+02  0.00000000000E+00 0.  1.
         11    1    4    4    0    0  0.44078017604E+01  0.20530278865E+01  0.92431374488E+01  0.10444100249E+02  0.51100000000E-03 0. -1.
        -11    1    4    4    0    0  0.92407175945E+00  0.42635703442E+00  0.49996127292E+00  0.11338652799E+01  0.51100000000E-03 0.  1.
         12    1    4    4    0    0 -0.17319742772E+02  0.13562171745E+02  0.28761221436E+02  0.36209306133E+02  0.00000000000E+00 0. -1.
</event>
<event>
 8    1  0.6239251E-010  0.9118800E+02  0.7816164E-02  0.1184000E+00
        -11   -1    0    0    0    0  0.00000000000E+00  0.00000000000E+00  0.45593999997E+02  0.45594000000E+02  0.51100000000E-03 0. -1.
         11   -1    0    0    0    0 -0.00000000000E+00 -0.00000000000E+00 -0.45593999997E+02  0.45594000000E+02  0.51100000000E-03 0.  1.
         23    2    1    2    0    0 -0.88817841970E-15  0.00000000000E+00 -0.11102230246E-15  0.91188000000E+02  0.91188000000E+02 0.  0.
    9900012    2    3    3    0    0 -0.45512562270E+01  0.43150924768E+02  0.95235538741E+00  0.47787271638E+02  0.20000002706E+02 0.  0.
        -12    1    3    3    0    0  0.45512562270E+01 -0.43150924768E+02 -0.95235538741E+00  0.43400728362E+02  0.00000000000E+00 0.  1.
         11    1    4    4    0    0 -0.10467557864E+01  0.70454850799E+01  0.79188668490E+00  0.71667037381E+01  0.51100000000E-03 0. -1.
        -11    1    4    4    0    0 -0.88055025384E+01  0.86956691126E+01 -0.23269453113E+01  0.12592307613E+02  0.51100000000E-03 0.  1.
        -12    1    4    4    0    0  0.53010020978E+01  0.27409770576E+02  0.24874140138E+01  0.28028260287E+02  0.00000000000E+00 0.  1.
</event>
<event>
 8    1  0.6239251E-010  0.9118800E+02  0.7816164E-02  0.1184000E+00
        -11   -1    0    0    0    0  0.00000000000E+00  0.00000000000E+00  0.45593999997E+02  0.45594000000E+02  0.51100000000E-03 0.  1.
         11   -1    0    0    0    0 -0.00000000000E+00 -0.00000000000E+00 -0.45593999997E+02  0.45594000000E+02  0.51100000000E-03 0. -1.
         23    2    1    2    0    0  0.00000000000E+00  0.35527136788E-14  0.00000000000E+00  0.91188000000E+02  0.91188000000E+02 0.  0.
    9900012    2    3    3    0    0 -0.22669467856E+02 -0.21358448698E+02  0.30224747404E+02  0.47787268908E+02  0.19999990261E+02 0.  0.
         12    1    3    3    0    0  0.22669467856E+02  0.21358448698E+02 -0.30224747404E+02  0.43400731092E+02  0.00000000000E+00 0. -1.
         11    1    4    4    0    0 -0.26041794652E+01 -0.15660885033E+01  0.13324064150E+02  0.13666201726E+02  0.51100000000E-03 0. -1.
        -11    1    4    4    0    0 -0.20970152943E+02 -0.18388997101E+02  0.16492016914E+02  0.32401993010E+02  0.51100000000E-03 0.  1.
         12    1    4    4    0    0  0.90486455282E+00 -0.14033630942E+01  0.40866633940E+00  0.17190741724E+01  0.00000000000E+00 0. -1.
</event>
<event>
 8    1  0.6239251E-010  0.9118800E+02  0.7816164E-02  0.1184000E+00
        -11   -1    0    0    0    0  0.00000000000E+00  0.00000000000E+00  0.45593999997E+02  0.45594000000E+02  0.51100000000E-03 0.  1.
         11   -1    0    0    0    0 -0.00000000000E+00 -0.00000000000E+00 -0.45593999997E+02  0.45594000000E+02  0.51100000000E-03 0. -1.
         23    2    1    2    0    0  0.00000000000E+00 -0.71054273576E-14  0.00000000000E+00  0.91188000000E+02  0.91188000000E+02 0.  0.
    9900012    2    3    3    0    0 -0.17645816553E+02 -0.25890848931E+02  0.30031856498E+02  0.47787270687E+02  0.19999998369E+02 0.  0.
        -12    1    3    3    0    0  0.17645816553E+02  0.25890848931E+02 -0.30031856498E+02  0.43400729313E+02  0.00000000000E+00 0.  1.
         11    1    4    4    0    0 -0.93468994444E+01 -0.46065054556E+01  0.49748796907E+01  0.11547027753E+02  0.51100000000E-03 0.  1.
        -11    1    4    4    0    0 -0.13764993943E+01 -0.14231078818E+02  0.21329095291E+02  0.25677785362E+02  0.51100000000E-03 0. -1.
         12    1    4    4    0    0 -0.69224177141E+01 -0.70532646578E+01  0.37278815163E+01  0.10562457571E+02  0.00000000000E+00 0. -1.
</event>
<event>
 8    1  0.6239251E-010  0.9118800E+02  0.7816164E-02  0.1184000E+00
        -11   -1    0    0    0    0  0.00000000000E+00  0.00000000000E+00  0.45593999997E+02  0.45594000000E+02  0.51100000000E-03 0. -1.
         11   -1    0    0    0    0 -0.00000000000E+00 -0.00000000000E+00 -0.45593999997E+02  0.45594000000E+02  0.51100000000E-03 0.  1.
         23    2    1    2    0    0  0.00000000000E+00  0.00000000000E+00  0.00000000000E+00  0.91188000000E+02  0.91188000000E+02 0.  0.
    9900012    2    3    3    0    0 -0.17383852658E+02  0.20035198089E+02  0.34351356053E+02  0.47787272375E+02  0.20000006066E+02 0.  0.
        -12    1    3    3    0    0  0.17383852658E+02 -0.20035198089E+02 -0.34351356053E+02  0.43400727625E+02  0.00000000000E+00 0.  1.
         11    1    4    4    0    0 -0.56743925358E+01  0.14200442736E+02  0.29072187921E+02  0.32848796254E+02  0.51100000000E-03 0. -1.
        -11    1    4    4    0    0 -0.93776349962E+01  0.55736650065E+01  0.23044172096E+01  0.11149713838E+02  0.51100000000E-03 0.  1.
         12    1    4    4    0    0 -0.23318251257E+01  0.26109034647E+00  0.29747509224E+01  0.37887622829E+01  0.00000000000E+00 0. -1.
</event>
<event>
 8    1  0.6239251E-010  0.9118800E+02  0.7816164E-02  0.1184000E+00
        -11   -1    0    0    0    0  0.00000000000E+00  0.00000000000E+00  0.45593999997E+02  0.45594000000E+02  0.51100000000E-03 0. -1.
         11   -1    0    0    0    0 -0.00000000000E+00 -0.00000000000E+00 -0.45593999997E+02  0.45594000000E+02  0.51100000000E-03 0.  1.
         23    2    1    2    0    0  0.00000000000E+00  0.00000000000E+00  0.00000000000E+00  0.91188000000E+02  0.91188000000E+02 0.  0.
    9900012    2    3    3    0    0 -0.26040491054E+02 -0.10378194209E+02  0.33133198061E+02  0.47787275316E+02  0.20000019475E+02 0.  0.
        -12    1    3    3    0    0  0.26040491054E+02  0.10378194209E+02 -0.33133198061E+02  0.43400724684E+02  0.00000000000E+00 0.  1.
         11    1    4    4    0    0 -0.32657964375E+01 -0.93654101527E+01  0.85774983772E+01  0.13112963524E+02  0.51100000000E-03 0. -1.
        -11    1    4    4    0    0 -0.74092456482E+01 -0.19355950035E+01  0.14164727349E+02  0.16102265376E+02  0.51100000000E-03 0.  1.
         12    1    4    4    0    0 -0.15365448969E+02  0.92281094721E+00  0.10390972334E+02  0.18572046417E+02  0.00000000000E+00 0. -1.
</event>
<event>
 8    1  0.6239251E-010  0.9118800E+02  0.7816164E-02  0.1184000E+00
        -11   -1    0    0    0    0  0.00000000000E+00  0.00000000000E+00  0.45593999997E+02  0.45594000000E+02  0.51100000000E-03 0. -1.
         11   -1    0    0    0    0 -0.00000000000E+00 -0.00000000000E+00 -0.45593999997E+02  0.45594000000E+02  0.51100000000E-03 0.  1.
         23    2    1    2    0    0  0.00000000000E+00  0.00000000000E+00  0.00000000000E+00  0.91188000000E+02  0.91188000000E+02 0.  0.
    9900012    2    3    3    0    0  0.24292914124E+02 -0.31420919019E+02  0.17498648161E+02  0.47787279775E+02  0.20000039805E+02 0.  0.
        -12    1    3    3    0    0 -0.24292914124E+02  0.31420919019E+02 -0.17498648161E+02  0.43400720225E+02  0.00000000000E+00 0.  1.
         11    1    4    4    0    0  0.15376198511E+02 -0.28385430166E+02  0.14511764757E+02  0.35394228951E+02  0.51100000000E-03 0. -1.
        -11    1    4    4    0    0  0.26568978761E+01 -0.14556649537E+01 -0.24941321606E+01  0.39241256704E+01  0.51100000000E-03 0.  1.
         12    1    4    4    0    0  0.62598177360E+01 -0.15798238987E+01  0.54810155646E+01  0.84689251537E+01  0.00000000000E+00 0. -1.
</event>
<event>
 8    1  0.6239251E-010  0.9118800E+02  0.7816164E-02  0.1184000E+00
        -11   -1    0    0    0    0  0.00000000000E+00  0.00000000000E+00  0.45593999997E+02  0.45594000000E+02  0.51100000000E-03 0. -1.
         11   -1    0    0    0    0 -0.00000000000E+00 -0.00000000000E+00 -0.45593999997E+02  0.45594000000E+02  0.51100000000E-03 0.  1.
         23    2    1    2    0    0  0.00000000000E+00  0.00000000000E+00  0.00000000000E+00  0.91188000000E+02  0.91188000000E+02 0.  0.
    9900012    2    3    3    0    0  0.26395929387E+02 -0.69813377881E+01 -0.33736327496E+02  0.47787263158E+02  0.19999964042E+02 0.  0.
         12    1    3    3    0    0 -0.26395929387E+02  0.69813377881E+01  0.33736327496E+02  0.43400736842E+02  0.00000000000E+00 0. -1.
         11    1    4    4    0    0  0.82281440853E+01 -0.48701232084E+01 -0.13866247762E+02  0.16843196918E+02  0.51100000000E-03 0. -1.
        -11    1    4    4    0    0  0.61546797382E+01 -0.62746742210E+01 -0.20022938811E+01  0.90144772620E+01  0.51100000000E-03 0.  1.
        -12    1    4    4    0    0  0.12013105563E+02  0.41634596412E+01 -0.17867785853E+02  0.21929588978E+02  0.00000000000E+00 0.  1.
</event>
<event>
 8    1  0.6239251E-010  0.9118800E+02  0.7816164E-02  0.1184000E+00
        -11   -1    0    0    0    0  0.00000000000E+00  0.00000000000E+00  0.45593999997E+02  0.45594000000E+02  0.51100000000E-03 0. -1.
         11   -1    0    0    0    0 -0.00000000000E+00 -0.00000000000E+00 -0.45593999997E+02  0.45594000000E+02  0.51100000000E-03 0.  1.
         23    2    1    2    0    0  0.17763568394E-14 -0.35527136788E-14  0.00000000000E+00  0.91188000000E+02  0.91188000000E+02 0.  0.
    9900012    2    3    3    0    0 -0.13913868572E+02  0.17501171773E+02  0.37198567183E+02  0.47787307004E+02  0.20000163955E+02 0.  0.
        -12    1    3    3    0    0  0.13913868572E+02 -0.17501171773E+02 -0.37198567183E+02  0.43400692996E+02  0.00000000000E+00 0.  1.
         11    1    4    4    0    0 -0.10857962348E+02  0.10364575951E+02  0.10963563814E+02  0.18588155174E+02  0.51100000000E-03 0. -1.
        -11    1    4    4    0    0 -0.80992222180E+00  0.82148284251E+01  0.25171172819E+02  0.26490136304E+02  0.51100000000E-03 0.  1.
         12    1    4    4    0    0 -0.22459840015E+01 -0.10782326040E+01  0.10638305496E+01  0.27090155263E+01  0.00000000000E+00 0. -1.
</event>
<event>
 8    1  0.6239251E-010  0.9118800E+02  0.7816164E-02  0.1184000E+00
        -11   -1    0    0    0    0  0.00000000000E+00  0.00000000000E+00  0.45593999997E+02  0.45594000000E+02  0.51100000000E-03 0. -1.
         11   -1    0    0    0    0 -0.00000000000E+00 -0.00000000000E+00 -0.45593999997E+02  0.45594000000E+02  0.51100000000E-03 0.  1.
         23    2    1    2    0    0 -0.44408920985E-15  0.35527136788E-14  0.00000000000E+00  0.91188000000E+02  0.91188000000E+02 0.  0.
    9900012    2    3    3    0    0  0.10854071392E+01 -0.19538921672E+02  0.38738557093E+02  0.47787269886E+02  0.19999994719E+02 0.  0.
        -12    1    3    3    0    0 -0.10854071392E+01  0.19538921672E+02 -0.38738557093E+02  0.43400730114E+02  0.00000000000E+00 0.  1.
         11    1    4    4    0    0  0.23324571966E+01 -0.11995382236E+02  0.30201133840E+02  0.32579718186E+02  0.51100000000E-03 0. -1.
        -11    1    4    4    0    0 -0.40229932541E+01 -0.33838602443E+01 -0.64829145363E-01  0.52572985415E+01  0.51100000000E-03 0.  1.
        -12    1    4    4    0    0  0.27759431967E+01 -0.41596791914E+01  0.86022523981E+01  0.99502531589E+01  0.00000000000E+00 0.  1.
</event>
<event>
 8    1  0.6239251E-010  0.9118800E+02  0.7816164E-02  0.1184000E+00
        -11   -1    0    0    0    0  0.00000000000E+00  0.00000000000E+00  0.45593999997E+02  0.45594000000E+02  0.51100000000E-03 0. -1.
         11   -1    0    0    0    0 -0.00000000000E+00 -0.00000000000E+00 -0.45593999997E+02  0.45594000000E+02  0.51100000000E-03 0.  1.
         23    2    1    2    0    0  0.00000000000E+00  0.00000000000E+00  0.00000000000E+00  0.91188000000E+02  0.91188000000E+02 0.  0.
    9900012    2    3    3    0    0  0.36092081901E+02  0.53585158247E+01  0.23500456656E+02  0.47787268084E+02  0.19999986503E+02 0.  0.
        -12    1    3    3    0    0 -0.36092081901E+02 -0.53585158247E+01 -0.23500456656E+02  0.43400731916E+02  0.00000000000E+00 0.  1.
         11    1    4    4    0    0  0.24393544221E+02  0.21186110016E+01  0.24858109620E+02  0.34892106935E+02  0.51100000000E-03 0. -1.
        -11    1    4    4    0    0  0.10251162797E+02  0.41783384863E+01 -0.87813174009E+00  0.11104772254E+02  0.51100000000E-03 0.  1.
        -12    1    4    4    0    0  0.14473748830E+01 -0.93843366319E+00 -0.47952122381E+00  0.17903888952E+01  0.00000000000E+00 0.  1.
</event>
<event>
 8    1  0.6239251E-010  0.9118800E+02  0.7816164E-02  0.1184000E+00
        -11   -1    0    0    0    0  0.00000000000E+00  0.00000000000E+00  0.45593999997E+02  0.45594000000E+02  0.51100000000E-03 0. -1.
         11   -1    0    0    0    0 -0.00000000000E+00 -0.00000000000E+00 -0.45593999997E+02  0.45594000000E+02  0.51100000000E-03 0.  1.
         23    2    1    2    0    0  0.17763568394E-14  0.00000000000E+00  0.00000000000E+00  0.91188000000E+02  0.91188000000E+02 0.  0.
    9900012    2    3    3    0    0  0.14828979233E+02 -0.33121695974E+01  0.40654090508E+02  0.47787260748E+02  0.19999953056E+02 0.  0.
        -12    1    3    3    0    0 -0.14828979233E+02  0.33121695974E+01 -0.40654090508E+02  0.43400739252E+02  0.00000000000E+00 0.  1.
         11    1    4    4    0    0  0.42163617241E+01 -0.22409264283E+01  0.37297563328E+01  0.60589223471E+01  0.51100000000E-03 0. -1.
        -11    1    4    4    0    0  0.10960496269E+02  0.19493168086E+01  0.11083066703E+02  0.15708809067E+02  0.51100000000E-03 0.  1.
        -12    1    4    4    0    0 -0.34787876018E+00 -0.30205599777E+01  0.25841267472E+02  0.26019529334E+02  0.00000000000E+00 0.  1.
</event>
<event>
 8    1  0.6239251E-010  0.9118800E+02  0.7816164E-02  0.1184000E+00
        -11   -1    0    0    0    0  0.00000000000E+00  0.00000000000E+00  0.45593999997E+02  0.45594000000E+02  0.51100000000E-03 0. -1.
         11   -1    0    0    0    0 -0.00000000000E+00 -0.00000000000E+00 -0.45593999997E+02  0.45594000000E+02  0.51100000000E-03 0.  1.
         23    2    1    2    0    0  0.00000000000E+00  0.00000000000E+00  0.00000000000E+00  0.91188000000E+02  0.91188000000E+02 0.  0.
    9900012    2    3    3    0    0  0.30714207671E+02  0.77585517928E+01 -0.29665898648E+02  0.47787271649E+02  0.20000002757E+02 0.  0.
         12    1    3    3    0    0 -0.30714207671E+02 -0.77585517928E+01  0.29665898648E+02  0.43400728351E+02  0.00000000000E+00 0. -1.
         11    1    4    4    0    0  0.47573156877E+01 -0.33296910641E+01  0.42370773299E-01  0.58069519267E+01  0.51100000000E-03 0. -1.
        -11    1    4    4    0    0  0.18774057218E+02  0.10347828786E+02 -0.16982565154E+02  0.27348680123E+02  0.51100000000E-03 0.  1.
         12    1    4    4    0    0  0.71828347657E+01  0.74041407112E+00 -0.12725704267E+02  0.14631639599E+02  0.00000000000E+00 0. -1.
</event>
<event>
 8    1  0.6239251E-010  0.9118800E+02  0.7816164E-02  0.1184000E+00
        -11   -1    0    0    0    0  0.00000000000E+00  0.00000000000E+00  0.45593999997E+02  0.45594000000E+02  0.51100000000E-03 0.  1.
         11   -1    0    0    0    0 -0.00000000000E+00 -0.00000000000E+00 -0.45593999997E+02  0.45594000000E+02  0.51100000000E-03 0. -1.
         23    2    1    2    0    0  0.00000000000E+00  0.00000000000E+00  0.00000000000E+00  0.91188000000E+02  0.91188000000E+02 0.  0.
    9900012    2    3    3    0    0  0.12273714044E+02 -0.22377328386E+02  0.35103195931E+02  0.47787271357E+02  0.20000001427E+02 0.  0.
        -12    1    3    3    0    0 -0.12273714044E+02  0.22377328386E+02 -0.35103195931E+02  0.43400728643E+02  0.00000000000E+00 0.  1.
         11    1    4    4    0    0  0.37818719788E+01 -0.19434012666E+02  0.23427803698E+02  0.30673203131E+02  0.51100000000E-03 0. -1.
        -11    1    4    4    0    0  0.62359338622E+01  0.23092441570E+01  0.75711105651E+01  0.10076765114E+02  0.51100000000E-03 0.  1.
        -12    1    4    4    0    0  0.22559082034E+01 -0.52525598771E+01  0.41042816682E+01  0.70373031124E+01  0.00000000000E+00 0.  1.
</event>
<event>
 8    1  0.6239251E-010  0.9118800E+02  0.7816164E-02  0.1184000E+00
        -11   -1    0    0    0    0  0.00000000000E+00  0.00000000000E+00  0.45593999997E+02  0.45594000000E+02  0.51100000000E-03 0. -1.
         11   -1    0    0    0    0 -0.00000000000E+00 -0.00000000000E+00 -0.45593999997E+02  0.45594000000E+02  0.51100000000E-03 0.  1.
         23    2    1    2    0    0  0.35527136788E-14 -0.17763568394E-14  0.71054273576E-14  0.91188000000E+02  0.91188000000E+02 0.  0.
    9900012    2    3    3    0    0  0.28198709816E+02 -0.47740056913E+01  0.32644529020E+02  0.47787266820E+02  0.19999980738E+02 0.  0.
        -12    1    3    3    0    0 -0.28198709816E+02  0.47740056913E+01 -0.32644529020E+02  0.43400733180E+02  0.00000000000E+00 0.  1.
         11    1    4    4    0    0  0.22214941555E+02  0.92563610495E+00  0.24345647096E+02  0.32970759216E+02  0.51100000000E-03 0. -1.
        -11    1    4    4    0    0  0.44766913028E+01 -0.80950703324E+01  0.74030080937E+01  0.11848014931E+02  0.51100000000E-03 0.  1.
         12    1    4    4    0    0  0.15070769588E+01  0.23954285362E+01  0.89587383049E+00  0.29684926734E+01  0.00000000000E+00 0. -1.
</event>
<event>
 8    1  0.6239251E-010  0.9118800E+02  0.7816164E-02  0.1184000E+00
        -11   -1    0    0    0    0  0.00000000000E+00  0.00000000000E+00  0.45593999997E+02  0.45594000000E+02  0.51100000000E-03 0. -1.
         11   -1    0    0    0    0 -0.00000000000E+00 -0.00000000000E+00 -0.45593999997E+02  0.45594000000E+02  0.51100000000E-03 0.  1.
         23    2    1    2    0    0 -0.35527136788E-14  0.35527136788E-14  0.00000000000E+00  0.91188000000E+02  0.91188000000E+02 0.  0.
    9900012    2    3    3    0    0 -0.27618078752E+02  0.18913996819E+02 -0.27624729166E+02  0.47787271768E+02  0.20000003298E+02 0.  0.
         12    1    3    3    0    0  0.27618078752E+02 -0.18913996819E+02  0.27624729166E+02  0.43400728232E+02  0.00000000000E+00 0. -1.
         11    1    4    4    0    0  0.67675234162E+00  0.21952776246E+01 -0.28588505594E+01  0.36674602061E+01  0.51100000000E-03 0. -1.
        -11    1    4    4    0    0 -0.14267505537E+02  0.96335264804E+01 -0.22363340726E+02  0.28222075675E+02  0.51100000000E-03 0.  1.
        -12    1    4    4    0    0 -0.14027325557E+02  0.70851927136E+01 -0.24025378803E+01  0.15897735887E+02  0.00000000000E+00 0.  1.
</event>
<event>
 8    1  0.6239251E-010  0.9118800E+02  0.7816164E-02  0.1184000E+00
        -11   -1    0    0    0    0  0.00000000000E+00  0.00000000000E+00  0.45593999997E+02  0.45594000000E+02  0.51100000000E-03 0. -1.
         11   -1    0    0    0    0 -0.00000000000E+00 -0.00000000000E+00 -0.45593999997E+02  0.45594000000E+02  0.51100000000E-03 0.  1.
         23    2    1    2    0    0  0.00000000000E+00 -0.17763568394E-14  0.00000000000E+00  0.91188000000E+02  0.91188000000E+02 0.  0.
    9900012    2    3    3    0    0  0.32415907117E+02  0.11932236865E+02  0.26276598464E+02  0.47787205795E+02  0.19999702498E+02 0.  0.
        -12    1    3    3    0    0 -0.32415907117E+02 -0.11932236865E+02 -0.26276598464E+02  0.43400794205E+02  0.00000000000E+00 0.  1.
         11    1    4    4    0    0  0.23074451878E+02 -0.15933581183E+00  0.14115377543E+02  0.27049946410E+02  0.51100000000E-03 0. -1.
        -11    1    4    4    0    0  0.75212474096E+00  0.42276689494E+01  0.61460805052E+00  0.43378127770E+01  0.51100000000E-03 0.  1.
         12    1    4    4    0    0  0.85893304984E+01  0.78639037276E+01  0.11546612870E+02  0.16399446607E+02  0.00000000000E+00 0. -1.
</event>
<event>
 8    1  0.6239251E-010  0.9118800E+02  0.7816164E-02  0.1184000E+00
        -11   -1    0    0    0    0  0.00000000000E+00  0.00000000000E+00  0.45593999997E+02  0.45594000000E+02  0.51100000000E-03 0. -1.
         11   -1    0    0    0    0 -0.00000000000E+00 -0.00000000000E+00 -0.45593999997E+02  0.45594000000E+02  0.51100000000E-03 0.  1.
         23    2    1    2    0    0  0.17763568394E-14 -0.35527136788E-14  0.00000000000E+00  0.91188000000E+02  0.91188000000E+02 0.  0.
    9900012    2    3    3    0    0  0.58934178548E+01 -0.22044306340E+02  0.36918003038E+02  0.47787276915E+02  0.20000026765E+02 0.  0.
        -12    1    3    3    0    0 -0.58934178548E+01  0.22044306340E+02 -0.36918003038E+02  0.43400723085E+02  0.00000000000E+00 0.  1.
         11    1    4    4    0    0  0.73199290629E+01 -0.76324160513E+01  0.20678590568E+02  0.23225831404E+02  0.51100000000E-03 0. -1.
        -11    1    4    4    0    0 -0.12118431643E+01 -0.16041106560E+02  0.16320656571E+02  0.22916140484E+02  0.51100000000E-03 0.  1.
        -12    1    4    4    0    0 -0.21466804374E+00  0.16292162711E+01 -0.81244101202E-01  0.16453050268E+01  0.00000000000E+00 0.  1.
</event>
<event>
 8    1  0.6239251E-010  0.9118800E+02  0.7816164E-02  0.1184000E+00
        -11   -1    0    0    0    0  0.00000000000E+00  0.00000000000E+00  0.45593999997E+02  0.45594000000E+02  0.51100000000E-03 0. -1.
         11   -1    0    0    0    0 -0.00000000000E+00 -0.00000000000E+00 -0.45593999997E+02  0.45594000000E+02  0.51100000000E-03 0.  1.
         23    2    1    2    0    0  0.17763568394E-14  0.17763568394E-14  0.00000000000E+00  0.91188000000E+02  0.91188000000E+02 0.  0.
    9900012    2    3    3    0    0 -0.12429321719E+02  0.10251458264E+02  0.40299403028E+02  0.47787282041E+02  0.20000050139E+02 0.  0.
        -12    1    3    3    0    0  0.12429321719E+02 -0.10251458264E+02 -0.40299403028E+02  0.43400717959E+02  0.00000000000E+00 0.  1.
         11    1    4    4    0    0 -0.64664418132E+01  0.98654550782E+01  0.33990978797E+02  0.35979559662E+02  0.51100000000E-03 0. -1.
        -11    1    4    4    0    0 -0.42033245538E+01  0.36555885876E+01  0.58309030700E+01  0.80641612148E+01  0.51100000000E-03 0.  1.
         12    1    4    4    0    0 -0.17595553518E+01 -0.32695854016E+01  0.47752116108E+00  0.37435611647E+01  0.00000000000E+00 0. -1.
</event>
<event>
 8    1  0.6239251E-010  0.9118800E+02  0.7816164E-02  0.1184000E+00
        -11   -1    0    0    0    0  0.00000000000E+00  0.00000000000E+00  0.45593999997E+02  0.45594000000E+02  0.51100000000E-03 0.  1.
         11   -1    0    0    0    0 -0.00000000000E+00 -0.00000000000E+00 -0.45593999997E+02  0.45594000000E+02  0.51100000000E-03 0. -1.
         23    2    1    2    0    0 -0.44408920985E-15  0.71054273576E-14  0.00000000000E+00  0.91188000000E+02  0.91188000000E+02 0.  0.
    9900012    2    3    3    0    0  0.33608903979E+01 -0.37934253114E+02 -0.20816353452E+02  0.47787265967E+02  0.19999976849E+02 0.  0.
         12    1    3    3    0    0 -0.33608903979E+01  0.37934253114E+02  0.20816353452E+02  0.43400734033E+02  0.00000000000E+00 0. -1.
         11    1    4    4    0    0  0.76780442201E+01 -0.61353217445E+01 -0.81865882788E+01  0.12791198687E+02  0.51100000000E-03 0. -1.
        -11    1    4    4    0    0 -0.49000459633E+01 -0.27746426598E+02 -0.91541453337E+01  0.29625546686E+02  0.51100000000E-03 0.  1.
        -12    1    4    4    0    0  0.58289214111E+00 -0.40525047714E+01 -0.34756198401E+01  0.53705205933E+01  0.00000000000E+00 0.  1.
</event>
<event>
 8    1  0.6239251E-010  0.9118800E+02  0.7816164E-02  0.1184000E+00
        -11   -1    0    0    0    0  0.00000000000E+00  0.00000000000E+00  0.45593999997E+02  0.45594000000E+02  0.51100000000E-03 0. -1.
         11   -1    0    0    0    0 -0.00000000000E+00 -0.00000000000E+00 -0.45593999997E+02  0.45594000000E+02  0.51100000000E-03 0.  1.
         23    2    1    2    0    0 -0.17763568394E-14 -0.35527136788E-14  0.00000000000E+00  0.91188000000E+02  0.91188000000E+02 0.  0.
    9900012    2    3    3    0    0  0.85410280049E+01 -0.30800264825E+02  0.29360138481E+02  0.47787271846E+02  0.20000003657E+02 0.  0.
        -12    1    3    3    0    0 -0.85410280049E+01  0.30800264825E+02 -0.29360138481E+02  0.43400728154E+02  0.00000000000E+00 0.  1.
         11    1    4    4    0    0  0.67938535126E+01 -0.12995791945E+02  0.23956893836E+02  0.28088784529E+02  0.51100000000E-03 0. -1.
        -11    1    4    4    0    0 -0.11470463972E+01 -0.86007299767E+01  0.75663010647E-01  0.86772113448E+01  0.51100000000E-03 0.  1.
        -12    1    4    4    0    0  0.28942208894E+01 -0.92037429034E+01  0.53275816344E+01  0.11021275972E+02  0.00000000000E+00 0.  1.
</event>
<event>
 8    1  0.6239251E-010  0.9118800E+02  0.7816164E-02  0.1184000E+00
        -11   -1    0    0    0    0  0.00000000000E+00  0.00000000000E+00  0.45593999997E+02  0.45594000000E+02  0.51100000000E-03 0. -1.
         11   -1    0    0    0    0 -0.00000000000E+00 -0.00000000000E+00 -0.45593999997E+02  0.45594000000E+02  0.51100000000E-03 0.  1.
         23    2    1    2    0    0  0.00000000000E+00 -0.17763568394E-14  0.00000000000E+00  0.91188000000E+02  0.91188000000E+02 0.  0.
    9900012    2    3    3    0    0  0.16082560638E+02 -0.10346449906E+02  0.38960562701E+02  0.47787271569E+02  0.20000002394E+02 0.  0.
        -12    1    3    3    0    0 -0.16082560638E+02  0.10346449906E+02 -0.38960562701E+02  0.43400728431E+02  0.00000000000E+00 0.  1.
         11    1    4    4    0    0  0.35543619162E+01 -0.63369087981E+01  0.27467691992E+02  0.28412391757E+02  0.51100000000E-03 0. -1.
        -11    1    4    4    0    0  0.20037817449E+01 -0.10435469408E+01 -0.12514414116E+01  0.25826802680E+01  0.51100000000E-03 0.  1.
         12    1    4    4    0    0  0.10524416977E+02 -0.29659941675E+01  0.12744312121E+02  0.16792199544E+02  0.00000000000E+00 0. -1.
</event>
<event>
 8    1  0.6239251E-010  0.9118800E+02  0.7816164E-02  0.1184000E+00
        -11   -1    0    0    0    0  0.00000000000E+00  0.00000000000E+00  0.45593999997E+02  0.45594000000E+02  0.51100000000E-03 0.  1.
         11   -1    0    0    0    0 -0.00000000000E+00 -0.00000000000E+00 -0.45593999997E+02  0.45594000000E+02  0.51100000000E-03 0. -1.
         23    2    1    2    0    0  0.00000000000E+00  0.00000000000E+00  0.35527136788E-14  0.91188000000E+02  0.91188000000E+02 0.  0.
    9900012    2    3    3    0    0  0.32922728671E+02  0.59539506896E+01 -0.27645396655E+02  0.47787267885E+02  0.19999985594E+02 0.  0.
         12    1    3    3    0    0 -0.32922728671E+02 -0.59539506896E+01  0.27645396655E+02  0.43400732115E+02  0.00000000000E+00 0. -1.
         11    1    4    4    0    0  0.18975659994E+01  0.53040818467E+01 -0.10959272454E+02  0.12322325022E+02  0.51100000000E-03 0. -1.
        -11    1    4    4    0    0  0.10919505613E+02 -0.12666324587E+01 -0.45114787396E+01  0.11882482960E+02  0.51100000000E-03 0.  1.
         12    1    4    4    0    0  0.20105657059E+02  0.19165013016E+01 -0.12174645461E+02  0.23582459904E+02  0.00000000000E+00 0. -1.
</event>
<event>
 8    1  0.6239251E-010  0.9118800E+02  0.7816164E-02  0.1184000E+00
        -11   -1    0    0    0    0  0.00000000000E+00  0.00000000000E+00  0.45593999997E+02  0.45594000000E+02  0.51100000000E-03 0. -1.
         11   -1    0    0    0    0 -0.00000000000E+00 -0.00000000000E+00 -0.45593999997E+02  0.45594000000E+02  0.51100000000E-03 0.  1.
         23    2    1    2    0    0  0.00000000000E+00  0.00000000000E+00  0.00000000000E+00  0.91188000000E+02  0.91188000000E+02 0.  0.
    9900012    2    3    3    0    0 -0.20036447583E+02  0.18760956321E+02 -0.33618305455E+02  0.47787272178E+02  0.20000005169E+02 0.  0.
         12    1    3    3    0    0  0.20036447583E+02 -0.18760956321E+02  0.33618305455E+02  0.43400727822E+02  0.00000000000E+00 0. -1.
         11    1    4    4    0    0 -0.38173666515E+01 -0.22087259261E+01  0.24302059677E+00  0.44169919222E+01  0.51100000000E-03 0. -1.
        -11    1    4    4    0    0 -0.14730795225E+02  0.18832690457E+02 -0.27181834772E+02  0.36201086995E+02  0.51100000000E-03 0.  1.
         12    1    4    4    0    0 -0.14882857068E+01  0.21369917898E+01 -0.66794912795E+01  0.71691932606E+01  0.00000000000E+00 0. -1.
</event>
<event>
 8    1  0.8809240E-010  0.9118800E+02  0.7816164E-02  0.1184000E+00
        -11   -1    0    0    0    0  0.00000000000E+00  0.00000000000E+00  0.45593999997E+02  0.45594000000E+02  0.51100000000E-03 0. -1.
         11   -1    0    0    0    0 -0.00000000000E+00 -0.00000000000E+00 -0.45593999997E+02  0.45594000000E+02  0.51100000000E-03 0.  1.
         23    2    1    2    0    0  0.22204460493E-15  0.00000000000E+00  0.71054273576E-14  0.91188000000E+02  0.91188000000E+02 0.  0.
    9900012    2    3    3    0    0 -0.92350035835E+00 -0.19935679558E+02  0.38540106243E+02  0.47787263122E+02  0.19999963879E+02 0.  0.
        -12    1    3    3    0    0  0.92350035835E+00  0.19935679558E+02 -0.38540106243E+02  0.43400736878E+02  0.00000000000E+00 0.  1.
         11    1    4    4    0    0 -0.17895428259E+01 -0.91450795173E+01  0.22065122075E+02  0.23952130497E+02  0.51100000000E-03 0. -1.
        -11    1    4    4    0    0  0.71077676853E+01 -0.53322658623E+01  0.76381185134E+01  0.11717263989E+02  0.51100000000E-03 0.  1.
        -12    1    4    4    0    0 -0.62417252177E+01 -0.54583341784E+01  0.88368656540E+01  0.12117868636E+02  0.00000000000E+00 0.  1.
</event>
<event>
 8    1  0.6239251E-010  0.9118800E+02  0.7816164E-02  0.1184000E+00
        -11   -1    0    0    0    0  0.00000000000E+00  0.00000000000E+00  0.45593999997E+02  0.45594000000E+02  0.51100000000E-03 0. -1.
         11   -1    0    0    0    0 -0.00000000000E+00 -0.00000000000E+00 -0.45593999997E+02  0.45594000000E+02  0.51100000000E-03 0.  1.
         23    2    1    2    0    0  0.00000000000E+00  0.00000000000E+00  0.35527136788E-14  0.91188000000E+02  0.91188000000E+02 0.  0.
    9900012    2    3    3    0    0 -0.27436585608E+02 -0.19401103839E+02 -0.27467328785E+02  0.47787271774E+02  0.20000003325E+02 0.  0.
         12    1    3    3    0    0  0.27436585608E+02  0.19401103839E+02  0.27467328785E+02  0.43400728226E+02  0.00000000000E+00 0. -1.
         11    1    4    4    0    0 -0.56570134842E+01 -0.95688342048E+01 -0.51406452441E+01  0.12247065909E+02  0.51100000000E-03 0. -1.
        -11    1    4    4    0    0 -0.16600171429E+02 -0.44638638814E+01 -0.71271405386E+01  0.18608812556E+02  0.51100000000E-03 0.  1.
        -12    1    4    4    0    0 -0.51794006945E+01 -0.53684057528E+01 -0.15199543002E+02  0.16931393308E+02  0.00000000000E+00 0.  1.
</event>
<event>
 8    1  0.6239251E-010  0.9118800E+02  0.7816164E-02  0.1184000E+00
        -11   -1    0    0    0    0  0.00000000000E+00  0.00000000000E+00  0.45593999997E+02  0.45594000000E+02  0.51100000000E-03 0.  1.
         11   -1    0    0    0    0 -0.00000000000E+00 -0.00000000000E+00 -0.45593999997E+02  0.45594000000E+02  0.51100000000E-03 0. -1.
         23    2    1    2    0    0 -0.17763568394E-14 -0.71054273576E-14 -0.35527136788E-14  0.91188000000E+02  0.91188000000E+02 0.  0.
    9900012    2    3    3    0    0  0.12401497057E+02  0.33511280888E+02  0.24633722246E+02  0.47787270194E+02  0.19999996124E+02 0.  0.
        -12    1    3    3    0    0 -0.12401497057E+02 -0.33511280888E+02 -0.24633722246E+02  0.43400729806E+02  0.00000000000E+00 0.  1.
         11    1    4    4    0    0  0.21462824620E+01  0.85211368960E+00 -0.23316560522E+01  0.32816529910E+01  0.51100000000E-03 0. -1.
        -11    1    4    4    0    0 -0.78627777486E+00 -0.56440832410E-01  0.11464583740E+01  0.13913250415E+01  0.51100000000E-03 0.  1.
         12    1    4    4    0    0  0.11041492370E+02  0.32715608030E+02  0.25818919924E+02  0.43114292162E+02  0.00000000000E+00 0. -1.
</event>
<event>
 8    1  0.6239251E-010  0.9118800E+02  0.7816164E-02  0.1184000E+00
        -11   -1    0    0    0    0  0.00000000000E+00  0.00000000000E+00  0.45593999997E+02  0.45594000000E+02  0.51100000000E-03 0. -1.
         11   -1    0    0    0    0 -0.00000000000E+00 -0.00000000000E+00 -0.45593999997E+02  0.45594000000E+02  0.51100000000E-03 0.  1.
         23    2    1    2    0    0 -0.35527136788E-14 -0.17763568394E-14  0.35527136788E-14  0.91188000000E+02  0.91188000000E+02 0.  0.
    9900012    2    3    3    0    0  0.28856904709E+02 -0.15573649774E+02 -0.28431742732E+02  0.47787268307E+02  0.19999987519E+02 0.  0.
         12    1    3    3    0    0 -0.28856904709E+02  0.15573649774E+02  0.28431742732E+02  0.43400731693E+02  0.00000000000E+00 0. -1.
         11    1    4    4    0    0  0.49802136556E+01 -0.80264915112E+01 -0.15984772226E+02  0.18567176344E+02  0.51100000000E-03 0. -1.
        -11    1    4    4    0    0  0.44814467190E+01  0.17710251014E+01 -0.32926425945E+01  0.58362136802E+01  0.51100000000E-03 0.  1.
         12    1    4    4    0    0  0.19395244335E+02 -0.93181833641E+01 -0.91543279124E+01  0.23383878283E+02  0.00000000000E+00 0. -1.
</event>
<event>
 8    1  0.6239251E-010  0.9118800E+02  0.7816164E-02  0.1184000E+00
        -11   -1    0    0    0    0  0.00000000000E+00  0.00000000000E+00  0.45593999997E+02  0.45594000000E+02  0.51100000000E-03 0. -1.
         11   -1    0    0    0    0 -0.00000000000E+00 -0.00000000000E+00 -0.45593999997E+02  0.45594000000E+02  0.51100000000E-03 0.  1.
         23    2    1    2    0    0 -0.35527136788E-14  0.00000000000E+00 -0.71054273576E-14  0.91188000000E+02  0.91188000000E+02 0.  0.
    9900012    2    3    3    0    0  0.27777302880E+02  0.69312042828E+00  0.33340129300E+02  0.47787271977E+02  0.20000004250E+02 0.  0.
        -12    1    3    3    0    0 -0.27777302880E+02 -0.69312042828E+00 -0.33340129300E+02  0.43400728023E+02  0.00000000000E+00 0.  1.
         11    1    4    4    0    0  0.18377741663E+02  0.25009808581E+01  0.30705376039E+02  0.35872223402E+02  0.51100000000E-03 0. -1.
        -11    1    4    4    0    0  0.45652547722E+01  0.24300566948E+01  0.83223088725E+00  0.52382568843E+01  0.51100000000E-03 0.  1.
         12    1    4    4    0    0  0.48343064452E+01 -0.42379171246E+01  0.18025223736E+01  0.66767916898E+01  0.00000000000E+00 0. -1.
</event>
<event>
 8    1  0.6239251E-010  0.9118800E+02  0.7816164E-02  0.1184000E+00
        -11   -1    0    0    0    0  0.00000000000E+00  0.00000000000E+00  0.45593999997E+02  0.45594000000E+02  0.51100000000E-03 0. -1.
         11   -1    0    0    0    0 -0.00000000000E+00 -0.00000000000E+00 -0.45593999997E+02  0.45594000000E+02  0.51100000000E-03 0.  1.
         23    2    1    2    0    0  0.26645352591E-14  0.00000000000E+00 -0.17763568394E-14  0.91188000000E+02  0.91188000000E+02 0.  0.
    9900012    2    3    3    0    0 -0.43215064740E+01 -0.41910619931E+02  0.10413820800E+02  0.47787272531E+02  0.20000006779E+02 0.  0.
        -12    1    3    3    0    0  0.43215064740E+01  0.41910619931E+02 -0.10413820800E+02  0.43400727469E+02  0.00000000000E+00 0.  1.
         11    1    4    4    0    0  0.17306959626E+01 -0.68275120298E+01  0.83612045538E+00  0.70929067884E+01  0.51100000000E-03 0. -1.
        -11    1    4    4    0    0  0.22851185067E+01 -0.29763980881E+01 -0.34104851445E+01  0.50707121147E+01  0.51100000000E-03 0.  1.
        -12    1    4    4    0    0 -0.83373209433E+01 -0.32106709813E+02  0.12988185489E+02  0.35623653628E+02  0.00000000000E+00 0.  1.
</event>
<event>
 8    1  0.6239251E-010  0.9118800E+02  0.7816164E-02  0.1184000E+00
        -11   -1    0    0    0    0  0.00000000000E+00  0.00000000000E+00  0.45593999997E+02  0.45594000000E+02  0.51100000000E-03 0. -1.
         11   -1    0    0    0    0 -0.00000000000E+00 -0.00000000000E+00 -0.45593999997E+02  0.45594000000E+02  0.51100000000E-03 0.  1.
         23    2    1    2    0    0  0.00000000000E+00 -0.35527136788E-14  0.00000000000E+00  0.91188000000E+02  0.91188000000E+02 0.  0.
    9900012    2    3    3    0    0  0.16735604160E+02  0.29063929235E+02 -0.27546886813E+02  0.47787269566E+02  0.19999993258E+02 0.  0.
         12    1    3    3    0    0 -0.16735604160E+02 -0.29063929235E+02  0.27546886813E+02  0.43400730434E+02  0.00000000000E+00 0. -1.
         11    1    4    4    0    0  0.68795592765E+01  0.21796233092E+02 -0.18193653461E+02  0.29213235688E+02  0.51100000000E-03 0. -1.
        -11    1    4    4    0    0  0.28926137052E+01  0.84270167262E+01 -0.43033449458E+01  0.98944733531E+01  0.51100000000E-03 0.  1.
         12    1    4    4    0    0  0.69634311786E+01 -0.11593205833E+01 -0.50498884053E+01  0.86795605246E+01  0.00000000000E+00 0. -1.
</event>
<event>
 8    1  0.6239251E-010  0.9118800E+02  0.7816164E-02  0.1184000E+00
        -11   -1    0    0    0    0  0.00000000000E+00  0.00000000000E+00  0.45593999997E+02  0.45594000000E+02  0.51100000000E-03 0. -1.
         11   -1    0    0    0    0 -0.00000000000E+00 -0.00000000000E+00 -0.45593999997E+02  0.45594000000E+02  0.51100000000E-03 0.  1.
         23    2    1    2    0    0  0.00000000000E+00 -0.17763568394E-14  0.00000000000E+00  0.91188000000E+02  0.91188000000E+02 0.  0.
    9900012    2    3    3    0    0  0.40499448537E+02  0.12340151395E+02 -0.95466626507E+01  0.47787269177E+02  0.19999991484E+02 0.  0.
         12    1    3    3    0    0 -0.40499448537E+02 -0.12340151395E+02  0.95466626507E+01  0.43400730823E+02  0.00000000000E+00 0. -1.
         11    1    4    4    0    0  0.12282533467E+02  0.16203859816E+01  0.53986536289E+01  0.13514131136E+02  0.51100000000E-03 0. -1.
        -11    1    4    4    0    0  0.11065328681E+02  0.46203427601E+01 -0.94213638728E+01  0.15249628308E+02  0.51100000000E-03 0.  1.
         12    1    4    4    0    0  0.17151586389E+02  0.60994226535E+01 -0.55239524068E+01  0.19023509733E+02  0.00000000000E+00 0. -1.
</event>
<event>
 8    1  0.6239251E-010  0.9118800E+02  0.7816164E-02  0.1184000E+00
        -11   -1    0    0    0    0  0.00000000000E+00  0.00000000000E+00  0.45593999997E+02  0.45594000000E+02  0.51100000000E-03 0. -1.
         11   -1    0    0    0    0 -0.00000000000E+00 -0.00000000000E+00 -0.45593999997E+02  0.45594000000E+02  0.51100000000E-03 0.  1.
         23    2    1    2    0    0 -0.17763568394E-14 -0.35527136788E-14  0.00000000000E+00  0.91188000000E+02  0.91188000000E+02 0.  0.
    9900012    2    3    3    0    0  0.10565718296E+02 -0.16272206633E+02  0.38822722292E+02  0.47787275606E+02  0.20000020796E+02 0.  0.
        -12    1    3    3    0    0 -0.10565718296E+02  0.16272206633E+02 -0.38822722292E+02  0.43400724394E+02  0.00000000000E+00 0.  1.
         11    1    4    4    0    0  0.51272249124E+01 -0.17535429791E+02  0.37492625887E+02  0.41707034532E+02  0.51100000000E-03 0. -1.
        -11    1    4    4    0    0  0.36865607549E+01  0.36812585631E+00 -0.99379900572E-03  0.37048951529E+01  0.51100000000E-03 0.  1.
         12    1    4    4    0    0  0.17519326287E+01  0.89509730116E+00  0.13310902034E+01  0.23753459208E+01  0.00000000000E+00 0. -1.
</event>
<event>
 8    1  0.6239251E-010  0.9118800E+02  0.7816164E-02  0.1184000E+00
        -11   -1    0    0    0    0  0.00000000000E+00  0.00000000000E+00  0.45593999997E+02  0.45594000000E+02  0.51100000000E-03 0. -1.
         11   -1    0    0    0    0 -0.00000000000E+00 -0.00000000000E+00 -0.45593999997E+02  0.45594000000E+02  0.51100000000E-03 0.  1.
         23    2    1    2    0    0  0.00000000000E+00 -0.44408920985E-15  0.00000000000E+00  0.91188000000E+02  0.91188000000E+02 0.  0.
    9900012    2    3    3    0    0 -0.28464078565E+02  0.22068136434E+01 -0.32688672528E+02  0.47787272971E+02  0.20000008784E+02 0.  0.
         12    1    3    3    0    0  0.28464078565E+02 -0.22068136434E+01  0.32688672528E+02  0.43400727029E+02  0.00000000000E+00 0. -1.
         11    1    4    4    0    0 -0.46048766734E+01 -0.59520941281E+01 -0.11612009585E+02  0.13837307561E+02  0.51100000000E-03 0. -1.
        -11    1    4    4    0    0 -0.16923092466E+02  0.36547830098E+01 -0.18382346972E+02  0.25251914342E+02  0.51100000000E-03 0.  1.
         12    1    4    4    0    0 -0.69361094251E+01  0.45041247617E+01 -0.26943159713E+01  0.86980510679E+01  0.00000000000E+00 0. -1.
</event>
<event>
 8    1  0.6239251E-010  0.9118800E+02  0.7816164E-02  0.1184000E+00
        -11   -1    0    0    0    0  0.00000000000E+00  0.00000000000E+00  0.45593999997E+02  0.45594000000E+02  0.51100000000E-03 0. -1.
         11   -1    0    0    0    0 -0.00000000000E+00 -0.00000000000E+00 -0.45593999997E+02  0.45594000000E+02  0.51100000000E-03 0.  1.
         23    2    1    2    0    0 -0.35527136788E-14  0.35527136788E-14  0.00000000000E+00  0.91188000000E+02  0.91188000000E+02 0.  0.
    9900012    2    3    3    0    0 -0.20976611671E+02  0.25170695135E+02 -0.28461220709E+02  0.47787271722E+02  0.20000003091E+02 0.  0.
         12    1    3    3    0    0  0.20976611671E+02 -0.25170695135E+02  0.28461220709E+02  0.43400728278E+02  0.00000000000E+00 0. -1.
         11    1    4    4    0    0 -0.79698535505E+01  0.13143545638E+02 -0.34283902595E+01  0.15748816387E+02  0.51100000000E-03 0.  1.
        -11    1    4    4    0    0 -0.16407995572E+01  0.25475262927E+01 -0.11807378748E+02  0.12190008473E+02  0.51100000000E-03 0. -1.
        -12    1    4    4    0    0 -0.11365958564E+02  0.94796232038E+01 -0.13225451701E+02  0.19848446863E+02  0.00000000000E+00 0.  1.
</event>
<event>
 8    1  0.6239251E-010  0.9118800E+02  0.7816164E-02  0.1184000E+00
        -11   -1    0    0    0    0  0.00000000000E+00  0.00000000000E+00  0.45593999997E+02  0.45594000000E+02  0.51100000000E-03 0. -1.
         11   -1    0    0    0    0 -0.00000000000E+00 -0.00000000000E+00 -0.45593999997E+02  0.45594000000E+02  0.51100000000E-03 0.  1.
         23    2    1    2    0    0 -0.35527136788E-14 -0.44408920985E-15  0.00000000000E+00  0.91188000000E+02  0.91188000000E+02 0.  0.
    9900012    2    3    3    0    0 -0.21749381305E+02 -0.38941366976E+01 -0.37355369444E+02  0.47787268277E+02  0.19999987382E+02 0.  0.
         12    1    3    3    0    0  0.21749381305E+02  0.38941366976E+01  0.37355369444E+02  0.43400731723E+02  0.00000000000E+00 0. -1.
         11    1    4    4    0    0  0.28473133406E+01 -0.65420176673E+00 -0.23526251806E+01  0.37510023611E+01  0.51100000000E-03 0. -1.
        -11    1    4    4    0    0 -0.13812185043E+02  0.41383204158E+00 -0.11723724720E+02  0.18121628906E+02  0.51100000000E-03 0.  1.
         12    1    4    4    0    0 -0.10784509603E+02 -0.36537669724E+01 -0.23279019544E+02  0.25914637010E+02  0.00000000000E+00 0. -1.
</event>
<event>
 8    1  0.6239251E-010  0.9118800E+02  0.7816164E-02  0.1184000E+00
        -11   -1    0    0    0    0  0.00000000000E+00  0.00000000000E+00  0.45593999997E+02  0.45594000000E+02  0.51100000000E-03 0. -1.
         11   -1    0    0    0    0 -0.00000000000E+00 -0.00000000000E+00 -0.45593999997E+02  0.45594000000E+02  0.51100000000E-03 0.  1.
         23    2    1    2    0    0  0.88817841970E-15  0.00000000000E+00  0.00000000000E+00  0.91188000000E+02  0.91188000000E+02 0.  0.
    9900012    2    3    3    0    0  0.66278964807E+01 -0.83307984934E+01 -0.42074838718E+02  0.47787271107E+02  0.20000000285E+02 0.  0.
         12    1    3    3    0    0 -0.66278964807E+01  0.83307984934E+01  0.42074838718E+02  0.43400728893E+02  0.00000000000E+00 0. -1.
         11    1    4    4    0    0 -0.35095798931E+01 -0.44018662143E+00 -0.11951108996E+01  0.37335245561E+01  0.51100000000E-03 0. -1.
        -11    1    4    4    0    0  0.29486811992E+01 -0.71939277769E+01 -0.30028451688E+02  0.31018627125E+02  0.51100000000E-03 0.  1.
         12    1    4    4    0    0  0.71887951745E+01 -0.69668409506E+00 -0.10851276130E+02  0.13035119426E+02  0.00000000000E+00 0. -1.
</event>
<event>
 8    1  0.6239251E-010  0.9118800E+02  0.7816164E-02  0.1184000E+00
        -11   -1    0    0    0    0  0.00000000000E+00  0.00000000000E+00  0.45593999997E+02  0.45594000000E+02  0.51100000000E-03 0. -1.
         11   -1    0    0    0    0 -0.00000000000E+00 -0.00000000000E+00 -0.45593999997E+02  0.45594000000E+02  0.51100000000E-03 0.  1.
         23    2    1    2    0    0 -0.35527136788E-14  0.00000000000E+00  0.00000000000E+00  0.91188000000E+02  0.91188000000E+02 0.  0.
    9900012    2    3    3    0    0 -0.31374486720E+02 -0.76060414350E+01 -0.29007121520E+02  0.47787269797E+02  0.19999994314E+02 0.  0.
         12    1    3    3    0    0  0.31374486720E+02  0.76060414350E+01  0.29007121520E+02  0.43400730203E+02  0.00000000000E+00 0. -1.
         11    1    4    4    0    0 -0.47688194364E+01  0.15895048560E+01 -0.13919567375E+02  0.14799409470E+02  0.51100000000E-03 0. -1.
        -11    1    4    4    0    0 -0.10244445819E+02 -0.43378032796E+01 -0.10540512340E+02  0.15325390960E+02  0.51100000000E-03 0.  1.
         12    1    4    4    0    0 -0.16361221464E+02 -0.48577430114E+01 -0.45470418058E+01  0.17662469367E+02  0.00000000000E+00 0. -1.
</event>
<event>
 8    1  0.6239251E-010  0.9118800E+02  0.7816164E-02  0.1184000E+00
        -11   -1    0    0    0    0  0.00000000000E+00  0.00000000000E+00  0.45593999997E+02  0.45594000000E+02  0.51100000000E-03 0. -1.
         11   -1    0    0    0    0 -0.00000000000E+00 -0.00000000000E+00 -0.45593999997E+02  0.45594000000E+02  0.51100000000E-03 0.  1.
         23    2    1    2    0    0 -0.71054273576E-14  0.35527136788E-14  0.00000000000E+00  0.91188000000E+02  0.91188000000E+02 0.  0.
    9900012    2    3    3    0    0 -0.32122544057E+02  0.28602933494E+02  0.57996133015E+01  0.47787295448E+02  0.20000111265E+02 0.  0.
        -12    1    3    3    0    0  0.32122544057E+02 -0.28602933494E+02 -0.57996133015E+01  0.43400704552E+02  0.00000000000E+00 0.  1.
         11    1    4    4    0    0 -0.11977237831E+02  0.21792634461E+02  0.86002034570E+01  0.26312290713E+02  0.51100000000E-03 0. -1.
        -11    1    4    4    0    0 -0.16372826742E+02  0.50974002670E+01 -0.23134292886E+01  0.17303320500E+02  0.51100000000E-03 0.  1.
         12    1    4    4    0    0 -0.37724794847E+01  0.17128987658E+01 -0.48716086687E+00  0.41716842348E+01  0.00000000000E+00 0. -1.
</event>
<event>
 8    1  0.6239251E-010  0.9118800E+02  0.7816164E-02  0.1184000E+00
        -11   -1    0    0    0    0  0.00000000000E+00  0.00000000000E+00  0.45593999997E+02  0.45594000000E+02  0.51100000000E-03 0. -1.
         11   -1    0    0    0    0 -0.00000000000E+00 -0.00000000000E+00 -0.45593999997E+02  0.45594000000E+02  0.51100000000E-03 0.  1.
         23    2    1    2    0    0  0.00000000000E+00  0.17763568394E-14  0.00000000000E+00  0.91188000000E+02  0.91188000000E+02 0.  0.
    9900012    2    3    3    0    0  0.33241034250E+01  0.15948926863E+02 -0.40226926518E+02  0.47787267877E+02  0.19999985561E+02 0.  0.
         12    1    3    3    0    0 -0.33241034250E+01 -0.15948926863E+02  0.40226926518E+02  0.43400732123E+02  0.00000000000E+00 0. -1.
         11    1    4    4    0    0 -0.90367178745E+00  0.62121847994E+01 -0.91710322212E+01  0.11113761512E+02  0.51100000000E-03 0. -1.
        -11    1    4    4    0    0  0.79584013000E+01  0.11307157336E+02 -0.16310829883E+02  0.21382963546E+02  0.51100000000E-03 0.  1.
        -12    1    4    4    0    0 -0.37306260875E+01 -0.15704152730E+01 -0.14745064414E+02  0.15290542819E+02  0.00000000000E+00 0.  1.
</event>
<event>
 8    1  0.6239251E-010  0.9118800E+02  0.7816164E-02  0.1184000E+00
        -11   -1    0    0    0    0  0.00000000000E+00  0.00000000000E+00  0.45593999997E+02  0.45594000000E+02  0.51100000000E-03 0. -1.
         11   -1    0    0    0    0 -0.00000000000E+00 -0.00000000000E+00 -0.45593999997E+02  0.45594000000E+02  0.51100000000E-03 0.  1.
         23    2    1    2    0    0  0.35527136788E-14 -0.71054273576E-14  0.88817841970E-15  0.91188000000E+02  0.91188000000E+02 0.  0.
    9900012    2    3    3    0    0 -0.17037230385E+02  0.39583458104E+02 -0.51484021360E+01  0.47787269370E+02  0.19999992364E+02 0.  0.
         12    1    3    3    0    0  0.17037230385E+02 -0.39583458104E+02  0.51484021360E+01  0.43400730630E+02  0.00000000000E+00 0. -1.
         11    1    4    4    0    0 -0.12731220858E+02  0.93587788856E+01 -0.43721476985E+01  0.16394706540E+02  0.51100000000E-03 0.  1.
        -11    1    4    4    0    0  0.10607291273E+01  0.16664075064E+02  0.84249827053E+00  0.16719041468E+02  0.51100000000E-03 0. -1.
        -12    1    4    4    0    0 -0.53667386546E+01  0.13560604155E+02 -0.16187527080E+01  0.14673521362E+02  0.00000000000E+00 0.  1.
</event>
<event>
 8    1  0.6239251E-010  0.9118800E+02  0.7816164E-02  0.1184000E+00
        -11   -1    0    0    0    0  0.00000000000E+00  0.00000000000E+00  0.45593999997E+02  0.45594000000E+02  0.51100000000E-03 0. -1.
         11   -1    0    0    0    0 -0.00000000000E+00 -0.00000000000E+00 -0.45593999997E+02  0.45594000000E+02  0.51100000000E-03 0.  1.
         23    2    1    2    0    0 -0.35527136788E-14  0.00000000000E+00  0.00000000000E+00  0.91188000000E+02  0.91188000000E+02 0.  0.
    9900012    2    3    3    0    0  0.29903505191E+02 -0.15952500376E+02 -0.27109435866E+02  0.47787269547E+02  0.19999993170E+02 0.  0.
         12    1    3    3    0    0 -0.29903505191E+02  0.15952500376E+02  0.27109435866E+02  0.43400730453E+02  0.00000000000E+00 0. -1.
         11    1    4    4    0    0 -0.11717397763E+01  0.10559272033E+01 -0.33337113362E+00  0.16121702565E+01  0.51100000000E-03 0. -1.
        -11    1    4    4    0    0  0.27551504786E+02 -0.18845585937E+02 -0.22074413253E+02  0.40019011058E+02  0.51100000000E-03 0.  1.
         12    1    4    4    0    0  0.35237401807E+01  0.18371583579E+01 -0.47016514791E+01  0.61560882323E+01  0.00000000000E+00 0. -1.
</event>
<event>
 8    1  0.6239251E-010  0.9118800E+02  0.7816164E-02  0.1184000E+00
        -11   -1    0    0    0    0  0.00000000000E+00  0.00000000000E+00  0.45593999997E+02  0.45594000000E+02  0.51100000000E-03 0. -1.
         11   -1    0    0    0    0 -0.00000000000E+00 -0.00000000000E+00 -0.45593999997E+02  0.45594000000E+02  0.51100000000E-03 0.  1.
         23    2    1    2    0    0  0.00000000000E+00  0.00000000000E+00  0.00000000000E+00  0.91188000000E+02  0.91188000000E+02 0.  0.
    9900012    2    3    3    0    0  0.13018188790E+02 -0.11043870946E+02 -0.39902190749E+02  0.47787249414E+02  0.19999901378E+02 0.  0.
         12    1    3    3    0    0 -0.13018188790E+02  0.11043870946E+02  0.39902190749E+02  0.43400750586E+02  0.00000000000E+00 0. -1.
         11    1    4    4    0    0  0.11991075338E+02 -0.86343712636E+00 -0.23540190069E+02  0.26432403602E+02  0.51100000000E-03 0. -1.
        -11    1    4    4    0    0  0.50622891380E+01 -0.59455624690E+01 -0.83199963776E+01  0.11410469945E+02  0.51100000000E-03 0.  1.
         12    1    4    4    0    0 -0.40351756861E+01 -0.42348713511E+01 -0.80420043024E+01  0.99443758667E+01  0.00000000000E+00 0. -1.
</event>
<event>
 8    1  0.6239251E-010  0.9118800E+02  0.7816164E-02  0.1184000E+00
        -11   -1    0    0    0    0  0.00000000000E+00  0.00000000000E+00  0.45593999997E+02  0.45594000000E+02  0.51100000000E-03 0. -1.
         11   -1    0    0    0    0 -0.00000000000E+00 -0.00000000000E+00 -0.45593999997E+02  0.45594000000E+02  0.51100000000E-03 0.  1.
         23    2    1    2    0    0  0.44408920985E-15  0.00000000000E+00  0.00000000000E+00  0.91188000000E+02  0.91188000000E+02 0.  0.
    9900012    2    3    3    0    0  0.36760422911E+01 -0.93346401918E+01  0.42225286990E+02  0.47787266645E+02  0.19999979939E+02 0.  0.
        -12    1    3    3    0    0 -0.36760422911E+01  0.93346401918E+01 -0.42225286990E+02  0.43400733355E+02  0.00000000000E+00 0.  1.
         11    1    4    4    0    0  0.38450088524E+01  0.47799170399E+01  0.73758066213E+01  0.95934469071E+01  0.51100000000E-03 0. -1.
        -11    1    4    4    0    0 -0.32382802510E+01 -0.98068532161E+01  0.22314216514E+02  0.24588312018E+02  0.51100000000E-03 0.  1.
        -12    1    4    4    0    0  0.30693136897E+01 -0.43077040156E+01  0.12535263854E+02  0.13605507720E+02  0.00000000000E+00 0.  1.
</event>
<event>
 8    1  0.6239251E-010  0.9118800E+02  0.7816164E-02  0.1184000E+00
        -11   -1    0    0    0    0  0.00000000000E+00  0.00000000000E+00  0.45593999997E+02  0.45594000000E+02  0.51100000000E-03 0. -1.
         11   -1    0    0    0    0 -0.00000000000E+00 -0.00000000000E+00 -0.45593999997E+02  0.45594000000E+02  0.51100000000E-03 0.  1.
         23    2    1    2    0    0  0.00000000000E+00  0.00000000000E+00 -0.35527136788E-14  0.91188000000E+02  0.91188000000E+02 0.  0.
    9900012    2    3    3    0    0  0.32476719922E+02 -0.77685478711E+01 -0.27722473627E+02  0.47787271701E+02  0.20000002992E+02 0.  0.
         12    1    3    3    0    0 -0.32476719922E+02  0.77685478711E+01  0.27722473627E+02  0.43400728299E+02  0.00000000000E+00 0. -1.
         11    1    4    4    0    0  0.12887820068E+02 -0.91853517979E+01 -0.11110024281E+02  0.19336474176E+02  0.51100000000E-03 0. -1.
        -11    1    4    4    0    0  0.10803268120E+02 -0.49783593791E+01 -0.11083057675E+02  0.16258192761E+02  0.51100000000E-03 0.  1.
         12    1    4    4    0    0  0.87856317340E+01  0.63951633059E+01 -0.55293916711E+01  0.12192604764E+02  0.00000000000E+00 0. -1.
</event>
<event>
 8    1  0.6239251E-010  0.9118800E+02  0.7816164E-02  0.1184000E+00
        -11   -1    0    0    0    0  0.00000000000E+00  0.00000000000E+00  0.45593999997E+02  0.45594000000E+02  0.51100000000E-03 0. -1.
         11   -1    0    0    0    0 -0.00000000000E+00 -0.00000000000E+00 -0.45593999997E+02  0.45594000000E+02  0.51100000000E-03 0.  1.
         23    2    1    2    0    0 -0.35527136788E-14 -0.44408920985E-15  0.71054273576E-14  0.91188000000E+02  0.91188000000E+02 0.  0.
    9900012    2    3    3    0    0  0.24414136383E+02  0.26765964839E+01 -0.35782806354E+02  0.47787268963E+02  0.19999990508E+02 0.  0.
         12    1    3    3    0    0 -0.24414136383E+02 -0.26765964839E+01  0.35782806354E+02  0.43400731037E+02  0.00000000000E+00 0. -1.
         11    1    4    4    0    0  0.13394300931E+02  0.40300933432E+00 -0.10160466182E+02  0.16816800744E+02  0.51100000000E-03 0. -1.
        -11    1    4    4    0    0 -0.28211063515E+01 -0.11041319353E+01 -0.59996306183E+01  0.67211097442E+01  0.51100000000E-03 0.  1.
        -12    1    4    4    0    0  0.13840941803E+02  0.33777190848E+01 -0.19622709554E+02  0.24249358474E+02  0.00000000000E+00 0.  1.
</event>
<event>
 8    1  0.6239251E-010  0.9118800E+02  0.7816164E-02  0.1184000E+00
        -11   -1    0    0    0    0  0.00000000000E+00  0.00000000000E+00  0.45593999997E+02  0.45594000000E+02  0.51100000000E-03 0. -1.
         11   -1    0    0    0    0 -0.00000000000E+00 -0.00000000000E+00 -0.45593999997E+02  0.45594000000E+02  0.51100000000E-03 0.  1.
         23    2    1    2    0    0  0.00000000000E+00  0.66613381478E-15  0.00000000000E+00  0.91188000000E+02  0.91188000000E+02 0.  0.
    9900012    2    3    3    0    0 -0.11533578131E+02  0.13809960230E+01 -0.41817375402E+02  0.47787268900E+02  0.19999990224E+02 0.  0.
         12    1    3    3    0    0  0.11533578131E+02 -0.13809960230E+01  0.41817375402E+02  0.43400731100E+02  0.00000000000E+00 0. -1.
         11    1    4    4    0    0 -0.97489859347E+01 -0.44656591500E+01 -0.12534201311E+02  0.16495182363E+02  0.51100000000E-03 0. -1.
        -11    1    4    4    0    0  0.33946000957E+01  0.96793506776E+00 -0.13930690099E+02  0.14370954562E+02  0.51100000000E-03 0.  1.
         12    1    4    4    0    0 -0.51791922918E+01  0.48787201052E+01 -0.15352483991E+02  0.16921131976E+02  0.00000000000E+00 0. -1.
</event>
<event>
 8    1  0.6239251E-010  0.9118800E+02  0.7816164E-02  0.1184000E+00
        -11   -1    0    0    0    0  0.00000000000E+00  0.00000000000E+00  0.45593999997E+02  0.45594000000E+02  0.51100000000E-03 0. -1.
         11   -1    0    0    0    0 -0.00000000000E+00 -0.00000000000E+00 -0.45593999997E+02  0.45594000000E+02  0.51100000000E-03 0.  1.
         23    2    1    2    0    0  0.35527136788E-14 -0.35527136788E-14  0.14210854715E-13  0.91188000000E+02  0.91188000000E+02 0.  0.
    9900012    2    3    3    0    0 -0.16649890951E+02  0.21958858069E+02 -0.33529279002E+02  0.47787275734E+02  0.20000021384E+02 0.  0.
         12    1    3    3    0    0  0.16649890951E+02 -0.21958858069E+02  0.33529279002E+02  0.43400724266E+02  0.00000000000E+00 0. -1.
         11    1    4    4    0    0 -0.40275226507E+01 -0.10826566494E+01 -0.66939706105E+00  0.42238817229E+01  0.51100000000E-03 0. -1.
        -11    1    4    4    0    0 -0.10145546799E+02  0.19161181090E+02 -0.32333564022E+02  0.38929967162E+02  0.51100000000E-03 0.  1.
         12    1    4    4    0    0 -0.24768215015E+01  0.38803336282E+01 -0.52631791902E+00  0.46334268494E+01  0.00000000000E+00 0. -1.
</event>
<event>
 8    1  0.6239251E-010  0.9118800E+02  0.7816164E-02  0.1184000E+00
        -11   -1    0    0    0    0  0.00000000000E+00  0.00000000000E+00  0.45593999997E+02  0.45594000000E+02  0.51100000000E-03 0. -1.
         11   -1    0    0    0    0 -0.00000000000E+00 -0.00000000000E+00 -0.45593999997E+02  0.45594000000E+02  0.51100000000E-03 0.  1.
         23    2    1    2    0    0  0.00000000000E+00  0.00000000000E+00  0.00000000000E+00  0.91188000000E+02  0.91188000000E+02 0.  0.
    9900012    2    3    3    0    0  0.32060425841E+02 -0.26344040789E+02  0.12717935382E+02  0.47787248042E+02  0.19999895120E+02 0.  0.
        -12    1    3    3    0    0 -0.32060425841E+02  0.26344040789E+02 -0.12717935382E+02  0.43400751958E+02  0.00000000000E+00 0.  1.
         11    1    4    4    0    0  0.11932966616E+02 -0.40246487279E+01  0.92729048790E+01  0.15639061826E+02  0.51100000000E-03 0. -1.
        -11    1    4    4    0    0  0.23570224604E+01 -0.83132423231E+01 -0.20137490542E+01  0.88724708123E+01  0.51100000000E-03 0.  1.
        -12    1    4    4    0    0  0.17770436764E+02 -0.14006149738E+02  0.54587795570E+01  0.23275715403E+02  0.00000000000E+00 0.  1.
</event>
<event>
 8    1  0.6239251E-010  0.9118800E+02  0.7816164E-02  0.1184000E+00
        -11   -1    0    0    0    0  0.00000000000E+00  0.00000000000E+00  0.45593999997E+02  0.45594000000E+02  0.51100000000E-03 0. -1.
         11   -1    0    0    0    0 -0.00000000000E+00 -0.00000000000E+00 -0.45593999997E+02  0.45594000000E+02  0.51100000000E-03 0.  1.
         23    2    1    2    0    0  0.00000000000E+00  0.00000000000E+00  0.71054273576E-14  0.91188000000E+02  0.91188000000E+02 0.  0.
    9900012    2    3    3    0    0 -0.76464171777E+01  0.13345871042E+02  0.40583809965E+02  0.47787244237E+02  0.19999877772E+02 0.  0.
        -12    1    3    3    0    0  0.76464171777E+01 -0.13345871042E+02 -0.40583809965E+02  0.43400755763E+02  0.00000000000E+00 0.  1.
         11    1    4    4    0    0 -0.10013147307E+02  0.22294406089E+01  0.22958959056E+02  0.25146517167E+02  0.51100000000E-03 0. -1.
        -11    1    4    4    0    0  0.38596882903E+01  0.19790440445E+01  0.89845941675E+01  0.99768101939E+01  0.51100000000E-03 0.  1.
         12    1    4    4    0    0 -0.14929581612E+01  0.91373863883E+01  0.86402567419E+01  0.12663916876E+02  0.00000000000E+00 0. -1.
</event>
<event>
 8    1  0.6239251E-010  0.9118800E+02  0.7816164E-02  0.1184000E+00
        -11   -1    0    0    0    0  0.00000000000E+00  0.00000000000E+00  0.45593999997E+02  0.45594000000E+02  0.51100000000E-03 0. -1.
         11   -1    0    0    0    0 -0.00000000000E+00 -0.00000000000E+00 -0.45593999997E+02  0.45594000000E+02  0.51100000000E-03 0.  1.
         23    2    1    2    0    0  0.00000000000E+00  0.00000000000E+00 -0.35527136788E-14  0.91188000000E+02  0.91188000000E+02 0.  0.
    9900012    2    3    3    0    0  0.17218677866E+02 -0.31827071554E+02  0.23962009339E+02  0.47787271403E+02  0.20000001636E+02 0.  0.
        -12    1    3    3    0    0 -0.17218677866E+02  0.31827071554E+02 -0.23962009339E+02  0.43400728597E+02  0.00000000000E+00 0.  1.
         11    1    4    4    0    0 -0.18088080869E-01 -0.36383818600E+01  0.46355312821E+01  0.58929025332E+01  0.51100000000E-03 0. -1.
        -11    1    4    4    0    0  0.12138488612E+02 -0.46021662689E+01  0.56594987404E+01  0.14161665383E+02  0.51100000000E-03 0.  1.
        -12    1    4    4    0    0  0.50982773349E+01 -0.23586523425E+02  0.13666979316E+02  0.27732703487E+02  0.00000000000E+00 0.  1.
</event>
<event>
 8    1  0.6239251E-010  0.9118800E+02  0.7816164E-02  0.1184000E+00
        -11   -1    0    0    0    0  0.00000000000E+00  0.00000000000E+00  0.45593999997E+02  0.45594000000E+02  0.51100000000E-03 0. -1.
         11   -1    0    0    0    0 -0.00000000000E+00 -0.00000000000E+00 -0.45593999997E+02  0.45594000000E+02  0.51100000000E-03 0.  1.
         23    2    1    2    0    0  0.00000000000E+00 -0.35527136788E-14  0.35527136788E-14  0.91188000000E+02  0.91188000000E+02 0.  0.
    9900012    2    3    3    0    0 -0.23456679088E+02 -0.23344628820E+02  0.28079102530E+02  0.47787268584E+02  0.19999988781E+02 0.  0.
        -12    1    3    3    0    0  0.23456679088E+02  0.23344628820E+02 -0.28079102530E+02  0.43400731416E+02  0.00000000000E+00 0.  1.
         11    1    4    4    0    0 -0.13722492288E+02 -0.96782045141E+01  0.33234253577E+01  0.17117815094E+02  0.51100000000E-03 0.  1.
        -11    1    4    4    0    0 -0.64236660726E+01 -0.12471583818E+02  0.22413522320E+02  0.26441820508E+02  0.51100000000E-03 0. -1.
        -12    1    4    4    0    0 -0.33105207271E+01 -0.11948404882E+01  0.23421548524E+01  0.42276329819E+01  0.00000000000E+00 0.  1.
</event>
<event>
 8    1  0.6239251E-010  0.9118800E+02  0.7816164E-02  0.1184000E+00
        -11   -1    0    0    0    0  0.00000000000E+00  0.00000000000E+00  0.45593999997E+02  0.45594000000E+02  0.51100000000E-03 0. -1.
         11   -1    0    0    0    0 -0.00000000000E+00 -0.00000000000E+00 -0.45593999997E+02  0.45594000000E+02  0.51100000000E-03 0.  1.
         23    2    1    2    0    0  0.00000000000E+00  0.00000000000E+00  0.71054273576E-14  0.91188000000E+02  0.91188000000E+02 0.  0.
    9900012    2    3    3    0    0 -0.18509027142E+02  0.27572083202E+02  0.27943162302E+02  0.47787260637E+02  0.19999952550E+02 0.  0.
        -12    1    3    3    0    0  0.18509027142E+02 -0.27572083202E+02 -0.27943162302E+02  0.43400739363E+02  0.00000000000E+00 0.  1.
         11    1    4    4    0    0 -0.32206596085E+00  0.19240005611E+01 -0.23083932548E+01  0.30222813109E+01  0.51100000000E-03 0. -1.
        -11    1    4    4    0    0 -0.68200774944E+01  0.96477672938E+01  0.18309013934E+02  0.21790201061E+02  0.51100000000E-03 0.  1.
         12    1    4    4    0    0 -0.11366883687E+02  0.16000315347E+02  0.11942541622E+02  0.22974778265E+02  0.00000000000E+00 0. -1.
</event>
<event>
 8    1  0.6239251E-010  0.9118800E+02  0.7816164E-02  0.1184000E+00
        -11   -1    0    0    0    0  0.00000000000E+00  0.00000000000E+00  0.45593999997E+02  0.45594000000E+02  0.51100000000E-03 0. -1.
         11   -1    0    0    0    0 -0.00000000000E+00 -0.00000000000E+00 -0.45593999997E+02  0.45594000000E+02  0.51100000000E-03 0.  1.
         23    2    1    2    0    0  0.00000000000E+00  0.66613381478E-15  0.71054273576E-14  0.91188000000E+02  0.91188000000E+02 0.  0.
    9900012    2    3    3    0    0 -0.18123566540E+02 -0.14937406326E+01 -0.39407207725E+02  0.47787274823E+02  0.20000017228E+02 0.  0.
         12    1    3    3    0    0  0.18123566540E+02  0.14937406326E+01  0.39407207725E+02  0.43400725177E+02  0.00000000000E+00 0. -1.
         11    1    4    4    0    0 -0.13198723485E+02 -0.78035726290E+00 -0.94211083875E+01  0.16234917388E+02  0.51100000000E-03 0. -1.
        -11    1    4    4    0    0 -0.16502466106E+01  0.33280324556E+01 -0.64038669123E+01  0.74032847840E+01  0.51100000000E-03 0.  1.
         12    1    4    4    0    0 -0.32745964448E+01 -0.40414158254E+01 -0.23582232425E+02  0.24149072651E+02  0.00000000000E+00 0. -1.
</event>
<event>
 8    1  0.6239251E-010  0.9118800E+02  0.7816164E-02  0.1184000E+00
        -11   -1    0    0    0    0  0.00000000000E+00  0.00000000000E+00  0.45593999997E+02  0.45594000000E+02  0.51100000000E-03 0. -1.
         11   -1    0    0    0    0 -0.00000000000E+00 -0.00000000000E+00 -0.45593999997E+02  0.45594000000E+02  0.51100000000E-03 0.  1.
         23    2    1    2    0    0  0.35527136788E-14  0.71054273576E-14 -0.35527136788E-14  0.91188000000E+02  0.91188000000E+02 0.  0.
    9900012    2    3    3    0    0 -0.15292235631E+02 -0.34453889908E+02  0.21510420895E+02  0.47787294850E+02  0.20000108540E+02 0.  0.
        -12    1    3    3    0    0  0.15292235631E+02  0.34453889908E+02 -0.21510420895E+02  0.43400705150E+02  0.00000000000E+00 0.  1.
         11    1    4    4    0    0 -0.14485180993E+02 -0.18890447885E+02  0.18484338134E+02  0.30138683551E+02  0.51100000000E-03 0. -1.
        -11    1    4    4    0    0 -0.15085194935E+01 -0.11713480861E+02 -0.12213909420E+01  0.11873207698E+02  0.51100000000E-03 0.  1.
        -12    1    4    4    0    0  0.70146485557E+00 -0.38499611620E+01  0.42474737032E+01  0.57754036008E+01  0.00000000000E+00 0.  1.
</event>
<event>
 8    1  0.6239251E-010  0.9118800E+02  0.7816164E-02  0.1184000E+00
        -11   -1    0    0    0    0  0.00000000000E+00  0.00000000000E+00  0.45593999997E+02  0.45594000000E+02  0.51100000000E-03 0. -1.
         11   -1    0    0    0    0 -0.00000000000E+00 -0.00000000000E+00 -0.45593999997E+02  0.45594000000E+02  0.51100000000E-03 0.  1.
         23    2    1    2    0    0  0.17763568394E-14  0.00000000000E+00  0.00000000000E+00  0.91188000000E+02  0.91188000000E+02 0.  0.
    9900012    2    3    3    0    0 -0.13679273555E+02  0.20265282519E+02 -0.35858326670E+02  0.47787265074E+02  0.19999972778E+02 0.  0.
         12    1    3    3    0    0  0.13679273555E+02 -0.20265282519E+02  0.35858326670E+02  0.43400734926E+02  0.00000000000E+00 0. -1.
         11    1    4    4    0    0 -0.16009748974E+02  0.11403792059E+02 -0.17130406095E+02  0.26073153794E+02  0.51100000000E-03 0. -1.
        -11    1    4    4    0    0 -0.56518761192E+00  0.79211829962E+01 -0.13286301411E+02  0.15478707393E+02  0.51100000000E-03 0.  1.
         12    1    4    4    0    0  0.28956630310E+01  0.94030746419E+00 -0.54416191632E+01  0.62354038870E+01  0.00000000000E+00 0. -1.
</event>
<event>
 8    1  0.6239251E-010  0.9118800E+02  0.7816164E-02  0.1184000E+00
        -11   -1    0    0    0    0  0.00000000000E+00  0.00000000000E+00  0.45593999997E+02  0.45594000000E+02  0.51100000000E-03 0. -1.
         11   -1    0    0    0    0 -0.00000000000E+00 -0.00000000000E+00 -0.45593999997E+02  0.45594000000E+02  0.51100000000E-03 0.  1.
         23    2    1    2    0    0  0.17763568394E-14  0.00000000000E+00  0.00000000000E+00  0.91188000000E+02  0.91188000000E+02 0.  0.
    9900012    2    3    3    0    0  0.13305757964E+02 -0.81204618005E+01 -0.40504790038E+02  0.47787272922E+02  0.20000008560E+02 0.  0.
         12    1    3    3    0    0 -0.13305757964E+02  0.81204618005E+01  0.40504790038E+02  0.43400727078E+02  0.00000000000E+00 0. -1.
         11    1    4    4    0    0  0.10454281986E+01  0.15826962848E+01 -0.34486836968E+00  0.19278957705E+01  0.51100000000E-03 0. -1.
        -11    1    4    4    0    0 -0.37851177642E+00 -0.93034379325E+00 -0.22149640925E+02  0.22172401857E+02  0.51100000000E-03 0.  1.
        -12    1    4    4    0    0  0.12638841542E+02 -0.87728142920E+01 -0.18010280743E+02  0.23686975294E+02  0.00000000000E+00 0.  1.
</event>
<event>
 8    1  0.6239251E-010  0.9118800E+02  0.7816164E-02  0.1184000E+00
        -11   -1    0    0    0    0  0.00000000000E+00  0.00000000000E+00  0.45593999997E+02  0.45594000000E+02  0.51100000000E-03 0. -1.
         11   -1    0    0    0    0 -0.00000000000E+00 -0.00000000000E+00 -0.45593999997E+02  0.45594000000E+02  0.51100000000E-03 0.  1.
         23    2    1    2    0    0 -0.35527136788E-14  0.00000000000E+00  0.35527136788E-14  0.91188000000E+02  0.91188000000E+02 0.  0.
    9900012    2    3    3    0    0 -0.30702927046E+02 -0.13216228691E+02  0.27681879159E+02  0.47787252728E+02  0.19999916488E+02 0.  0.
        -12    1    3    3    0    0  0.30702927046E+02  0.13216228691E+02 -0.27681879159E+02  0.43400747272E+02  0.00000000000E+00 0.  1.
         11    1    4    4    0    0 -0.21712054078E+02 -0.13786025959E+01  0.22378823097E+02  0.31210984619E+02  0.51100000000E-03 0. -1.
        -11    1    4    4    0    0 -0.72041352382E+01 -0.66064833888E+01  0.15552024522E+01  0.98976685247E+01  0.51100000000E-03 0.  1.
         12    1    4    4    0    0 -0.17867377299E+01 -0.52311427066E+01  0.37478536096E+01  0.66785995845E+01  0.00000000000E+00 0. -1.
</event>
<event>
 8    1  0.6239251E-010  0.9118800E+02  0.7816164E-02  0.1184000E+00
        -11   -1    0    0    0    0  0.00000000000E+00  0.00000000000E+00  0.45593999997E+02  0.45594000000E+02  0.51100000000E-03 0. -1.
         11   -1    0    0    0    0 -0.00000000000E+00 -0.00000000000E+00 -0.45593999997E+02  0.45594000000E+02  0.51100000000E-03 0.  1.
         23    2    1    2    0    0 -0.35527136788E-14  0.17763568394E-14  0.71054273576E-14  0.91188000000E+02  0.91188000000E+02 0.  0.
    9900012    2    3    3    0    0  0.17592435763E+02 -0.36981845208E+01 -0.39502568356E+02  0.47787271071E+02  0.20000000120E+02 0.  0.
         12    1    3    3    0    0 -0.17592435763E+02  0.36981845208E+01  0.39502568356E+02  0.43400728929E+02  0.00000000000E+00 0. -1.
         11    1    4    4    0    0  0.16747107038E+01 -0.48947705909E+01 -0.14776823570E+02  0.15656243169E+02  0.51100000000E-03 0. -1.
        -11    1    4    4    0    0  0.15720181393E+02  0.18229063748E+01 -0.13259804806E+02  0.20646295417E+02  0.51100000000E-03 0.  1.
        -12    1    4    4    0    0  0.19754366651E+00 -0.62632030472E+00 -0.11465939980E+02  0.11484732485E+02  0.00000000000E+00 0.  1.
</event>
<event>
 8    1  0.6239251E-010  0.9118800E+02  0.7816164E-02  0.1184000E+00
        -11   -1    0    0    0    0  0.00000000000E+00  0.00000000000E+00  0.45593999997E+02  0.45594000000E+02  0.51100000000E-03 0. -1.
         11   -1    0    0    0    0 -0.00000000000E+00 -0.00000000000E+00 -0.45593999997E+02  0.45594000000E+02  0.51100000000E-03 0.  1.
         23    2    1    2    0    0  0.00000000000E+00  0.00000000000E+00  0.00000000000E+00  0.91188000000E+02  0.91188000000E+02 0.  0.
    9900012    2    3    3    0    0 -0.51976340178E+01 -0.25268103723E+02 -0.34901730777E+02  0.47787271015E+02  0.19999999867E+02 0.  0.
         12    1    3    3    0    0  0.51976340178E+01  0.25268103723E+02  0.34901730777E+02  0.43400728985E+02  0.00000000000E+00 0. -1.
         11    1    4    4    0    0 -0.40891978506E+01 -0.12130664295E+02 -0.32387620827E+01  0.13204701260E+02  0.51100000000E-03 0. -1.
        -11    1    4    4    0    0  0.40008970293E+00 -0.97957739089E+01 -0.26457378912E+02  0.28215424105E+02  0.51100000000E-03 0.  1.
         12    1    4    4    0    0 -0.15085258702E+01 -0.33416655200E+01 -0.52055897824E+01  0.63671456502E+01  0.00000000000E+00 0. -1.
</event>
<event>
 8    1  0.6239251E-010  0.9118800E+02  0.7816164E-02  0.1184000E+00
        -11   -1    0    0    0    0  0.00000000000E+00  0.00000000000E+00  0.45593999997E+02  0.45594000000E+02  0.51100000000E-03 0. -1.
         11   -1    0    0    0    0 -0.00000000000E+00 -0.00000000000E+00 -0.45593999997E+02  0.45594000000E+02  0.51100000000E-03 0.  1.
         23    2    1    2    0    0  0.00000000000E+00  0.00000000000E+00  0.00000000000E+00  0.91188000000E+02  0.91188000000E+02 0.  0.
    9900012    2    3    3    0    0 -0.19370852829E+02 -0.22622824457E+01  0.38772097749E+02  0.47787269303E+02  0.19999992062E+02 0.  0.
        -12    1    3    3    0    0  0.19370852829E+02  0.22622824457E+01 -0.38772097749E+02  0.43400730697E+02  0.00000000000E+00 0.  1.
         11    1    4    4    0    0 -0.19886332270E+02 -0.11417496030E+01  0.32960261607E+02  0.38511668995E+02  0.51100000000E-03 0. -1.
        -11    1    4    4    0    0 -0.36964039525E-01  0.29038759477E+01  0.12342118904E+01  0.31554937983E+01  0.51100000000E-03 0.  1.
         12    1    4    4    0    0  0.55244348103E+00 -0.40244087904E+01  0.45776242514E+01  0.61201065104E+01  0.00000000000E+00 0. -1.
</event>
<event>
 8    1  0.6239251E-010  0.9118800E+02  0.7816164E-02  0.1184000E+00
        -11   -1    0    0    0    0  0.00000000000E+00  0.00000000000E+00  0.45593999997E+02  0.45594000000E+02  0.51100000000E-03 0. -1.
         11   -1    0    0    0    0 -0.00000000000E+00 -0.00000000000E+00 -0.45593999997E+02  0.45594000000E+02  0.51100000000E-03 0.  1.
         23    2    1    2    0    0  0.71054273576E-14  0.00000000000E+00  0.88817841970E-15  0.91188000000E+02  0.91188000000E+02 0.  0.
    9900012    2    3    3    0    0 -0.36220897561E+02  0.23038133745E+02  0.63964258334E+01  0.47787270858E+02  0.19999999151E+02 0.  0.
        -12    1    3    3    0    0  0.36220897561E+02 -0.23038133745E+02 -0.63964258334E+01  0.43400729142E+02  0.00000000000E+00 0.  1.
         11    1    4    4    0    0 -0.26065409519E+02  0.21000892859E+02  0.10371804452E+02  0.35043079232E+02  0.51100000000E-03 0. -1.
        -11    1    4    4    0    0  0.32749146928E+00  0.62618804078E+00 -0.18158086073E+01  0.19484669062E+01  0.51100000000E-03 0.  1.
         12    1    4    4    0    0 -0.10482979512E+02  0.14110528455E+01 -0.21595700118E+01  0.10795724720E+02  0.00000000000E+00 0. -1.
</event>
<event>
 8    1  0.6239251E-010  0.9118800E+02  0.7816164E-02  0.1184000E+00
        -11   -1    0    0    0    0  0.00000000000E+00  0.00000000000E+00  0.45593999997E+02  0.45594000000E+02  0.51100000000E-03 0.  1.
         11   -1    0    0    0    0 -0.00000000000E+00 -0.00000000000E+00 -0.45593999997E+02  0.45594000000E+02  0.51100000000E-03 0. -1.
         23    2    1    2    0    0 -0.44408920985E-15  0.71054273576E-14  0.17763568394E-14  0.91188000000E+02  0.91188000000E+02 0.  0.
    9900012    2    3    3    0    0 -0.24809181499E+01  0.40912308505E+02  0.14270559335E+02  0.47787299478E+02  0.20000129641E+02 0.  0.
         12    1    3    3    0    0  0.24809181499E+01 -0.40912308505E+02 -0.14270559335E+02  0.43400700522E+02  0.00000000000E+00 0. -1.
         11    1    4    4    0    0  0.41812162166E+00  0.16841857589E+02 -0.38837812154E+01  0.17288919848E+02  0.51100000000E-03 0. -1.
        -11    1    4    4    0    0 -0.29669146110E+00  0.11865368047E+02  0.10581055321E+02  0.15900745790E+02  0.51100000000E-03 0.  1.
         12    1    4    4    0    0 -0.26023483105E+01  0.12205082869E+02  0.75732852287E+01  0.14597633840E+02  0.00000000000E+00 0. -1.
</event>
<event>
 8    1  0.6239251E-010  0.9118800E+02  0.7816164E-02  0.1184000E+00
        -11   -1    0    0    0    0  0.00000000000E+00  0.00000000000E+00  0.45593999997E+02  0.45594000000E+02  0.51100000000E-03 0. -1.
         11   -1    0    0    0    0 -0.00000000000E+00 -0.00000000000E+00 -0.45593999997E+02  0.45594000000E+02  0.51100000000E-03 0.  1.
         23    2    1    2    0    0  0.00000000000E+00  0.00000000000E+00 -0.71054273576E-14  0.91188000000E+02  0.91188000000E+02 0.  0.
    9900012    2    3    3    0    0  0.27042099226E+02  0.47242452443E+01 -0.33615913980E+02  0.47787270785E+02  0.19999998817E+02 0.  0.
         12    1    3    3    0    0 -0.27042099226E+02 -0.47242452443E+01  0.33615913980E+02  0.43400729215E+02  0.00000000000E+00 0. -1.
         11    1    4    4    0    0  0.45136126116E+01  0.57448844156E+01 -0.17389949387E+01  0.75100265921E+01  0.51100000000E-03 0. -1.
        -11    1    4    4    0    0  0.20860868072E+02 -0.28292960053E+01 -0.23518160461E+02  0.31563976370E+02  0.51100000000E-03 0.  1.
        -12    1    4    4    0    0  0.16676185433E+01  0.18086568340E+01 -0.83587585801E+01  0.87132678227E+01  0.00000000000E+00 0.  1.
</event>
<event>
 8    1  0.6239251E-010  0.9118800E+02  0.7816164E-02  0.1184000E+00
        -11   -1    0    0    0    0  0.00000000000E+00  0.00000000000E+00  0.45593999997E+02  0.45594000000E+02  0.51100000000E-03 0. -1.
         11   -1    0    0    0    0 -0.00000000000E+00 -0.00000000000E+00 -0.45593999997E+02  0.45594000000E+02  0.51100000000E-03 0.  1.
         23    2    1    2    0    0  0.00000000000E+00  0.00000000000E+00  0.00000000000E+00  0.91188000000E+02  0.91188000000E+02 0.  0.
    9900012    2    3    3    0    0 -0.37901305562E+02 -0.13535663128E+02 -0.16245010331E+02  0.47787268436E+02  0.19999988109E+02 0.  0.
         12    1    3    3    0    0  0.37901305562E+02  0.13535663128E+02  0.16245010331E+02  0.43400731564E+02  0.00000000000E+00 0. -1.
         11    1    4    4    0    0 -0.34586967906E+02 -0.13456148571E+02 -0.18220975098E+02  0.41344046937E+02  0.51100000000E-03 0. -1.
        -11    1    4    4    0    0 -0.30615872449E+01 -0.13240699018E+01 -0.76509682766E+00  0.34222581696E+01  0.51100000000E-03 0.  1.
         12    1    4    4    0    0 -0.25275041078E+00  0.12445553451E+01  0.27410615945E+01  0.30209633301E+01  0.00000000000E+00 0. -1.
</event>
<event>
 8    1  0.6239251E-010  0.9118800E+02  0.7816164E-02  0.1184000E+00
        -11   -1    0    0    0    0  0.00000000000E+00  0.00000000000E+00  0.45593999997E+02  0.45594000000E+02  0.51100000000E-03 0. -1.
         11   -1    0    0    0    0 -0.00000000000E+00 -0.00000000000E+00 -0.45593999997E+02  0.45594000000E+02  0.51100000000E-03 0.  1.
         23    2    1    2    0    0  0.88817841970E-15 -0.17763568394E-14  0.00000000000E+00  0.91188000000E+02  0.91188000000E+02 0.  0.
    9900012    2    3    3    0    0 -0.65053519075E+01  0.91433765635E+01 -0.41924960330E+02  0.47787271468E+02  0.20000001933E+02 0.  0.
         12    1    3    3    0    0  0.65053519075E+01 -0.91433765635E+01  0.41924960330E+02  0.43400728532E+02  0.00000000000E+00 0. -1.
         11    1    4    4    0    0  0.30262578335E+01  0.49518605826E-01 -0.20365111914E+01  0.36480222944E+01  0.51100000000E-03 0. -1.
        -11    1    4    4    0    0 -0.10370251924E+02  0.37136797900E+01 -0.14700723895E+02  0.18369671360E+02  0.51100000000E-03 0.  1.
        -12    1    4    4    0    0  0.83864218290E+00  0.53801781677E+01 -0.25187725243E+02  0.25769577814E+02  0.00000000000E+00 0.  1.
</event>
<event>
 8    1  0.6239251E-010  0.9118800E+02  0.7816164E-02  0.1184000E+00
        -11   -1    0    0    0    0  0.00000000000E+00  0.00000000000E+00  0.45593999997E+02  0.45594000000E+02  0.51100000000E-03 0. -1.
         11   -1    0    0    0    0 -0.00000000000E+00 -0.00000000000E+00 -0.45593999997E+02  0.45594000000E+02  0.51100000000E-03 0.  1.
         23    2    1    2    0    0  0.35527136788E-14  0.00000000000E+00  0.00000000000E+00  0.91188000000E+02  0.91188000000E+02 0.  0.
    9900012    2    3    3    0    0 -0.30391529303E+02  0.98220961070E+01  0.29385445489E+02  0.47787273832E+02  0.20000012709E+02 0.  0.
        -12    1    3    3    0    0  0.30391529303E+02 -0.98220961070E+01 -0.29385445489E+02  0.43400726168E+02  0.00000000000E+00 0.  1.
         11    1    4    4    0    0  0.11217218165E+01  0.27756230698E+01  0.88598165492E+00  0.31220677464E+01  0.51100000000E-03 0. -1.
        -11    1    4    4    0    0 -0.22218741048E+02  0.57211787325E+01  0.26525436723E+02  0.35071400505E+02  0.51100000000E-03 0.  1.
        -12    1    4    4    0    0 -0.92945100719E+01  0.13252943047E+01  0.19740271117E+01  0.95938055801E+01  0.00000000000E+00 0.  1.
</event>
<event>
 8    1  0.6613832E-010  0.9118800E+02  0.7816164E-02  0.1184000E+00
        -11   -1    0    0    0    0  0.00000000000E+00  0.00000000000E+00  0.45593999997E+02  0.45594000000E+02  0.51100000000E-03 0. -1.
         11   -1    0    0    0    0 -0.00000000000E+00 -0.00000000000E+00 -0.45593999997E+02  0.45594000000E+02  0.51100000000E-03 0.  1.
         23    2    1    2    0    0  0.71054273576E-14  0.00000000000E+00  0.00000000000E+00  0.91188000000E+02  0.91188000000E+02 0.  0.
    9900012    2    3    3    0    0  0.36338161666E+02 -0.92943826939E+01  0.21835194024E+02  0.47787271423E+02  0.20000001727E+02 0.  0.
        -12    1    3    3    0    0 -0.36338161666E+02  0.92943826939E+01 -0.21835194024E+02  0.43400728577E+02  0.00000000000E+00 0.  1.
         11    1    4    4    0    0  0.21840358289E+02 -0.21930060964E+01  0.14044447144E+02  0.26058722566E+02  0.51100000000E-03 0. -1.
        -11    1    4    4    0    0  0.74170739485E+01 -0.12200776963E+01 -0.25002135733E+01  0.79216566270E+01  0.51100000000E-03 0.  1.
        -12    1    4    4    0    0  0.70807294284E+01 -0.58812989011E+01  0.10290960453E+02  0.13806892230E+02  0.00000000000E+00 0.  1.
</event>
<event>
 8    1  0.6239251E-010  0.9118800E+02  0.7816164E-02  0.1184000E+00
        -11   -1    0    0    0    0  0.00000000000E+00  0.00000000000E+00  0.45593999997E+02  0.45594000000E+02  0.51100000000E-03 0. -1.
         11   -1    0    0    0    0 -0.00000000000E+00 -0.00000000000E+00 -0.45593999997E+02  0.45594000000E+02  0.51100000000E-03 0.  1.
         23    2    1    2    0    0  0.00000000000E+00 -0.71054273576E-14 -0.17763568394E-14  0.91188000000E+02  0.91188000000E+02 0.  0.
    9900012    2    3    3    0    0 -0.26951295264E+02 -0.32692645846E+02 -0.94043551204E+01  0.47787270697E+02  0.19999998414E+02 0.  0.
         12    1    3    3    0    0  0.26951295264E+02  0.32692645846E+02  0.94043551204E+01  0.43400729303E+02  0.00000000000E+00 0. -1.
         11    1    4    4    0    0 -0.78389309760E+01 -0.13866934044E+01 -0.55011909177E+01  0.96765106944E+01  0.51100000000E-03 0.  1.
        -11    1    4    4    0    0 -0.17683609125E+02 -0.20964913110E+02 -0.36468360298E+01  0.27668339789E+02  0.51100000000E-03 0. -1.
         12    1    4    4    0    0 -0.14287551635E+01 -0.10341039332E+02 -0.25632817290E+00  0.10442420213E+02  0.00000000000E+00 0. -1.
</event>
<event>
 8    1  0.6239251E-010  0.9118800E+02  0.7816164E-02  0.1184000E+00
        -11   -1    0    0    0    0  0.00000000000E+00  0.00000000000E+00  0.45593999997E+02  0.45594000000E+02  0.51100000000E-03 0. -1.
         11   -1    0    0    0    0 -0.00000000000E+00 -0.00000000000E+00 -0.45593999997E+02  0.45594000000E+02  0.51100000000E-03 0.  1.
         23    2    1    2    0    0  0.00000000000E+00  0.00000000000E+00  0.35527136788E-14  0.91188000000E+02  0.91188000000E+02 0.  0.
    9900012    2    3    3    0    0  0.20255778883E+02 -0.22228815972E+02  0.31292293312E+02  0.47787257398E+02  0.19999937779E+02 0.  0.
        -12    1    3    3    0    0 -0.20255778883E+02  0.22228815972E+02 -0.31292293312E+02  0.43400742602E+02  0.00000000000E+00 0.  1.
         11    1    4    4    0    0  0.20986529721E+02 -0.16382884134E+02  0.30892643338E+02  0.40782211011E+02  0.51100000000E-03 0. -1.
        -11    1    4    4    0    0  0.10333641761E+01 -0.84400271798E+00 -0.81550473777E+00  0.15637232321E+01  0.51100000000E-03 0.  1.
         12    1    4    4    0    0 -0.17641150133E+01 -0.50019291195E+01  0.12151547120E+01  0.54413231544E+01  0.00000000000E+00 0. -1.
</event>
<event>
 8    1  0.6239251E-010  0.9118800E+02  0.7816164E-02  0.1184000E+00
        -11   -1    0    0    0    0  0.00000000000E+00  0.00000000000E+00  0.45593999997E+02  0.45594000000E+02  0.51100000000E-03 0. -1.
         11   -1    0    0    0    0 -0.00000000000E+00 -0.00000000000E+00 -0.45593999997E+02  0.45594000000E+02  0.51100000000E-03 0.  1.
         23    2    1    2    0    0  0.35527136788E-14  0.35527136788E-14  0.00000000000E+00  0.91188000000E+02  0.91188000000E+02 0.  0.
    9900012    2    3    3    0    0  0.10262733900E+02  0.24154680632E+02  0.34566618898E+02  0.47787269066E+02  0.19999990981E+02 0.  0.
        -12    1    3    3    0    0 -0.10262733900E+02 -0.24154680632E+02 -0.34566618898E+02  0.43400730934E+02  0.00000000000E+00 0.  1.
         11    1    4    4    0    0  0.11659725425E+02  0.16898408673E+02  0.15123591136E+02  0.25499576894E+02  0.51100000000E-03 0.  1.
        -11    1    4    4    0    0 -0.22550074814E+01 -0.36724764509E+00  0.92632467082E+01  0.95408421752E+01  0.51100000000E-03 0. -1.
        -12    1    4    4    0    0  0.85801595606E+00  0.76235196043E+01  0.10179781054E+02  0.12746849997E+02  0.00000000000E+00 0.  1.
</event>
<event>
 8    1  0.6239251E-010  0.9118800E+02  0.7816164E-02  0.1184000E+00
        -11   -1    0    0    0    0  0.00000000000E+00  0.00000000000E+00  0.45593999997E+02  0.45594000000E+02  0.51100000000E-03 0. -1.
         11   -1    0    0    0    0 -0.00000000000E+00 -0.00000000000E+00 -0.45593999997E+02  0.45594000000E+02  0.51100000000E-03 0.  1.
         23    2    1    2    0    0  0.35527136788E-14 -0.35527136788E-14  0.00000000000E+00  0.91188000000E+02  0.91188000000E+02 0.  0.
    9900012    2    3    3    0    0 -0.30895950946E+02  0.26391023784E+02  0.15250502288E+02  0.47787265660E+02  0.19999975451E+02 0.  0.
        -12    1    3    3    0    0  0.30895950946E+02 -0.26391023784E+02 -0.15250502288E+02  0.43400734340E+02  0.00000000000E+00 0.  1.
         11    1    4    4    0    0 -0.45909247608E+01  0.10985873939E+02  0.21830546169E+01  0.12105029702E+02  0.51100000000E-03 0. -1.
        -11    1    4    4    0    0 -0.26279550074E+02  0.10548596682E+02  0.11675017694E+02  0.30629947478E+02  0.51100000000E-03 0.  1.
        -12    1    4    4    0    0 -0.25476110689E-01  0.48565531622E+01  0.13924299773E+01  0.50522884806E+01  0.00000000000E+00 0.  1.
</event>
<event>
 8    1  0.6239251E-010  0.9118800E+02  0.7816164E-02  0.1184000E+00
        -11   -1    0    0    0    0  0.00000000000E+00  0.00000000000E+00  0.45593999997E+02  0.45594000000E+02  0.51100000000E-03 0. -1.
         11   -1    0    0    0    0 -0.00000000000E+00 -0.00000000000E+00 -0.45593999997E+02  0.45594000000E+02  0.51100000000E-03 0.  1.
         23    2    1    2    0    0  0.17763568394E-14 -0.71054273576E-14  0.00000000000E+00  0.91188000000E+02  0.91188000000E+02 0.  0.
    9900012    2    3    3    0    0 -0.11579875431E+02  0.34367981576E+02  0.23840550187E+02  0.47787268372E+02  0.19999987813E+02 0.  0.
        -12    1    3    3    0    0  0.11579875431E+02 -0.34367981576E+02 -0.23840550187E+02  0.43400731628E+02  0.00000000000E+00 0.  1.
         11    1    4    4    0    0 -0.95044425714E+01  0.30016838474E+02  0.24296960150E+02  0.39770432401E+02  0.51100000000E-03 0. -1.
        -11    1    4    4    0    0 -0.20445508994E+01  0.21583308495E+01 -0.32896561532E+01  0.44340070256E+01  0.51100000000E-03 0.  1.
         12    1    4    4    0    0 -0.30881960278E-01  0.21928122532E+01  0.28332461904E+01  0.35828289450E+01  0.00000000000E+00 0. -1.
</event>
<event>
 8    1  0.6239251E-010  0.9118800E+02  0.7816164E-02  0.1184000E+00
        -11   -1    0    0    0    0  0.00000000000E+00  0.00000000000E+00  0.45593999997E+02  0.45594000000E+02  0.51100000000E-03 0. -1.
         11   -1    0    0    0    0 -0.00000000000E+00 -0.00000000000E+00 -0.45593999997E+02  0.45594000000E+02  0.51100000000E-03 0.  1.
         23    2    1    2    0    0  0.88817841970E-15  0.00000000000E+00 -0.35527136788E-14  0.91188000000E+02  0.91188000000E+02 0.  0.
    9900012    2    3    3    0    0 -0.51915521048E+01 -0.34432349703E+02 -0.25905295360E+02  0.47787271354E+02  0.20000001411E+02 0.  0.
         12    1    3    3    0    0  0.51915521048E+01  0.34432349703E+02  0.25905295360E+02  0.43400728646E+02  0.00000000000E+00 0. -1.
         11    1    4    4    0    0  0.14373853034E+01 -0.19609658146E+00 -0.34292043407E+00  0.14906793971E+01  0.51100000000E-03 0. -1.
        -11    1    4    4    0    0 -0.37215134681E+01 -0.23376049588E+01  0.12013719749E+01  0.45560239596E+01  0.51100000000E-03 0.  1.
        -12    1    4    4    0    0 -0.29074239400E+01 -0.31898648163E+02 -0.26763746900E+02  0.41740567997E+02  0.00000000000E+00 0.  1.
</event>
<event>
 8    1  0.6239251E-010  0.9118800E+02  0.7816164E-02  0.1184000E+00
        -11   -1    0    0    0    0  0.00000000000E+00  0.00000000000E+00  0.45593999997E+02  0.45594000000E+02  0.51100000000E-03 0. -1.
         11   -1    0    0    0    0 -0.00000000000E+00 -0.00000000000E+00 -0.45593999997E+02  0.45594000000E+02  0.51100000000E-03 0.  1.
         23    2    1    2    0    0  0.00000000000E+00  0.00000000000E+00  0.00000000000E+00  0.91188000000E+02  0.91188000000E+02 0.  0.
    9900012    2    3    3    0    0  0.17155706760E+02  0.25733114027E+02 -0.30448510251E+02  0.47787271797E+02  0.20000003434E+02 0.  0.
         12    1    3    3    0    0 -0.17155706760E+02 -0.25733114027E+02  0.30448510251E+02  0.43400728203E+02  0.00000000000E+00 0. -1.
         11    1    4    4    0    0  0.71767081532E+01  0.13300173636E+02 -0.26475990632E+02  0.30485698924E+02  0.51100000000E-03 0. -1.
        -11    1    4    4    0    0  0.21806516745E-01  0.29814595002E+01 -0.15515472479E+01  0.33610824743E+01  0.51100000000E-03 0.  1.
         12    1    4    4    0    0  0.99571920901E+01  0.94514808906E+01 -0.24209723715E+01  0.13940490399E+02  0.00000000000E+00 0. -1.
</event>
<event>
 8    1  0.6239251E-010  0.9118800E+02  0.7816164E-02  0.1184000E+00
        -11   -1    0    0    0    0  0.00000000000E+00  0.00000000000E+00  0.45593999997E+02  0.45594000000E+02  0.51100000000E-03 0. -1.
         11   -1    0    0    0    0 -0.00000000000E+00 -0.00000000000E+00 -0.45593999997E+02  0.45594000000E+02  0.51100000000E-03 0.  1.
         23    2    1    2    0    0  0.00000000000E+00  0.00000000000E+00 -0.71054273576E-14  0.91188000000E+02  0.91188000000E+02 0.  0.
    9900012    2    3    3    0    0  0.17366578531E+02  0.16648206644E+02  0.36122877434E+02  0.47787272951E+02  0.20000008691E+02 0.  0.
        -12    1    3    3    0    0 -0.17366578531E+02 -0.16648206644E+02 -0.36122877434E+02  0.43400727049E+02  0.00000000000E+00 0.  1.
         11    1    4    4    0    0  0.16473073798E+01  0.20593559726E+01  0.20496848462E+01  0.33400264752E+01  0.51100000000E-03 0. -1.
        -11    1    4    4    0    0  0.37491740853E+01 -0.27581924937E+01  0.33435935109E+00  0.46664471058E+01  0.51100000000E-03 0.  1.
        -12    1    4    4    0    0  0.11970097066E+02  0.17347043165E+02  0.33738833236E+02  0.39780799370E+02  0.00000000000E+00 0.  1.
</event>
<event>
 8    1  0.8931055E-010  0.9118800E+02  0.7816164E-02  0.1184000E+00
        -11   -1    0    0    0    0  0.00000000000E+00  0.00000000000E+00  0.45593999997E+02  0.45594000000E+02  0.51100000000E-03 0. -1.
         11   -1    0    0    0    0 -0.00000000000E+00 -0.00000000000E+00 -0.45593999997E+02  0.45594000000E+02  0.51100000000E-03 0.  1.
         23    2    1    2    0    0  0.00000000000E+00  0.17763568394E-14  0.00000000000E+00  0.91188000000E+02  0.91188000000E+02 0.  0.
    9900012    2    3    3    0    0  0.11492622463E+02 -0.13686473743E+02  0.39550265501E+02  0.47787269179E+02  0.19999991494E+02 0.  0.
        -12    1    3    3    0    0 -0.11492622463E+02  0.13686473743E+02 -0.39550265501E+02  0.43400730821E+02  0.00000000000E+00 0.  1.
         11    1    4    4    0    0  0.10986665841E+01 -0.53887661618E+01  0.13738718240E+02  0.14798589398E+02  0.51100000000E-03 0. -1.
        -11    1    4    4    0    0 -0.20376857134E+01  0.29585876807E+01  0.63714840667E+01  0.73144523790E+01  0.51100000000E-03 0.  1.
        -12    1    4    4    0    0  0.12431641593E+02 -0.11256295262E+02  0.19440063194E+02  0.25674227402E+02  0.00000000000E+00 0.  1.
</event>
<event>
 8    1  0.6239251E-010  0.9118800E+02  0.7816164E-02  0.1184000E+00
        -11   -1    0    0    0    0  0.00000000000E+00  0.00000000000E+00  0.45593999997E+02  0.45594000000E+02  0.51100000000E-03 0. -1.
         11   -1    0    0    0    0 -0.00000000000E+00 -0.00000000000E+00 -0.45593999997E+02  0.45594000000E+02  0.51100000000E-03 0.  1.
         23    2    1    2    0    0  0.71054273576E-14  0.35527136788E-14  0.00000000000E+00  0.91188000000E+02  0.91188000000E+02 0.  0.
    9900012    2    3    3    0    0  0.32092810415E+02  0.22678421065E+02 -0.18421848203E+02  0.47787265518E+02  0.19999974802E+02 0.  0.
         12    1    3    3    0    0 -0.32092810415E+02 -0.22678421065E+02  0.18421848203E+02  0.43400734482E+02  0.00000000000E+00 0. -1.
         11    1    4    4    0    0  0.15307332739E+02  0.21935304259E+02 -0.11001317220E+02  0.28922326832E+02  0.51100000000E-03 0.  1.
        -11    1    4    4    0    0  0.51496403569E+01 -0.13848554875E+01 -0.36016406351E+01  0.64349386984E+01  0.51100000000E-03 0. -1.
         12    1    4    4    0    0  0.11635837319E+02  0.21279722933E+01 -0.38188903486E+01  0.12429999988E+02  0.00000000000E+00 0. -1.
</event>
<event>
 8    1  0.6239251E-010  0.9118800E+02  0.7816164E-02  0.1184000E+00
        -11   -1    0    0    0    0  0.00000000000E+00  0.00000000000E+00  0.45593999997E+02  0.45594000000E+02  0.51100000000E-03 0. -1.
         11   -1    0    0    0    0 -0.00000000000E+00 -0.00000000000E+00 -0.45593999997E+02  0.45594000000E+02  0.51100000000E-03 0.  1.
         23    2    1    2    0    0 -0.35527136788E-14  0.35527136788E-14  0.00000000000E+00  0.91188000000E+02  0.91188000000E+02 0.  0.
    9900012    2    3    3    0    0  0.22602680666E+02  0.29264037919E+02 -0.22723485660E+02  0.47787286997E+02  0.20000072734E+02 0.  0.
         12    1    3    3    0    0 -0.22602680666E+02 -0.29264037919E+02  0.22723485660E+02  0.43400713003E+02  0.00000000000E+00 0. -1.
         11    1    4    4    0    0  0.12752989074E+02  0.24477493188E+02 -0.16610609926E+02  0.32213332108E+02  0.51100000000E-03 0.  1.
        -11    1    4    4    0    0  0.32889656023E+01 -0.20673965877E+01 -0.45086573638E+01  0.59514212478E+01  0.51100000000E-03 0. -1.
        -12    1    4    4    0    0  0.65607259890E+01  0.68539413187E+01 -0.16042183706E+01  0.96225336416E+01  0.00000000000E+00 0.  1.
</event>
<event>
 8    1  0.6239251E-010  0.9118800E+02  0.7816164E-02  0.1184000E+00
        -11   -1    0    0    0    0  0.00000000000E+00  0.00000000000E+00  0.45593999997E+02  0.45594000000E+02  0.51100000000E-03 0. -1.
         11   -1    0    0    0    0 -0.00000000000E+00 -0.00000000000E+00 -0.45593999997E+02  0.45594000000E+02  0.51100000000E-03 0.  1.
         23    2    1    2    0    0  0.00000000000E+00  0.00000000000E+00 -0.17763568394E-14  0.91188000000E+02  0.91188000000E+02 0.  0.
    9900012    2    3    3    0    0 -0.33458600560E+02 -0.23005999276E+02 -0.15325461147E+02  0.47787265980E+02  0.19999976909E+02 0.  0.
         12    1    3    3    0    0  0.33458600560E+02  0.23005999276E+02  0.15325461147E+02  0.43400734020E+02  0.00000000000E+00 0. -1.
         11    1    4    4    0    0 -0.18002385265E+02 -0.16686012529E+02 -0.13329395223E+02  0.27931732252E+02  0.51100000000E-03 0. -1.
        -11    1    4    4    0    0 -0.11603865532E+02 -0.82820254699E+01 -0.43859742205E+01  0.14915710218E+02  0.51100000000E-03 0.  1.
         12    1    4    4    0    0 -0.38523497626E+01  0.19620387222E+01  0.23899082970E+01  0.49398235099E+01  0.00000000000E+00 0. -1.
</event>
<event>
 8    1  0.6239251E-010  0.9118800E+02  0.7816164E-02  0.1184000E+00
        -11   -1    0    0    0    0  0.00000000000E+00  0.00000000000E+00  0.45593999997E+02  0.45594000000E+02  0.51100000000E-03 0. -1.
         11   -1    0    0    0    0 -0.00000000000E+00 -0.00000000000E+00 -0.45593999997E+02  0.45594000000E+02  0.51100000000E-03 0.  1.
         23    2    1    2    0    0 -0.88817841970E-15 -0.71054273576E-14 -0.35527136788E-14  0.91188000000E+02  0.91188000000E+02 0.  0.
    9900012    2    3    3    0    0  0.68233659550E+01  0.39232154272E+02  0.17259864748E+02  0.47787272092E+02  0.20000004777E+02 0.  0.
        -12    1    3    3    0    0 -0.68233659550E+01 -0.39232154272E+02 -0.17259864748E+02  0.43400727908E+02  0.00000000000E+00 0.  1.
         11    1    4    4    0    0  0.53507272795E+01  0.23286759122E+02  0.13777390045E+02  0.27581151345E+02  0.51100000000E-03 0. -1.
        -11    1    4    4    0    0  0.55828411252E+01  0.52626038056E+01 -0.13348554638E+01  0.77874869640E+01  0.51100000000E-03 0.  1.
         12    1    4    4    0    0 -0.41102024496E+01  0.10682791345E+02  0.48173301674E+01  0.12418633783E+02  0.00000000000E+00 0. -1.
</event>
<event>
 8    1  0.6239251E-010  0.9118800E+02  0.7816164E-02  0.1184000E+00
        -11   -1    0    0    0    0  0.00000000000E+00  0.00000000000E+00  0.45593999997E+02  0.45594000000E+02  0.51100000000E-03 0. -1.
         11   -1    0    0    0    0 -0.00000000000E+00 -0.00000000000E+00 -0.45593999997E+02  0.45594000000E+02  0.51100000000E-03 0.  1.
         23    2    1    2    0    0  0.17763568394E-14  0.17763568394E-14  0.71054273576E-14  0.91188000000E+02  0.91188000000E+02 0.  0.
    9900012    2    3    3    0    0  0.11373767274E+02  0.11026663047E+02  0.40406351493E+02  0.47787272806E+02  0.20000008033E+02 0.  0.
        -12    1    3    3    0    0 -0.11373767274E+02 -0.11026663047E+02 -0.40406351493E+02  0.43400727194E+02  0.00000000000E+00 0.  1.
         11    1    4    4    0    0  0.81689232430E+01  0.24686703520E+01  0.28976945969E+02  0.30207433492E+02  0.51100000000E-03 0. -1.
        -11    1    4    4    0    0  0.44362229390E+01 -0.26837625580E+00  0.39140917517E+01  0.59221798589E+01  0.51100000000E-03 0.  1.
         12    1    4    4    0    0 -0.12313789076E+01  0.88263689508E+01  0.75153137728E+01  0.11657659455E+02  0.00000000000E+00 0. -1.
</event>
<event>
 8    1  0.6239251E-010  0.9118800E+02  0.7816164E-02  0.1184000E+00
        -11   -1    0    0    0    0  0.00000000000E+00  0.00000000000E+00  0.45593999997E+02  0.45594000000E+02  0.51100000000E-03 0.  1.
         11   -1    0    0    0    0 -0.00000000000E+00 -0.00000000000E+00 -0.45593999997E+02  0.45594000000E+02  0.51100000000E-03 0. -1.
         23    2    1    2    0    0  0.00000000000E+00  0.00000000000E+00  0.17763568394E-14  0.91188000000E+02  0.91188000000E+02 0.  0.
    9900012    2    3    3    0    0 -0.41300070226E+02 -0.74357641780E+01 -0.11074153416E+02  0.47787271164E+02  0.20000000546E+02 0.  0.
         12    1    3    3    0    0  0.41300070226E+02  0.74357641780E+01  0.11074153416E+02  0.43400728836E+02  0.00000000000E+00 0. -1.
         11    1    4    4    0    0 -0.22861388938E+02 -0.32456754441E+01 -0.12506546114E+02  0.26260068721E+02  0.51100000000E-03 0. -1.
        -11    1    4    4    0    0 -0.81980327003E+01 -0.17458280791E+01 -0.44260497453E+01  0.94786904394E+01  0.51100000000E-03 0.  1.
         12    1    4    4    0    0 -0.10240648587E+02 -0.24442606548E+01  0.58584424433E+01  0.12048512003E+02  0.00000000000E+00 0. -1.
</event>
<event>
 8    1  0.6239251E-010  0.9118800E+02  0.7816164E-02  0.1184000E+00
        -11   -1    0    0    0    0  0.00000000000E+00  0.00000000000E+00  0.45593999997E+02  0.45594000000E+02  0.51100000000E-03 0. -1.
         11   -1    0    0    0    0 -0.00000000000E+00 -0.00000000000E+00 -0.45593999997E+02  0.45594000000E+02  0.51100000000E-03 0.  1.
         23    2    1    2    0    0  0.00000000000E+00  0.00000000000E+00  0.00000000000E+00  0.91188000000E+02  0.91188000000E+02 0.  0.
    9900012    2    3    3    0    0  0.27208467188E+02 -0.33350040705E+02 -0.55765032363E+01  0.47787270858E+02  0.19999999149E+02 0.  0.
         12    1    3    3    0    0 -0.27208467188E+02  0.33350040705E+02  0.55765032363E+01  0.43400729142E+02  0.00000000000E+00 0. -1.
         11    1    4    4    0    0  0.21190642207E+01  0.21882749719E+00  0.19502490737E+01  0.28882157737E+01  0.51100000000E-03 0. -1.
        -11    1    4    4    0    0  0.11215898573E+02 -0.25467720361E+02 -0.19624790038E+01  0.27897177013E+02  0.51100000000E-03 0.  1.
        -12    1    4    4    0    0  0.13873504394E+02 -0.81011478411E+01 -0.55642733063E+01  0.17001878071E+02  0.00000000000E+00 0.  1.
</event>
<event>
 8    1  0.6239251E-010  0.9118800E+02  0.7816164E-02  0.1184000E+00
        -11   -1    0    0    0    0  0.00000000000E+00  0.00000000000E+00  0.45593999997E+02  0.45594000000E+02  0.51100000000E-03 0.  1.
         11   -1    0    0    0    0 -0.00000000000E+00 -0.00000000000E+00 -0.45593999997E+02  0.45594000000E+02  0.51100000000E-03 0. -1.
         23    2    1    2    0    0  0.00000000000E+00  0.00000000000E+00  0.00000000000E+00  0.91188000000E+02  0.91188000000E+02 0.  0.
    9900012    2    3    3    0    0  0.29996928920E+02  0.29434643261E+02 -0.10835576453E+02  0.47787266301E+02  0.19999978375E+02 0.  0.
         12    1    3    3    0    0 -0.29996928920E+02 -0.29434643261E+02  0.10835576453E+02  0.43400733699E+02  0.00000000000E+00 0. -1.
         11    1    4    4    0    0  0.10459066487E+01  0.12261138714E+02 -0.45942721325E+01  0.13135325651E+02  0.51100000000E-03 0. -1.
        -11    1    4    4    0    0  0.24942071658E+02  0.15789010508E+02 -0.70128244723E+01  0.30341053027E+02  0.51100000000E-03 0.  1.
        -12    1    4    4    0    0  0.40089506126E+01  0.13844940389E+01  0.77152015150E+00  0.43108876235E+01  0.00000000000E+00 0.  1.
</event>
<event>
 8    1  0.6239251E-010  0.9118800E+02  0.7816164E-02  0.1184000E+00
        -11   -1    0    0    0    0  0.00000000000E+00  0.00000000000E+00  0.45593999997E+02  0.45594000000E+02  0.51100000000E-03 0. -1.
         11   -1    0    0    0    0 -0.00000000000E+00 -0.00000000000E+00 -0.45593999997E+02  0.45594000000E+02  0.51100000000E-03 0.  1.
         23    2    1    2    0    0 -0.17763568394E-14  0.00000000000E+00  0.17763568394E-14  0.91188000000E+02  0.91188000000E+02 0.  0.
    9900012    2    3    3    0    0 -0.12971925970E+02 -0.40142908088E+02  0.10193102853E+02  0.47787270986E+02  0.19999999734E+02 0.  0.
        -12    1    3    3    0    0  0.12971925970E+02  0.40142908088E+02 -0.10193102853E+02  0.43400729014E+02  0.00000000000E+00 0.  1.
         11    1    4    4    0    0  0.19511164423E+01 -0.21808762638E+02  0.52530483959E+01  0.22517182348E+02  0.51100000000E-03 0. -1.
        -11    1    4    4    0    0 -0.14416498316E+02 -0.18005391309E+02  0.30264565131E+01  0.23263468769E+02  0.51100000000E-03 0.  1.
        -12    1    4    4    0    0 -0.50654409588E+00 -0.32875414135E+00  0.19135979444E+01  0.20066198692E+01  0.00000000000E+00 0.  1.
</event>
<event>
 8    1  0.6239251E-010  0.9118800E+02  0.7816164E-02  0.1184000E+00
        -11   -1    0    0    0    0  0.00000000000E+00  0.00000000000E+00  0.45593999997E+02  0.45594000000E+02  0.51100000000E-03 0. -1.
         11   -1    0    0    0    0 -0.00000000000E+00 -0.00000000000E+00 -0.45593999997E+02  0.45594000000E+02  0.51100000000E-03 0.  1.
         23    2    1    2    0    0  0.00000000000E+00  0.35527136788E-14 -0.71054273576E-14  0.91188000000E+02  0.91188000000E+02 0.  0.
    9900012    2    3    3    0    0  0.12866030065E+02 -0.23291222186E+02  0.34287133573E+02  0.47787270868E+02  0.19999999196E+02 0.  0.
        -12    1    3    3    0    0 -0.12866030065E+02  0.23291222186E+02 -0.34287133573E+02  0.43400729132E+02  0.00000000000E+00 0.  1.
         11    1    4    4    0    0  0.33082411955E+01 -0.51104329740E+01  0.21251257269E+02  0.22106038106E+02  0.51100000000E-03 0.  1.
        -11    1    4    4    0    0  0.81154644071E+01 -0.18336626378E+02  0.13482393619E+02  0.24163351742E+02  0.51100000000E-03 0. -1.
        -12    1    4    4    0    0  0.14423244625E+01  0.15583716598E+00 -0.44651731460E+00  0.15178810196E+01  0.00000000000E+00 0.  1.
</event>
<event>
 8    1  0.6239251E-010  0.9118800E+02  0.7816164E-02  0.1184000E+00
        -11   -1    0    0    0    0  0.00000000000E+00  0.00000000000E+00  0.45593999997E+02  0.45594000000E+02  0.51100000000E-03 0. -1.
         11   -1    0    0    0    0 -0.00000000000E+00 -0.00000000000E+00 -0.45593999997E+02  0.45594000000E+02  0.51100000000E-03 0.  1.
         23    2    1    2    0    0  0.88817841970E-15  0.00000000000E+00 -0.71054273576E-14  0.91188000000E+02  0.91188000000E+02 0.  0.
    9900012    2    3    3    0    0 -0.52717721806E+01 -0.75371818989E+01 -0.42414883393E+02  0.47787273899E+02  0.20000013013E+02 0.  0.
         12    1    3    3    0    0  0.52717721806E+01  0.75371818989E+01  0.42414883393E+02  0.43400726101E+02  0.00000000000E+00 0. -1.
         11    1    4    4    0    0  0.90711527020E+00 -0.67451827869E+01 -0.37585552482E+01  0.77747724569E+01  0.51100000000E-03 0. -1.
        -11    1    4    4    0    0 -0.50015955619E+01 -0.33263098835E+01 -0.14497584221E+02  0.15692681228E+02  0.51100000000E-03 0.  1.
         12    1    4    4    0    0 -0.11772918889E+01  0.25343107715E+01 -0.24158743924E+02  0.24319820214E+02  0.00000000000E+00 0. -1.
</event>
<event>
 8    1  0.7694192E-010  0.9118800E+02  0.7816164E-02  0.1184000E+00
        -11   -1    0    0    0    0  0.00000000000E+00  0.00000000000E+00  0.45593999997E+02  0.45594000000E+02  0.51100000000E-03 0. -1.
         11   -1    0    0    0    0 -0.00000000000E+00 -0.00000000000E+00 -0.45593999997E+02  0.45594000000E+02  0.51100000000E-03 0.  1.
         23    2    1    2    0    0  0.17763568394E-14  0.00000000000E+00 -0.71054273576E-14  0.91188000000E+02  0.91188000000E+02 0.  0.
    9900012    2    3    3    0    0 -0.72334701334E+01  0.90028300670E+01  0.41835978433E+02  0.47787272692E+02  0.20000007512E+02 0.  0.
        -12    1    3    3    0    0  0.72334701334E+01 -0.90028300670E+01 -0.41835978433E+02  0.43400727308E+02  0.00000000000E+00 0.  1.
         11    1    4    4    0    0 -0.75714268610E+01  0.10396270378E+02  0.26759293219E+02  0.29689538836E+02  0.51100000000E-03 0. -1.
        -11    1    4    4    0    0  0.31007633358E+01 -0.16907132478E+01  0.89093663651E+00  0.36423910968E+01  0.51100000000E-03 0.  1.
        -12    1    4    4    0    0 -0.27628066082E+01  0.29727293684E+00  0.14185748578E+02  0.14455342759E+02  0.00000000000E+00 0.  1.
</event>
<event>
 8    1  0.6239251E-010  0.9118800E+02  0.7816164E-02  0.1184000E+00
        -11   -1    0    0    0    0  0.00000000000E+00  0.00000000000E+00  0.45593999997E+02  0.45594000000E+02  0.51100000000E-03 0. -1.
         11   -1    0    0    0    0 -0.00000000000E+00 -0.00000000000E+00 -0.45593999997E+02  0.45594000000E+02  0.51100000000E-03 0.  1.
         23    2    1    2    0    0 -0.71054273576E-14  0.00000000000E+00  0.00000000000E+00  0.91188000000E+02  0.91188000000E+02 0.  0.
    9900012    2    3    3    0    0  0.36509399499E+02 -0.17294121593E+02  0.15861900212E+02  0.47787276829E+02  0.20000026375E+02 0.  0.
        -12    1    3    3    0    0 -0.36509399499E+02  0.17294121593E+02 -0.15861900212E+02  0.43400723171E+02  0.00000000000E+00 0.  1.
         11    1    4    4    0    0  0.28991310973E+02 -0.94471973057E+01  0.14586270423E+02  0.33800960548E+02  0.51100000000E-03 0. -1.
        -11    1    4    4    0    0  0.59255820878E+01 -0.40859990472E+01 -0.32437236775E+01  0.78949132262E+01  0.51100000000E-03 0.  1.
         12    1    4    4    0    0  0.15925064376E+01 -0.37609252403E+01  0.45193534669E+01  0.60914030547E+01  0.00000000000E+00 0. -1.
</event>
<event>
 8    1  0.6239251E-010  0.9118800E+02  0.7816164E-02  0.1184000E+00
        -11   -1    0    0    0    0  0.00000000000E+00  0.00000000000E+00  0.45593999997E+02  0.45594000000E+02  0.51100000000E-03 0. -1.
         11   -1    0    0    0    0 -0.00000000000E+00 -0.00000000000E+00 -0.45593999997E+02  0.45594000000E+02  0.51100000000E-03 0.  1.
         23    2    1    2    0    0  0.71054273576E-14 -0.71054273576E-14  0.77715611724E-15  0.91188000000E+02  0.91188000000E+02 0.  0.
    9900012    2    3    3    0    0 -0.28900866838E+02  0.32370538977E+02 -0.71509684005E+00  0.47787271191E+02  0.20000000667E+02 0.  0.
        -12    1    3    3    0    0  0.28900866838E+02 -0.32370538977E+02  0.71509684005E+00  0.43400728809E+02  0.00000000000E+00 0.  1.
         11    1    4    4    0    0 -0.67101195551E+01  0.14383083196E+02 -0.21800182538E+01  0.16020339151E+02  0.51100000000E-03 0. -1.
        -11    1    4    4    0    0 -0.15956035688E+02  0.56748802114E+01  0.47330843540E+01  0.17584124319E+02  0.51100000000E-03 0.  1.
        -12    1    4    4    0    0 -0.62347115947E+01  0.12312575570E+02 -0.32681629402E+01  0.14182807720E+02  0.00000000000E+00 0.  1.
</event>
<event>
 8    1  0.6239251E-010  0.9118800E+02  0.7816164E-02  0.1184000E+00
        -11   -1    0    0    0    0  0.00000000000E+00  0.00000000000E+00  0.45593999997E+02  0.45594000000E+02  0.51100000000E-03 0. -1.
         11   -1    0    0    0    0 -0.00000000000E+00 -0.00000000000E+00 -0.45593999997E+02  0.45594000000E+02  0.51100000000E-03 0.  1.
         23    2    1    2    0    0 -0.35527136788E-14 -0.17763568394E-14 -0.71054273576E-14  0.91188000000E+02  0.91188000000E+02 0.  0.
    9900012    2    3    3    0    0 -0.22324990738E+02 -0.15092582827E+02 -0.34021044729E+02  0.47787277053E+02  0.20000027397E+02 0.  0.
         12    1    3    3    0    0  0.22324990738E+02  0.15092582827E+02  0.34021044729E+02  0.43400722947E+02  0.00000000000E+00 0. -1.
         11    1    4    4    0    0 -0.87816197733E+01 -0.89957529452E+01 -0.13708189924E+02  0.18599862584E+02  0.51100000000E-03 0. -1.
        -11    1    4    4    0    0 -0.73044008358E+01 -0.10859825574E+02 -0.13343522925E+02  0.18690631005E+02  0.51100000000E-03 0.  1.
        -12    1    4    4    0    0 -0.62389701294E+01  0.47629956921E+01 -0.69693318796E+01  0.10496783464E+02  0.00000000000E+00 0.  1.
</event>
<event>
 8    1  0.6239251E-010  0.9118800E+02  0.7816164E-02  0.1184000E+00
        -11   -1    0    0    0    0  0.00000000000E+00  0.00000000000E+00  0.45593999997E+02  0.45594000000E+02  0.51100000000E-03 0. -1.
         11   -1    0    0    0    0 -0.00000000000E+00 -0.00000000000E+00 -0.45593999997E+02  0.45594000000E+02  0.51100000000E-03 0.  1.
         23    2    1    2    0    0 -0.52735593670E-15  0.00000000000E+00  0.71054273576E-14  0.91188000000E+02  0.91188000000E+02 0.  0.
    9900012    2    3    3    0    0 -0.73175268983E-01 -0.31036658838E+01  0.43289557478E+02  0.47787264025E+02  0.19999967995E+02 0.  0.
        -12    1    3    3    0    0  0.73175268983E-01  0.31036658838E+01 -0.43289557478E+02  0.43400735975E+02  0.00000000000E+00 0.  1.
         11    1    4    4    0    0  0.15331982908E+01  0.36667979307E+01  0.85768580709E+00  0.40659229294E+01  0.51100000000E-03 0. -1.
        -11    1    4    4    0    0  0.21818678261E+01 -0.25876788547E+01  0.63024293558E+01  0.71538273051E+01  0.51100000000E-03 0.  1.
         12    1    4    4    0    0 -0.37882413859E+01 -0.41827849598E+01  0.36129442315E+02  0.36567513790E+02  0.00000000000E+00 0. -1.
</event>
<event>
 8    1  0.6239251E-010  0.9118800E+02  0.7816164E-02  0.1184000E+00
        -11   -1    0    0    0    0  0.00000000000E+00  0.00000000000E+00  0.45593999997E+02  0.45594000000E+02  0.51100000000E-03 0. -1.
         11   -1    0    0    0    0 -0.00000000000E+00 -0.00000000000E+00 -0.45593999997E+02  0.45594000000E+02  0.51100000000E-03 0.  1.
         23    2    1    2    0    0  0.44408920985E-15 -0.88817841970E-15  0.71054273576E-14  0.91188000000E+02  0.91188000000E+02 0.  0.
    9900012    2    3    3    0    0 -0.91670396237E+00 -0.56607100256E+01 -0.43020217721E+02  0.47787272853E+02  0.20000008247E+02 0.  0.
         12    1    3    3    0    0  0.91670396237E+00  0.56607100256E+01  0.43020217721E+02  0.43400727147E+02  0.00000000000E+00 0. -1.
         11    1    4    4    0    0  0.34249609186E+01  0.37188038645E+01 -0.50389251036E+01  0.71379707156E+01  0.51100000000E-03 0. -1.
        -11    1    4    4    0    0 -0.86809014208E+00 -0.10491407228E+02 -0.24140545050E+02  0.26336080227E+02  0.51100000000E-03 0.  1.
         12    1    4    4    0    0 -0.34735747389E+01  0.11118933381E+01 -0.13840747567E+02  0.14313221911E+02  0.00000000000E+00 0. -1.
</event>
<event>
 8    1  0.6239251E-010  0.9118800E+02  0.7816164E-02  0.1184000E+00
        -11   -1    0    0    0    0  0.00000000000E+00  0.00000000000E+00  0.45593999997E+02  0.45594000000E+02  0.51100000000E-03 0. -1.
         11   -1    0    0    0    0 -0.00000000000E+00 -0.00000000000E+00 -0.45593999997E+02  0.45594000000E+02  0.51100000000E-03 0.  1.
         23    2    1    2    0    0  0.00000000000E+00  0.71054273576E-14 -0.35527136788E-14  0.91188000000E+02  0.91188000000E+02 0.  0.
    9900012    2    3    3    0    0  0.11465184843E+02 -0.35945093742E+02  0.21450481806E+02  0.47787269622E+02  0.19999993516E+02 0.  0.
        -12    1    3    3    0    0 -0.11465184843E+02  0.35945093742E+02 -0.21450481806E+02  0.43400730378E+02  0.00000000000E+00 0.  1.
         11    1    4    4    0    0  0.36708856571E+01 -0.31245366777E+01  0.40139981525E+01  0.62729827344E+01  0.51100000000E-03 0. -1.
        -11    1    4    4    0    0  0.11154116400E+02 -0.30445705577E+02  0.18409692967E+02  0.37286352679E+02  0.51100000000E-03 0.  1.
        -12    1    4    4    0    0 -0.33598172147E+01 -0.23748514877E+01 -0.97320931289E+00  0.42279342085E+01  0.00000000000E+00 0.  1.
</event>
<event>
 8    1  0.6239251E-010  0.9118800E+02  0.7816164E-02  0.1184000E+00
        -11   -1    0    0    0    0  0.00000000000E+00  0.00000000000E+00  0.45593999997E+02  0.45594000000E+02  0.51100000000E-03 0. -1.
         11   -1    0    0    0    0 -0.00000000000E+00 -0.00000000000E+00 -0.45593999997E+02  0.45594000000E+02  0.51100000000E-03 0.  1.
         23    2    1    2    0    0 -0.35527136788E-14  0.88817841970E-15  0.00000000000E+00  0.91188000000E+02  0.91188000000E+02 0.  0.
    9900012    2    3    3    0    0 -0.28699036610E+02  0.73654442054E+01 -0.31713387735E+02  0.47787269219E+02  0.19999991677E+02 0.  0.
         12    1    3    3    0    0  0.28699036610E+02 -0.73654442054E+01  0.31713387735E+02  0.43400730781E+02  0.00000000000E+00 0. -1.
         11    1    4    4    0    0 -0.15230605426E+02  0.38289231329E+01 -0.29748766451E+02  0.33639576389E+02  0.51100000000E-03 0. -1.
        -11    1    4    4    0    0 -0.12882243224E+02  0.36522100945E+01 -0.20435883787E+01  0.13545002133E+02  0.51100000000E-03 0.  1.
         12    1    4    4    0    0 -0.58618796042E+00 -0.11568902194E+00  0.78967094642E-01  0.60269069744E+00  0.00000000000E+00 0. -1.
</event>
<event>
 8    1  0.6239251E-010  0.9118800E+02  0.7816164E-02  0.1184000E+00
        -11   -1    0    0    0    0  0.00000000000E+00  0.00000000000E+00  0.45593999997E+02  0.45594000000E+02  0.51100000000E-03 0. -1.
         11   -1    0    0    0    0 -0.00000000000E+00 -0.00000000000E+00 -0.45593999997E+02  0.45594000000E+02  0.51100000000E-03 0.  1.
         23    2    1    2    0    0 -0.35527136788E-14  0.11102230246E-15  0.71054273576E-14  0.91188000000E+02  0.91188000000E+02 0.  0.
    9900012    2    3    3    0    0  0.27404749565E+02 -0.73364817735E+00 -0.33646170607E+02  0.47787270342E+02  0.19999996795E+02 0.  0.
         12    1    3    3    0    0 -0.27404749565E+02  0.73364817735E+00  0.33646170607E+02  0.43400729658E+02  0.00000000000E+00 0. -1.
         11    1    4    4    0    0 -0.23782068743E+01 -0.48599584325E+00 -0.14058968491E+01  0.28051035824E+01  0.51100000000E-03 0. -1.
        -11    1    4    4    0    0  0.18015861842E+02 -0.36842399011E+01 -0.23899248893E+02  0.30154916672E+02  0.51100000000E-03 0.  1.
         12    1    4    4    0    0  0.11767094597E+02  0.34365875670E+01 -0.83410248653E+01  0.14827250087E+02  0.00000000000E+00 0. -1.
</event>
<event>
 8    1  0.6239251E-010  0.9118800E+02  0.7816164E-02  0.1184000E+00
        -11   -1    0    0    0    0  0.00000000000E+00  0.00000000000E+00  0.45593999997E+02  0.45594000000E+02  0.51100000000E-03 0.  1.
         11   -1    0    0    0    0 -0.00000000000E+00 -0.00000000000E+00 -0.45593999997E+02  0.45594000000E+02  0.51100000000E-03 0. -1.
         23    2    1    2    0    0  0.00000000000E+00  0.00000000000E+00  0.00000000000E+00  0.91188000000E+02  0.91188000000E+02 0.  0.
    9900012    2    3    3    0    0 -0.37829260988E+02 -0.91215107130E+01 -0.19218960061E+02  0.47787269933E+02  0.19999994930E+02 0.  0.
         12    1    3    3    0    0  0.37829260988E+02  0.91215107130E+01  0.19218960061E+02  0.43400730067E+02  0.00000000000E+00 0. -1.
         11    1    4    4    0    0 -0.11599342395E+01  0.10461392703E+01 -0.18010812217E+01  0.23840613752E+01  0.51100000000E-03 0. -1.
        -11    1    4    4    0    0 -0.35340081608E+02 -0.41102352387E+01 -0.13422300599E+02  0.38025958967E+02  0.51100000000E-03 0.  1.
        -12    1    4    4    0    0 -0.13292451401E+01 -0.60574147446E+01 -0.39955782409E+01  0.73772495898E+01  0.00000000000E+00 0.  1.
</event>
<event>
 8    1  0.6239251E-010  0.9118800E+02  0.7816164E-02  0.1184000E+00
        -11   -1    0    0    0    0  0.00000000000E+00  0.00000000000E+00  0.45593999997E+02  0.45594000000E+02  0.51100000000E-03 0. -1.
         11   -1    0    0    0    0 -0.00000000000E+00 -0.00000000000E+00 -0.45593999997E+02  0.45594000000E+02  0.51100000000E-03 0.  1.
         23    2    1    2    0    0 -0.35527136788E-14  0.00000000000E+00  0.00000000000E+00  0.91188000000E+02  0.91188000000E+02 0.  0.
    9900012    2    3    3    0    0 -0.20017967659E+02 -0.13376725086E+02  0.36110493253E+02  0.47787268138E+02  0.19999986746E+02 0.  0.
        -12    1    3    3    0    0  0.20017967659E+02  0.13376725086E+02 -0.36110493253E+02  0.43400731862E+02  0.00000000000E+00 0.  1.
         11    1    4    4    0    0 -0.10706174069E+02 -0.15357800384E+02  0.19659482198E+02  0.27147365183E+02  0.51100000000E-03 0. -1.
        -11    1    4    4    0    0 -0.92414591962E+01  0.58911214229E+00  0.85071559310E+01  0.12574709678E+02  0.51100000000E-03 0.  1.
         12    1    4    4    0    0 -0.70334394027E-01  0.13919631558E+01  0.79438551243E+01  0.80651932767E+01  0.00000000000E+00 0. -1.
</event>
<event>
 8    1  0.6239251E-010  0.9118800E+02  0.7816164E-02  0.1184000E+00
        -11   -1    0    0    0    0  0.00000000000E+00  0.00000000000E+00  0.45593999997E+02  0.45594000000E+02  0.51100000000E-03 0. -1.
         11   -1    0    0    0    0 -0.00000000000E+00 -0.00000000000E+00 -0.45593999997E+02  0.45594000000E+02  0.51100000000E-03 0.  1.
         23    2    1    2    0    0  0.00000000000E+00  0.22204460493E-15  0.00000000000E+00  0.91188000000E+02  0.91188000000E+02 0.  0.
    9900012    2    3    3    0    0  0.17674916032E+02  0.14873181888E+01  0.39610713324E+02  0.47787269797E+02  0.19999994311E+02 0.  0.
        -12    1    3    3    0    0 -0.17674916032E+02 -0.14873181888E+01 -0.39610713324E+02  0.43400730203E+02  0.00000000000E+00 0.  1.
         11    1    4    4    0    0  0.21041145110E+01  0.63198608277E+01  0.18494682987E+02  0.19657600001E+02  0.51100000000E-03 0. -1.
        -11    1    4    4    0    0  0.59725697949E+01 -0.36806063467E+01  0.30709479156E+01  0.76582748968E+01  0.51100000000E-03 0.  1.
         12    1    4    4    0    0  0.95982317263E+01 -0.11519362922E+01  0.18045082422E+02  0.20471394899E+02  0.00000000000E+00 0. -1.
</event>
<event>
 8    1  0.6239251E-010  0.9118800E+02  0.7816164E-02  0.1184000E+00
        -11   -1    0    0    0    0  0.00000000000E+00  0.00000000000E+00  0.45593999997E+02  0.45594000000E+02  0.51100000000E-03 0.  1.
         11   -1    0    0    0    0 -0.00000000000E+00 -0.00000000000E+00 -0.45593999997E+02  0.45594000000E+02  0.51100000000E-03 0. -1.
         23    2    1    2    0    0  0.00000000000E+00  0.35527136788E-14  0.44408920985E-15  0.91188000000E+02  0.91188000000E+02 0.  0.
    9900012    2    3    3    0    0 -0.35414706807E+02 -0.24944287980E+02  0.26840916730E+01  0.47787270638E+02  0.19999998145E+02 0.  0.
        -12    1    3    3    0    0  0.35414706807E+02  0.24944287980E+02 -0.26840916730E+01  0.43400729362E+02  0.00000000000E+00 0.  1.
         11    1    4    4    0    0 -0.21706225509E+02 -0.93904231163E+01  0.70627939646E+01  0.24682449858E+02  0.51100000000E-03 0. -1.
        -11    1    4    4    0    0 -0.11691294462E+02 -0.83054023347E+01 -0.57610785139E+01  0.15454970075E+02  0.51100000000E-03 0.  1.
        -12    1    4    4    0    0 -0.20171868366E+01 -0.72484625293E+01  0.13823762223E+01  0.76498507040E+01  0.00000000000E+00 0.  1.
</event>
<event>
 8    1  0.6239251E-010  0.9118800E+02  0.7816164E-02  0.1184000E+00
        -11   -1    0    0    0    0  0.00000000000E+00  0.00000000000E+00  0.45593999997E+02  0.45594000000E+02  0.51100000000E-03 0.  1.
         11   -1    0    0    0    0 -0.00000000000E+00 -0.00000000000E+00 -0.45593999997E+02  0.45594000000E+02  0.51100000000E-03 0. -1.
         23    2    1    2    0    0  0.00000000000E+00  0.00000000000E+00  0.44408920985E-15  0.91188000000E+02  0.91188000000E+02 0.  0.
    9900012    2    3    3    0    0  0.42241594093E+02 -0.93799913816E+01 -0.33596066308E+01  0.47787268824E+02  0.19999989878E+02 0.  0.
        -12    1    3    3    0    0 -0.42241594093E+02  0.93799913816E+01  0.33596066308E+01  0.43400731176E+02  0.00000000000E+00 0.  1.
         11    1    4    4    0    0  0.35993440075E+02 -0.37546203299E+01 -0.42444021032E+01  0.36436792556E+02  0.51100000000E-03 0. -1.
        -11    1    4    4    0    0  0.42136520288E+01  0.61445245912E+00  0.19809507683E+01  0.46964434897E+01  0.51100000000E-03 0.  1.
         12    1    4    4    0    0  0.20345019892E+01 -0.62398235109E+01 -0.10961552958E+01  0.66540327789E+01  0.00000000000E+00 0. -1.
</event>
<event>
 8    1  0.6239251E-010  0.9118800E+02  0.7816164E-02  0.1184000E+00
        -11   -1    0    0    0    0  0.00000000000E+00  0.00000000000E+00  0.45593999997E+02  0.45594000000E+02  0.51100000000E-03 0. -1.
         11   -1    0    0    0    0 -0.00000000000E+00 -0.00000000000E+00 -0.45593999997E+02  0.45594000000E+02  0.51100000000E-03 0.  1.
         23    2    1    2    0    0  0.00000000000E+00  0.00000000000E+00  0.00000000000E+00  0.91188000000E+02  0.91188000000E+02 0.  0.
    9900012    2    3    3    0    0  0.96051696932E+01 -0.34123935966E+02  0.25038389606E+02  0.47787271380E+02  0.20000001531E+02 0.  0.
        -12    1    3    3    0    0 -0.96051696932E+01  0.34123935966E+02 -0.25038389606E+02  0.43400728620E+02  0.00000000000E+00 0.  1.
         11    1    4    4    0    0  0.92806855356E+01 -0.14989778015E+02  0.14293708642E+02  0.22696578508E+02  0.51100000000E-03 0. -1.
        -11    1    4    4    0    0 -0.54685462518E+01 -0.68281299898E+01  0.21738286303E+01  0.90140938780E+01  0.51100000000E-03 0.  1.
        -12    1    4    4    0    0  0.57930304094E+01 -0.12306027961E+02  0.85708523332E+01  0.16076598995E+02  0.00000000000E+00 0.  1.
</event>
<event>
 8    1  0.6239251E-010  0.9118800E+02  0.7816164E-02  0.1184000E+00
        -11   -1    0    0    0    0  0.00000000000E+00  0.00000000000E+00  0.45593999997E+02  0.45594000000E+02  0.51100000000E-03 0. -1.
         11   -1    0    0    0    0 -0.00000000000E+00 -0.00000000000E+00 -0.45593999997E+02  0.45594000000E+02  0.51100000000E-03 0.  1.
         23    2    1    2    0    0  0.00000000000E+00  0.00000000000E+00  0.71054273576E-14  0.91188000000E+02  0.91188000000E+02 0.  0.
    9900012    2    3    3    0    0 -0.69822733259E+01 -0.12453982943E+02  0.40984990015E+02  0.47787271453E+02  0.20000001861E+02 0.  0.
        -12    1    3    3    0    0  0.69822733259E+01  0.12453982943E+02 -0.40984990015E+02  0.43400728547E+02  0.00000000000E+00 0.  1.
         11    1    4    4    0    0 -0.66519226878E+01 -0.16281716015E+01  0.17559185146E+02  0.18847387125E+02  0.51100000000E-03 0.  1.
        -11    1    4    4    0    0 -0.44146525108E+01 -0.19699447593E+01  0.15907852206E+02  0.16626172176E+02  0.51100000000E-03 0. -1.
         12    1    4    4    0    0  0.40843018727E+01 -0.88558665822E+01  0.75179526629E+01  0.12313712152E+02  0.00000000000E+00 0. -1.
</event>
<event>
 8    1  0.6239251E-010  0.9118800E+02  0.7816164E-02  0.1184000E+00
        -11   -1    0    0    0    0  0.00000000000E+00  0.00000000000E+00  0.45593999997E+02  0.45594000000E+02  0.51100000000E-03 0. -1.
         11   -1    0    0    0    0 -0.00000000000E+00 -0.00000000000E+00 -0.45593999997E+02  0.45594000000E+02  0.51100000000E-03 0.  1.
         23    2    1    2    0    0  0.00000000000E+00  0.00000000000E+00 -0.35527136788E-14  0.91188000000E+02  0.91188000000E+02 0.  0.
    9900012    2    3    3    0    0 -0.97985701661E+01  0.36714748269E+02  0.20967557221E+02  0.47787272200E+02  0.20000005270E+02 0.  0.
        -12    1    3    3    0    0  0.97985701661E+01 -0.36714748269E+02 -0.20967557221E+02  0.43400727800E+02  0.00000000000E+00 0.  1.
         11    1    4    4    0    0 -0.15703709833E+02  0.27722500006E+02  0.16764057225E+02  0.36002459972E+02  0.51100000000E-03 0. -1.
        -11    1    4    4    0    0  0.40115898466E+01  0.45483099735E+01  0.14927810272E+01  0.62456682724E+01  0.51100000000E-03 0.  1.
         12    1    4    4    0    0  0.18935498203E+01  0.44439382892E+01  0.27107189684E+01  0.55391439560E+01  0.00000000000E+00 0. -1.
</event>
<event>
 8    1  0.6239251E-010  0.9118800E+02  0.7816164E-02  0.1184000E+00
        -11   -1    0    0    0    0  0.00000000000E+00  0.00000000000E+00  0.45593999997E+02  0.45594000000E+02  0.51100000000E-03 0. -1.
         11   -1    0    0    0    0 -0.00000000000E+00 -0.00000000000E+00 -0.45593999997E+02  0.45594000000E+02  0.51100000000E-03 0.  1.
         23    2    1    2    0    0  0.00000000000E+00  0.00000000000E+00  0.00000000000E+00  0.91188000000E+02  0.91188000000E+02 0.  0.
    9900012    2    3    3    0    0  0.17782907416E+02  0.17270101371E+02 -0.35624922048E+02  0.47787271107E+02  0.20000000286E+02 0.  0.
         12    1    3    3    0    0 -0.17782907416E+02 -0.17270101371E+02  0.35624922048E+02  0.43400728893E+02  0.00000000000E+00 0. -1.
         11    1    4    4    0    0  0.73883267879E+00 -0.48647003637E+00 -0.91649732719E+01  0.92075654849E+01  0.51100000000E-03 0. -1.
        -11    1    4    4    0    0  0.18903502619E+02  0.13168434164E+02 -0.22890023009E+02  0.32476194715E+02  0.51100000000E-03 0.  1.
        -12    1    4    4    0    0 -0.18594278815E+01  0.45881372433E+01 -0.35699257672E+01  0.61035109072E+01  0.00000000000E+00 0.  1.
</event>
<event>
 8    1  0.6239251E-010  0.9118800E+02  0.7816164E-02  0.1184000E+00
        -11   -1    0    0    0    0  0.00000000000E+00  0.00000000000E+00  0.45593999997E+02  0.45594000000E+02  0.51100000000E-03 0. -1.
         11   -1    0    0    0    0 -0.00000000000E+00 -0.00000000000E+00 -0.45593999997E+02  0.45594000000E+02  0.51100000000E-03 0.  1.
         23    2    1    2    0    0 -0.71054273576E-14  0.00000000000E+00  0.00000000000E+00  0.91188000000E+02  0.91188000000E+02 0.  0.
    9900012    2    3    3    0    0 -0.38307692969E+02  0.10171415184E+02  0.17682932948E+02  0.47787272528E+02  0.20000006765E+02 0.  0.
        -12    1    3    3    0    0  0.38307692969E+02 -0.10171415184E+02 -0.17682932948E+02  0.43400727472E+02  0.00000000000E+00 0.  1.
         11    1    4    4    0    0 -0.81941944797E+01  0.96719922002E+01  0.20587478284E+01  0.12842534764E+02  0.51100000000E-03 0.  1.
        -11    1    4    4    0    0 -0.30346161563E+02 -0.25072249745E+00  0.15677516850E+02  0.34157530915E+02  0.51100000000E-03 0. -1.
         12    1    4    4    0    0  0.23266307392E+00  0.75014548125E+00 -0.53331730148E-01  0.78720684858E+00  0.00000000000E+00 0. -1.
</event>
<event>
 8    1  0.6239251E-010  0.9118800E+02  0.7816164E-02  0.1184000E+00
        -11   -1    0    0    0    0  0.00000000000E+00  0.00000000000E+00  0.45593999997E+02  0.45594000000E+02  0.51100000000E-03 0.  1.
         11   -1    0    0    0    0 -0.00000000000E+00 -0.00000000000E+00 -0.45593999997E+02  0.45594000000E+02  0.51100000000E-03 0. -1.
         23    2    1    2    0    0  0.71054273576E-14 -0.17763568394E-14  0.00000000000E+00  0.91188000000E+02  0.91188000000E+02 0.  0.
    9900012    2    3    3    0    0 -0.40800385091E+02  0.12890143807E+02  0.72660244207E+01  0.47787281782E+02  0.20000048958E+02 0.  0.
        -12    1    3    3    0    0  0.40800385091E+02 -0.12890143807E+02 -0.72660244207E+01  0.43400718218E+02  0.00000000000E+00 0.  1.
         11    1    4    4    0    0 -0.16151644989E+02 -0.21712300050E+01 -0.16630742004E+01  0.16381565605E+02  0.51100000000E-03 0. -1.
        -11    1    4    4    0    0 -0.21903088496E+02  0.13100325747E+02  0.10606074228E+02  0.27637883984E+02  0.51100000000E-03 0.  1.
        -12    1    4    4    0    0 -0.27456516060E+01  0.19610480648E+01 -0.16769756069E+01  0.37678321938E+01  0.00000000000E+00 0.  1.
</event>
<event>
 8    1  0.6239251E-010  0.9118800E+02  0.7816164E-02  0.1184000E+00
        -11   -1    0    0    0    0  0.00000000000E+00  0.00000000000E+00  0.45593999997E+02  0.45594000000E+02  0.51100000000E-03 0. -1.
         11   -1    0    0    0    0 -0.00000000000E+00 -0.00000000000E+00 -0.45593999997E+02  0.45594000000E+02  0.51100000000E-03 0.  1.
         23    2    1    2    0    0  0.00000000000E+00 -0.88817841970E-15  0.00000000000E+00  0.91188000000E+02  0.91188000000E+02 0.  0.
    9900012    2    3    3    0    0  0.35345728557E+02  0.67643316397E+01 -0.24259974800E+02  0.47787273197E+02  0.20000009813E+02 0.  0.
         12    1    3    3    0    0 -0.35345728557E+02 -0.67643316397E+01  0.24259974800E+02  0.43400726803E+02  0.00000000000E+00 0. -1.
         11    1    4    4    0    0  0.17254962199E+02  0.12110201768E+02 -0.75655729111E+01  0.22397066796E+02  0.51100000000E-03 0. -1.
        -11    1    4    4    0    0  0.59821214712E+01 -0.33551517658E+01 -0.59469542168E+01  0.90779449979E+01  0.51100000000E-03 0.  1.
         12    1    4    4    0    0  0.12108644887E+02 -0.19907183627E+01 -0.10747447672E+02  0.16312261402E+02  0.00000000000E+00 0. -1.
</event>
<event>
 8    1  0.6239251E-010  0.9118800E+02  0.7816164E-02  0.1184000E+00
        -11   -1    0    0    0    0  0.00000000000E+00  0.00000000000E+00  0.45593999997E+02  0.45594000000E+02  0.51100000000E-03 0. -1.
         11   -1    0    0    0    0 -0.00000000000E+00 -0.00000000000E+00 -0.45593999997E+02  0.45594000000E+02  0.51100000000E-03 0.  1.
         23    2    1    2    0    0 -0.17763568394E-14  0.00000000000E+00  0.00000000000E+00  0.91188000000E+02  0.91188000000E+02 0.  0.
    9900012    2    3    3    0    0 -0.49697704570E+01 -0.88788389310E+01 -0.42191123276E+02  0.47787270946E+02  0.19999999550E+02 0.  0.
         12    1    3    3    0    0  0.49697704570E+01  0.88788389310E+01  0.42191123276E+02  0.43400729054E+02  0.00000000000E+00 0. -1.
         11    1    4    4    0    0  0.34254588439E+01 -0.63867651650E+01 -0.36440059112E+01  0.81119243652E+01  0.51100000000E-03 0. -1.
        -11    1    4    4    0    0 -0.69925834935E+01 -0.19076555156E+01 -0.24596398522E+02  0.25642117580E+02  0.51100000000E-03 0.  1.
         12    1    4    4    0    0 -0.14026458074E+01 -0.58441825040E+00 -0.13950718843E+02  0.14033229000E+02  0.00000000000E+00 0. -1.
</event>
<event>
 8    1  0.6735118E-010  0.9118800E+02  0.7816164E-02  0.1184000E+00
        -11   -1    0    0    0    0  0.00000000000E+00  0.00000000000E+00  0.45593999997E+02  0.45594000000E+02  0.51100000000E-03 0. -1.
         11   -1    0    0    0    0 -0.00000000000E+00 -0.00000000000E+00 -0.45593999997E+02  0.45594000000E+02  0.51100000000E-03 0.  1.
         23    2    1    2    0    0  0.00000000000E+00  0.17763568394E-14  0.71054273576E-14  0.91188000000E+02  0.91188000000E+02 0.  0.
    9900012    2    3    3    0    0  0.58599789984E+01  0.11130151263E+02  0.41537974347E+02  0.47787274962E+02  0.20000017862E+02 0.  0.
        -12    1    3    3    0    0 -0.58599789984E+01 -0.11130151263E+02 -0.41537974347E+02  0.43400725038E+02  0.00000000000E+00 0.  1.
         11    1    4    4    0    0  0.42129606128E+01  0.73257671000E+01  0.16211162274E+02  0.18281621462E+02  0.51100000000E-03 0. -1.
        -11    1    4    4    0    0 -0.22222925349E+01 -0.34572850222E+01  0.16306868731E+01  0.44215996850E+01  0.51100000000E-03 0.  1.
        -12    1    4    4    0    0  0.38693109205E+01  0.72616691851E+01  0.23696125199E+02  0.25084053815E+02  0.00000000000E+00 0.  1.
</event>
<event>
 8    1  0.6239251E-010  0.9118800E+02  0.7816164E-02  0.1184000E+00
        -11   -1    0    0    0    0  0.00000000000E+00  0.00000000000E+00  0.45593999997E+02  0.45594000000E+02  0.51100000000E-03 0. -1.
         11   -1    0    0    0    0 -0.00000000000E+00 -0.00000000000E+00 -0.45593999997E+02  0.45594000000E+02  0.51100000000E-03 0.  1.
         23    2    1    2    0    0  0.00000000000E+00  0.00000000000E+00  0.00000000000E+00  0.91188000000E+02  0.91188000000E+02 0.  0.
    9900012    2    3    3    0    0  0.13008293457E+02 -0.74637005028E+01 -0.40727152390E+02  0.47787268835E+02  0.19999989925E+02 0.  0.
         12    1    3    3    0    0 -0.13008293457E+02  0.74637005028E+01  0.40727152390E+02  0.43400731165E+02  0.00000000000E+00 0. -1.
         11    1    4    4    0    0 -0.12190839595E+01 -0.46372615799E+00 -0.23257494596E+02  0.23294039212E+02  0.51100000000E-03 0. -1.
        -11    1    4    4    0    0  0.30100686018E+00 -0.24796315570E+01 -0.30624221842E+01  0.39519119023E+01  0.51100000000E-03 0.  1.
         12    1    4    4    0    0  0.13926370556E+02 -0.45203427878E+01 -0.14407235610E+02  0.20541317721E+02  0.00000000000E+00 0. -1.
</event>
<event>
 8    1  0.6239251E-010  0.9118800E+02  0.7816164E-02  0.1184000E+00
        -11   -1    0    0    0    0  0.00000000000E+00  0.00000000000E+00  0.45593999997E+02  0.45594000000E+02  0.51100000000E-03 0. -1.
         11   -1    0    0    0    0 -0.00000000000E+00 -0.00000000000E+00 -0.45593999997E+02  0.45594000000E+02  0.51100000000E-03 0.  1.
         23    2    1    2    0    0  0.35527136788E-14  0.00000000000E+00 -0.35527136788E-14  0.91188000000E+02  0.91188000000E+02 0.  0.
    9900012    2    3    3    0    0 -0.25927733154E+02  0.16567317164E+02  0.30608812048E+02  0.47787277431E+02  0.20000029119E+02 0.  0.
        -12    1    3    3    0    0  0.25927733154E+02 -0.16567317164E+02 -0.30608812048E+02  0.43400722569E+02  0.00000000000E+00 0.  1.
         11    1    4    4    0    0 -0.19411536110E+02  0.11765322936E+02  0.24131053968E+02  0.33129115952E+02  0.51100000000E-03 0. -1.
        -11    1    4    4    0    0  0.99956245849E+00 -0.22701189326E+01  0.12872452660E-01  0.24804699227E+01  0.51100000000E-03 0.  1.
         12    1    4    4    0    0 -0.75157595020E+01  0.70721131604E+01  0.64648856281E+01  0.12177691556E+02  0.00000000000E+00 0. -1.
</event>
<event>
 8    1  0.6239251E-010  0.9118800E+02  0.7816164E-02  0.1184000E+00
        -11   -1    0    0    0    0  0.00000000000E+00  0.00000000000E+00  0.45593999997E+02  0.45594000000E+02  0.51100000000E-03 0. -1.
         11   -1    0    0    0    0 -0.00000000000E+00 -0.00000000000E+00 -0.45593999997E+02  0.45594000000E+02  0.51100000000E-03 0.  1.
         23    2    1    2    0    0  0.88817841970E-15  0.00000000000E+00 -0.17763568394E-14  0.91188000000E+02  0.91188000000E+02 0.  0.
    9900012    2    3    3    0    0  0.57995712338E+01 -0.39945603342E+02  0.15947961660E+02  0.47787265744E+02  0.19999975832E+02 0.  0.
        -12    1    3    3    0    0 -0.57995712338E+01  0.39945603342E+02 -0.15947961660E+02  0.43400734256E+02  0.00000000000E+00 0.  1.
         11    1    4    4    0    0 -0.20842674856E+01 -0.25582623996E+01  0.37049110588E+01  0.49613751795E+01  0.51100000000E-03 0. -1.
        -11    1    4    4    0    0 -0.16815971603E+01  0.77117102738E-01 -0.99594962780E+00  0.19559222835E+01  0.51100000000E-03 0.  1.
         12    1    4    4    0    0  0.95654358797E+01 -0.37464458045E+02  0.13239000229E+02  0.40869968281E+02  0.00000000000E+00 0. -1.
</event>
<event>
 8    1  0.6239251E-010  0.9118800E+02  0.7816164E-02  0.1184000E+00
        -11   -1    0    0    0    0  0.00000000000E+00  0.00000000000E+00  0.45593999997E+02  0.45594000000E+02  0.51100000000E-03 0. -1.
         11   -1    0    0    0    0 -0.00000000000E+00 -0.00000000000E+00 -0.45593999997E+02  0.45594000000E+02  0.51100000000E-03 0.  1.
         23    2    1    2    0    0 -0.17763568394E-14  0.17763568394E-14  0.00000000000E+00  0.91188000000E+02  0.91188000000E+02 0.  0.
    9900012    2    3    3    0    0 -0.10958041768E+02  0.12984243875E+02 -0.39936944176E+02  0.47787207628E+02  0.19999710857E+02 0.  0.
         12    1    3    3    0    0  0.10958041768E+02 -0.12984243875E+02  0.39936944176E+02  0.43400792372E+02  0.00000000000E+00 0. -1.
         11    1    4    4    0    0  0.31844480850E+01  0.51323108610E+01 -0.20380356227E+02  0.21256534162E+02  0.51100000000E-03 0.  1.
        -11    1    4    4    0    0 -0.13338789341E+02  0.40293308983E+01 -0.16307999047E+02  0.21450166473E+02  0.51100000000E-03 0. -1.
         12    1    4    4    0    0 -0.80370051230E+00  0.38226021157E+01 -0.32485889025E+01  0.50805069930E+01  0.00000000000E+00 0. -1.
</event>
<event>
 8    1  0.6239251E-010  0.9118800E+02  0.7816164E-02  0.1184000E+00
        -11   -1    0    0    0    0  0.00000000000E+00  0.00000000000E+00  0.45593999997E+02  0.45594000000E+02  0.51100000000E-03 0. -1.
         11   -1    0    0    0    0 -0.00000000000E+00 -0.00000000000E+00 -0.45593999997E+02  0.45594000000E+02  0.51100000000E-03 0.  1.
         23    2    1    2    0    0 -0.88817841970E-15  0.35527136788E-14  0.00000000000E+00  0.91188000000E+02  0.91188000000E+02 0.  0.
    9900012    2    3    3    0    0 -0.21649063995E+01 -0.31406880664E+02 -0.29875490690E+02  0.47787263639E+02  0.19999966234E+02 0.  0.
         12    1    3    3    0    0  0.21649063995E+01  0.31406880664E+02  0.29875490690E+02  0.43400736361E+02  0.00000000000E+00 0. -1.
         11    1    4    4    0    0  0.63782899710E+01 -0.84718004554E+01 -0.16640992347E+02  0.19732628119E+02  0.51100000000E-03 0. -1.
        -11    1    4    4    0    0 -0.26164890550E+01 -0.11551278118E+02 -0.53877986352E+01  0.13011779876E+02  0.51100000000E-03 0.  1.
         12    1    4    4    0    0 -0.59267073155E+01 -0.11383802091E+02 -0.78466997073E+01  0.15042855644E+02  0.00000000000E+00 0. -1.
</event>
<event>
 8    1  0.6239251E-010  0.9118800E+02  0.7816164E-02  0.1184000E+00
        -11   -1    0    0    0    0  0.00000000000E+00  0.00000000000E+00  0.45593999997E+02  0.45594000000E+02  0.51100000000E-03 0. -1.
         11   -1    0    0    0    0 -0.00000000000E+00 -0.00000000000E+00 -0.45593999997E+02  0.45594000000E+02  0.51100000000E-03 0.  1.
         23    2    1    2    0    0  0.00000000000E+00  0.17763568394E-14 -0.35527136788E-14  0.91188000000E+02  0.91188000000E+02 0.  0.
    9900012    2    3    3    0    0 -0.35320165116E+02 -0.15386306477E+02  0.19984280347E+02  0.47787263234E+02  0.19999964389E+02 0.  0.
        -12    1    3    3    0    0  0.35320165116E+02  0.15386306477E+02 -0.19984280347E+02  0.43400736766E+02  0.00000000000E+00 0.  1.
         11    1    4    4    0    0 -0.70316637359E+01 -0.57160724567E+00  0.24709916991E+01  0.74750806000E+01  0.51100000000E-03 0. -1.
        -11    1    4    4    0    0 -0.26300369807E+02 -0.16043091240E+02  0.20132228695E+02  0.36802131202E+02  0.51100000000E-03 0.  1.
        -12    1    4    4    0    0 -0.19881315732E+01  0.12283920089E+01 -0.26189400474E+01  0.35100514314E+01  0.00000000000E+00 0.  1.
</event>
<event>
 8    1  0.6239251E-010  0.9118800E+02  0.7816164E-02  0.1184000E+00
        -11   -1    0    0    0    0  0.00000000000E+00  0.00000000000E+00  0.45593999997E+02  0.45594000000E+02  0.51100000000E-03 0. -1.
         11   -1    0    0    0    0 -0.00000000000E+00 -0.00000000000E+00 -0.45593999997E+02  0.45594000000E+02  0.51100000000E-03 0.  1.
         23    2    1    2    0    0  0.00000000000E+00  0.00000000000E+00  0.00000000000E+00  0.91188000000E+02  0.91188000000E+02 0.  0.
    9900012    2    3    3    0    0  0.17472709739E+02  0.39728088320E+02  0.44514088229E-01  0.47787325251E+02  0.20000247147E+02 0.  0.
         12    1    3    3    0    0 -0.17472709739E+02 -0.39728088320E+02 -0.44514088229E-01  0.43400674749E+02  0.00000000000E+00 0. -1.
         11    1    4    4    0    0  0.11932838810E+01 -0.12420634619E+01  0.18755948721E+01  0.25464690160E+01  0.51100000000E-03 0. -1.
        -11    1    4    4    0    0  0.12339963669E+02  0.36685663595E+02  0.11064019281E+01  0.38721269894E+02  0.51100000000E-03 0.  1.
        -12    1    4    4    0    0  0.39394621896E+01  0.42844881869E+01 -0.29374827119E+01  0.65195863404E+01  0.00000000000E+00 0.  1.
</event>
<event>
 8    1  0.6239251E-010  0.9118800E+02  0.7816164E-02  0.1184000E+00
        -11   -1    0    0    0    0  0.00000000000E+00  0.00000000000E+00  0.45593999997E+02  0.45594000000E+02  0.51100000000E-03 0.  1.
         11   -1    0    0    0    0 -0.00000000000E+00 -0.00000000000E+00 -0.45593999997E+02  0.45594000000E+02  0.51100000000E-03 0. -1.
         23    2    1    2    0    0  0.00000000000E+00 -0.71054273576E-14 -0.88817841970E-15  0.91188000000E+02  0.91188000000E+02 0.  0.
    9900012    2    3    3    0    0  0.36161979572E+01  0.42817219999E+02  0.61018001345E+01  0.47787272115E+02  0.20000004880E+02 0.  0.
         12    1    3    3    0    0 -0.36161979572E+01 -0.42817219999E+02 -0.61018001345E+01  0.43400727885E+02  0.00000000000E+00 0. -1.
         11    1    4    4    0    0 -0.16835250402E+00 -0.61618898167E+00 -0.20100486158E+01  0.21091057645E+01  0.51100000000E-03 0. -1.
        -11    1    4    4    0    0  0.53523050918E+01  0.37543227380E+02  0.10138731534E+02  0.39254744545E+02  0.51100000000E-03 0.  1.
         12    1    4    4    0    0 -0.15677546306E+01  0.58901816002E+01 -0.20268827839E+01  0.64234218050E+01  0.00000000000E+00 0. -1.
</event>
<event>
 8    1  0.9228733E-010  0.9118800E+02  0.7816164E-02  0.1184000E+00
        -11   -1    0    0    0    0  0.00000000000E+00  0.00000000000E+00  0.45593999997E+02  0.45594000000E+02  0.51100000000E-03 0. -1.
         11   -1    0    0    0    0 -0.00000000000E+00 -0.00000000000E+00 -0.45593999997E+02  0.45594000000E+02  0.51100000000E-03 0.  1.
         23    2    1    2    0    0  0.00000000000E+00 -0.35527136788E-14  0.71054273576E-14  0.91188000000E+02  0.91188000000E+02 0.  0.
    9900012    2    3    3    0    0  0.88900245479E+01 -0.88138521973E+01  0.41556059043E+02  0.47787279151E+02  0.20000036962E+02 0.  0.
        -12    1    3    3    0    0 -0.88900245479E+01  0.88138521973E+01 -0.41556059043E+02  0.43400720849E+02  0.00000000000E+00 0.  1.
         11    1    4    4    0    0  0.72346891291E+01 -0.84936010304E+01  0.19538607944E+02  0.22499759685E+02  0.51100000000E-03 0. -1.
        -11    1    4    4    0    0  0.27597588791E+01  0.56911896375E+01  0.11297247842E+02  0.12947344037E+02  0.51100000000E-03 0.  1.
        -12    1    4    4    0    0 -0.11044234602E+01 -0.60114408044E+01  0.10720203258E+02  0.12340175429E+02  0.00000000000E+00 0.  1.
</event>
<event>
 8    1  0.6239251E-010  0.9118800E+02  0.7816164E-02  0.1184000E+00
        -11   -1    0    0    0    0  0.00000000000E+00  0.00000000000E+00  0.45593999997E+02  0.45594000000E+02  0.51100000000E-03 0. -1.
         11   -1    0    0    0    0 -0.00000000000E+00 -0.00000000000E+00 -0.45593999997E+02  0.45594000000E+02  0.51100000000E-03 0.  1.
         23    2    1    2    0    0  0.00000000000E+00  0.00000000000E+00 -0.13322676296E-14  0.91188000000E+02  0.91188000000E+02 0.  0.
    9900012    2    3    3    0    0  0.40633138798E+02 -0.14754439271E+02 -0.38572353780E+01  0.47787266003E+02  0.19999977013E+02 0.  0.
         12    1    3    3    0    0 -0.40633138798E+02  0.14754439271E+02  0.38572353780E+01  0.43400733997E+02  0.00000000000E+00 0. -1.
         11    1    4    4    0    0  0.19595704178E+02 -0.13667510752E+02  0.47723231704E+01  0.24363241596E+02  0.51100000000E-03 0. -1.
        -11    1    4    4    0    0  0.14512826789E+02 -0.25813204157E+01 -0.78062742777E+01  0.16680026224E+02  0.51100000000E-03 0.  1.
         12    1    4    4    0    0  0.65246078309E+01  0.14943918964E+01 -0.82328427064E+00  0.67439981819E+01  0.00000000000E+00 0. -1.
</event>
<event>
 8    1  0.6239251E-010  0.9118800E+02  0.7816164E-02  0.1184000E+00
        -11   -1    0    0    0    0  0.00000000000E+00  0.00000000000E+00  0.45593999997E+02  0.45594000000E+02  0.51100000000E-03 0. -1.
         11   -1    0    0    0    0 -0.00000000000E+00 -0.00000000000E+00 -0.45593999997E+02  0.45594000000E+02  0.51100000000E-03 0.  1.
         23    2    1    2    0    0  0.88817841970E-15  0.00000000000E+00  0.00000000000E+00  0.91188000000E+02  0.91188000000E+02 0.  0.
    9900012    2    3    3    0    0  0.79970676204E+01 -0.38012905843E+02 -0.19356887032E+02  0.47787272163E+02  0.20000005101E+02 0.  0.
         12    1    3    3    0    0 -0.79970676204E+01  0.38012905843E+02  0.19356887032E+02  0.43400727837E+02  0.00000000000E+00 0. -1.
         11    1    4    4    0    0  0.33072737902E+01 -0.16596587539E+01 -0.85875371123E+01  0.93508460055E+01  0.51100000000E-03 0. -1.
        -11    1    4    4    0    0  0.31354726558E+01 -0.23261983377E+02 -0.47690560874E+01  0.23951930103E+02  0.51100000000E-03 0.  1.
         12    1    4    4    0    0  0.15543211744E+01 -0.13091263712E+02 -0.60002938327E+01  0.14484496055E+02  0.00000000000E+00 0. -1.
</event>
<event>
 8    1  0.6239251E-010  0.9118800E+02  0.7816164E-02  0.1184000E+00
        -11   -1    0    0    0    0  0.00000000000E+00  0.00000000000E+00  0.45593999997E+02  0.45594000000E+02  0.51100000000E-03 0. -1.
         11   -1    0    0    0    0 -0.00000000000E+00 -0.00000000000E+00 -0.45593999997E+02  0.45594000000E+02  0.51100000000E-03 0.  1.
         23    2    1    2    0    0  0.00000000000E+00 -0.17763568394E-14  0.00000000000E+00  0.91188000000E+02  0.91188000000E+02 0.  0.
    9900012    2    3    3    0    0 -0.44313446639E+01  0.83488054293E+01 -0.42358988046E+02  0.47787271482E+02  0.20000001996E+02 0.  0.
         12    1    3    3    0    0  0.44313446639E+01 -0.83488054293E+01  0.42358988046E+02  0.43400728518E+02  0.00000000000E+00 0. -1.
         11    1    4    4    0    0 -0.86667360824E+01 -0.27072290004E+01 -0.12246087885E+02  0.15244935944E+02  0.51100000000E-03 0. -1.
        -11    1    4    4    0    0  0.27386915928E+01  0.30187328160E+01 -0.82772827834E+01  0.92264072093E+01  0.51100000000E-03 0.  1.
         12    1    4    4    0    0  0.14966998257E+01  0.80373016136E+01 -0.21835617378E+02  0.23315928329E+02  0.00000000000E+00 0. -1.
</event>
<event>
 8    1  0.6239251E-010  0.9118800E+02  0.7816164E-02  0.1184000E+00
        -11   -1    0    0    0    0  0.00000000000E+00  0.00000000000E+00  0.45593999997E+02  0.45594000000E+02  0.51100000000E-03 0. -1.
         11   -1    0    0    0    0 -0.00000000000E+00 -0.00000000000E+00 -0.45593999997E+02  0.45594000000E+02  0.51100000000E-03 0.  1.
         23    2    1    2    0    0  0.17763568394E-14  0.00000000000E+00  0.71054273576E-14  0.91188000000E+02  0.91188000000E+02 0.  0.
    9900012    2    3    3    0    0 -0.10369753556E+02  0.11172404142E+02 -0.40635814459E+02  0.47787264754E+02  0.19999971320E+02 0.  0.
         12    1    3    3    0    0  0.10369753556E+02 -0.11172404142E+02  0.40635814459E+02  0.43400735246E+02  0.00000000000E+00 0. -1.
         11    1    4    4    0    0 -0.23818330156E+01  0.17272177964E+01 -0.20624000390E+01  0.35930354872E+01  0.51100000000E-03 0. -1.
        -11    1    4    4    0    0 -0.12667192858E+02  0.31418523610E+01 -0.29087562152E+02  0.31881268534E+02  0.51100000000E-03 0.  1.
        -12    1    4    4    0    0  0.46792723178E+01  0.63033339844E+01 -0.94858522686E+01  0.12312960733E+02  0.00000000000E+00 0.  1.
</event>
<event>
 8    1  0.6239251E-010  0.9118800E+02  0.7816164E-02  0.1184000E+00
        -11   -1    0    0    0    0  0.00000000000E+00  0.00000000000E+00  0.45593999997E+02  0.45594000000E+02  0.51100000000E-03 0. -1.
         11   -1    0    0    0    0 -0.00000000000E+00 -0.00000000000E+00 -0.45593999997E+02  0.45594000000E+02  0.51100000000E-03 0.  1.
         23    2    1    2    0    0  0.35527136788E-14 -0.35527136788E-14 -0.35527136788E-14  0.91188000000E+02  0.91188000000E+02 0.  0.
    9900012    2    3    3    0    0 -0.21157385248E+02  0.28214299184E+02  0.25297066306E+02  0.47787271980E+02  0.20000004265E+02 0.  0.
        -12    1    3    3    0    0  0.21157385248E+02 -0.28214299184E+02 -0.25297066306E+02  0.43400728020E+02  0.00000000000E+00 0.  1.
         11    1    4    4    0    0 -0.12067680832E+02  0.22783744120E+02  0.17241010311E+02  0.31015808124E+02  0.51100000000E-03 0. -1.
        -11    1    4    4    0    0 -0.51905438185E+00  0.59916957997E+01  0.23350208976E+01  0.64515237627E+01  0.51100000000E-03 0.  1.
         12    1    4    4    0    0 -0.85706500348E+01 -0.56114073569E+00  0.57210350973E+01  0.10319940093E+02  0.00000000000E+00 0. -1.
</event>
<event>
 8    1  0.6239251E-010  0.9118800E+02  0.7816164E-02  0.1184000E+00
        -11   -1    0    0    0    0  0.00000000000E+00  0.00000000000E+00  0.45593999997E+02  0.45594000000E+02  0.51100000000E-03 0. -1.
         11   -1    0    0    0    0 -0.00000000000E+00 -0.00000000000E+00 -0.45593999997E+02  0.45594000000E+02  0.51100000000E-03 0.  1.
         23    2    1    2    0    0  0.35527136788E-14  0.00000000000E+00  0.00000000000E+00  0.91188000000E+02  0.91188000000E+02 0.  0.
    9900012    2    3    3    0    0 -0.18770988213E+02  0.38727106306E+02  0.56111063431E+01  0.47787271023E+02  0.19999999902E+02 0.  0.
        -12    1    3    3    0    0  0.18770988213E+02 -0.38727106306E+02 -0.56111063431E+01  0.43400728977E+02  0.00000000000E+00 0.  1.
         11    1    4    4    0    0 -0.14548274823E+02  0.29728715067E+02  0.62621761693E+00  0.33103488466E+02  0.51100000000E-03 0. -1.
        -11    1    4    4    0    0 -0.84395978415E+00  0.10125910078E+02  0.44058675722E+01  0.11075106877E+02  0.51100000000E-03 0.  1.
         12    1    4    4    0    0 -0.33787536056E+01 -0.11275188388E+01  0.57902115399E+00  0.36086756789E+01  0.00000000000E+00 0. -1.
</event>
<event>
 8    1  0.6239251E-010  0.9118800E+02  0.7816164E-02  0.1184000E+00
        -11   -1    0    0    0    0  0.00000000000E+00  0.00000000000E+00  0.45593999997E+02  0.45594000000E+02  0.51100000000E-03 0. -1.
         11   -1    0    0    0    0 -0.00000000000E+00 -0.00000000000E+00 -0.45593999997E+02  0.45594000000E+02  0.51100000000E-03 0.  1.
         23    2    1    2    0    0 -0.88817841970E-15 -0.71054273576E-14  0.00000000000E+00  0.91188000000E+02  0.91188000000E+02 0.  0.
    9900012    2    3    3    0    0  0.63412466809E+01 -0.35870257565E+02 -0.23595269123E+02  0.47787268298E+02  0.19999987480E+02 0.  0.
         12    1    3    3    0    0 -0.63412466809E+01  0.35870257565E+02  0.23595269123E+02  0.43400731702E+02  0.00000000000E+00 0. -1.
         11    1    4    4    0    0 -0.38089890984E+01 -0.71457741724E+01 -0.11318803774E+02  0.13917104785E+02  0.51100000000E-03 0. -1.
        -11    1    4    4    0    0  0.40468754664E+01 -0.19228573211E+02 -0.10975465739E+02  0.22507244994E+02  0.51100000000E-03 0.  1.
         12    1    4    4    0    0  0.61033603128E+01 -0.94959101817E+01 -0.13009996099E+01  0.11362918519E+02  0.00000000000E+00 0. -1.
</event>
<event>
 8    1  0.6239251E-010  0.9118800E+02  0.7816164E-02  0.1184000E+00
        -11   -1    0    0    0    0  0.00000000000E+00  0.00000000000E+00  0.45593999997E+02  0.45594000000E+02  0.51100000000E-03 0. -1.
         11   -1    0    0    0    0 -0.00000000000E+00 -0.00000000000E+00 -0.45593999997E+02  0.45594000000E+02  0.51100000000E-03 0.  1.
         23    2    1    2    0    0  0.00000000000E+00  0.17763568394E-14  0.71054273576E-14  0.91188000000E+02  0.91188000000E+02 0.  0.
    9900012    2    3    3    0    0 -0.91831229811E+01  0.54571176195E+01  0.42065587325E+02  0.47787268239E+02  0.19999987208E+02 0.  0.
        -12    1    3    3    0    0  0.91831229811E+01 -0.54571176195E+01 -0.42065587325E+02  0.43400731761E+02  0.00000000000E+00 0.  1.
         11    1    4    4    0    0 -0.25040278194E+01  0.51603068224E+01  0.97232271605E+01  0.11288935667E+02  0.51100000000E-03 0. -1.
        -11    1    4    4    0    0  0.19996594049E+01  0.23385698019E+01  0.13519258187E+00  0.30799064513E+01  0.51100000000E-03 0.  1.
        -12    1    4    4    0    0 -0.86787545666E+01 -0.20417590048E+01  0.32207167583E+02  0.33418426120E+02  0.00000000000E+00 0.  1.
</event>
<event>
 8    1  0.6239251E-010  0.9118800E+02  0.7816164E-02  0.1184000E+00
        -11   -1    0    0    0    0  0.00000000000E+00  0.00000000000E+00  0.45593999997E+02  0.45594000000E+02  0.51100000000E-03 0. -1.
         11   -1    0    0    0    0 -0.00000000000E+00 -0.00000000000E+00 -0.45593999997E+02  0.45594000000E+02  0.51100000000E-03 0.  1.
         23    2    1    2    0    0  0.00000000000E+00  0.17763568394E-14  0.00000000000E+00  0.91188000000E+02  0.91188000000E+02 0.  0.
    9900012    2    3    3    0    0  0.45000215058E+01 -0.11186882697E+02  0.41692048171E+02  0.47787269375E+02  0.19999992389E+02 0.  0.
        -12    1    3    3    0    0 -0.45000215058E+01  0.11186882697E+02 -0.41692048171E+02  0.43400730625E+02  0.00000000000E+00 0.  1.
         11    1    4    4    0    0  0.43145962648E+01 -0.16613238023E+00  0.28131921385E+02  0.28461348211E+02  0.51100000000E-03 0. -1.
        -11    1    4    4    0    0 -0.39022508519E+01 -0.70992294611E+01  0.82209572611E+01  0.11541696548E+02  0.51100000000E-03 0.  1.
         12    1    4    4    0    0  0.40876760929E+01 -0.39215208560E+01  0.53391695253E+01  0.77842246167E+01  0.00000000000E+00 0. -1.
</event>
<event>
 8    1  0.6239251E-010  0.9118800E+02  0.7816164E-02  0.1184000E+00
        -11   -1    0    0    0    0  0.00000000000E+00  0.00000000000E+00  0.45593999997E+02  0.45594000000E+02  0.51100000000E-03 0.  1.
         11   -1    0    0    0    0 -0.00000000000E+00 -0.00000000000E+00 -0.45593999997E+02  0.45594000000E+02  0.51100000000E-03 0. -1.
         23    2    1    2    0    0 -0.17763568394E-14  0.00000000000E+00 -0.44408920985E-15  0.91188000000E+02  0.91188000000E+02 0.  0.
    9900012    2    3    3    0    0  0.14936320194E+02  0.40664856794E+02  0.26266120882E+01  0.47787270397E+02  0.19999997049E+02 0.  0.
        -12    1    3    3    0    0 -0.14936320194E+02 -0.40664856794E+02 -0.26266120882E+01  0.43400729603E+02  0.00000000000E+00 0.  1.
         11    1    4    4    0    0 -0.32155599891E+01  0.10058384734E+02  0.49587551621E+01  0.11666198289E+02  0.51100000000E-03 0. -1.
        -11    1    4    4    0    0  0.90674277811E+01  0.10922896760E+02 -0.26432558524E+01  0.14440038849E+02  0.51100000000E-03 0.  1.
         12    1    4    4    0    0  0.90844524018E+01  0.19683575300E+02  0.31111277850E+00  0.21681033259E+02  0.00000000000E+00 0. -1.
</event>
<event>
 8    1  0.6239251E-010  0.9118800E+02  0.7816164E-02  0.1184000E+00
        -11   -1    0    0    0    0  0.00000000000E+00  0.00000000000E+00  0.45593999997E+02  0.45594000000E+02  0.51100000000E-03 0. -1.
         11   -1    0    0    0    0 -0.00000000000E+00 -0.00000000000E+00 -0.45593999997E+02  0.45594000000E+02  0.51100000000E-03 0.  1.
         23    2    1    2    0    0  0.00000000000E+00  0.00000000000E+00  0.00000000000E+00  0.91188000000E+02  0.91188000000E+02 0.  0.
    9900012    2    3    3    0    0  0.96152288372E+01 -0.28547090742E+02 -0.31244744601E+02  0.47787273271E+02  0.20000010150E+02 0.  0.
         12    1    3    3    0    0 -0.96152288372E+01  0.28547090742E+02  0.31244744601E+02  0.43400726729E+02  0.00000000000E+00 0. -1.
         11    1    4    4    0    0  0.24209552302E+01 -0.20789841488E+02 -0.25870255801E+02  0.33276848841E+02  0.51100000000E-03 0. -1.
        -11    1    4    4    0    0  0.82601577210E+01 -0.63688867852E+01 -0.66274670266E+01  0.12357841393E+02  0.51100000000E-03 0.  1.
         12    1    4    4    0    0 -0.10658841140E+01 -0.13883624688E+01  0.12529782265E+01  0.21525830357E+01  0.00000000000E+00 0. -1.
</event>
<event>
 8    1  0.6239251E-010  0.9118800E+02  0.7816164E-02  0.1184000E+00
        -11   -1    0    0    0    0  0.00000000000E+00  0.00000000000E+00  0.45593999997E+02  0.45594000000E+02  0.51100000000E-03 0.  1.
         11   -1    0    0    0    0 -0.00000000000E+00 -0.00000000000E+00 -0.45593999997E+02  0.45594000000E+02  0.51100000000E-03 0. -1.
         23    2    1    2    0    0  0.71054273576E-14  0.00000000000E+00  0.00000000000E+00  0.91188000000E+02  0.91188000000E+02 0.  0.
    9900012    2    3    3    0    0 -0.36285050564E+02  0.76678162154E+01 -0.22543843667E+02  0.47787249002E+02  0.19999899497E+02 0.  0.
         12    1    3    3    0    0  0.36285050564E+02 -0.76678162154E+01  0.22543843667E+02  0.43400750998E+02  0.00000000000E+00 0. -1.
         11    1    4    4    0    0 -0.21619325853E+02  0.31747007935E-02 -0.15870701756E+02  0.26819292215E+02  0.51100000000E-03 0. -1.
        -11    1    4    4    0    0 -0.62006863161E+01 -0.88007417925E+00 -0.63746665863E+01  0.89364095530E+01  0.51100000000E-03 0.  1.
         12    1    4    4    0    0 -0.84650383950E+01  0.85447156938E+01 -0.29847532475E+00  0.12031547234E+02  0.00000000000E+00 0. -1.
</event>
<event>
 8    1  0.6239251E-010  0.9118800E+02  0.7816164E-02  0.1184000E+00
        -11   -1    0    0    0    0  0.00000000000E+00  0.00000000000E+00  0.45593999997E+02  0.45594000000E+02  0.51100000000E-03 0. -1.
         11   -1    0    0    0    0 -0.00000000000E+00 -0.00000000000E+00 -0.45593999997E+02  0.45594000000E+02  0.51100000000E-03 0.  1.
         23    2    1    2    0    0  0.00000000000E+00  0.00000000000E+00  0.35527136788E-14  0.91188000000E+02  0.91188000000E+02 0.  0.
    9900012    2    3    3    0    0 -0.21586390219E+01  0.33419788613E+02 -0.27605818410E+02  0.47787271856E+02  0.20000003701E+02 0.  0.
         12    1    3    3    0    0  0.21586390219E+01 -0.33419788613E+02  0.27605818410E+02  0.43400728144E+02  0.00000000000E+00 0. -1.
         11    1    4    4    0    0 -0.80982737072E+01  0.26499925437E+02 -0.26923495225E+02  0.38635510617E+02  0.51100000000E-03 0.  1.
        -11    1    4    4    0    0  0.41753248527E+01  0.46124520108E+01 -0.48187009383E+00  0.62402123543E+01  0.51100000000E-03 0. -1.
        -12    1    4    4    0    0  0.17643098326E+01  0.23074111648E+01 -0.20045309078E+00  0.29115488851E+01  0.00000000000E+00 0.  1.
</event>
<event>
 8    1  0.6239251E-010  0.9118800E+02  0.7816164E-02  0.1184000E+00
        -11   -1    0    0    0    0  0.00000000000E+00  0.00000000000E+00  0.45593999997E+02  0.45594000000E+02  0.51100000000E-03 0.  1.
         11   -1    0    0    0    0 -0.00000000000E+00 -0.00000000000E+00 -0.45593999997E+02  0.45594000000E+02  0.51100000000E-03 0. -1.
         23    2    1    2    0    0  0.00000000000E+00 -0.35527136788E-14  0.00000000000E+00  0.91188000000E+02  0.91188000000E+02 0.  0.
    9900012    2    3    3    0    0  0.36388280143E+02 -0.22185587461E+02  0.82046381466E+01  0.47787270629E+02  0.19999998108E+02 0.  0.
         12    1    3    3    0    0 -0.36388280143E+02  0.22185587461E+02 -0.82046381466E+01  0.43400729371E+02  0.00000000000E+00 0. -1.
         11    1    4    4    0    0  0.20647135838E+01 -0.12622070926E+01 -0.47490484345E+01  0.53300722530E+01  0.51100000000E-03 0. -1.
        -11    1    4    4    0    0  0.17634422102E+02 -0.88319599285E+01  0.78372789461E+01  0.21222612954E+02  0.51100000000E-03 0.  1.
         12    1    4    4    0    0  0.16689144457E+02 -0.12091420440E+02  0.51164076350E+01  0.21234585422E+02  0.00000000000E+00 0. -1.
</event>
<event>
 8    1  0.6239251E-010  0.9118800E+02  0.7816164E-02  0.1184000E+00
        -11   -1    0    0    0    0  0.00000000000E+00  0.00000000000E+00  0.45593999997E+02  0.45594000000E+02  0.51100000000E-03 0. -1.
         11   -1    0    0    0    0 -0.00000000000E+00 -0.00000000000E+00 -0.45593999997E+02  0.45594000000E+02  0.51100000000E-03 0.  1.
         23    2    1    2    0    0  0.00000000000E+00  0.00000000000E+00  0.00000000000E+00  0.91188000000E+02  0.91188000000E+02 0.  0.
    9900012    2    3    3    0    0  0.19039818317E+02  0.95170563715E+01 -0.37822400394E+02  0.47787274026E+02  0.20000013595E+02 0.  0.
         12    1    3    3    0    0 -0.19039818317E+02 -0.95170563715E+01  0.37822400394E+02  0.43400725974E+02  0.00000000000E+00 0. -1.
         11    1    4    4    0    0  0.16168493023E+02  0.58028256370E+01 -0.16024687887E+02  0.23492202412E+02  0.51100000000E-03 0. -1.
        -11    1    4    4    0    0  0.39401187493E+01  0.19000743299E+00 -0.19628529205E+02  0.20020983932E+02  0.51100000000E-03 0.  1.
         12    1    4    4    0    0 -0.10687934545E+01  0.35242233015E+01 -0.21691833011E+01  0.42740876829E+01  0.00000000000E+00 0. -1.
</event>
<event>
 8    1  0.6239251E-010  0.9118800E+02  0.7816164E-02  0.1184000E+00
        -11   -1    0    0    0    0  0.00000000000E+00  0.00000000000E+00  0.45593999997E+02  0.45594000000E+02  0.51100000000E-03 0.  1.
         11   -1    0    0    0    0 -0.00000000000E+00 -0.00000000000E+00 -0.45593999997E+02  0.45594000000E+02  0.51100000000E-03 0. -1.
         23    2    1    2    0    0  0.00000000000E+00 -0.35527136788E-14  0.17763568394E-14  0.91188000000E+02  0.91188000000E+02 0.  0.
    9900012    2    3    3    0    0  0.27601254499E+02  0.30688024158E+02 -0.13417834017E+02  0.47787281730E+02  0.20000048721E+02 0.  0.
         12    1    3    3    0    0 -0.27601254499E+02 -0.30688024158E+02  0.13417834017E+02  0.43400718270E+02  0.00000000000E+00 0. -1.
         11    1    4    4    0    0 -0.76000944808E+00  0.24541666409E+01 -0.34472480443E+01  0.42993101310E+01  0.51100000000E-03 0. -1.
        -11    1    4    4    0    0  0.19673835540E+02  0.25587303033E+02 -0.11528802301E+02  0.34273651164E+02  0.51100000000E-03 0.  1.
        -12    1    4    4    0    0  0.86874284068E+01  0.26465544835E+01  0.15582163276E+01  0.92143204352E+01  0.00000000000E+00 0.  1.
</event>
<event>
 8    1  0.6239251E-010  0.9118800E+02  0.7816164E-02  0.1184000E+00
        -11   -1    0    0    0    0  0.00000000000E+00  0.00000000000E+00  0.45593999997E+02  0.45594000000E+02  0.51100000000E-03 0. -1.
         11   -1    0    0    0    0 -0.00000000000E+00 -0.00000000000E+00 -0.45593999997E+02  0.45594000000E+02  0.51100000000E-03 0.  1.
         23    2    1    2    0    0  0.00000000000E+00  0.00000000000E+00  0.00000000000E+00  0.91188000000E+02  0.91188000000E+02 0.  0.
    9900012    2    3    3    0    0 -0.67224404078E+01  0.17486633163E+02  0.39149077065E+02  0.47787265220E+02  0.19999973442E+02 0.  0.
        -12    1    3    3    0    0  0.67224404078E+01 -0.17486633163E+02 -0.39149077065E+02  0.43400734780E+02  0.00000000000E+00 0.  1.
         11    1    4    4    0    0 -0.62750355298E+01  0.68075213610E+01  0.17421488763E+02  0.19728828880E+02  0.51100000000E-03 0. -1.
        -11    1    4    4    0    0  0.62057770828E+01  0.36514281645E+01  0.51134703441E+01  0.88313179121E+01  0.51100000000E-03 0.  1.
        -12    1    4    4    0    0 -0.66531819608E+01  0.70276836374E+01  0.16614117958E+02  0.19227118428E+02  0.00000000000E+00 0.  1.
</event>
<event>
 8    1  0.6239251E-010  0.9118800E+02  0.7816164E-02  0.1184000E+00
        -11   -1    0    0    0    0  0.00000000000E+00  0.00000000000E+00  0.45593999997E+02  0.45594000000E+02  0.51100000000E-03 0. -1.
         11   -1    0    0    0    0 -0.00000000000E+00 -0.00000000000E+00 -0.45593999997E+02  0.45594000000E+02  0.51100000000E-03 0.  1.
         23    2    1    2    0    0 -0.77715611724E-15  0.88817841970E-15 -0.71054273576E-14  0.91188000000E+02  0.91188000000E+02 0.  0.
    9900012    2    3    3    0    0  0.76170537132E+00 -0.60939131814E+01 -0.42964017729E+02  0.47787276592E+02  0.20000025294E+02 0.  0.
         12    1    3    3    0    0 -0.76170537132E+00  0.60939131814E+01  0.42964017729E+02  0.43400723408E+02  0.00000000000E+00 0. -1.
         11    1    4    4    0    0  0.18872581881E+01  0.41692558203E+01 -0.19089234796E+02  0.19630163599E+02  0.51100000000E-03 0. -1.
        -11    1    4    4    0    0 -0.21661606543E+01 -0.87503802544E+01 -0.24587188742E+02  0.26187616483E+02  0.51100000000E-03 0.  1.
        -12    1    4    4    0    0  0.10406078375E+01 -0.15127887473E+01  0.71240580934E+00  0.19694965099E+01  0.00000000000E+00 0.  1.
</event>
<event>
 8    1  0.6239251E-010  0.9118800E+02  0.7816164E-02  0.1184000E+00
        -11   -1    0    0    0    0  0.00000000000E+00  0.00000000000E+00  0.45593999997E+02  0.45594000000E+02  0.51100000000E-03 0.  1.
         11   -1    0    0    0    0 -0.00000000000E+00 -0.00000000000E+00 -0.45593999997E+02  0.45594000000E+02  0.51100000000E-03 0. -1.
         23    2    1    2    0    0  0.00000000000E+00  0.00000000000E+00  0.00000000000E+00  0.91188000000E+02  0.91188000000E+02 0.  0.
    9900012    2    3    3    0    0  0.32066880669E+02 -0.23893734083E+02 -0.16864972612E+02  0.47787278054E+02  0.20000031958E+02 0.  0.
         12    1    3    3    0    0 -0.32066880669E+02  0.23893734083E+02  0.16864972612E+02  0.43400721946E+02  0.00000000000E+00 0. -1.
         11    1    4    4    0    0  0.23860347453E+01  0.28727796091E+01 -0.89992545274E+00  0.38413396842E+01  0.51100000000E-03 0. -1.
        -11    1    4    4    0    0  0.21428092235E+02 -0.23277230516E+02 -0.99973220659E+01  0.33180401536E+02  0.51100000000E-03 0.  1.
        -12    1    4    4    0    0  0.82527536884E+01 -0.34892831758E+01 -0.59677250935E+01  0.10765536834E+02  0.00000000000E+00 0.  1.
</event>
<event>
 8    1  0.6239251E-010  0.9118800E+02  0.7816164E-02  0.1184000E+00
        -11   -1    0    0    0    0  0.00000000000E+00  0.00000000000E+00  0.45593999997E+02  0.45594000000E+02  0.51100000000E-03 0. -1.
         11   -1    0    0    0    0 -0.00000000000E+00 -0.00000000000E+00 -0.45593999997E+02  0.45594000000E+02  0.51100000000E-03 0.  1.
         23    2    1    2    0    0  0.00000000000E+00  0.00000000000E+00  0.00000000000E+00  0.91188000000E+02  0.91188000000E+02 0.  0.
    9900012    2    3    3    0    0 -0.50568678763E+01  0.16668141609E+02  0.39752037517E+02  0.47787270234E+02  0.19999996306E+02 0.  0.
        -12    1    3    3    0    0  0.50568678763E+01 -0.16668141609E+02 -0.39752037517E+02  0.43400729766E+02  0.00000000000E+00 0.  1.
         11    1    4    4    0    0  0.83937703222E+00  0.15805145861E+00  0.94963529470E+01  0.95346868654E+01  0.51100000000E-03 0. -1.
        -11    1    4    4    0    0  0.53218860618E+01  0.61493780037E+01  0.10816302428E+02  0.13532542982E+02  0.51100000000E-03 0.  1.
        -12    1    4    4    0    0 -0.11218130970E+02  0.10360712147E+02  0.19439382142E+02  0.24720040387E+02  0.00000000000E+00 0.  1.
</event>
<event>
 8    1  0.6239251E-010  0.9118800E+02  0.7816164E-02  0.1184000E+00
        -11   -1    0    0    0    0  0.00000000000E+00  0.00000000000E+00  0.45593999997E+02  0.45594000000E+02  0.51100000000E-03 0. -1.
         11   -1    0    0    0    0 -0.00000000000E+00 -0.00000000000E+00 -0.45593999997E+02  0.45594000000E+02  0.51100000000E-03 0.  1.
         23    2    1    2    0    0  0.17763568394E-14  0.44408920985E-15  0.00000000000E+00  0.91188000000E+02  0.91188000000E+02 0.  0.
    9900012    2    3    3    0    0 -0.14561599333E+02  0.13876667367E+01  0.40861441340E+02  0.47787272097E+02  0.20000004801E+02 0.  0.
        -12    1    3    3    0    0  0.14561599333E+02 -0.13876667367E+01 -0.40861441340E+02  0.43400727903E+02  0.00000000000E+00 0.  1.
         11    1    4    4    0    0 -0.23465189961E+01  0.30809561321E+01  0.54331740887E+01  0.66721677906E+01  0.51100000000E-03 0. -1.
        -11    1    4    4    0    0 -0.16438309397E+02 -0.72232064982E+00  0.29394754515E+02  0.33686664368E+02  0.51100000000E-03 0.  1.
        -12    1    4    4    0    0  0.42232290600E+01 -0.97096874556E+00  0.60335127359E+01  0.74284399393E+01  0.00000000000E+00 0.  1.
</event>
<event>
 8    1  0.6239251E-010  0.9118800E+02  0.7816164E-02  0.1184000E+00
        -11   -1    0    0    0    0  0.00000000000E+00  0.00000000000E+00  0.45593999997E+02  0.45594000000E+02  0.51100000000E-03 0. -1.
         11   -1    0    0    0    0 -0.00000000000E+00 -0.00000000000E+00 -0.45593999997E+02  0.45594000000E+02  0.51100000000E-03 0.  1.
         23    2    1    2    0    0 -0.22204460493E-15  0.88817841970E-15  0.00000000000E+00  0.91188000000E+02  0.91188000000E+02 0.  0.
    9900012    2    3    3    0    0  0.47262770336E+00  0.55169143488E+01  0.43046062894E+02  0.47787271302E+02  0.20000001173E+02 0.  0.
        -12    1    3    3    0    0 -0.47262770336E+00 -0.55169143488E+01 -0.43046062894E+02  0.43400728698E+02  0.00000000000E+00 0.  1.
         11    1    4    4    0    0  0.53812490294E+01 -0.24737316314E+01  0.45998843013E+01  0.74990749528E+01  0.51100000000E-03 0. -1.
        -11    1    4    4    0    0 -0.16649128505E-01 -0.55542492345E-01 -0.35551432996E+00  0.36021224557E+00  0.51100000000E-03 0.  1.
         12    1    4    4    0    0 -0.48919721976E+01  0.80461884726E+01  0.38801692922E+02  0.39927984103E+02  0.00000000000E+00 0. -1.
</event>
<event>
 8    1  0.6239251E-010  0.9118800E+02  0.7816164E-02  0.1184000E+00
        -11   -1    0    0    0    0  0.00000000000E+00  0.00000000000E+00  0.45593999997E+02  0.45594000000E+02  0.51100000000E-03 0. -1.
         11   -1    0    0    0    0 -0.00000000000E+00 -0.00000000000E+00 -0.45593999997E+02  0.45594000000E+02  0.51100000000E-03 0.  1.
         23    2    1    2    0    0  0.00000000000E+00  0.00000000000E+00  0.00000000000E+00  0.91188000000E+02  0.91188000000E+02 0.  0.
    9900012    2    3    3    0    0  0.31947266188E+02  0.16066167379E+02 -0.24594256985E+02  0.47787227797E+02  0.19999802817E+02 0.  0.
         12    1    3    3    0    0 -0.31947266188E+02 -0.16066167379E+02  0.24594256985E+02  0.43400772203E+02  0.00000000000E+00 0. -1.
         11    1    4    4    0    0  0.23201408581E+02  0.11469471726E+02 -0.25302836385E+02  0.36195133253E+02  0.51100000000E-03 0. -1.
        -11    1    4    4    0    0  0.80893501920E+01  0.20921659476E+01 -0.11088170525E+01  0.84287733626E+01  0.51100000000E-03 0.  1.
         12    1    4    4    0    0  0.65650741544E+00  0.25045297058E+01  0.18173964523E+01  0.31633211817E+01  0.00000000000E+00 0. -1.
</event>
<event>
 8    1  0.6239251E-010  0.9118800E+02  0.7816164E-02  0.1184000E+00
        -11   -1    0    0    0    0  0.00000000000E+00  0.00000000000E+00  0.45593999997E+02  0.45594000000E+02  0.51100000000E-03 0.  1.
         11   -1    0    0    0    0 -0.00000000000E+00 -0.00000000000E+00 -0.45593999997E+02  0.45594000000E+02  0.51100000000E-03 0. -1.
         23    2    1    2    0    0  0.00000000000E+00  0.00000000000E+00  0.00000000000E+00  0.91188000000E+02  0.91188000000E+02 0.  0.
    9900012    2    3    3    0    0  0.10239971904E+02 -0.38189417479E+02  0.17897895981E+02  0.47787270599E+02  0.19999997970E+02 0.  0.
        -12    1    3    3    0    0 -0.10239971904E+02  0.38189417479E+02 -0.17897895981E+02  0.43400729401E+02  0.00000000000E+00 0.  1.
         11    1    4    4    0    0  0.10135562633E+02 -0.22433669702E+02  0.35191289804E+01  0.24867316607E+02  0.51100000000E-03 0. -1.
        -11    1    4    4    0    0  0.16658960074E+00 -0.16759063308E+02  0.12985084435E+02  0.21201565345E+02  0.51100000000E-03 0.  1.
         12    1    4    4    0    0 -0.62180329242E-01  0.10033155309E+01  0.13936825664E+01  0.17183886475E+01  0.00000000000E+00 0. -1.
</event>
<event>
 8    1  0.6239251E-010  0.9118800E+02  0.7816164E-02  0.1184000E+00
        -11   -1    0    0    0    0  0.00000000000E+00  0.00000000000E+00  0.45593999997E+02  0.45594000000E+02  0.51100000000E-03 0. -1.
         11   -1    0    0    0    0 -0.00000000000E+00 -0.00000000000E+00 -0.45593999997E+02  0.45594000000E+02  0.51100000000E-03 0.  1.
         23    2    1    2    0    0 -0.17763568394E-14  0.00000000000E+00  0.13322676296E-14  0.91188000000E+02  0.91188000000E+02 0.  0.
    9900012    2    3    3    0    0  0.96716863775E+01  0.42306040691E+02 -0.52976407688E+00  0.47787271362E+02  0.20000001448E+02 0.  0.
         12    1    3    3    0    0 -0.96716863775E+01 -0.42306040691E+02  0.52976407688E+00  0.43400728638E+02  0.00000000000E+00 0. -1.
         11    1    4    4    0    0  0.13444414993E+02  0.28485135420E+02  0.47365045547E+01  0.31852624854E+02  0.51100000000E-03 0. -1.
        -11    1    4    4    0    0 -0.23838567272E+01  0.11050911633E+02 -0.20889273923E+01  0.11496479406E+02  0.51100000000E-03 0.  1.
         12    1    4    4    0    0 -0.13888718887E+01  0.27699936370E+01 -0.31773412393E+01  0.44381671017E+01  0.00000000000E+00 0. -1.
</event>
<event>
 8    1  0.6239251E-010  0.9118800E+02  0.7816164E-02  0.1184000E+00
        -11   -1    0    0    0    0  0.00000000000E+00  0.00000000000E+00  0.45593999997E+02  0.45594000000E+02  0.51100000000E-03 0. -1.
         11   -1    0    0    0    0 -0.00000000000E+00 -0.00000000000E+00 -0.45593999997E+02  0.45594000000E+02  0.51100000000E-03 0.  1.
         23    2    1    2    0    0  0.35527136788E-14  0.00000000000E+00  0.35527136788E-14  0.91188000000E+02  0.91188000000E+02 0.  0.
    9900012    2    3    3    0    0 -0.25231454907E+02  0.19420982725E+02 -0.29492744397E+02  0.47787275826E+02  0.20000021802E+02 0.  0.
         12    1    3    3    0    0  0.25231454907E+02 -0.19420982725E+02  0.29492744397E+02  0.43400724174E+02  0.00000000000E+00 0. -1.
         11    1    4    4    0    0 -0.11221557220E+01  0.11923348779E+02 -0.72138752595E+01  0.13980896827E+02  0.51100000000E-03 0. -1.
        -11    1    4    4    0    0 -0.15027119089E+02  0.36912103870E+01 -0.15093513704E+02  0.21616047243E+02  0.51100000000E-03 0.  1.
         12    1    4    4    0    0 -0.90821800960E+01  0.38064235588E+01 -0.71853554338E+01  0.12190331756E+02  0.00000000000E+00 0. -1.
</event>
<event>
 8    1  0.6239251E-010  0.9118800E+02  0.7816164E-02  0.1184000E+00
        -11   -1    0    0    0    0  0.00000000000E+00  0.00000000000E+00  0.45593999997E+02  0.45594000000E+02  0.51100000000E-03 0. -1.
         11   -1    0    0    0    0 -0.00000000000E+00 -0.00000000000E+00 -0.45593999997E+02  0.45594000000E+02  0.51100000000E-03 0.  1.
         23    2    1    2    0    0  0.00000000000E+00  0.00000000000E+00  0.00000000000E+00  0.91188000000E+02  0.91188000000E+02 0.  0.
    9900012    2    3    3    0    0  0.23753921793E+02  0.11787459313E+02 -0.34357388182E+02  0.47787272813E+02  0.20000008065E+02 0.  0.
         12    1    3    3    0    0 -0.23753921793E+02 -0.11787459313E+02  0.34357388182E+02  0.43400727187E+02  0.00000000000E+00 0. -1.
         11    1    4    4    0    0  0.20524207379E+02  0.68335907772E+01 -0.21956449169E+02  0.30822503335E+02  0.51100000000E-03 0. -1.
        -11    1    4    4    0    0  0.67366995188E+01  0.21146234498E+01 -0.73563766618E+01  0.10196618586E+02  0.51100000000E-03 0.  1.
         12    1    4    4    0    0 -0.35069851046E+01  0.28392450861E+01 -0.50445623517E+01  0.67681508924E+01  0.00000000000E+00 0. -1.
</event>
<event>
 8    1  0.6239251E-010  0.9118800E+02  0.7816164E-02  0.1184000E+00
        -11   -1    0    0    0    0  0.00000000000E+00  0.00000000000E+00  0.45593999997E+02  0.45594000000E+02  0.51100000000E-03 0. -1.
         11   -1    0    0    0    0 -0.00000000000E+00 -0.00000000000E+00 -0.45593999997E+02  0.45594000000E+02  0.51100000000E-03 0.  1.
         23    2    1    2    0    0  0.00000000000E+00 -0.35527136788E-14  0.00000000000E+00  0.91188000000E+02  0.91188000000E+02 0.  0.
    9900012    2    3    3    0    0 -0.17392659277E+02 -0.28469697963E+02  0.27759588128E+02  0.47787273833E+02  0.20000012712E+02 0.  0.
        -12    1    3    3    0    0  0.17392659277E+02  0.28469697963E+02 -0.27759588128E+02  0.43400726167E+02  0.00000000000E+00 0.  1.
         11    1    4    4    0    0 -0.10498864781E+02 -0.21365027584E+02  0.28227704987E+02  0.36925518201E+02  0.51100000000E-03 0. -1.
        -11    1    4    4    0    0 -0.52378331670E+00 -0.16691952011E+01 -0.16501304418E+01  0.24048892528E+01  0.51100000000E-03 0.  1.
         12    1    4    4    0    0 -0.63700111794E+01 -0.54354751774E+01  0.11820135831E+01  0.84568663783E+01  0.00000000000E+00 0. -1.
</event>
<event>
 8    1  0.6239251E-010  0.9118800E+02  0.7816164E-02  0.1184000E+00
        -11   -1    0    0    0    0  0.00000000000E+00  0.00000000000E+00  0.45593999997E+02  0.45594000000E+02  0.51100000000E-03 0.  1.
         11   -1    0    0    0    0 -0.00000000000E+00 -0.00000000000E+00 -0.45593999997E+02  0.45594000000E+02  0.51100000000E-03 0. -1.
         23    2    1    2    0    0  0.88817841970E-15  0.00000000000E+00  0.00000000000E+00  0.91188000000E+02  0.91188000000E+02 0.  0.
    9900012    2    3    3    0    0  0.42811373739E+01  0.28820893635E+02  0.32165994238E+02  0.47787271522E+02  0.20000002177E+02 0.  0.
        -12    1    3    3    0    0 -0.42811373739E+01 -0.28820893635E+02 -0.32165994238E+02  0.43400728478E+02  0.00000000000E+00 0.  1.
         11    1    4    4    0    0  0.17020193975E+01  0.15417047847E+02  0.12919713800E+02  0.20186659934E+02  0.51100000000E-03 0. -1.
        -11    1    4    4    0    0 -0.62434389057E-03 -0.30210220018E+01  0.42231126263E+01  0.51924228295E+01  0.51100000000E-03 0.  1.
        -12    1    4    4    0    0  0.25797423203E+01  0.16424867790E+02  0.15023167811E+02  0.22408188759E+02  0.00000000000E+00 0.  1.
</event>
<event>
 8    1  0.6239251E-010  0.9118800E+02  0.7816164E-02  0.1184000E+00
        -11   -1    0    0    0    0  0.00000000000E+00  0.00000000000E+00  0.45593999997E+02  0.45594000000E+02  0.51100000000E-03 0. -1.
         11   -1    0    0    0    0 -0.00000000000E+00 -0.00000000000E+00 -0.45593999997E+02  0.45594000000E+02  0.51100000000E-03 0.  1.
         23    2    1    2    0    0  0.44408920985E-15  0.88817841970E-15 -0.71054273576E-14  0.91188000000E+02  0.91188000000E+02 0.  0.
    9900012    2    3    3    0    0  0.24184151867E+01  0.20758306019E+01 -0.43283547677E+02  0.47787270695E+02  0.19999998408E+02 0.  0.
         12    1    3    3    0    0 -0.24184151867E+01 -0.20758306019E+01  0.43283547677E+02  0.43400729305E+02  0.00000000000E+00 0. -1.
         11    1    4    4    0    0  0.24579400877E+01  0.69795514919E-02  0.68926735390E+00  0.25527647630E+01  0.51100000000E-03 0. -1.
        -11    1    4    4    0    0  0.27353701051E+01  0.51018558200E+01 -0.33260268965E+02  0.33760282497E+02  0.51100000000E-03 0.  1.
        -12    1    4    4    0    0 -0.27748950061E+01 -0.30330047695E+01 -0.10712546066E+02  0.11474223435E+02  0.00000000000E+00 0.  1.
</event>
<event>
 8    1  0.6239251E-010  0.9118800E+02  0.7816164E-02  0.1184000E+00
        -11   -1    0    0    0    0  0.00000000000E+00  0.00000000000E+00  0.45593999997E+02  0.45594000000E+02  0.51100000000E-03 0. -1.
         11   -1    0    0    0    0 -0.00000000000E+00 -0.00000000000E+00 -0.45593999997E+02  0.45594000000E+02  0.51100000000E-03 0.  1.
         23    2    1    2    0    0  0.66613381478E-15  0.00000000000E+00  0.71054273576E-14  0.91188000000E+02  0.91188000000E+02 0.  0.
    9900012    2    3    3    0    0  0.61894675614E+00 -0.17406207621E+02  0.39752539687E+02  0.47787267628E+02  0.19999984425E+02 0.  0.
        -12    1    3    3    0    0 -0.61894675614E+00  0.17406207621E+02 -0.39752539687E+02  0.43400732372E+02  0.00000000000E+00 0.  1.
         11    1    4    4    0    0 -0.13746070719E+01 -0.60868606311E+01  0.42593189316E+01  0.75552111134E+01  0.51100000000E-03 0. -1.
        -11    1    4    4    0    0  0.58119704295E+01 -0.74433502524E+01  0.32854940159E+02  0.34185224241E+02  0.51100000000E-03 0.  1.
        -12    1    4    4    0    0 -0.38184166015E+01 -0.38759967377E+01  0.26382805960E+01  0.60468322746E+01  0.00000000000E+00 0.  1.
</event>
<event>
 8    1  0.6239251E-010  0.9118800E+02  0.7816164E-02  0.1184000E+00
        -11   -1    0    0    0    0  0.00000000000E+00  0.00000000000E+00  0.45593999997E+02  0.45594000000E+02  0.51100000000E-03 0. -1.
         11   -1    0    0    0    0 -0.00000000000E+00 -0.00000000000E+00 -0.45593999997E+02  0.45594000000E+02  0.51100000000E-03 0.  1.
         23    2    1    2    0    0  0.22204460493E-15  0.00000000000E+00 -0.35527136788E-14  0.91188000000E+02  0.91188000000E+02 0.  0.
    9900012    2    3    3    0    0 -0.19825368832E+01 -0.39258501614E+02  0.18397358432E+02  0.47787271910E+02  0.20000003948E+02 0.  0.
        -12    1    3    3    0    0  0.19825368832E+01  0.39258501614E+02 -0.18397358432E+02  0.43400728090E+02  0.00000000000E+00 0.  1.
         11    1    4    4    0    0 -0.25109421511E+01 -0.16180824612E+00  0.32187532296E+00  0.25366545645E+01  0.51100000000E-03 0. -1.
        -11    1    4    4    0    0  0.44007346005E+01 -0.32351620719E+02  0.18379062988E+02  0.37467102700E+02  0.51100000000E-03 0.  1.
        -12    1    4    4    0    0 -0.38723293325E+01 -0.67450726489E+01 -0.30357987913E+00  0.77835146459E+01  0.00000000000E+00 0.  1.
</event>
<event>
 8    1  0.6239251E-010  0.9118800E+02  0.7816164E-02  0.1184000E+00
        -11   -1    0    0    0    0  0.00000000000E+00  0.00000000000E+00  0.45593999997E+02  0.45594000000E+02  0.51100000000E-03 0. -1.
         11   -1    0    0    0    0 -0.00000000000E+00 -0.00000000000E+00 -0.45593999997E+02  0.45594000000E+02  0.51100000000E-03 0.  1.
         23    2    1    2    0    0 -0.35527136788E-14  0.00000000000E+00 -0.35527136788E-14  0.91188000000E+02  0.91188000000E+02 0.  0.
    9900012    2    3    3    0    0  0.31653266347E+02 -0.22141540459E+02  0.19785011370E+02  0.47787265452E+02  0.19999974504E+02 0.  0.
        -12    1    3    3    0    0 -0.31653266347E+02  0.22141540459E+02 -0.19785011370E+02  0.43400734548E+02  0.00000000000E+00 0.  1.
         11    1    4    4    0    0  0.15867495998E+02 -0.32210070146E+01  0.58873762489E+01  0.17228276606E+02  0.51100000000E-03 0. -1.
        -11    1    4    4    0    0 -0.93314150782E+00 -0.57142733247E+01  0.41844120975E+01  0.71437369468E+01  0.51100000000E-03 0.  1.
         12    1    4    4    0    0  0.16718911857E+02 -0.13206260119E+02  0.97132230240E+01  0.23415251900E+02  0.00000000000E+00 0. -1.
</event>
<event>
 8    1  0.6239251E-010  0.9118800E+02  0.7816164E-02  0.1184000E+00
        -11   -1    0    0    0    0  0.00000000000E+00  0.00000000000E+00  0.45593999997E+02  0.45594000000E+02  0.51100000000E-03 0. -1.
         11   -1    0    0    0    0 -0.00000000000E+00 -0.00000000000E+00 -0.45593999997E+02  0.45594000000E+02  0.51100000000E-03 0.  1.
         23    2    1    2    0    0  0.17763568394E-14  0.35527136788E-14  0.00000000000E+00  0.91188000000E+02  0.91188000000E+02 0.  0.
    9900012    2    3    3    0    0  0.11390155408E+02  0.28488274362E+02 -0.30697004976E+02  0.47787268084E+02  0.19999986500E+02 0.  0.
         12    1    3    3    0    0 -0.11390155408E+02 -0.28488274362E+02  0.30697004976E+02  0.43400731916E+02  0.00000000000E+00 0. -1.
         11    1    4    4    0    0 -0.85006790705E+00 -0.16978070841E+01 -0.41416747549E+00  0.19433731758E+01  0.51100000000E-03 0. -1.
        -11    1    4    4    0    0  0.10561684274E+02  0.15158190777E+02 -0.11625472368E+02  0.21828227834E+02  0.51100000000E-03 0.  1.
         12    1    4    4    0    0  0.16785390409E+01  0.15027890670E+02 -0.18657365133E+02  0.24015667074E+02  0.00000000000E+00 0. -1.
</event>
<event>
 8    1  0.6854433E-010  0.9118800E+02  0.7816164E-02  0.1184000E+00
        -11   -1    0    0    0    0  0.00000000000E+00  0.00000000000E+00  0.45593999997E+02  0.45594000000E+02  0.51100000000E-03 0. -1.
         11   -1    0    0    0    0 -0.00000000000E+00 -0.00000000000E+00 -0.45593999997E+02  0.45594000000E+02  0.51100000000E-03 0.  1.
         23    2    1    2    0    0  0.00000000000E+00 -0.35527136788E-14  0.00000000000E+00  0.91188000000E+02  0.91188000000E+02 0.  0.
    9900012    2    3    3    0    0  0.90318237175E+01 -0.24413746752E+02  0.34727779907E+02  0.47787267663E+02  0.19999984584E+02 0.  0.
        -12    1    3    3    0    0 -0.90318237175E+01  0.24413746752E+02 -0.34727779907E+02  0.43400732337E+02  0.00000000000E+00 0.  1.
         11    1    4    4    0    0  0.87107358249E+01 -0.15081519536E+02  0.14333079954E+02  0.22555849161E+02  0.51100000000E-03 0. -1.
        -11    1    4    4    0    0  0.69180305508E+00  0.24637170493E+01  0.65911180056E+01  0.70704547230E+01  0.51100000000E-03 0.  1.
        -12    1    4    4    0    0 -0.37071516251E+00 -0.11795944265E+02  0.13803581947E+02  0.18160963780E+02  0.00000000000E+00 0.  1.
</event>
<event>
 8    1  0.6239251E-010  0.9118800E+02  0.7816164E-02  0.1184000E+00
        -11   -1    0    0    0    0  0.00000000000E+00  0.00000000000E+00  0.45593999997E+02  0.45594000000E+02  0.51100000000E-03 0. -1.
         11   -1    0    0    0    0 -0.00000000000E+00 -0.00000000000E+00 -0.45593999997E+02  0.45594000000E+02  0.51100000000E-03 0.  1.
         23    2    1    2    0    0  0.00000000000E+00 -0.71054273576E-14  0.00000000000E+00  0.91188000000E+02  0.91188000000E+02 0.  0.
    9900012    2    3    3    0    0 -0.17140745909E+02  0.34848913011E+02 -0.19374592641E+02  0.47787231016E+02  0.19999817495E+02 0.  0.
         12    1    3    3    0    0  0.17140745909E+02 -0.34848913011E+02  0.19374592641E+02  0.43400768984E+02  0.00000000000E+00 0. -1.
         11    1    4    4    0    0 -0.16898276760E+02  0.22458842720E+02 -0.10633827493E+02  0.30050451930E+02  0.51100000000E-03 0. -1.
        -11    1    4    4    0    0  0.14148329412E+00  0.13798552906E+02 -0.86234753169E+01  0.16272197351E+02  0.51100000000E-03 0.  1.
         12    1    4    4    0    0 -0.38395244362E+00 -0.14084826150E+01 -0.11728983119E+00  0.14645817356E+01  0.00000000000E+00 0. -1.
</event>
<event>
 8    1  0.6239251E-010  0.9118800E+02  0.7816164E-02  0.1184000E+00
        -11   -1    0    0    0    0  0.00000000000E+00  0.00000000000E+00  0.45593999997E+02  0.45594000000E+02  0.51100000000E-03 0. -1.
         11   -1    0    0    0    0 -0.00000000000E+00 -0.00000000000E+00 -0.45593999997E+02  0.45594000000E+02  0.51100000000E-03 0.  1.
         23    2    1    2    0    0  0.17763568394E-14  0.00000000000E+00 -0.71054273576E-14  0.91188000000E+02  0.91188000000E+02 0.  0.
    9900012    2    3    3    0    0  0.93667779939E+01  0.23903297838E+02  0.34993189934E+02  0.47787222135E+02  0.19999777002E+02 0.  0.
        -12    1    3    3    0    0 -0.93667779939E+01 -0.23903297838E+02 -0.34993189934E+02  0.43400777865E+02  0.00000000000E+00 0.  1.
         11    1    4    4    0    0  0.88928258271E+01  0.15339570396E+02  0.10876938869E+02  0.20801263677E+02  0.51100000000E-03 0. -1.
        -11    1    4    4    0    0 -0.38658713649E+01  0.55570950065E+01  0.12194538240E+02  0.13947509794E+02  0.51100000000E-03 0.  1.
         12    1    4    4    0    0  0.43398235317E+01  0.30066324355E+01  0.11921712824E+02  0.13038448664E+02  0.00000000000E+00 0. -1.
</event>
<event>
 8    1  0.6239251E-010  0.9118800E+02  0.7816164E-02  0.1184000E+00
        -11   -1    0    0    0    0  0.00000000000E+00  0.00000000000E+00  0.45593999997E+02  0.45594000000E+02  0.51100000000E-03 0. -1.
         11   -1    0    0    0    0 -0.00000000000E+00 -0.00000000000E+00 -0.45593999997E+02  0.45594000000E+02  0.51100000000E-03 0.  1.
         23    2    1    2    0    0 -0.35527136788E-14 -0.17763568394E-14  0.00000000000E+00  0.91188000000E+02  0.91188000000E+02 0.  0.
    9900012    2    3    3    0    0  0.31649870774E+02 -0.10889336493E+02  0.27628462002E+02  0.47787264040E+02  0.19999968065E+02 0.  0.
        -12    1    3    3    0    0 -0.31649870774E+02  0.10889336493E+02 -0.27628462002E+02  0.43400735960E+02  0.00000000000E+00 0.  1.
         11    1    4    4    0    0  0.13275358837E+02 -0.17957666379E+01  0.20496556648E+02  0.24486093293E+02  0.51100000000E-03 0. -1.
        -11    1    4    4    0    0  0.13818396361E+02 -0.10512877652E+02  0.62160295898E+01  0.18442009072E+02  0.51100000000E-03 0.  1.
        -12    1    4    4    0    0  0.45561155764E+01  0.14193077965E+01  0.91587576350E+00  0.48591616747E+01  0.00000000000E+00 0.  1.
</event>
<event>
 8    1  0.6239251E-010  0.9118800E+02  0.7816164E-02  0.1184000E+00
        -11   -1    0    0    0    0  0.00000000000E+00  0.00000000000E+00  0.45593999997E+02  0.45594000000E+02  0.51100000000E-03 0. -1.
         11   -1    0    0    0    0 -0.00000000000E+00 -0.00000000000E+00 -0.45593999997E+02  0.45594000000E+02  0.51100000000E-03 0.  1.
         23    2    1    2    0    0 -0.88817841970E-15  0.17763568394E-14  0.00000000000E+00  0.91188000000E+02  0.91188000000E+02 0.  0.
    9900012    2    3    3    0    0 -0.69915523506E+01  0.14156135168E+02 -0.40427035638E+02  0.47787272153E+02  0.20000005054E+02 0.  0.
         12    1    3    3    0    0  0.69915523506E+01 -0.14156135168E+02  0.40427035638E+02  0.43400727847E+02  0.00000000000E+00 0. -1.
         11    1    4    4    0    0 -0.26075689759E+01 -0.83816092015E+00 -0.17539678647E+02  0.17752246534E+02  0.51100000000E-03 0. -1.
        -11    1    4    4    0    0  0.27573243177E+01  0.67221675400E+01 -0.42150133581E+01  0.83998042655E+01  0.51100000000E-03 0.  1.
        -12    1    4    4    0    0 -0.71413076925E+01  0.82721285479E+01 -0.18672343633E+02  0.21635221354E+02  0.00000000000E+00 0.  1.
</event>
<event>
 8    1  0.6239251E-010  0.9118800E+02  0.7816164E-02  0.1184000E+00
        -11   -1    0    0    0    0  0.00000000000E+00  0.00000000000E+00  0.45593999997E+02  0.45594000000E+02  0.51100000000E-03 0. -1.
         11   -1    0    0    0    0 -0.00000000000E+00 -0.00000000000E+00 -0.45593999997E+02  0.45594000000E+02  0.51100000000E-03 0.  1.
         23    2    1    2    0    0 -0.88817841970E-15 -0.71054273576E-14  0.00000000000E+00  0.91188000000E+02  0.91188000000E+02 0.  0.
    9900012    2    3    3    0    0  0.47873582689E+01  0.41530153123E+02 -0.11659825439E+02  0.47787263291E+02  0.19999964648E+02 0.  0.
         12    1    3    3    0    0 -0.47873582689E+01 -0.41530153123E+02  0.11659825439E+02  0.43400736709E+02  0.00000000000E+00 0. -1.
         11    1    4    4    0    0  0.81312894440E+01  0.52179554347E+01 -0.37914441724E+01  0.10378823446E+02  0.51100000000E-03 0. -1.
        -11    1    4    4    0    0 -0.56831766854E+00  0.18074060680E+02 -0.47743252478E+01  0.18702642495E+02  0.51100000000E-03 0.  1.
         12    1    4    4    0    0 -0.27756135065E+01  0.18238137008E+02 -0.30940560190E+01  0.18705797351E+02  0.00000000000E+00 0. -1.
</event>
<event>
 8    1  0.6239251E-010  0.9118800E+02  0.7816164E-02  0.1184000E+00
        -11   -1    0    0    0    0  0.00000000000E+00  0.00000000000E+00  0.45593999997E+02  0.45594000000E+02  0.51100000000E-03 0. -1.
         11   -1    0    0    0    0 -0.00000000000E+00 -0.00000000000E+00 -0.45593999997E+02  0.45594000000E+02  0.51100000000E-03 0.  1.
         23    2    1    2    0    0  0.00000000000E+00 -0.35527136788E-14  0.35527136788E-14  0.91188000000E+02  0.91188000000E+02 0.  0.
    9900012    2    3    3    0    0 -0.18141925874E+02  0.24103650586E+02 -0.31201086293E+02  0.47787271528E+02  0.20000002205E+02 0.  0.
         12    1    3    3    0    0  0.18141925874E+02 -0.24103650586E+02  0.31201086293E+02  0.43400728472E+02  0.00000000000E+00 0. -1.
         11    1    4    4    0    0 -0.54921449443E+01  0.10235939734E+02 -0.22040912442E+02  0.24914653115E+02  0.51100000000E-03 0. -1.
        -11    1    4    4    0    0 -0.91264231498E+01  0.75998062525E+01 -0.10139445184E+02  0.15615921474E+02  0.51100000000E-03 0.  1.
         12    1    4    4    0    0 -0.35233577797E+01  0.62679045996E+01  0.97927133272E+00  0.72566969385E+01  0.00000000000E+00 0. -1.
</event>
<event>
 8    1  0.6239251E-010  0.9118800E+02  0.7816164E-02  0.1184000E+00
        -11   -1    0    0    0    0  0.00000000000E+00  0.00000000000E+00  0.45593999997E+02  0.45594000000E+02  0.51100000000E-03 0. -1.
         11   -1    0    0    0    0 -0.00000000000E+00 -0.00000000000E+00 -0.45593999997E+02  0.45594000000E+02  0.51100000000E-03 0.  1.
         23    2    1    2    0    0  0.00000000000E+00  0.00000000000E+00  0.00000000000E+00  0.91188000000E+02  0.91188000000E+02 0.  0.
    9900012    2    3    3    0    0 -0.19057890571E+02  0.12182020412E+02 -0.37040762830E+02  0.47787275059E+02  0.20000018305E+02 0.  0.
         12    1    3    3    0    0  0.19057890571E+02 -0.12182020412E+02  0.37040762830E+02  0.43400724941E+02  0.00000000000E+00 0. -1.
         11    1    4    4    0    0 -0.21927492136E+01  0.63956785043E+01 -0.64871214411E+01  0.93699304958E+01  0.51100000000E-03 0. -1.
        -11    1    4    4    0    0 -0.17599848289E+02  0.79794127239E+01 -0.20791958165E+02  0.28385404909E+02  0.51100000000E-03 0.  1.
        -12    1    4    4    0    0  0.73470693146E+00 -0.21930708161E+01 -0.97616832236E+01  0.10031939655E+02  0.00000000000E+00 0.  1.
</event>
<event>
 8    1  0.6239251E-010  0.9118800E+02  0.7816164E-02  0.1184000E+00
        -11   -1    0    0    0    0  0.00000000000E+00  0.00000000000E+00  0.45593999997E+02  0.45594000000E+02  0.51100000000E-03 0.  1.
         11   -1    0    0    0    0 -0.00000000000E+00 -0.00000000000E+00 -0.45593999997E+02  0.45594000000E+02  0.51100000000E-03 0. -1.
         23    2    1    2    0    0  0.00000000000E+00  0.00000000000E+00  0.00000000000E+00  0.91188000000E+02  0.91188000000E+02 0.  0.
    9900012    2    3    3    0    0  0.33872550537E+02 -0.24924399353E+02  0.10726045188E+02  0.47787269495E+02  0.19999992934E+02 0.  0.
        -12    1    3    3    0    0 -0.33872550537E+02  0.24924399353E+02 -0.10726045188E+02  0.43400730505E+02  0.00000000000E+00 0.  1.
         11    1    4    4    0    0  0.21886900878E+02 -0.17955489982E+02 -0.95204623435E+00  0.28325649910E+02  0.51100000000E-03 0. -1.
        -11    1    4    4    0    0  0.64773649116E+01 -0.65421942526E+01  0.40865945240E+01  0.10072577471E+02  0.51100000000E-03 0.  1.
         12    1    4    4    0    0  0.55082847474E+01 -0.42671511879E+00  0.75914968986E+01  0.93890421137E+01  0.00000000000E+00 0. -1.
</event>
<event>
 8    1  0.6239251E-010  0.9118800E+02  0.7816164E-02  0.1184000E+00
        -11   -1    0    0    0    0  0.00000000000E+00  0.00000000000E+00  0.45593999997E+02  0.45594000000E+02  0.51100000000E-03 0. -1.
         11   -1    0    0    0    0 -0.00000000000E+00 -0.00000000000E+00 -0.45593999997E+02  0.45594000000E+02  0.51100000000E-03 0.  1.
         23    2    1    2    0    0  0.00000000000E+00  0.00000000000E+00  0.00000000000E+00  0.91188000000E+02  0.91188000000E+02 0.  0.
    9900012    2    3    3    0    0  0.27890791200E+02  0.66082986449E+01  0.32589226202E+02  0.47787268334E+02  0.19999987641E+02 0.  0.
        -12    1    3    3    0    0 -0.27890791200E+02 -0.66082986449E+01 -0.32589226202E+02  0.43400731666E+02  0.00000000000E+00 0.  1.
         11    1    4    4    0    0  0.18517401494E+01 -0.20025494254E+01  0.12685480094E+02  0.12975382509E+02  0.51100000000E-03 0. -1.
        -11    1    4    4    0    0  0.10427708723E+02  0.73620054947E+01  0.72672601946E+01  0.14688407167E+02  0.51100000000E-03 0.  1.
         12    1    4    4    0    0  0.15611342328E+02  0.12488425756E+01  0.12636485913E+02  0.20123478657E+02  0.00000000000E+00 0. -1.
</event>
<event>
 8    1  0.6239251E-010  0.9118800E+02  0.7816164E-02  0.1184000E+00
        -11   -1    0    0    0    0  0.00000000000E+00  0.00000000000E+00  0.45593999997E+02  0.45594000000E+02  0.51100000000E-03 0. -1.
         11   -1    0    0    0    0 -0.00000000000E+00 -0.00000000000E+00 -0.45593999997E+02  0.45594000000E+02  0.51100000000E-03 0.  1.
         23    2    1    2    0    0  0.00000000000E+00 -0.17763568394E-14  0.35527136788E-14  0.91188000000E+02  0.91188000000E+02 0.  0.
    9900012    2    3    3    0    0  0.27631764835E+02  0.14888176429E+02  0.29974170454E+02  0.47787272821E+02  0.20000008098E+02 0.  0.
        -12    1    3    3    0    0 -0.27631764835E+02 -0.14888176429E+02 -0.29974170454E+02  0.43400727179E+02  0.00000000000E+00 0.  1.
         11    1    4    4    0    0  0.16559014855E+02  0.11340100958E+02  0.86733038789E+01  0.21863784282E+02  0.51100000000E-03 0. -1.
        -11    1    4    4    0    0  0.11850279111E+01  0.30533159193E+01  0.11635306623E+02  0.12087488975E+02  0.51100000000E-03 0.  1.
         12    1    4    4    0    0  0.98877220688E+01  0.49475955207E+00  0.96655599527E+01  0.13835999564E+02  0.00000000000E+00 0. -1.
</event>
<event>
 8    1  0.6239251E-010  0.9118800E+02  0.7816164E-02  0.1184000E+00
        -11   -1    0    0    0    0  0.00000000000E+00  0.00000000000E+00  0.45593999997E+02  0.45594000000E+02  0.51100000000E-03 0.  1.
         11   -1    0    0    0    0 -0.00000000000E+00 -0.00000000000E+00 -0.45593999997E+02  0.45594000000E+02  0.51100000000E-03 0. -1.
         23    2    1    2    0    0  0.00000000000E+00  0.00000000000E+00  0.00000000000E+00  0.91188000000E+02  0.91188000000E+02 0.  0.
    9900012    2    3    3    0    0  0.20332144864E+01 -0.42132921233E+02 -0.10213059493E+02  0.47787267322E+02  0.19999983027E+02 0.  0.
         12    1    3    3    0    0 -0.20332144864E+01  0.42132921233E+02  0.10213059493E+02  0.43400732678E+02  0.00000000000E+00 0. -1.
         11    1    4    4    0    0  0.70116268665E+01 -0.14448914470E+02 -0.38827597189E+01  0.16523010137E+02  0.51100000000E-03 0. -1.
        -11    1    4    4    0    0 -0.88957581026E+01 -0.21241488150E+02 -0.55160442199E+01  0.23680415434E+02  0.51100000000E-03 0.  1.
        -12    1    4    4    0    0  0.39173457225E+01 -0.64425186134E+01 -0.81425555388E+00  0.75838417507E+01  0.00000000000E+00 0.  1.
</event>
<event>
 8    1  0.6239251E-010  0.9118800E+02  0.7816164E-02  0.1184000E+00
        -11   -1    0    0    0    0  0.00000000000E+00  0.00000000000E+00  0.45593999997E+02  0.45594000000E+02  0.51100000000E-03 0. -1.
         11   -1    0    0    0    0 -0.00000000000E+00 -0.00000000000E+00 -0.45593999997E+02  0.45594000000E+02  0.51100000000E-03 0.  1.
         23    2    1    2    0    0  0.71054273576E-14  0.00000000000E+00  0.71054273576E-14  0.91188000000E+02  0.91188000000E+02 0.  0.
    9900012    2    3    3    0    0 -0.27418900235E+02  0.16435164309E+02 -0.29354936435E+02  0.47787274095E+02  0.20000013911E+02 0.  0.
         12    1    3    3    0    0  0.27418900235E+02 -0.16435164309E+02  0.29354936435E+02  0.43400725905E+02  0.00000000000E+00 0. -1.
         11    1    4    4    0    0 -0.24521447718E+01  0.17676319212E+01  0.17446511316E+01  0.34901782796E+01  0.51100000000E-03 0. -1.
        -11    1    4    4    0    0 -0.24603701994E+02  0.10243950610E+02 -0.23680682841E+02  0.35651864130E+02  0.51100000000E-03 0.  1.
         12    1    4    4    0    0 -0.36305346906E+00  0.44235817784E+01 -0.74189047254E+01  0.86452316855E+01  0.00000000000E+00 0. -1.
</event>
<event>
 8    1  0.6239251E-010  0.9118800E+02  0.7816164E-02  0.1184000E+00
        -11   -1    0    0    0    0  0.00000000000E+00  0.00000000000E+00  0.45593999997E+02  0.45594000000E+02  0.51100000000E-03 0. -1.
         11   -1    0    0    0    0 -0.00000000000E+00 -0.00000000000E+00 -0.45593999997E+02  0.45594000000E+02  0.51100000000E-03 0.  1.
         23    2    1    2    0    0 -0.88817841970E-15  0.00000000000E+00  0.00000000000E+00  0.91188000000E+02  0.91188000000E+02 0.  0.
    9900012    2    3    3    0    0 -0.55839120830E+01  0.24026977994E+02  0.35709210109E+02  0.47787269219E+02  0.19999991679E+02 0.  0.
        -12    1    3    3    0    0  0.55839120830E+01 -0.24026977994E+02 -0.35709210109E+02  0.43400730781E+02  0.00000000000E+00 0.  1.
         11    1    4    4    0    0 -0.26009093547E+01  0.20738864452E+01  0.15491845304E+02  0.15844967834E+02  0.51100000000E-03 0. -1.
        -11    1    4    4    0    0  0.35526992028E+00  0.21254901901E+02  0.18165343774E+02  0.27962059763E+02  0.51100000000E-03 0.  1.
        -12    1    4    4    0    0 -0.33382726486E+01  0.69818964828E+00  0.20520210314E+01  0.39802416226E+01  0.00000000000E+00 0.  1.
</event>
<event>
 8    1  0.6239251E-010  0.9118800E+02  0.7816164E-02  0.1184000E+00
        -11   -1    0    0    0    0  0.00000000000E+00  0.00000000000E+00  0.45593999997E+02  0.45594000000E+02  0.51100000000E-03 0. -1.
         11   -1    0    0    0    0 -0.00000000000E+00 -0.00000000000E+00 -0.45593999997E+02  0.45594000000E+02  0.51100000000E-03 0.  1.
         23    2    1    2    0    0  0.17763568394E-14 -0.17763568394E-14  0.00000000000E+00  0.91188000000E+02  0.91188000000E+02 0.  0.
    9900012    2    3    3    0    0 -0.14423761296E+02 -0.11955877967E+02 -0.39148883195E+02  0.47787274623E+02  0.20000016316E+02 0.  0.
         12    1    3    3    0    0  0.14423761296E+02  0.11955877967E+02  0.39148883195E+02  0.43400725377E+02  0.00000000000E+00 0. -1.
         11    1    4    4    0    0 -0.10211536237E+02 -0.69706722215E+01 -0.33130639806E+02  0.35362480650E+02  0.51100000000E-03 0.  1.
        -11    1    4    4    0    0 -0.40786173927E+00  0.15936702755E+01  0.11266537441E+01  0.19938618472E+01  0.51100000000E-03 0. -1.
         12    1    4    4    0    0 -0.38043633197E+01 -0.65788760210E+01 -0.71448971329E+01  0.10430932125E+02  0.00000000000E+00 0. -1.
</event>
<event>
 8    1  0.6239251E-010  0.9118800E+02  0.7816164E-02  0.1184000E+00
        -11   -1    0    0    0    0  0.00000000000E+00  0.00000000000E+00  0.45593999997E+02  0.45594000000E+02  0.51100000000E-03 0. -1.
         11   -1    0    0    0    0 -0.00000000000E+00 -0.00000000000E+00 -0.45593999997E+02  0.45594000000E+02  0.51100000000E-03 0.  1.
         23    2    1    2    0    0 -0.17763568394E-14 -0.35527136788E-14  0.00000000000E+00  0.91188000000E+02  0.91188000000E+02 0.  0.
    9900012    2    3    3    0    0  0.93761411209E+01  0.22252383611E+02  0.36063038007E+02  0.47787270640E+02  0.19999998155E+02 0.  0.
        -12    1    3    3    0    0 -0.93761411209E+01 -0.22252383611E+02 -0.36063038007E+02  0.43400729360E+02  0.00000000000E+00 0.  1.
         11    1    4    4    0    0  0.11552956189E+02  0.74267650012E+01  0.17210236048E+02  0.22018625302E+02  0.51100000000E-03 0. -1.
        -11    1    4    4    0    0 -0.42309679049E+01  0.66593707335E+01  0.43789161674E+01  0.90234813149E+01  0.51100000000E-03 0.  1.
        -12    1    4    4    0    0  0.20541528367E+01  0.81662478766E+01  0.14473885791E+02  0.16745164023E+02  0.00000000000E+00 0.  1.
</event>
<event>
 8    1  0.6239251E-010  0.9118800E+02  0.7816164E-02  0.1184000E+00
        -11   -1    0    0    0    0  0.00000000000E+00  0.00000000000E+00  0.45593999997E+02  0.45594000000E+02  0.51100000000E-03 0. -1.
         11   -1    0    0    0    0 -0.00000000000E+00 -0.00000000000E+00 -0.45593999997E+02  0.45594000000E+02  0.51100000000E-03 0.  1.
         23    2    1    2    0    0 -0.44408920985E-15 -0.17763568394E-14  0.00000000000E+00  0.91188000000E+02  0.91188000000E+02 0.  0.
    9900012    2    3    3    0    0  0.38426578032E+01  0.67004545771E+01 -0.42707855248E+02  0.47787274079E+02  0.20000013837E+02 0.  0.
         12    1    3    3    0    0 -0.38426578032E+01 -0.67004545771E+01  0.42707855248E+02  0.43400725921E+02  0.00000000000E+00 0. -1.
         11    1    4    4    0    0  0.63415100153E+01  0.89333971860E+01 -0.15181203707E+02  0.18721358947E+02  0.51100000000E-03 0. -1.
        -11    1    4    4    0    0 -0.23571785670E+01 -0.53802333117E+01 -0.21193147159E+02  0.21992105130E+02  0.51100000000E-03 0.  1.
        -12    1    4    4    0    0 -0.14167364514E+00  0.31472907028E+01 -0.63335043820E+01  0.70738100022E+01  0.00000000000E+00 0.  1.
</event>
<event>
 8    1  0.6239251E-010  0.9118800E+02  0.7816164E-02  0.1184000E+00
        -11   -1    0    0    0    0  0.00000000000E+00  0.00000000000E+00  0.45593999997E+02  0.45594000000E+02  0.51100000000E-03 0. -1.
         11   -1    0    0    0    0 -0.00000000000E+00 -0.00000000000E+00 -0.45593999997E+02  0.45594000000E+02  0.51100000000E-03 0.  1.
         23    2    1    2    0    0 -0.10658141036E-13  0.17763568394E-14 -0.35527136788E-14  0.91188000000E+02  0.91188000000E+02 0.  0.
    9900012    2    3    3    0    0 -0.31960407264E+02  0.84999937429E+01 -0.28105251963E+02  0.47787277494E+02  0.20000029408E+02 0.  0.
         12    1    3    3    0    0  0.31960407264E+02 -0.84999937429E+01  0.28105251963E+02  0.43400722506E+02  0.00000000000E+00 0. -1.
         11    1    4    4    0    0  0.17015694159E+01  0.15516272313E+01  0.88450417548E+00  0.24668265929E+01  0.51100000000E-03 0. -1.
        -11    1    4    4    0    0 -0.28905801144E+02  0.75267529232E+01 -0.26451774145E+02  0.39898542642E+02  0.51100000000E-03 0.  1.
         12    1    4    4    0    0 -0.47561755357E+01 -0.57838641165E+00 -0.25379819943E+01  0.54219082592E+01  0.00000000000E+00 0. -1.
</event>
<event>
 8    1  0.6239251E-010  0.9118800E+02  0.7816164E-02  0.1184000E+00
        -11   -1    0    0    0    0  0.00000000000E+00  0.00000000000E+00  0.45593999997E+02  0.45594000000E+02  0.51100000000E-03 0.  1.
         11   -1    0    0    0    0 -0.00000000000E+00 -0.00000000000E+00 -0.45593999997E+02  0.45594000000E+02  0.51100000000E-03 0. -1.
         23    2    1    2    0    0 -0.71054273576E-14  0.88817841970E-15  0.00000000000E+00  0.91188000000E+02  0.91188000000E+02 0.  0.
    9900012    2    3    3    0    0 -0.42791146619E+02  0.65963202281E+01 -0.30049644441E+01  0.47787268660E+02  0.19999989130E+02 0.  0.
         12    1    3    3    0    0  0.42791146619E+02 -0.65963202281E+01  0.30049644441E+01  0.43400731340E+02  0.00000000000E+00 0. -1.
         11    1    4    4    0    0 -0.16440605041E+01 -0.29392847982E+00 -0.31379575271E+01  0.35547301720E+01  0.51100000000E-03 0. -1.
        -11    1    4    4    0    0 -0.29596193449E+02  0.64652701130E+01  0.65756395089E+01  0.30999571279E+02  0.51100000000E-03 0.  1.
        -12    1    4    4    0    0 -0.11550892666E+02  0.42497859496E+00 -0.64426464259E+01  0.13232967209E+02  0.00000000000E+00 0.  1.
</event>
<event>
 8    1  0.6239251E-010  0.9118800E+02  0.7816164E-02  0.1184000E+00
        -11   -1    0    0    0    0  0.00000000000E+00  0.00000000000E+00  0.45593999997E+02  0.45594000000E+02  0.51100000000E-03 0. -1.
         11   -1    0    0    0    0 -0.00000000000E+00 -0.00000000000E+00 -0.45593999997E+02  0.45594000000E+02  0.51100000000E-03 0.  1.
         23    2    1    2    0    0  0.71054273576E-14 -0.88817841970E-15  0.35527136788E-14  0.91188000000E+02  0.91188000000E+02 0.  0.
    9900012    2    3    3    0    0  0.38367865573E+02 -0.27273250431E+01  0.20102033772E+02  0.47787272215E+02  0.20000005336E+02 0.  0.
        -12    1    3    3    0    0 -0.38367865573E+02  0.27273250431E+01 -0.20102033772E+02  0.43400727785E+02  0.00000000000E+00 0.  1.
         11    1    4    4    0    0  0.16192712442E+02 -0.33275248382E+01  0.10073510602E+02  0.19358511665E+02  0.51100000000E-03 0. -1.
        -11    1    4    4    0    0  0.20868041501E+02  0.42408975325E+01  0.11605113153E+02  0.24251577671E+02  0.51100000000E-03 0.  1.
        -12    1    4    4    0    0  0.13071116300E+01 -0.36406977374E+01 -0.15765899829E+01  0.41771828787E+01  0.00000000000E+00 0.  1.
</event>
<event>
 8    1  0.6239251E-010  0.9118800E+02  0.7816164E-02  0.1184000E+00
        -11   -1    0    0    0    0  0.00000000000E+00  0.00000000000E+00  0.45593999997E+02  0.45594000000E+02  0.51100000000E-03 0.  1.
         11   -1    0    0    0    0 -0.00000000000E+00 -0.00000000000E+00 -0.45593999997E+02  0.45594000000E+02  0.51100000000E-03 0. -1.
         23    2    1    2    0    0  0.71054273576E-14  0.00000000000E+00  0.00000000000E+00  0.91188000000E+02  0.91188000000E+02 0.  0.
    9900012    2    3    3    0    0 -0.33100075107E+02 -0.24456251192E+02  0.13780408722E+02  0.47787275824E+02  0.20000021790E+02 0.  0.
         12    1    3    3    0    0  0.33100075107E+02  0.24456251192E+02 -0.13780408722E+02  0.43400724176E+02  0.00000000000E+00 0. -1.
         11    1    4    4    0    0 -0.19559028833E+02 -0.17565223554E+02  0.16294696747E+01  0.26339093741E+02  0.51100000000E-03 0. -1.
        -11    1    4    4    0    0 -0.94073957670E+01 -0.88690069340E+01  0.76381910536E+01  0.15016668803E+02  0.51100000000E-03 0.  1.
         12    1    4    4    0    0 -0.41336505070E+01  0.19779792957E+01  0.45127479941E+01  0.64315132796E+01  0.00000000000E+00 0. -1.
</event>
<event>
 8    1  0.6239251E-010  0.9118800E+02  0.7816164E-02  0.1184000E+00
        -11   -1    0    0    0    0  0.00000000000E+00  0.00000000000E+00  0.45593999997E+02  0.45594000000E+02  0.51100000000E-03 0. -1.
         11   -1    0    0    0    0 -0.00000000000E+00 -0.00000000000E+00 -0.45593999997E+02  0.45594000000E+02  0.51100000000E-03 0.  1.
         23    2    1    2    0    0 -0.99920072216E-15 -0.35527136788E-14  0.00000000000E+00  0.91188000000E+02  0.91188000000E+02 0.  0.
    9900012    2    3    3    0    0  0.36272726595E+00  0.29353511861E+02 -0.31966599422E+02  0.47787266040E+02  0.19999977183E+02 0.  0.
         12    1    3    3    0    0 -0.36272726595E+00 -0.29353511861E+02  0.31966599422E+02  0.43400733960E+02  0.00000000000E+00 0. -1.
         11    1    4    4    0    0 -0.85225703790E+01  0.65734587177E+01 -0.87721141155E+01  0.13885047774E+02  0.51100000000E-03 0. -1.
        -11    1    4    4    0    0  0.71304052314E+01  0.17805205504E+02 -0.20116445711E+02  0.27794593182E+02  0.51100000000E-03 0.  1.
         12    1    4    4    0    0  0.17548924135E+01  0.49748476396E+01 -0.30780395949E+01  0.61076250842E+01  0.00000000000E+00 0. -1.
</event>
<event>
 8    1  0.6239251E-010  0.9118800E+02  0.7816164E-02  0.1184000E+00
        -11   -1    0    0    0    0  0.00000000000E+00  0.00000000000E+00  0.45593999997E+02  0.45594000000E+02  0.51100000000E-03 0. -1.
         11   -1    0    0    0    0 -0.00000000000E+00 -0.00000000000E+00 -0.45593999997E+02  0.45594000000E+02  0.51100000000E-03 0.  1.
         23    2    1    2    0    0  0.88817841970E-15  0.00000000000E+00  0.00000000000E+00  0.91188000000E+02  0.91188000000E+02 0.  0.
    9900012    2    3    3    0    0 -0.54577578402E+01 -0.14261542619E+02 -0.40625663286E+02  0.47787271481E+02  0.20000001992E+02 0.  0.
         12    1    3    3    0    0  0.54577578402E+01  0.14261542619E+02  0.40625663286E+02  0.43400728519E+02  0.00000000000E+00 0. -1.
         11    1    4    4    0    0  0.15253537507E+01  0.11155817035E+01 -0.28159393048E+00  0.19106339274E+01  0.51100000000E-03 0. -1.
        -11    1    4    4    0    0 -0.25791616685E+01 -0.15821042526E+02 -0.37018946658E+02  0.40340548750E+02  0.51100000000E-03 0.  1.
        -12    1    4    4    0    0 -0.44039499224E+01  0.44391820385E+00 -0.33251226979E+01  0.55360888041E+01  0.00000000000E+00 0.  1.
</event>
<event>
 8    1  0.6239251E-010  0.9118800E+02  0.7816164E-02  0.1184000E+00
        -11   -1    0    0    0    0  0.00000000000E+00  0.00000000000E+00  0.45593999997E+02  0.45594000000E+02  0.51100000000E-03 0. -1.
         11   -1    0    0    0    0 -0.00000000000E+00 -0.00000000000E+00 -0.45593999997E+02  0.45594000000E+02  0.51100000000E-03 0.  1.
         23    2    1    2    0    0 -0.88817841970E-15  0.35527136788E-14  0.00000000000E+00  0.91188000000E+02  0.91188000000E+02 0.  0.
    9900012    2    3    3    0    0 -0.76875395482E+01 -0.29701065709E+02 -0.30698080693E+02  0.47787265827E+02  0.19999976210E+02 0.  0.
         12    1    3    3    0    0  0.76875395482E+01  0.29701065709E+02  0.30698080693E+02  0.43400734173E+02  0.00000000000E+00 0. -1.
         11    1    4    4    0    0 -0.30044324885E+01 -0.20840628482E+02 -0.23254879495E+02  0.31371130529E+02  0.51100000000E-03 0. -1.
        -11    1    4    4    0    0 -0.12940566784E+00  0.14320069671E+01 -0.45834613381E+01  0.48036973135E+01  0.51100000000E-03 0.  1.
         12    1    4    4    0    0 -0.45537013919E+01 -0.10292444195E+02 -0.28597398598E+01  0.11612437984E+02  0.00000000000E+00 0. -1.
</event>
<event>
 8    1  0.6239251E-010  0.9118800E+02  0.7816164E-02  0.1184000E+00
        -11   -1    0    0    0    0  0.00000000000E+00  0.00000000000E+00  0.45593999997E+02  0.45594000000E+02  0.51100000000E-03 0. -1.
         11   -1    0    0    0    0 -0.00000000000E+00 -0.00000000000E+00 -0.45593999997E+02  0.45594000000E+02  0.51100000000E-03 0.  1.
         23    2    1    2    0    0  0.00000000000E+00  0.00000000000E+00  0.35527136788E-14  0.91188000000E+02  0.91188000000E+02 0.  0.
    9900012    2    3    3    0    0 -0.28198831817E+02  0.19611365221E+02  0.26530044724E+02  0.47787273799E+02  0.20000012561E+02 0.  0.
        -12    1    3    3    0    0  0.28198831817E+02 -0.19611365221E+02 -0.26530044724E+02  0.43400726201E+02  0.00000000000E+00 0.  1.
         11    1    4    4    0    0 -0.22422529234E+02  0.14285990793E+02  0.22597277896E+02  0.34892639894E+02  0.51100000000E-03 0. -1.
        -11    1    4    4    0    0 -0.33840526512E+01 -0.53643139812E+00 -0.22067801613E+01  0.40754692898E+01  0.51100000000E-03 0.  1.
         12    1    4    4    0    0 -0.23922499315E+01  0.58618058262E+01  0.61395469899E+01  0.88191646158E+01  0.00000000000E+00 0. -1.
</event>
<event>
 8    1  0.6239251E-010  0.9118800E+02  0.7816164E-02  0.1184000E+00
        -11   -1    0    0    0    0  0.00000000000E+00  0.00000000000E+00  0.45593999997E+02  0.45594000000E+02  0.51100000000E-03 0. -1.
         11   -1    0    0    0    0 -0.00000000000E+00 -0.00000000000E+00 -0.45593999997E+02  0.45594000000E+02  0.51100000000E-03 0.  1.
         23    2    1    2    0    0  0.00000000000E+00  0.00000000000E+00  0.00000000000E+00  0.91188000000E+02  0.91188000000E+02 0.  0.
    9900012    2    3    3    0    0  0.28572645131E+02  0.16515848701E+02  0.28186078035E+02  0.47787259188E+02  0.19999945939E+02 0.  0.
        -12    1    3    3    0    0 -0.28572645131E+02 -0.16515848701E+02 -0.28186078035E+02  0.43400740812E+02  0.00000000000E+00 0.  1.
         11    1    4    4    0    0  0.15696738629E+02  0.11351990673E+02  0.42958679500E+01  0.19842121296E+02  0.51100000000E-03 0. -1.
        -11    1    4    4    0    0  0.66348353210E+01  0.40095926518E+00  0.10909372109E+02  0.12774827128E+02  0.51100000000E-03 0.  1.
         12    1    4    4    0    0  0.62410711808E+01  0.47628987627E+01  0.12980837976E+02  0.15170310764E+02  0.00000000000E+00 0. -1.
</event>
<event>
 8    1  0.6239251E-010  0.9118800E+02  0.7816164E-02  0.1184000E+00
        -11   -1    0    0    0    0  0.00000000000E+00  0.00000000000E+00  0.45593999997E+02  0.45594000000E+02  0.51100000000E-03 0.  1.
         11   -1    0    0    0    0 -0.00000000000E+00 -0.00000000000E+00 -0.45593999997E+02  0.45594000000E+02  0.51100000000E-03 0. -1.
         23    2    1    2    0    0  0.71054273576E-14  0.35527136788E-14 -0.88817841970E-15  0.91188000000E+02  0.91188000000E+02 0.  0.
    9900012    2    3    3    0    0  0.33858997420E+02  0.26147715699E+02 -0.73135900298E+01  0.47787270264E+02  0.19999996439E+02 0.  0.
        -12    1    3    3    0    0 -0.33858997420E+02 -0.26147715699E+02  0.73135900298E+01  0.43400729736E+02  0.00000000000E+00 0.  1.
         11    1    4    4    0    0  0.21105021168E+02  0.88515269229E+01 -0.18767272880E+01  0.22962873360E+02  0.51100000000E-03 0. -1.
        -11    1    4    4    0    0  0.35727439594E+01  0.10586153317E+02 -0.72356767399E+01  0.13311129163E+02  0.51100000000E-03 0.  1.
         12    1    4    4    0    0  0.91812322921E+01  0.67100354586E+01  0.17988139980E+01  0.11513267740E+02  0.00000000000E+00 0. -1.
</event>
<event>
 8    1  0.6239251E-010  0.9118800E+02  0.7816164E-02  0.1184000E+00
        -11   -1    0    0    0    0  0.00000000000E+00  0.00000000000E+00  0.45593999997E+02  0.45594000000E+02  0.51100000000E-03 0. -1.
         11   -1    0    0    0    0 -0.00000000000E+00 -0.00000000000E+00 -0.45593999997E+02  0.45594000000E+02  0.51100000000E-03 0.  1.
         23    2    1    2    0    0 -0.35527136788E-14 -0.66613381478E-15 -0.71054273576E-14  0.91188000000E+02  0.91188000000E+02 0.  0.
    9900012    2    3    3    0    0 -0.24530922553E+02  0.19160866439E+01 -0.35751727774E+02  0.47787267424E+02  0.19999983491E+02 0.  0.
         12    1    3    3    0    0  0.24530922553E+02 -0.19160866439E+01  0.35751727774E+02  0.43400732576E+02  0.00000000000E+00 0. -1.
         11    1    4    4    0    0 -0.82096860549E+00  0.49993826323E+01 -0.11331425313E+02  0.12412454070E+02  0.51100000000E-03 0. -1.
        -11    1    4    4    0    0 -0.13090491786E+02 -0.35110459249E+01 -0.19284881065E+02  0.23571063970E+02  0.51100000000E-03 0.  1.
         12    1    4    4    0    0 -0.10619462161E+02  0.42774993649E+00 -0.51354213955E+01  0.11803749384E+02  0.00000000000E+00 0. -1.
</event>
<event>
 8    1  0.6239251E-010  0.9118800E+02  0.7816164E-02  0.1184000E+00
        -11   -1    0    0    0    0  0.00000000000E+00  0.00000000000E+00  0.45593999997E+02  0.45594000000E+02  0.51100000000E-03 0. -1.
         11   -1    0    0    0    0 -0.00000000000E+00 -0.00000000000E+00 -0.45593999997E+02  0.45594000000E+02  0.51100000000E-03 0.  1.
         23    2    1    2    0    0  0.00000000000E+00 -0.35527136788E-14  0.00000000000E+00  0.91188000000E+02  0.91188000000E+02 0.  0.
    9900012    2    3    3    0    0  0.12993106208E+02 -0.21509639612E+02 -0.35385553518E+02  0.47787276470E+02  0.20000024736E+02 0.  0.
         12    1    3    3    0    0 -0.12993106208E+02  0.21509639612E+02  0.35385553518E+02  0.43400723530E+02  0.00000000000E+00 0. -1.
         11    1    4    4    0    0  0.13601795524E+02 -0.55828478480E+01 -0.14071082502E+02  0.20351225874E+02  0.51100000000E-03 0. -1.
        -11    1    4    4    0    0  0.42572173270E+00 -0.11415057286E+02 -0.98900515875E+01  0.15109529857E+02  0.51100000000E-03 0.  1.
         12    1    4    4    0    0 -0.10344110485E+01 -0.45117344778E+01 -0.11424419429E+02  0.12326520738E+02  0.00000000000E+00 0. -1.
</event>
<event>
 8    1  0.6239251E-010  0.9118800E+02  0.7816164E-02  0.1184000E+00
        -11   -1    0    0    0    0  0.00000000000E+00  0.00000000000E+00  0.45593999997E+02  0.45594000000E+02  0.51100000000E-03 0. -1.
         11   -1    0    0    0    0 -0.00000000000E+00 -0.00000000000E+00 -0.45593999997E+02  0.45594000000E+02  0.51100000000E-03 0.  1.
         23    2    1    2    0    0  0.00000000000E+00  0.71054273576E-14  0.00000000000E+00  0.91188000000E+02  0.91188000000E+02 0.  0.
    9900012    2    3    3    0    0  0.18852714091E+02  0.36603127066E+02 -0.13726246551E+02  0.47787267472E+02  0.19999983711E+02 0.  0.
         12    1    3    3    0    0 -0.18852714091E+02 -0.36603127066E+02  0.13726246551E+02  0.43400732528E+02  0.00000000000E+00 0. -1.
         11    1    4    4    0    0  0.16500563706E+02  0.15055157132E+02 -0.25917716009E+01  0.22486521278E+02  0.51100000000E-03 0. -1.
        -11    1    4    4    0    0  0.27071892259E+01  0.37804840817E+01 -0.40615610158E+01  0.61739137946E+01  0.51100000000E-03 0.  1.
         12    1    4    4    0    0 -0.35503884152E+00  0.17767485853E+02 -0.70729139340E+01  0.19126832399E+02  0.00000000000E+00 0. -1.
</event>
<event>
 8    1  0.6239251E-010  0.9118800E+02  0.7816164E-02  0.1184000E+00
        -11   -1    0    0    0    0  0.00000000000E+00  0.00000000000E+00  0.45593999997E+02  0.45594000000E+02  0.51100000000E-03 0. -1.
         11   -1    0    0    0    0 -0.00000000000E+00 -0.00000000000E+00 -0.45593999997E+02  0.45594000000E+02  0.51100000000E-03 0.  1.
         23    2    1    2    0    0 -0.35527136788E-14  0.35527136788E-14  0.35527136788E-14  0.91188000000E+02  0.91188000000E+02 0.  0.
    9900012    2    3    3    0    0 -0.25181278918E+02  0.29228904056E+02  0.19879582329E+02  0.47787269202E+02  0.19999991601E+02 0.  0.
        -12    1    3    3    0    0  0.25181278918E+02 -0.29228904056E+02 -0.19879582329E+02  0.43400730798E+02  0.00000000000E+00 0.  1.
         11    1    4    4    0    0 -0.46890283660E+00  0.25156944138E+01 -0.17556047397E+01  0.31033427973E+01  0.51100000000E-03 0.  1.
        -11    1    4    4    0    0 -0.11619187398E+02  0.37365015823E+01  0.10057525282E+02  0.15815207078E+02  0.51100000000E-03 0. -1.
         12    1    4    4    0    0 -0.13093188683E+02  0.22976708059E+02  0.11577661787E+02  0.28868719327E+02  0.00000000000E+00 0. -1.
</event>
<event>
 8    1  0.6239251E-010  0.9118800E+02  0.7816164E-02  0.1184000E+00
        -11   -1    0    0    0    0  0.00000000000E+00  0.00000000000E+00  0.45593999997E+02  0.45594000000E+02  0.51100000000E-03 0. -1.
         11   -1    0    0    0    0 -0.00000000000E+00 -0.00000000000E+00 -0.45593999997E+02  0.45594000000E+02  0.51100000000E-03 0.  1.
         23    2    1    2    0    0  0.00000000000E+00  0.00000000000E+00  0.44408920985E-15  0.91188000000E+02  0.91188000000E+02 0.  0.
    9900012    2    3    3    0    0  0.42995708230E+02  0.45357974118E+01 -0.37974132909E+01  0.47787254245E+02  0.19999923405E+02 0.  0.
         12    1    3    3    0    0 -0.42995708230E+02 -0.45357974118E+01  0.37974132909E+01  0.43400745755E+02  0.00000000000E+00 0. -1.
         11    1    4    4    0    0  0.33289284345E+02  0.56784152842E+01  0.13713232100E+01  0.33797949345E+02  0.51100000000E-03 0. -1.
        -11    1    4    4    0    0  0.48493742702E+01 -0.41528501847E+01 -0.52632061524E+01  0.82742936093E+01  0.51100000000E-03 0.  1.
         12    1    4    4    0    0  0.48570496151E+01  0.30102323123E+01  0.94469651578E-01  0.57150112907E+01  0.00000000000E+00 0. -1.
</event>
<event>
 8    1  0.6239251E-010  0.9118800E+02  0.7816164E-02  0.1184000E+00
        -11   -1    0    0    0    0  0.00000000000E+00  0.00000000000E+00  0.45593999997E+02  0.45594000000E+02  0.51100000000E-03 0. -1.
         11   -1    0    0    0    0 -0.00000000000E+00 -0.00000000000E+00 -0.45593999997E+02  0.45594000000E+02  0.51100000000E-03 0.  1.
         23    2    1    2    0    0  0.00000000000E+00  0.00000000000E+00  0.00000000000E+00  0.91188000000E+02  0.91188000000E+02 0.  0.
    9900012    2    3    3    0    0  0.95123094868E+01  0.38572293726E+02  0.17473333608E+02  0.47787271176E+02  0.20000000600E+02 0.  0.
        -12    1    3    3    0    0 -0.95123094868E+01 -0.38572293726E+02 -0.17473333608E+02  0.43400728824E+02  0.00000000000E+00 0.  1.
         11    1    4    4    0    0  0.56187046974E+01  0.15430015648E+02  0.48781291429E+01  0.17130422341E+02  0.51100000000E-03 0. -1.
        -11    1    4    4    0    0  0.45702986316E+01  0.14266366747E+02 -0.30477522292E+00  0.14983649019E+02  0.51100000000E-03 0.  1.
        -12    1    4    4    0    0 -0.67669384229E+00  0.88759113315E+01  0.12899979688E+02  0.15673199816E+02  0.00000000000E+00 0.  1.
</event>
<event>
 8    1  0.6239251E-010  0.9118800E+02  0.7816164E-02  0.1184000E+00
        -11   -1    0    0    0    0  0.00000000000E+00  0.00000000000E+00  0.45593999997E+02  0.45594000000E+02  0.51100000000E-03 0.  1.
         11   -1    0    0    0    0 -0.00000000000E+00 -0.00000000000E+00 -0.45593999997E+02  0.45594000000E+02  0.51100000000E-03 0. -1.
         23    2    1    2    0    0  0.00000000000E+00  0.00000000000E+00  0.00000000000E+00  0.91188000000E+02  0.91188000000E+02 0.  0.
    9900012    2    3    3    0    0  0.19605659774E+02  0.20541313207E+01  0.38665510206E+02  0.47787273852E+02  0.20000012801E+02 0.  0.
        -12    1    3    3    0    0 -0.19605659774E+02 -0.20541313207E+01 -0.38665510206E+02  0.43400726148E+02  0.00000000000E+00 0.  1.
         11    1    4    4    0    0  0.79464622673E+01  0.17946921995E+01  0.81491368232E+01  0.11522830116E+02  0.51100000000E-03 0. -1.
        -11    1    4    4    0    0  0.96237940413E+01  0.64872121791E+01  0.25485650917E+02  0.28003923591E+02  0.51100000000E-03 0.  1.
        -12    1    4    4    0    0  0.20354034651E+01 -0.62277730579E+01  0.50307224664E+01  0.82605201447E+01  0.00000000000E+00 0.  1.
</event>
<event>
 8    1  0.6239251E-010  0.9118800E+02  0.7816164E-02  0.1184000E+00
        -11   -1    0    0    0    0  0.00000000000E+00  0.00000000000E+00  0.45593999997E+02  0.45594000000E+02  0.51100000000E-03 0. -1.
         11   -1    0    0    0    0 -0.00000000000E+00 -0.00000000000E+00 -0.45593999997E+02  0.45594000000E+02  0.51100000000E-03 0.  1.
         23    2    1    2    0    0  0.00000000000E+00  0.21094237468E-14 -0.35527136788E-14  0.91188000000E+02  0.91188000000E+02 0.  0.
    9900012    2    3    3    0    0  0.34764666699E+02  0.36894912308E+00  0.25978921186E+02  0.47787279728E+02  0.20000039590E+02 0.  0.
        -12    1    3    3    0    0 -0.34764666699E+02 -0.36894912308E+00 -0.25978921186E+02  0.43400720272E+02  0.00000000000E+00 0.  1.
         11    1    4    4    0    0  0.16638837083E+02 -0.72077613997E+01  0.15487246892E+02  0.23846541478E+02  0.51100000000E-03 0. -1.
        -11    1    4    4    0    0  0.18693878432E+02  0.83950732446E+01  0.10262654354E+02  0.22918560606E+02  0.51100000000E-03 0.  1.
        -12    1    4    4    0    0 -0.56804881643E+00 -0.81836272182E+00  0.22901994034E+00  0.10221776438E+01  0.00000000000E+00 0.  1.
</event>
<event>
 8    1  0.6239251E-010  0.9118800E+02  0.7816164E-02  0.1184000E+00
        -11   -1    0    0    0    0  0.00000000000E+00  0.00000000000E+00  0.45593999997E+02  0.45594000000E+02  0.51100000000E-03 0. -1.
         11   -1    0    0    0    0 -0.00000000000E+00 -0.00000000000E+00 -0.45593999997E+02  0.45594000000E+02  0.51100000000E-03 0.  1.
         23    2    1    2    0    0  0.00000000000E+00  0.00000000000E+00  0.00000000000E+00  0.91188000000E+02  0.91188000000E+02 0.  0.
    9900012    2    3    3    0    0  0.27103560505E+02  0.14244408174E+02  0.30759013436E+02  0.47787273464E+02  0.20000011034E+02 0.  0.
        -12    1    3    3    0    0 -0.27103560505E+02 -0.14244408174E+02 -0.30759013436E+02  0.43400726536E+02  0.00000000000E+00 0.  1.
         11    1    4    4    0    0  0.61654263133E+01 -0.43932703562E+01  0.84399783218E+01  0.11337836671E+02  0.51100000000E-03 0. -1.
        -11    1    4    4    0    0  0.13585572012E+02  0.12665848760E+02  0.18562742267E+02  0.26259605717E+02  0.51100000000E-03 0.  1.
        -12    1    4    4    0    0  0.73525621790E+01  0.59718297705E+01  0.37562928477E+01  0.10189831076E+02  0.00000000000E+00 0.  1.
</event>
<event>
 8    1  0.6239251E-010  0.9118800E+02  0.7816164E-02  0.1184000E+00
        -11   -1    0    0    0    0  0.00000000000E+00  0.00000000000E+00  0.45593999997E+02  0.45594000000E+02  0.51100000000E-03 0. -1.
         11   -1    0    0    0    0 -0.00000000000E+00 -0.00000000000E+00 -0.45593999997E+02  0.45594000000E+02  0.51100000000E-03 0.  1.
         23    2    1    2    0    0  0.22204460493E-15  0.33306690739E-15  0.00000000000E+00  0.91188000000E+02  0.91188000000E+02 0.  0.
    9900012    2    3    3    0    0 -0.12059249064E+01 -0.62493855139E+00  0.43379469733E+02  0.47787271925E+02  0.20000004016E+02 0.  0.
        -12    1    3    3    0    0  0.12059249064E+01  0.62493855139E+00 -0.43379469733E+02  0.43400728075E+02  0.00000000000E+00 0.  1.
         11    1    4    4    0    0 -0.47076065562E+01 -0.24712582418E+01  0.97147002900E+01  0.11074478713E+02  0.51100000000E-03 0. -1.
        -11    1    4    4    0    0  0.42718126319E+01  0.71749727755E+01  0.26272940185E+02  0.27568025024E+02  0.51100000000E-03 0.  1.
        -12    1    4    4    0    0 -0.77013098209E+00 -0.53286530851E+01  0.73918292582E+01  0.91447681880E+01  0.00000000000E+00 0.  1.
</event>
<event>
 8    1  0.6239251E-010  0.9118800E+02  0.7816164E-02  0.1184000E+00
        -11   -1    0    0    0    0  0.00000000000E+00  0.00000000000E+00  0.45593999997E+02  0.45594000000E+02  0.51100000000E-03 0. -1.
         11   -1    0    0    0    0 -0.00000000000E+00 -0.00000000000E+00 -0.45593999997E+02  0.45594000000E+02  0.51100000000E-03 0.  1.
         23    2    1    2    0    0  0.35527136788E-14 -0.88817841970E-15  0.00000000000E+00  0.91188000000E+02  0.91188000000E+02 0.  0.
    9900012    2    3    3    0    0  0.16283743946E+02 -0.53783156193E+01  0.39868982909E+02  0.47787281182E+02  0.20000046219E+02 0.  0.
        -12    1    3    3    0    0 -0.16283743946E+02  0.53783156193E+01 -0.39868982909E+02  0.43400718818E+02  0.00000000000E+00 0.  1.
         11    1    4    4    0    0  0.13217251198E+02  0.11661296360E+01  0.17018054967E+02  0.21579383279E+02  0.51100000000E-03 0. -1.
        -11    1    4    4    0    0 -0.36887478182E+01 -0.37829673831E+01  0.71177104940E+01  0.88645081999E+01  0.51100000000E-03 0.  1.
         12    1    4    4    0    0  0.67552405660E+01 -0.27614778722E+01  0.15733217447E+02  0.17343389703E+02  0.00000000000E+00 0. -1.
</event>
<event>
 8    1  0.6239251E-010  0.9118800E+02  0.7816164E-02  0.1184000E+00
        -11   -1    0    0    0    0  0.00000000000E+00  0.00000000000E+00  0.45593999997E+02  0.45594000000E+02  0.51100000000E-03 0. -1.
         11   -1    0    0    0    0 -0.00000000000E+00 -0.00000000000E+00 -0.45593999997E+02  0.45594000000E+02  0.51100000000E-03 0.  1.
         23    2    1    2    0    0  0.35527136788E-14  0.00000000000E+00 -0.35527136788E-14  0.91188000000E+02  0.91188000000E+02 0.  0.
    9900012    2    3    3    0    0  0.29755969575E+02 -0.11049578419E+02 -0.29599216556E+02  0.47787256581E+02  0.19999934056E+02 0.  0.
         12    1    3    3    0    0 -0.29755969575E+02  0.11049578419E+02  0.29599216556E+02  0.43400743419E+02  0.00000000000E+00 0. -1.
         11    1    4    4    0    0  0.22232966039E+02 -0.47628084856E+01 -0.17648792866E+02  0.28783137658E+02  0.51100000000E-03 0. -1.
        -11    1    4    4    0    0  0.10246226933E+02 -0.59178095631E+01 -0.10816409507E+02  0.16031230498E+02  0.51100000000E-03 0.  1.
         12    1    4    4    0    0 -0.27232233966E+01 -0.36896037016E+00 -0.11340141832E+01  0.29728884255E+01  0.00000000000E+00 0. -1.
</event>
<event>
 8    1  0.6239251E-010  0.9118800E+02  0.7816164E-02  0.1184000E+00
        -11   -1    0    0    0    0  0.00000000000E+00  0.00000000000E+00  0.45593999997E+02  0.45594000000E+02  0.51100000000E-03 0. -1.
         11   -1    0    0    0    0 -0.00000000000E+00 -0.00000000000E+00 -0.45593999997E+02  0.45594000000E+02  0.51100000000E-03 0.  1.
         23    2    1    2    0    0 -0.71054273576E-14  0.22204460493E-15  0.44408920985E-15  0.91188000000E+02  0.91188000000E+02 0.  0.
    9900012    2    3    3    0    0  0.43296461273E+02 -0.18029826852E+01  0.24059634952E+01  0.47787274595E+02  0.20000016189E+02 0.  0.
         12    1    3    3    0    0 -0.43296461273E+02  0.18029826852E+01 -0.24059634952E+01  0.43400725405E+02  0.00000000000E+00 0. -1.
         11    1    4    4    0    0  0.29158140855E+02 -0.56009234973E+01  0.30682927860E+01  0.29849320646E+02  0.51100000000E-03 0. -1.
        -11    1    4    4    0    0  0.12189650657E+02  0.31484483052E+01 -0.46753562675E+01  0.13429790258E+02  0.51100000000E-03 0.  1.
         12    1    4    4    0    0  0.19486697605E+01  0.64949250685E+00  0.40130269766E+01  0.45081636912E+01  0.00000000000E+00 0. -1.
</event>
<event>
 8    1  0.6239251E-010  0.9118800E+02  0.7816164E-02  0.1184000E+00
        -11   -1    0    0    0    0  0.00000000000E+00  0.00000000000E+00  0.45593999997E+02  0.45594000000E+02  0.51100000000E-03 0.  1.
         11   -1    0    0    0    0 -0.00000000000E+00 -0.00000000000E+00 -0.45593999997E+02  0.45594000000E+02  0.51100000000E-03 0. -1.
         23    2    1    2    0    0  0.00000000000E+00  0.17763568394E-14  0.00000000000E+00  0.91188000000E+02  0.91188000000E+02 0.  0.
    9900012    2    3    3    0    0  0.40787146536E+02 -0.11077606441E+02  0.98650105260E+01  0.47787272821E+02  0.20000008099E+02 0.  0.
        -12    1    3    3    0    0 -0.40787146536E+02  0.11077606441E+02 -0.98650105260E+01  0.43400727179E+02  0.00000000000E+00 0.  1.
         11    1    4    4    0    0  0.35445147439E+02 -0.58159107865E+01  0.16566418907E+01  0.35957304652E+02  0.51100000000E-03 0. -1.
        -11    1    4    4    0    0  0.36608976801E+01 -0.56672281892E+01  0.60313561371E+01  0.90496908392E+01  0.51100000000E-03 0.  1.
         12    1    4    4    0    0  0.16811014175E+01  0.40553253508E+00  0.21770124982E+01  0.27802773297E+01  0.00000000000E+00 0. -1.
</event>
<event>
 8    1  0.6239251E-010  0.9118800E+02  0.7816164E-02  0.1184000E+00
        -11   -1    0    0    0    0  0.00000000000E+00  0.00000000000E+00  0.45593999997E+02  0.45594000000E+02  0.51100000000E-03 0. -1.
         11   -1    0    0    0    0 -0.00000000000E+00 -0.00000000000E+00 -0.45593999997E+02  0.45594000000E+02  0.51100000000E-03 0.  1.
         23    2    1    2    0    0  0.00000000000E+00  0.00000000000E+00  0.00000000000E+00  0.91188000000E+02  0.91188000000E+02 0.  0.
    9900012    2    3    3    0    0 -0.19668887547E+02  0.32808108868E+02  0.20503319721E+02  0.47787271153E+02  0.20000000497E+02 0.  0.
        -12    1    3    3    0    0  0.19668887547E+02 -0.32808108868E+02 -0.20503319721E+02  0.43400728847E+02  0.00000000000E+00 0.  1.
         11    1    4    4    0    0 -0.10354053486E+02  0.94729398160E+01  0.76884976821E+01  0.16001750192E+02  0.51100000000E-03 0. -1.
        -11    1    4    4    0    0 -0.11101691379E+01  0.88290997275E-01 -0.25184924309E+01  0.27537384045E+01  0.51100000000E-03 0.  1.
        -12    1    4    4    0    0 -0.82046649231E+01  0.23246878055E+02  0.15333314469E+02  0.29031782557E+02  0.00000000000E+00 0.  1.
</event>
<event>
 8    1  0.6239251E-010  0.9118800E+02  0.7816164E-02  0.1184000E+00
        -11   -1    0    0    0    0  0.00000000000E+00  0.00000000000E+00  0.45593999997E+02  0.45594000000E+02  0.51100000000E-03 0. -1.
         11   -1    0    0    0    0 -0.00000000000E+00 -0.00000000000E+00 -0.45593999997E+02  0.45594000000E+02  0.51100000000E-03 0.  1.
         23    2    1    2    0    0  0.35527136788E-14  0.35527136788E-14 -0.35527136788E-14  0.91188000000E+02  0.91188000000E+02 0.  0.
    9900012    2    3    3    0    0  0.17462973293E+02  0.27925154629E+02  0.28263990614E+02  0.47787275781E+02  0.20000021597E+02 0.  0.
        -12    1    3    3    0    0 -0.17462973293E+02 -0.27925154629E+02 -0.28263990614E+02  0.43400724219E+02  0.00000000000E+00 0.  1.
         11    1    4    4    0    0  0.18142544854E+02  0.16471006512E+02  0.23739116072E+02  0.34117321428E+02  0.51100000000E-03 0. -1.
        -11    1    4    4    0    0  0.15133650548E+00  0.10719698376E+02  0.56258869449E+01  0.12107247424E+02  0.51100000000E-03 0.  1.
         12    1    4    4    0    0 -0.83090806685E+00  0.73444974107E+00 -0.11010124022E+01  0.15627069295E+01  0.00000000000E+00 0. -1.
</event>
<event>
 8    1  0.6239251E-010  0.9118800E+02  0.7816164E-02  0.1184000E+00
        -11   -1    0    0    0    0  0.00000000000E+00  0.00000000000E+00  0.45593999997E+02  0.45594000000E+02  0.51100000000E-03 0.  1.
         11   -1    0    0    0    0 -0.00000000000E+00 -0.00000000000E+00 -0.45593999997E+02  0.45594000000E+02  0.51100000000E-03 0. -1.
         23    2    1    2    0    0  0.88817841970E-15  0.00000000000E+00  0.44408920985E-15  0.91188000000E+02  0.91188000000E+02 0.  0.
    9900012    2    3    3    0    0  0.23042217863E+01 -0.43193421862E+02  0.35555916157E+01  0.47787270030E+02  0.19999995374E+02 0.  0.
        -12    1    3    3    0    0 -0.23042217863E+01  0.43193421862E+02 -0.35555916157E+01  0.43400729970E+02  0.00000000000E+00 0.  1.
         11    1    4    4    0    0 -0.30459207959E+01 -0.29088294862E+02  0.22212045135E+01  0.29331557770E+02  0.51100000000E-03 0. -1.
        -11    1    4    4    0    0  0.63473613622E+01 -0.50023741691E+01 -0.25992914129E+01  0.84893497808E+01  0.51100000000E-03 0.  1.
         12    1    4    4    0    0 -0.99721878000E+00 -0.91027528316E+01  0.39336785151E+01  0.99663624792E+01  0.00000000000E+00 0. -1.
</event>
<event>
 8    1  0.6239251E-010  0.9118800E+02  0.7816164E-02  0.1184000E+00
        -11   -1    0    0    0    0  0.00000000000E+00  0.00000000000E+00  0.45593999997E+02  0.45594000000E+02  0.51100000000E-03 0. -1.
         11   -1    0    0    0    0 -0.00000000000E+00 -0.00000000000E+00 -0.45593999997E+02  0.45594000000E+02  0.51100000000E-03 0.  1.
         23    2    1    2    0    0 -0.44408920985E-15 -0.17763568394E-14  0.00000000000E+00  0.91188000000E+02  0.91188000000E+02 0.  0.
    9900012    2    3    3    0    0  0.20004872145E+01  0.99802615895E+01 -0.42190233096E+02  0.47787270292E+02  0.19999996569E+02 0.  0.
         12    1    3    3    0    0 -0.20004872145E+01 -0.99802615895E+01  0.42190233096E+02  0.43400729708E+02  0.00000000000E+00 0. -1.
         11    1    4    4    0    0 -0.28257103543E+01  0.10689883734E+02 -0.17571055076E+02  0.20760545032E+02  0.51100000000E-03 0. -1.
        -11    1    4    4    0    0  0.24233882974E+01 -0.52016066076E+01 -0.98010444916E+01  0.11357376261E+02  0.51100000000E-03 0.  1.
        -12    1    4    4    0    0  0.24028092714E+01  0.44919844627E+01 -0.14818133528E+02  0.15669348999E+02  0.00000000000E+00 0.  1.
</event>
<event>
 8    1  0.6239251E-010  0.9118800E+02  0.7816164E-02  0.1184000E+00
        -11   -1    0    0    0    0  0.00000000000E+00  0.00000000000E+00  0.45593999997E+02  0.45594000000E+02  0.51100000000E-03 0.  1.
         11   -1    0    0    0    0 -0.00000000000E+00 -0.00000000000E+00 -0.45593999997E+02  0.45594000000E+02  0.51100000000E-03 0. -1.
         23    2    1    2    0    0 -0.88817841970E-15 -0.35527136788E-14  0.00000000000E+00  0.91188000000E+02  0.91188000000E+02 0.  0.
    9900012    2    3    3    0    0 -0.75952742735E+01 -0.26638377959E+02  0.33411548425E+02  0.47787274894E+02  0.20000017550E+02 0.  0.
        -12    1    3    3    0    0  0.75952742735E+01  0.26638377959E+02 -0.33411548425E+02  0.43400725106E+02  0.00000000000E+00 0.  1.
         11    1    4    4    0    0 -0.46647432580E+01 -0.28138374674E+02  0.33342229152E+02  0.43877468068E+02  0.51100000000E-03 0. -1.
        -11    1    4    4    0    0 -0.28171778361E+01  0.18246882246E+01  0.46164996132E+00  0.33880819094E+01  0.51100000000E-03 0.  1.
         12    1    4    4    0    0 -0.11335317941E+00 -0.32469150914E+00 -0.39233068802E+00  0.52172491617E+00  0.00000000000E+00 0. -1.
</event>
<event>
 8    1  0.6239251E-010  0.9118800E+02  0.7816164E-02  0.1184000E+00
        -11   -1    0    0    0    0  0.00000000000E+00  0.00000000000E+00  0.45593999997E+02  0.45594000000E+02  0.51100000000E-03 0. -1.
         11   -1    0    0    0    0 -0.00000000000E+00 -0.00000000000E+00 -0.45593999997E+02  0.45594000000E+02  0.51100000000E-03 0.  1.
         23    2    1    2    0    0 -0.35527136788E-14  0.00000000000E+00 -0.35527136788E-14  0.91188000000E+02  0.91188000000E+02 0.  0.
    9900012    2    3    3    0    0 -0.28016716355E+02  0.27585624636E+02  0.18377161603E+02  0.47787272467E+02  0.20000006484E+02 0.  0.
        -12    1    3    3    0    0  0.28016716355E+02 -0.27585624636E+02 -0.18377161603E+02  0.43400727533E+02  0.00000000000E+00 0.  1.
         11    1    4    4    0    0 -0.19840675024E+02  0.26795984726E+02  0.16897243337E+02  0.37379058516E+02  0.51100000000E-03 0. -1.
        -11    1    4    4    0    0 -0.24878160108E+01  0.71186166120E+00 -0.23943706196E+01  0.35254767696E+01  0.51100000000E-03 0.  1.
        -12    1    4    4    0    0 -0.56882253196E+01  0.77778248821E-01  0.38742888852E+01  0.68827371814E+01  0.00000000000E+00 0.  1.
</event>
<event>
 8    1  0.6239251E-010  0.9118800E+02  0.7816164E-02  0.1184000E+00
        -11   -1    0    0    0    0  0.00000000000E+00  0.00000000000E+00  0.45593999997E+02  0.45594000000E+02  0.51100000000E-03 0. -1.
         11   -1    0    0    0    0 -0.00000000000E+00 -0.00000000000E+00 -0.45593999997E+02  0.45594000000E+02  0.51100000000E-03 0.  1.
         23    2    1    2    0    0  0.00000000000E+00  0.00000000000E+00 -0.71054273576E-14  0.91188000000E+02  0.91188000000E+02 0.  0.
    9900012    2    3    3    0    0  0.26268158579E+01  0.22644700380E+02 -0.36931567961E+02  0.47787270410E+02  0.19999997108E+02 0.  0.
         12    1    3    3    0    0 -0.26268158579E+01 -0.22644700380E+02  0.36931567961E+02  0.43400729590E+02  0.00000000000E+00 0. -1.
         11    1    4    4    0    0  0.31857018171E+01  0.13610275183E+02 -0.24209589554E+02  0.27955187591E+02  0.51100000000E-03 0.  1.
        -11    1    4    4    0    0 -0.21783161515E+01  0.19298111082E+01  0.19134974847E+01  0.34829161710E+01  0.51100000000E-03 0. -1.
         12    1    4    4    0    0  0.16194301922E+01  0.71046140890E+01 -0.14635475892E+02  0.16349166648E+02  0.00000000000E+00 0. -1.
</event>
<event>
 8    1  0.6239251E-010  0.9118800E+02  0.7816164E-02  0.1184000E+00
        -11   -1    0    0    0    0  0.00000000000E+00  0.00000000000E+00  0.45593999997E+02  0.45594000000E+02  0.51100000000E-03 0. -1.
         11   -1    0    0    0    0 -0.00000000000E+00 -0.00000000000E+00 -0.45593999997E+02  0.45594000000E+02  0.51100000000E-03 0.  1.
         23    2    1    2    0    0 -0.88817841970E-15  0.00000000000E+00  0.00000000000E+00  0.91188000000E+02  0.91188000000E+02 0.  0.
    9900012    2    3    3    0    0 -0.50637699137E+01  0.20130557717E+01  0.43057276289E+02  0.47787271887E+02  0.20000003841E+02 0.  0.
        -12    1    3    3    0    0  0.50637699137E+01 -0.20130557717E+01 -0.43057276289E+02  0.43400728113E+02  0.00000000000E+00 0.  1.
         11    1    4    4    0    0  0.21371013755E+01 -0.55551841555E+01  0.49356721820E+01  0.77322786706E+01  0.51100000000E-03 0. -1.
        -11    1    4    4    0    0 -0.79823290067E+01  0.68814937587E+01  0.37203523388E+02  0.38667488740E+02  0.51100000000E-03 0.  1.
         12    1    4    4    0    0  0.78145771744E+00  0.68674616850E+00  0.91808071909E+00  0.13875044760E+01  0.00000000000E+00 0. -1.
</event>
<event>
 8    1  0.6239251E-010  0.9118800E+02  0.7816164E-02  0.1184000E+00
        -11   -1    0    0    0    0  0.00000000000E+00  0.00000000000E+00  0.45593999997E+02  0.45594000000E+02  0.51100000000E-03 0. -1.
         11   -1    0    0    0    0 -0.00000000000E+00 -0.00000000000E+00 -0.45593999997E+02  0.45594000000E+02  0.51100000000E-03 0.  1.
         23    2    1    2    0    0  0.00000000000E+00  0.00000000000E+00  0.00000000000E+00  0.91188000000E+02  0.91188000000E+02 0.  0.
    9900012    2    3    3    0    0 -0.13430636617E+02  0.44845362071E+01 -0.41025966625E+02  0.47787274171E+02  0.20000014255E+02 0.  0.
         12    1    3    3    0    0  0.13430636617E+02 -0.44845362071E+01  0.41025966625E+02  0.43400725829E+02  0.00000000000E+00 0. -1.
         11    1    4    4    0    0 -0.72126212517E+01  0.57100017068E+01 -0.27250598919E+02  0.28761452788E+02  0.51100000000E-03 0. -1.
        -11    1    4    4    0    0  0.27521112989E+00 -0.10072170256E+00 -0.12260532168E+02  0.12264034219E+02  0.51100000000E-03 0.  1.
         12    1    4    4    0    0 -0.64932264955E+01 -0.11247437971E+01 -0.15148355384E+01  0.67617871631E+01  0.00000000000E+00 0. -1.
</event>
<event>
 8    1  0.6239251E-010  0.9118800E+02  0.7816164E-02  0.1184000E+00
        -11   -1    0    0    0    0  0.00000000000E+00  0.00000000000E+00  0.45593999997E+02  0.45594000000E+02  0.51100000000E-03 0. -1.
         11   -1    0    0    0    0 -0.00000000000E+00 -0.00000000000E+00 -0.45593999997E+02  0.45594000000E+02  0.51100000000E-03 0.  1.
         23    2    1    2    0    0  0.00000000000E+00  0.00000000000E+00  0.00000000000E+00  0.91188000000E+02  0.91188000000E+02 0.  0.
    9900012    2    3    3    0    0  0.41284750632E+01  0.12330775347E+02 -0.41406893584E+02  0.47787272318E+02  0.20000005807E+02 0.  0.
         12    1    3    3    0    0 -0.41284750632E+01 -0.12330775347E+02  0.41406893584E+02  0.43400727682E+02  0.00000000000E+00 0. -1.
         11    1    4    4    0    0 -0.41610947397E+01  0.31816809935E-01 -0.29614059641E+01  0.51074110162E+01  0.51100000000E-03 0. -1.
        -11    1    4    4    0    0  0.97730030347E+01  0.10471992423E+02 -0.37501975258E+02  0.40144393906E+02  0.51100000000E-03 0.  1.
        -12    1    4    4    0    0 -0.14834332317E+01  0.18269661144E+01 -0.94351236281E+00  0.25354673958E+01  0.00000000000E+00 0.  1.
</event>
<event>
 8    1  0.6239251E-010  0.9118800E+02  0.7816164E-02  0.1184000E+00
        -11   -1    0    0    0    0  0.00000000000E+00  0.00000000000E+00  0.45593999997E+02  0.45594000000E+02  0.51100000000E-03 0.  1.
         11   -1    0    0    0    0 -0.00000000000E+00 -0.00000000000E+00 -0.45593999997E+02  0.45594000000E+02  0.51100000000E-03 0. -1.
         23    2    1    2    0    0  0.00000000000E+00 -0.35527136788E-14 -0.35527136788E-14  0.91188000000E+02  0.91188000000E+02 0.  0.
    9900012    2    3    3    0    0 -0.44805320510E+01 -0.31367331319E+02 -0.29658701117E+02  0.47787271971E+02  0.20000004223E+02 0.  0.
        -12    1    3    3    0    0  0.44805320510E+01  0.31367331319E+02  0.29658701117E+02  0.43400728029E+02  0.00000000000E+00 0.  1.
         11    1    4    4    0    0 -0.39040955191E+01 -0.33679503965E+01 -0.14105532881E+02  0.15018359092E+02  0.51100000000E-03 0. -1.
        -11    1    4    4    0    0 -0.11715290804E+00 -0.85696668735E+00  0.71416661257E+00  0.11216732674E+01  0.51100000000E-03 0.  1.
         12    1    4    4    0    0 -0.45928362378E+00 -0.27142414235E+02 -0.16267334849E+02  0.31647239612E+02  0.00000000000E+00 0. -1.
</event>
<event>
 8    1  0.6239251E-010  0.9118800E+02  0.7816164E-02  0.1184000E+00
        -11   -1    0    0    0    0  0.00000000000E+00  0.00000000000E+00  0.45593999997E+02  0.45594000000E+02  0.51100000000E-03 0.  1.
         11   -1    0    0    0    0 -0.00000000000E+00 -0.00000000000E+00 -0.45593999997E+02  0.45594000000E+02  0.51100000000E-03 0. -1.
         23    2    1    2    0    0  0.00000000000E+00  0.00000000000E+00  0.00000000000E+00  0.91188000000E+02  0.91188000000E+02 0.  0.
    9900012    2    3    3    0    0  0.21944185158E+02 -0.37024108314E+02 -0.55938727580E+01  0.47787271076E+02  0.20000000145E+02 0.  0.
        -12    1    3    3    0    0 -0.21944185158E+02  0.37024108314E+02  0.55938727580E+01  0.43400728924E+02  0.00000000000E+00 0.  1.
         11    1    4    4    0    0  0.38167099274E+01 -0.99086170995E+01 -0.27644504991E+01  0.10972244726E+02  0.51100000000E-03 0. -1.
        -11    1    4    4    0    0  0.19652784703E+02 -0.28517272492E+02 -0.26006387264E+01  0.34730823471E+02  0.51100000000E-03 0.  1.
        -12    1    4    4    0    0 -0.15253094725E+01  0.14017812776E+01 -0.22878353248E+00  0.20842028792E+01  0.00000000000E+00 0.  1.
</event>
<event>
 8    1  0.6239251E-010  0.9118800E+02  0.7816164E-02  0.1184000E+00
        -11   -1    0    0    0    0  0.00000000000E+00  0.00000000000E+00  0.45593999997E+02  0.45594000000E+02  0.51100000000E-03 0. -1.
         11   -1    0    0    0    0 -0.00000000000E+00 -0.00000000000E+00 -0.45593999997E+02  0.45594000000E+02  0.51100000000E-03 0.  1.
         23    2    1    2    0    0  0.17763568394E-14 -0.71054273576E-14  0.88817841970E-15  0.91188000000E+02  0.91188000000E+02 0.  0.
    9900012    2    3    3    0    0  0.12463290475E+02 -0.41571563474E+02  0.30725322980E+00  0.47787275309E+02  0.20000019443E+02 0.  0.
        -12    1    3    3    0    0 -0.12463290475E+02  0.41571563474E+02 -0.30725322980E+00  0.43400724691E+02  0.00000000000E+00 0.  1.
         11    1    4    4    0    0  0.12037541069E+02 -0.18372939754E+02  0.43934262425E+01  0.22400212155E+02  0.51100000000E-03 0. -1.
        -11    1    4    4    0    0  0.47167625478E+01 -0.10183537709E+02 -0.31219125008E+01  0.11648975368E+02  0.51100000000E-03 0.  1.
         12    1    4    4    0    0 -0.42910131415E+01 -0.13015086012E+02 -0.96426051182E+00  0.13738087786E+02  0.00000000000E+00 0. -1.
</event>
<event>
 8    1  0.6239251E-010  0.9118800E+02  0.7816164E-02  0.1184000E+00
        -11   -1    0    0    0    0  0.00000000000E+00  0.00000000000E+00  0.45593999997E+02  0.45594000000E+02  0.51100000000E-03 0. -1.
         11   -1    0    0    0    0 -0.00000000000E+00 -0.00000000000E+00 -0.45593999997E+02  0.45594000000E+02  0.51100000000E-03 0.  1.
         23    2    1    2    0    0  0.00000000000E+00  0.44408920985E-15  0.00000000000E+00  0.91188000000E+02  0.91188000000E+02 0.  0.
    9900012    2    3    3    0    0 -0.88362123611E+01  0.12733217650E+01  0.42472618720E+02  0.47787270304E+02  0.19999996624E+02 0.  0.
        -12    1    3    3    0    0  0.88362123611E+01 -0.12733217650E+01 -0.42472618720E+02  0.43400729696E+02  0.00000000000E+00 0.  1.
         11    1    4    4    0    0 -0.10653314092E+02 -0.45936939053E+01  0.14100039319E+02  0.18259414938E+02  0.51100000000E-03 0. -1.
        -11    1    4    4    0    0 -0.84966379739E+00  0.53839752039E+01  0.19849724592E+02  0.20584476778E+02  0.51100000000E-03 0.  1.
         12    1    4    4    0    0  0.26667655279E+01  0.48304046640E+00  0.85228548086E+01  0.89433785876E+01  0.00000000000E+00 0. -1.
</event>
<event>
 8    1  0.6239251E-010  0.9118800E+02  0.7816164E-02  0.1184000E+00
        -11   -1    0    0    0    0  0.00000000000E+00  0.00000000000E+00  0.45593999997E+02  0.45594000000E+02  0.51100000000E-03 0. -1.
         11   -1    0    0    0    0 -0.00000000000E+00 -0.00000000000E+00 -0.45593999997E+02  0.45594000000E+02  0.51100000000E-03 0.  1.
         23    2    1    2    0    0  0.00000000000E+00 -0.35527136788E-14 -0.71054273576E-14  0.91188000000E+02  0.91188000000E+02 0.  0.
    9900012    2    3    3    0    0 -0.71526256785E+01  0.23823582419E+02  0.35565438832E+02  0.47787267602E+02  0.19999984306E+02 0.  0.
        -12    1    3    3    0    0  0.71526256785E+01 -0.23823582419E+02 -0.35565438832E+02  0.43400732398E+02  0.00000000000E+00 0.  1.
         11    1    4    4    0    0 -0.65505683145E+01  0.21032330476E+02  0.26220638149E+02  0.34246032408E+02  0.51100000000E-03 0. -1.
        -11    1    4    4    0    0 -0.11305537946E+01  0.40543863832E-01  0.10463941353E+02  0.10524916370E+02  0.51100000000E-03 0.  1.
         12    1    4    4    0    0  0.52849643069E+00  0.27507080790E+01 -0.11191406699E+01  0.30163188247E+01  0.00000000000E+00 0. -1.
</event>
<event>
 8    1  0.6239251E-010  0.9118800E+02  0.7816164E-02  0.1184000E+00
        -11   -1    0    0    0    0  0.00000000000E+00  0.00000000000E+00  0.45593999997E+02  0.45594000000E+02  0.51100000000E-03 0. -1.
         11   -1    0    0    0    0 -0.00000000000E+00 -0.00000000000E+00 -0.45593999997E+02  0.45594000000E+02  0.51100000000E-03 0.  1.
         23    2    1    2    0    0  0.17763568394E-14  0.00000000000E+00 -0.71054273576E-14  0.91188000000E+02  0.91188000000E+02 0.  0.
    9900012    2    3    3    0    0 -0.11539426837E+02  0.11763545060E+02  0.40150766719E+02  0.47787269220E+02  0.19999991682E+02 0.  0.
        -12    1    3    3    0    0  0.11539426837E+02 -0.11763545060E+02 -0.40150766719E+02  0.43400730780E+02  0.00000000000E+00 0.  1.
         11    1    4    4    0    0 -0.10156575695E+02  0.74520852070E+01  0.31760637862E+02  0.34167641438E+02  0.51100000000E-03 0. -1.
        -11    1    4    4    0    0  0.37708930297E+01  0.40972962930E+01  0.44814559804E+01  0.71477912057E+01  0.51100000000E-03 0.  1.
         12    1    4    4    0    0 -0.51537441713E+01  0.21416355960E+00  0.39086728770E+01  0.64718365765E+01  0.00000000000E+00 0. -1.
</event>
<event>
 8    1  0.6239251E-010  0.9118800E+02  0.7816164E-02  0.1184000E+00
        -11   -1    0    0    0    0  0.00000000000E+00  0.00000000000E+00  0.45593999997E+02  0.45594000000E+02  0.51100000000E-03 0. -1.
         11   -1    0    0    0    0 -0.00000000000E+00 -0.00000000000E+00 -0.45593999997E+02  0.45594000000E+02  0.51100000000E-03 0.  1.
         23    2    1    2    0    0  0.22204460493E-15  0.00000000000E+00 -0.71054273576E-14  0.91188000000E+02  0.91188000000E+02 0.  0.
    9900012    2    3    3    0    0 -0.18470777663E+01  0.19092627209E+02  0.38931780210E+02  0.47787267053E+02  0.19999981804E+02 0.  0.
        -12    1    3    3    0    0  0.18470777663E+01 -0.19092627209E+02 -0.38931780210E+02  0.43400732947E+02  0.00000000000E+00 0.  1.
         11    1    4    4    0    0 -0.57526438091E+01  0.22959679120E+01  0.18711955961E+02  0.19710445850E+02  0.51100000000E-03 0. -1.
        -11    1    4    4    0    0 -0.50715771599E+00  0.33533511277E+01 -0.81429562117E-02  0.33914951428E+01  0.51100000000E-03 0.  1.
         12    1    4    4    0    0  0.44127237588E+01  0.13443308169E+02  0.20227967205E+02  0.24685326061E+02  0.00000000000E+00 0. -1.
</event>
<event>
 8    1  0.6239251E-010  0.9118800E+02  0.7816164E-02  0.1184000E+00
        -11   -1    0    0    0    0  0.00000000000E+00  0.00000000000E+00  0.45593999997E+02  0.45594000000E+02  0.51100000000E-03 0. -1.
         11   -1    0    0    0    0 -0.00000000000E+00 -0.00000000000E+00 -0.45593999997E+02  0.45594000000E+02  0.51100000000E-03 0.  1.
         23    2    1    2    0    0  0.00000000000E+00  0.00000000000E+00 -0.35527136788E-14  0.91188000000E+02  0.91188000000E+02 0.  0.
    9900012    2    3    3    0    0 -0.11709473507E+02  0.34484639270E+02  0.23607649633E+02  0.47787271474E+02  0.20000001960E+02 0.  0.
        -12    1    3    3    0    0  0.11709473507E+02 -0.34484639270E+02 -0.23607649633E+02  0.43400728526E+02  0.00000000000E+00 0.  1.
         11    1    4    4    0    0 -0.37220840493E+01  0.16281621307E+02  0.22959598859E+01  0.16858722790E+02  0.51100000000E-03 0. -1.
        -11    1    4    4    0    0 -0.80310863437E+01  0.19511130637E+02  0.20227157075E+02  0.29228760668E+02  0.51100000000E-03 0.  1.
        -12    1    4    4    0    0  0.43696886234E-01 -0.13081126737E+01  0.10845326711E+01  0.16997880161E+01  0.00000000000E+00 0.  1.
</event>
<event>
 8    1  0.6239251E-010  0.9118800E+02  0.7816164E-02  0.1184000E+00
        -11   -1    0    0    0    0  0.00000000000E+00  0.00000000000E+00  0.45593999997E+02  0.45594000000E+02  0.51100000000E-03 0. -1.
         11   -1    0    0    0    0 -0.00000000000E+00 -0.00000000000E+00 -0.45593999997E+02  0.45594000000E+02  0.51100000000E-03 0.  1.
         23    2    1    2    0    0  0.00000000000E+00  0.00000000000E+00  0.35527136788E-14  0.91188000000E+02  0.91188000000E+02 0.  0.
    9900012    2    3    3    0    0  0.39589303911E+02 -0.75277292639E+01 -0.16113330007E+02  0.47787319176E+02  0.20000219451E+02 0.  0.
         12    1    3    3    0    0 -0.39589303911E+02  0.75277292639E+01  0.16113330007E+02  0.43400680824E+02  0.00000000000E+00 0. -1.
         11    1    4    4    0    0  0.93667449664E+01 -0.27734937918E+01  0.42528199249E+01  0.10654325725E+02  0.51100000000E-03 0. -1.
        -11    1    4    4    0    0  0.14032720863E+02 -0.34425428552E+01 -0.12407726910E+02  0.19045210512E+02  0.51100000000E-03 0.  1.
         12    1    4    4    0    0  0.16189838082E+02 -0.13116926168E+01 -0.79584230224E+01  0.18087782939E+02  0.00000000000E+00 0. -1.
</event>
<event>
 8    1  0.6239251E-010  0.9118800E+02  0.7816164E-02  0.1184000E+00
        -11   -1    0    0    0    0  0.00000000000E+00  0.00000000000E+00  0.45593999997E+02  0.45594000000E+02  0.51100000000E-03 0. -1.
         11   -1    0    0    0    0 -0.00000000000E+00 -0.00000000000E+00 -0.45593999997E+02  0.45594000000E+02  0.51100000000E-03 0.  1.
         23    2    1    2    0    0 -0.35527136788E-14  0.35527136788E-14  0.35527136788E-14  0.91188000000E+02  0.91188000000E+02 0.  0.
    9900012    2    3    3    0    0 -0.31609530529E+02  0.22608086563E+02  0.19321883278E+02  0.47787272221E+02  0.20000005367E+02 0.  0.
        -12    1    3    3    0    0  0.31609530529E+02 -0.22608086563E+02 -0.19321883278E+02  0.43400727779E+02  0.00000000000E+00 0.  1.
         11    1    4    4    0    0 -0.17562763990E+02  0.50020081293E+01  0.33000210289E+01  0.18556963742E+02  0.51100000000E-03 0. -1.
        -11    1    4    4    0    0 -0.86162973448E-01 -0.94069884452E+00  0.17261394820E+01  0.19677134310E+01  0.51100000000E-03 0.  1.
         12    1    4    4    0    0 -0.13960603566E+02  0.18546777278E+02  0.14295722767E+02  0.27262595048E+02  0.00000000000E+00 0. -1.
</event>
<event>
 8    1  0.6239251E-010  0.9118800E+02  0.7816164E-02  0.1184000E+00
        -11   -1    0    0    0    0  0.00000000000E+00  0.00000000000E+00  0.45593999997E+02  0.45594000000E+02  0.51100000000E-03 0. -1.
         11   -1    0    0    0    0 -0.00000000000E+00 -0.00000000000E+00 -0.45593999997E+02  0.45594000000E+02  0.51100000000E-03 0.  1.
         23    2    1    2    0    0 -0.11102230246E-15  0.00000000000E+00  0.00000000000E+00  0.91188000000E+02  0.91188000000E+02 0.  0.
    9900012    2    3    3    0    0  0.61769100927E+00  0.57840894305E+01 -0.43009131945E+02  0.47787278077E+02  0.20000032066E+02 0.  0.
         12    1    3    3    0    0 -0.61769100927E+00 -0.57840894305E+01  0.43009131945E+02  0.43400721923E+02  0.00000000000E+00 0. -1.
         11    1    4    4    0    0  0.47358763379E+01  0.45587700094E+01 -0.51877211651E+01  0.83739691804E+01  0.51100000000E-03 0. -1.
        -11    1    4    4    0    0 -0.67678543751E+01  0.30930675415E+01 -0.30696975341E+02  0.31585997135E+02  0.51100000000E-03 0.  1.
         12    1    4    4    0    0  0.26496690465E+01 -0.18677481204E+01 -0.71244354391E+01  0.78273117622E+01  0.00000000000E+00 0. -1.
</event>
<event>
 8    1  0.6239251E-010  0.9118800E+02  0.7816164E-02  0.1184000E+00
        -11   -1    0    0    0    0  0.00000000000E+00  0.00000000000E+00  0.45593999997E+02  0.45594000000E+02  0.51100000000E-03 0. -1.
         11   -1    0    0    0    0 -0.00000000000E+00 -0.00000000000E+00 -0.45593999997E+02  0.45594000000E+02  0.51100000000E-03 0.  1.
         23    2    1    2    0    0  0.17763568394E-14  0.00000000000E+00  0.00000000000E+00  0.91188000000E+02  0.91188000000E+02 0.  0.
    9900012    2    3    3    0    0  0.82181040341E+01  0.36501392052E+02  0.21993963865E+02  0.47787270719E+02  0.19999998515E+02 0.  0.
        -12    1    3    3    0    0 -0.82181040341E+01 -0.36501392052E+02 -0.21993963865E+02  0.43400729281E+02  0.00000000000E+00 0.  1.
         11    1    4    4    0    0  0.67705842891E+01  0.25484206629E+02  0.74708411800E+01  0.27406186661E+02  0.51100000000E-03 0. -1.
        -11    1    4    4    0    0  0.24622323874E+00  0.75194835413E-01  0.70991660670E+01  0.71038327158E+01  0.51100000000E-03 0.  1.
        -12    1    4    4    0    0  0.12012965063E+01  0.10941990588E+02  0.74239566181E+01  0.13277251341E+02  0.00000000000E+00 0.  1.
</event>
<event>
 8    1  0.6239251E-010  0.9118800E+02  0.7816164E-02  0.1184000E+00
        -11   -1    0    0    0    0  0.00000000000E+00  0.00000000000E+00  0.45593999997E+02  0.45594000000E+02  0.51100000000E-03 0. -1.
         11   -1    0    0    0    0 -0.00000000000E+00 -0.00000000000E+00 -0.45593999997E+02  0.45594000000E+02  0.51100000000E-03 0.  1.
         23    2    1    2    0    0 -0.17763568394E-14 -0.35527136788E-14  0.00000000000E+00  0.91188000000E+02  0.91188000000E+02 0.  0.
    9900012    2    3    3    0    0  0.83491377341E+01  0.27157159440E+02  0.32808599411E+02  0.47787267229E+02  0.19999982603E+02 0.  0.
        -12    1    3    3    0    0 -0.83491377341E+01 -0.27157159440E+02 -0.32808599411E+02  0.43400732771E+02  0.00000000000E+00 0.  1.
         11    1    4    4    0    0 -0.38861462088E+01  0.42228058921E+00  0.10296587094E+01  0.40423570564E+01  0.51100000000E-03 0. -1.
        -11    1    4    4    0    0  0.92632463622E+01  0.15308155859E+02  0.15751940557E+02  0.23838435362E+02  0.51100000000E-03 0.  1.
         12    1    4    4    0    0  0.29720375807E+01  0.11426722992E+02  0.16027000145E+02  0.19906474810E+02  0.00000000000E+00 0. -1.
</event>
<event>
 8    1  0.6239251E-010  0.9118800E+02  0.7816164E-02  0.1184000E+00
        -11   -1    0    0    0    0  0.00000000000E+00  0.00000000000E+00  0.45593999997E+02  0.45594000000E+02  0.51100000000E-03 0. -1.
         11   -1    0    0    0    0 -0.00000000000E+00 -0.00000000000E+00 -0.45593999997E+02  0.45594000000E+02  0.51100000000E-03 0.  1.
         23    2    1    2    0    0  0.00000000000E+00 -0.17763568394E-14  0.00000000000E+00  0.91188000000E+02  0.91188000000E+02 0.  0.
    9900012    2    3    3    0    0  0.96548835419E+01 -0.11084060635E+02 -0.40835647886E+02  0.47787270575E+02  0.19999997857E+02 0.  0.
         12    1    3    3    0    0 -0.96548835419E+01  0.11084060635E+02  0.40835647886E+02  0.43400729425E+02  0.00000000000E+00 0. -1.
         11    1    4    4    0    0  0.33602506027E+01 -0.60848374772E+00 -0.22356708410E+01  0.40816370434E+01  0.51100000000E-03 0. -1.
        -11    1    4    4    0    0  0.10217535478E+02 -0.66120153359E+01 -0.35175865493E+02  0.37221744875E+02  0.51100000000E-03 0.  1.
        -12    1    4    4    0    0 -0.39229025389E+01 -0.38635615509E+01 -0.34241115521E+01  0.64838886564E+01  0.00000000000E+00 0.  1.
</event>
<event>
 8    1  0.6239251E-010  0.9118800E+02  0.7816164E-02  0.1184000E+00
        -11   -1    0    0    0    0  0.00000000000E+00  0.00000000000E+00  0.45593999997E+02  0.45594000000E+02  0.51100000000E-03 0. -1.
         11   -1    0    0    0    0 -0.00000000000E+00 -0.00000000000E+00 -0.45593999997E+02  0.45594000000E+02  0.51100000000E-03 0.  1.
         23    2    1    2    0    0  0.00000000000E+00  0.00000000000E+00 -0.71054273576E-14  0.91188000000E+02  0.91188000000E+02 0.  0.
    9900012    2    3    3    0    0 -0.14044995375E+02 -0.21812173649E+02  0.34793590535E+02  0.47787230920E+02  0.19999817055E+02 0.  0.
        -12    1    3    3    0    0  0.14044995375E+02  0.21812173649E+02 -0.34793590535E+02  0.43400769080E+02  0.00000000000E+00 0.  1.
         11    1    4    4    0    0 -0.10395046672E+02 -0.13323187239E+02  0.13850363961E+02  0.21849414080E+02  0.51100000000E-03 0. -1.
        -11    1    4    4    0    0 -0.84457655196E+00 -0.15212779939E+01  0.17651293652E+02  0.17736847638E+02  0.51100000000E-03 0.  1.
        -12    1    4    4    0    0 -0.28053721510E+01 -0.69677084163E+01  0.32919329221E+01  0.82009692015E+01  0.00000000000E+00 0.  1.
</event>
<event>
 8    1  0.6239251E-010  0.9118800E+02  0.7816164E-02  0.1184000E+00
        -11   -1    0    0    0    0  0.00000000000E+00  0.00000000000E+00  0.45593999997E+02  0.45594000000E+02  0.51100000000E-03 0. -1.
         11   -1    0    0    0    0 -0.00000000000E+00 -0.00000000000E+00 -0.45593999997E+02  0.45594000000E+02  0.51100000000E-03 0.  1.
         23    2    1    2    0    0 -0.35527136788E-14  0.00000000000E+00  0.17763568394E-14  0.91188000000E+02  0.91188000000E+02 0.  0.
    9900012    2    3    3    0    0  0.28255829052E+02 -0.29003517522E+02 -0.15621382835E+02  0.47787268373E+02  0.19999987821E+02 0.  0.
         12    1    3    3    0    0 -0.28255829052E+02  0.29003517522E+02  0.15621382835E+02  0.43400731627E+02  0.00000000000E+00 0. -1.
         11    1    4    4    0    0 -0.73101532953E+00 -0.99046391310E+00 -0.18534468763E+01  0.22250096089E+01  0.51100000000E-03 0. -1.
        -11    1    4    4    0    0  0.68161037427E+01  0.25560510725E+00  0.64901217406E+00  0.68517020707E+01  0.51100000000E-03 0.  1.
        -12    1    4    4    0    0  0.22170740639E+02 -0.28268658716E+02 -0.14416948133E+02  0.38710556694E+02  0.00000000000E+00 0.  1.
</event>
<event>
 8    1  0.6239251E-010  0.9118800E+02  0.7816164E-02  0.1184000E+00
        -11   -1    0    0    0    0  0.00000000000E+00  0.00000000000E+00  0.45593999997E+02  0.45594000000E+02  0.51100000000E-03 0. -1.
         11   -1    0    0    0    0 -0.00000000000E+00 -0.00000000000E+00 -0.45593999997E+02  0.45594000000E+02  0.51100000000E-03 0.  1.
         23    2    1    2    0    0 -0.35527136788E-14  0.00000000000E+00  0.00000000000E+00  0.91188000000E+02  0.91188000000E+02 0.  0.
    9900012    2    3    3    0    0 -0.18281809884E+02 -0.35312520395E+02  0.17390358052E+02  0.47787271637E+02  0.20000002702E+02 0.  0.
        -12    1    3    3    0    0  0.18281809884E+02  0.35312520395E+02 -0.17390358052E+02  0.43400728363E+02  0.00000000000E+00 0.  1.
         11    1    4    4    0    0  0.26200828065E+01 -0.13542633587E+02  0.29486279913E+01  0.14105394914E+02  0.51100000000E-03 0. -1.
        -11    1    4    4    0    0 -0.15603181881E+02 -0.17465331992E+02  0.12676007888E+02  0.26630401473E+02  0.51100000000E-03 0.  1.
         12    1    4    4    0    0 -0.52987108100E+01 -0.43045548157E+01  0.17657221727E+01  0.70514752499E+01  0.00000000000E+00 0. -1.
</event>
<event>
 8    1  0.6239251E-010  0.9118800E+02  0.7816164E-02  0.1184000E+00
        -11   -1    0    0    0    0  0.00000000000E+00  0.00000000000E+00  0.45593999997E+02  0.45594000000E+02  0.51100000000E-03 0. -1.
         11   -1    0    0    0    0 -0.00000000000E+00 -0.00000000000E+00 -0.45593999997E+02  0.45594000000E+02  0.51100000000E-03 0.  1.
         23    2    1    2    0    0  0.00000000000E+00 -0.17763568394E-14  0.00000000000E+00  0.91188000000E+02  0.91188000000E+02 0.  0.
    9900012    2    3    3    0    0 -0.10336174271E+02 -0.15131416631E+02  0.39342438073E+02  0.47787266120E+02  0.19999977546E+02 0.  0.
        -12    1    3    3    0    0  0.10336174271E+02  0.15131416631E+02 -0.39342438073E+02  0.43400733880E+02  0.00000000000E+00 0.  1.
         11    1    4    4    0    0 -0.58817728830E+01  0.35808880634E+01  0.11181567822E+02  0.13131849481E+02  0.51100000000E-03 0. -1.
        -11    1    4    4    0    0 -0.13082800583E+01 -0.11882009389E+02  0.12574143157E+02  0.17349432850E+02  0.51100000000E-03 0.  1.
        -12    1    4    4    0    0 -0.31461213296E+01 -0.68302953058E+01  0.15586727094E+02  0.17305983789E+02  0.00000000000E+00 0.  1.
</event>
<event>
 8    1  0.6239251E-010  0.9118800E+02  0.7816164E-02  0.1184000E+00
        -11   -1    0    0    0    0  0.00000000000E+00  0.00000000000E+00  0.45593999997E+02  0.45594000000E+02  0.51100000000E-03 0. -1.
         11   -1    0    0    0    0 -0.00000000000E+00 -0.00000000000E+00 -0.45593999997E+02  0.45594000000E+02  0.51100000000E-03 0.  1.
         23    2    1    2    0    0  0.00000000000E+00 -0.17763568394E-14  0.00000000000E+00  0.91188000000E+02  0.91188000000E+02 0.  0.
    9900012    2    3    3    0    0  0.34908354794E+02 -0.14529142505E+02  0.21305725639E+02  0.47787272341E+02  0.20000005909E+02 0.  0.
        -12    1    3    3    0    0 -0.34908354794E+02  0.14529142505E+02 -0.21305725639E+02  0.43400727659E+02  0.00000000000E+00 0.  1.
         11    1    4    4    0    0  0.47800656193E+01 -0.40540015173E+01  0.28247126322E+01  0.68748059858E+01  0.51100000000E-03 0. -1.
        -11    1    4    4    0    0  0.73785822898E+01  0.27081236119E+01  0.11102977644E+02  0.13603437909E+02  0.51100000000E-03 0.  1.
        -12    1    4    4    0    0  0.22749706885E+02 -0.13183264600E+02  0.73780353629E+01  0.27309028446E+02  0.00000000000E+00 0.  1.
</event>
<event>
 8    1  0.6239251E-010  0.9118800E+02  0.7816164E-02  0.1184000E+00
        -11   -1    0    0    0    0  0.00000000000E+00  0.00000000000E+00  0.45593999997E+02  0.45594000000E+02  0.51100000000E-03 0. -1.
         11   -1    0    0    0    0 -0.00000000000E+00 -0.00000000000E+00 -0.45593999997E+02  0.45594000000E+02  0.51100000000E-03 0.  1.
         23    2    1    2    0    0  0.00000000000E+00  0.00000000000E+00  0.00000000000E+00  0.91188000000E+02  0.91188000000E+02 0.  0.
    9900012    2    3    3    0    0  0.17314833633E+02  0.10608581825E+02 -0.38357234345E+02  0.47787275367E+02  0.20000019709E+02 0.  0.
         12    1    3    3    0    0 -0.17314833633E+02 -0.10608581825E+02  0.38357234345E+02  0.43400724633E+02  0.00000000000E+00 0. -1.
         11    1    4    4    0    0  0.20340542929E+01 -0.35312170186E+01 -0.91642405056E+01  0.10029465330E+02  0.51100000000E-03 0. -1.
        -11    1    4    4    0    0  0.12386828331E+02  0.16199754263E+02 -0.24726763908E+02  0.32051184189E+02  0.51100000000E-03 0.  1.
        -12    1    4    4    0    0  0.28939510093E+01 -0.20599554195E+01 -0.44662299307E+01  0.57066258480E+01  0.00000000000E+00 0.  1.
</event>
<event>
 8    1  0.6239251E-010  0.9118800E+02  0.7816164E-02  0.1184000E+00
        -11   -1    0    0    0    0  0.00000000000E+00  0.00000000000E+00  0.45593999997E+02  0.45594000000E+02  0.51100000000E-03 0. -1.
         11   -1    0    0    0    0 -0.00000000000E+00 -0.00000000000E+00 -0.45593999997E+02  0.45594000000E+02  0.51100000000E-03 0.  1.
         23    2    1    2    0    0  0.00000000000E+00  0.00000000000E+00  0.00000000000E+00  0.91188000000E+02  0.91188000000E+02 0.  0.
    9900012    2    3    3    0    0  0.90729242637E+01 -0.38369208589E+02 -0.18141364584E+02  0.47787271534E+02  0.20000002232E+02 0.  0.
         12    1    3    3    0    0 -0.90729242637E+01  0.38369208589E+02  0.18141364584E+02  0.43400728466E+02  0.00000000000E+00 0. -1.
         11    1    4    4    0    0 -0.37804653106E+01 -0.33064216997E+01 -0.56395721574E+01  0.75517624963E+01  0.51100000000E-03 0. -1.
        -11    1    4    4    0    0  0.10526811928E+02 -0.30446446069E+02 -0.75732864108E+01  0.33093118845E+02  0.51100000000E-03 0.  1.
        -12    1    4    4    0    0  0.23265776467E+01 -0.46163408203E+01 -0.49285060155E+01  0.71423901923E+01  0.00000000000E+00 0.  1.
</event>
<event>
 8    1  0.6239251E-010  0.9118800E+02  0.7816164E-02  0.1184000E+00
        -11   -1    0    0    0    0  0.00000000000E+00  0.00000000000E+00  0.45593999997E+02  0.45594000000E+02  0.51100000000E-03 0. -1.
         11   -1    0    0    0    0 -0.00000000000E+00 -0.00000000000E+00 -0.45593999997E+02  0.45594000000E+02  0.51100000000E-03 0.  1.
         23    2    1    2    0    0  0.00000000000E+00  0.35527136788E-14  0.00000000000E+00  0.91188000000E+02  0.91188000000E+02 0.  0.
    9900012    2    3    3    0    0 -0.57757042381E+01  0.28578574670E+02  0.32148558802E+02  0.47787268178E+02  0.19999986931E+02 0.  0.
        -12    1    3    3    0    0  0.57757042381E+01 -0.28578574670E+02 -0.32148558802E+02  0.43400731822E+02  0.00000000000E+00 0.  1.
         11    1    4    4    0    0 -0.79221096773E+01  0.13495862409E+02  0.12206023434E+02  0.19846539553E+02  0.51100000000E-03 0. -1.
        -11    1    4    4    0    0 -0.49617699741E+01  0.43605488160E+01  0.54623864258E+01  0.85715350421E+01  0.51100000000E-03 0.  1.
         12    1    4    4    0    0  0.71081754133E+01  0.10722163445E+02  0.14480148942E+02  0.19369193583E+02  0.00000000000E+00 0. -1.
</event>
<event>
 8    1  0.7641364E-010  0.9118800E+02  0.7816164E-02  0.1184000E+00
        -11   -1    0    0    0    0  0.00000000000E+00  0.00000000000E+00  0.45593999997E+02  0.45594000000E+02  0.51100000000E-03 0. -1.
         11   -1    0    0    0    0 -0.00000000000E+00 -0.00000000000E+00 -0.45593999997E+02  0.45594000000E+02  0.51100000000E-03 0.  1.
         23    2    1    2    0    0  0.00000000000E+00  0.00000000000E+00 -0.71054273576E-14  0.91188000000E+02  0.91188000000E+02 0.  0.
    9900012    2    3    3    0    0 -0.12547725115E+02  0.12325717702E+02  0.39676855406E+02  0.47787290590E+02  0.20000089115E+02 0.  0.
        -12    1    3    3    0    0  0.12547725115E+02 -0.12325717702E+02 -0.39676855406E+02  0.43400709410E+02  0.00000000000E+00 0.  1.
         11    1    4    4    0    0 -0.10925705147E+01  0.50992436583E+01  0.19888063542E+02  0.20560424799E+02  0.51100000000E-03 0. -1.
        -11    1    4    4    0    0 -0.87626056279E+01 -0.19982581921E+01  0.81395863912E+01  0.12125558135E+02  0.51100000000E-03 0.  1.
        -12    1    4    4    0    0 -0.26925489723E+01  0.92247322353E+01  0.11649205473E+02  0.15101307656E+02  0.00000000000E+00 0.  1.
</event>
<event>
 8    1  0.6239251E-010  0.9118800E+02  0.7816164E-02  0.1184000E+00
        -11   -1    0    0    0    0  0.00000000000E+00  0.00000000000E+00  0.45593999997E+02  0.45594000000E+02  0.51100000000E-03 0. -1.
         11   -1    0    0    0    0 -0.00000000000E+00 -0.00000000000E+00 -0.45593999997E+02  0.45594000000E+02  0.51100000000E-03 0.  1.
         23    2    1    2    0    0  0.00000000000E+00  0.35527136788E-14  0.00000000000E+00  0.91188000000E+02  0.91188000000E+02 0.  0.
    9900012    2    3    3    0    0 -0.33944303299E+02 -0.21329410605E+02 -0.16627192800E+02  0.47787273928E+02  0.20000013146E+02 0.  0.
         12    1    3    3    0    0  0.33944303299E+02  0.21329410605E+02  0.16627192800E+02  0.43400726072E+02  0.00000000000E+00 0. -1.
         11    1    4    4    0    0 -0.54039933409E+01  0.24795816942E+01 -0.22003389407E+01  0.63397918832E+01  0.51100000000E-03 0. -1.
        -11    1    4    4    0    0 -0.16713743305E+02 -0.20588804591E+02 -0.86218088364E+01  0.27885187423E+02  0.51100000000E-03 0.  1.
        -12    1    4    4    0    0 -0.11826566653E+02 -0.32201877077E+01 -0.58050450234E+01  0.13562294621E+02  0.00000000000E+00 0.  1.
</event>
<event>
 8    1  0.6239251E-010  0.9118800E+02  0.7816164E-02  0.1184000E+00
        -11   -1    0    0    0    0  0.00000000000E+00  0.00000000000E+00  0.45593999997E+02  0.45594000000E+02  0.51100000000E-03 0. -1.
         11   -1    0    0    0    0 -0.00000000000E+00 -0.00000000000E+00 -0.45593999997E+02  0.45594000000E+02  0.51100000000E-03 0.  1.
         23    2    1    2    0    0  0.00000000000E+00  0.00000000000E+00  0.88817841970E-15  0.91188000000E+02  0.91188000000E+02 0.  0.
    9900012    2    3    3    0    0  0.27036924775E+02  0.33080757212E+02  0.76348904202E+01  0.47787270159E+02  0.19999995963E+02 0.  0.
        -12    1    3    3    0    0 -0.27036924775E+02 -0.33080757212E+02 -0.76348904202E+01  0.43400729841E+02  0.00000000000E+00 0.  1.
         11    1    4    4    0    0  0.82272913557E+01  0.16556353879E+02  0.93091686593E+01  0.20699318786E+02  0.51100000000E-03 0. -1.
        -11    1    4    4    0    0  0.10479731114E+02  0.12631743265E+02 -0.52355565920E+01  0.17227790201E+02  0.51100000000E-03 0.  1.
        -12    1    4    4    0    0  0.83299023053E+01  0.38926600681E+01  0.35612783529E+01  0.98601611715E+01  0.00000000000E+00 0.  1.
</event>
<event>
 8    1  0.6239251E-010  0.9118800E+02  0.7816164E-02  0.1184000E+00
        -11   -1    0    0    0    0  0.00000000000E+00  0.00000000000E+00  0.45593999997E+02  0.45594000000E+02  0.51100000000E-03 0. -1.
         11   -1    0    0    0    0 -0.00000000000E+00 -0.00000000000E+00 -0.45593999997E+02  0.45594000000E+02  0.51100000000E-03 0.  1.
         23    2    1    2    0    0  0.00000000000E+00 -0.35527136788E-14  0.71054273576E-14  0.91188000000E+02  0.91188000000E+02 0.  0.
    9900012    2    3    3    0    0  0.77295764452E+01 -0.17418679634E+02  0.38993161936E+02  0.47787269246E+02  0.19999991801E+02 0.  0.
        -12    1    3    3    0    0 -0.77295764452E+01  0.17418679634E+02 -0.38993161936E+02  0.43400730754E+02  0.00000000000E+00 0.  1.
         11    1    4    4    0    0  0.73943091152E+01 -0.13811088272E+02  0.33985968046E+02  0.37422827136E+02  0.51100000000E-03 0. -1.
        -11    1    4    4    0    0  0.40579968644E+00 -0.33731171664E+00 -0.22993447087E+01  0.23591182527E+01  0.51100000000E-03 0.  1.
        -12    1    4    4    0    0 -0.70532356485E-01 -0.32702796461E+01  0.73065385985E+01  0.80053238579E+01  0.00000000000E+00 0.  1.
</event>
<event>
 8    1  0.6239251E-010  0.9118800E+02  0.7816164E-02  0.1184000E+00
        -11   -1    0    0    0    0  0.00000000000E+00  0.00000000000E+00  0.45593999997E+02  0.45594000000E+02  0.51100000000E-03 0. -1.
         11   -1    0    0    0    0 -0.00000000000E+00 -0.00000000000E+00 -0.45593999997E+02  0.45594000000E+02  0.51100000000E-03 0.  1.
         23    2    1    2    0    0  0.00000000000E+00  0.00000000000E+00  0.00000000000E+00  0.91188000000E+02  0.91188000000E+02 0.  0.
    9900012    2    3    3    0    0  0.22916330339E+01  0.41325520866E+02  0.13060346428E+02  0.47787275286E+02  0.20000019341E+02 0.  0.
        -12    1    3    3    0    0 -0.22916330339E+01 -0.41325520866E+02 -0.13060346428E+02  0.43400724714E+02  0.00000000000E+00 0.  1.
         11    1    4    4    0    0 -0.16661613278E+01  0.35745170280E+02  0.57893927834E+01  0.36249280834E+02  0.51100000000E-03 0. -1.
        -11    1    4    4    0    0  0.84331091526E+00 -0.11914501184E+01  0.16462065979E+01  0.22001643367E+01  0.51100000000E-03 0.  1.
         12    1    4    4    0    0  0.31144834465E+01  0.67718007043E+01  0.56247470471E+01  0.93378301152E+01  0.00000000000E+00 0. -1.
</event>
<event>
 8    1  0.6239251E-010  0.9118800E+02  0.7816164E-02  0.1184000E+00
        -11   -1    0    0    0    0  0.00000000000E+00  0.00000000000E+00  0.45593999997E+02  0.45594000000E+02  0.51100000000E-03 0.  1.
         11   -1    0    0    0    0 -0.00000000000E+00 -0.00000000000E+00 -0.45593999997E+02  0.45594000000E+02  0.51100000000E-03 0. -1.
         23    2    1    2    0    0  0.00000000000E+00 -0.22204460493E-15 -0.88817841970E-15  0.91188000000E+02  0.91188000000E+02 0.  0.
    9900012    2    3    3    0    0  0.43240111293E+02 -0.15193624911E+01 -0.34062777316E+01  0.47787327021E+02  0.20000255218E+02 0.  0.
        -12    1    3    3    0    0 -0.43240111293E+02  0.15193624911E+01  0.34062777316E+01  0.43400672979E+02  0.00000000000E+00 0.  1.
         11    1    4    4    0    0  0.30576987310E+02 -0.36219788788E+01 -0.73300592661E+01  0.31651234621E+02  0.51100000000E-03 0. -1.
        -11    1    4    4    0    0  0.12580866603E+01  0.11759264314E+01  0.43573011191E+01  0.46852596855E+01  0.51100000000E-03 0.  1.
        -12    1    4    4    0    0  0.11405037323E+02  0.92668995629E+00 -0.43351958456E+00  0.11450832714E+02  0.00000000000E+00 0.  1.
</event>
<event>
 8    1  0.6239251E-010  0.9118800E+02  0.7816164E-02  0.1184000E+00
        -11   -1    0    0    0    0  0.00000000000E+00  0.00000000000E+00  0.45593999997E+02  0.45594000000E+02  0.51100000000E-03 0. -1.
         11   -1    0    0    0    0 -0.00000000000E+00 -0.00000000000E+00 -0.45593999997E+02  0.45594000000E+02  0.51100000000E-03 0.  1.
         23    2    1    2    0    0  0.88817841970E-15  0.00000000000E+00 -0.35527136788E-14  0.91188000000E+02  0.91188000000E+02 0.  0.
    9900012    2    3    3    0    0  0.63182562581E+01 -0.39598877523E+02 -0.16602163731E+02  0.47787270700E+02  0.19999998430E+02 0.  0.
         12    1    3    3    0    0 -0.63182562581E+01  0.39598877523E+02  0.16602163731E+02  0.43400729300E+02  0.00000000000E+00 0. -1.
         11    1    4    4    0    0 -0.94746087349E+00 -0.30489987232E+00  0.80623391854E+00  0.12808822863E+01  0.51100000000E-03 0. -1.
        -11    1    4    4    0    0  0.22674769094E+01 -0.22808974667E+02 -0.13578565688E+01  0.22961588613E+02  0.51100000000E-03 0.  1.
        -12    1    4    4    0    0  0.49982402222E+01 -0.16485002983E+02 -0.16050541081E+02  0.23544799801E+02  0.00000000000E+00 0.  1.
</event>
<event>
 8    1  0.6239251E-010  0.9118800E+02  0.7816164E-02  0.1184000E+00
        -11   -1    0    0    0    0  0.00000000000E+00  0.00000000000E+00  0.45593999997E+02  0.45594000000E+02  0.51100000000E-03 0. -1.
         11   -1    0    0    0    0 -0.00000000000E+00 -0.00000000000E+00 -0.45593999997E+02  0.45594000000E+02  0.51100000000E-03 0.  1.
         23    2    1    2    0    0  0.00000000000E+00  0.00000000000E+00 -0.71054273576E-14  0.91188000000E+02  0.91188000000E+02 0.  0.
    9900012    2    3    3    0    0  0.10785492433E+02 -0.24623074436E+02  0.34073460255E+02  0.47787270335E+02  0.19999996764E+02 0.  0.
        -12    1    3    3    0    0 -0.10785492433E+02  0.24623074436E+02 -0.34073460255E+02  0.43400729665E+02  0.00000000000E+00 0.  1.
         11    1    4    4    0    0  0.13458468066E+01  0.14972570232E+01  0.97547401325E+01  0.99603231641E+01  0.51100000000E-03 0. -1.
        -11    1    4    4    0    0  0.18020613052E+01 -0.35337447122E+00  0.46888299151E+00  0.18952968067E+01  0.51100000000E-03 0.  1.
         12    1    4    4    0    0  0.76375843217E+01 -0.25766956988E+02  0.23849837131E+02  0.35931650364E+02  0.00000000000E+00 0. -1.
</event>
<event>
 8    1  0.6239251E-010  0.9118800E+02  0.7816164E-02  0.1184000E+00
        -11   -1    0    0    0    0  0.00000000000E+00  0.00000000000E+00  0.45593999997E+02  0.45594000000E+02  0.51100000000E-03 0. -1.
         11   -1    0    0    0    0 -0.00000000000E+00 -0.00000000000E+00 -0.45593999997E+02  0.45594000000E+02  0.51100000000E-03 0.  1.
         23    2    1    2    0    0  0.00000000000E+00  0.35527136788E-14  0.00000000000E+00  0.91188000000E+02  0.91188000000E+02 0.  0.
    9900012    2    3    3    0    0  0.22874834968E+02  0.17976990166E+02 -0.32205476836E+02  0.47787274333E+02  0.20000014992E+02 0.  0.
         12    1    3    3    0    0 -0.22874834968E+02 -0.17976990166E+02  0.32205476836E+02  0.43400725667E+02  0.00000000000E+00 0. -1.
         11    1    4    4    0    0 -0.22152513631E+01  0.20940355227E+01 -0.40973620433E+00  0.30757450138E+01  0.51100000000E-03 0. -1.
        -11    1    4    4    0    0  0.14959268996E+02  0.57607191727E+01 -0.22543102451E+02  0.27661472893E+02  0.51100000000E-03 0.  1.
        -12    1    4    4    0    0  0.10130817335E+02  0.10122235470E+02 -0.92526381812E+01  0.17050056425E+02  0.00000000000E+00 0.  1.
</event>
<event>
 8    1  0.6239251E-010  0.9118800E+02  0.7816164E-02  0.1184000E+00
        -11   -1    0    0    0    0  0.00000000000E+00  0.00000000000E+00  0.45593999997E+02  0.45594000000E+02  0.51100000000E-03 0. -1.
         11   -1    0    0    0    0 -0.00000000000E+00 -0.00000000000E+00 -0.45593999997E+02  0.45594000000E+02  0.51100000000E-03 0.  1.
         23    2    1    2    0    0 -0.88817841970E-15 -0.35527136788E-14  0.35527136788E-14  0.91188000000E+02  0.91188000000E+02 0.  0.
    9900012    2    3    3    0    0 -0.45509394299E+01 -0.30296945627E+02  0.30740966215E+02  0.47787274570E+02  0.20000016074E+02 0.  0.
        -12    1    3    3    0    0  0.45509394299E+01  0.30296945627E+02 -0.30740966215E+02  0.43400725430E+02  0.00000000000E+00 0.  1.
         11    1    4    4    0    0 -0.65769880798E+01 -0.24357783093E+01  0.77068921489E+01  0.10420459444E+02  0.51100000000E-03 0. -1.
        -11    1    4    4    0    0  0.43769040294E+01 -0.69157294129E+01  0.47405185941E+01  0.94581773613E+01  0.51100000000E-03 0.  1.
         12    1    4    4    0    0 -0.23508553796E+01 -0.20945437905E+02  0.18293555472E+02  0.27908637764E+02  0.00000000000E+00 0. -1.
</event>
<event>
 8    1  0.6239251E-010  0.9118800E+02  0.7816164E-02  0.1184000E+00
        -11   -1    0    0    0    0  0.00000000000E+00  0.00000000000E+00  0.45593999997E+02  0.45594000000E+02  0.51100000000E-03 0. -1.
         11   -1    0    0    0    0 -0.00000000000E+00 -0.00000000000E+00 -0.45593999997E+02  0.45594000000E+02  0.51100000000E-03 0.  1.
         23    2    1    2    0    0 -0.17763568394E-14 -0.71054273576E-14 -0.35527136788E-14  0.91188000000E+02  0.91188000000E+02 0.  0.
    9900012    2    3    3    0    0 -0.15106727803E+02 -0.35275482853E+02 -0.20274342714E+02  0.47787287011E+02  0.20000072798E+02 0.  0.
         12    1    3    3    0    0  0.15106727803E+02  0.35275482853E+02  0.20274342714E+02  0.43400712989E+02  0.00000000000E+00 0. -1.
         11    1    4    4    0    0 -0.13306688438E+02 -0.12421576903E+02 -0.14256716829E+02  0.23121797183E+02  0.51100000000E-03 0.  1.
        -11    1    4    4    0    0 -0.34933797674E+01 -0.15218154628E+02 -0.16332028951E+01  0.15699149163E+02  0.51100000000E-03 0. -1.
        -12    1    4    4    0    0  0.16933404026E+01 -0.76357513216E+01 -0.43844229903E+01  0.89663406651E+01  0.00000000000E+00 0.  1.
</event>
<event>
 8    1  0.6239251E-010  0.9118800E+02  0.7816164E-02  0.1184000E+00
        -11   -1    0    0    0    0  0.00000000000E+00  0.00000000000E+00  0.45593999997E+02  0.45594000000E+02  0.51100000000E-03 0. -1.
         11   -1    0    0    0    0 -0.00000000000E+00 -0.00000000000E+00 -0.45593999997E+02  0.45594000000E+02  0.51100000000E-03 0.  1.
         23    2    1    2    0    0  0.35527136788E-14  0.00000000000E+00  0.00000000000E+00  0.91188000000E+02  0.91188000000E+02 0.  0.
    9900012    2    3    3    0    0 -0.30159294756E+02  0.30771371070E+02 -0.52118197784E+01  0.47787269556E+02  0.19999993211E+02 0.  0.
         12    1    3    3    0    0  0.30159294756E+02 -0.30771371070E+02  0.52118197784E+01  0.43400730444E+02  0.00000000000E+00 0. -1.
         11    1    4    4    0    0 -0.51905954973E+01  0.73410131681E+00  0.15785365744E+01  0.54747570118E+01  0.51100000000E-03 0. -1.
        -11    1    4    4    0    0 -0.85340100428E+01  0.20162717572E+02 -0.74526020326E+01  0.23128030280E+02  0.51100000000E-03 0.  1.
        -12    1    4    4    0    0 -0.16434689216E+02  0.98745521815E+01  0.66224567985E+00  0.19184482264E+02  0.00000000000E+00 0.  1.
</event>
<event>
 8    1  0.6239251E-010  0.9118800E+02  0.7816164E-02  0.1184000E+00
        -11   -1    0    0    0    0  0.00000000000E+00  0.00000000000E+00  0.45593999997E+02  0.45594000000E+02  0.51100000000E-03 0. -1.
         11   -1    0    0    0    0 -0.00000000000E+00 -0.00000000000E+00 -0.45593999997E+02  0.45594000000E+02  0.51100000000E-03 0.  1.
         23    2    1    2    0    0  0.00000000000E+00  0.00000000000E+00 -0.35527136788E-14  0.91188000000E+02  0.91188000000E+02 0.  0.
    9900012    2    3    3    0    0 -0.35522176069E+02 -0.11118329962E+02 -0.22319973735E+02  0.47787268654E+02  0.19999989100E+02 0.  0.
         12    1    3    3    0    0  0.35522176069E+02  0.11118329962E+02  0.22319973735E+02  0.43400731346E+02  0.00000000000E+00 0. -1.
         11    1    4    4    0    0 -0.37129229112E+00  0.38043533390E+01 -0.33630528182E+01  0.50912755585E+01  0.51100000000E-03 0. -1.
        -11    1    4    4    0    0 -0.30726604141E+02 -0.12700926003E+02 -0.15688815392E+02  0.36763795397E+02  0.51100000000E-03 0.  1.
         12    1    4    4    0    0 -0.44242796376E+01 -0.22217572982E+01 -0.32681055251E+01  0.59321976979E+01  0.00000000000E+00 0. -1.
</event>
<event>
 8    1  0.6239251E-010  0.9118800E+02  0.7816164E-02  0.1184000E+00
        -11   -1    0    0    0    0  0.00000000000E+00  0.00000000000E+00  0.45593999997E+02  0.45594000000E+02  0.51100000000E-03 0. -1.
         11   -1    0    0    0    0 -0.00000000000E+00 -0.00000000000E+00 -0.45593999997E+02  0.45594000000E+02  0.51100000000E-03 0.  1.
         23    2    1    2    0    0  0.17763568394E-14  0.00000000000E+00  0.00000000000E+00  0.91188000000E+02  0.91188000000E+02 0.  0.
    9900012    2    3    3    0    0  0.10091074203E+02  0.32585746271E+02 -0.26832114532E+02  0.47787274097E+02  0.20000013920E+02 0.  0.
         12    1    3    3    0    0 -0.10091074203E+02 -0.32585746271E+02  0.26832114532E+02  0.43400725903E+02  0.00000000000E+00 0. -1.
         11    1    4    4    0    0 -0.11445940171E+01  0.11557838771E+02 -0.10343082602E+02  0.15552269624E+02  0.51100000000E-03 0. -1.
        -11    1    4    4    0    0  0.12679611364E+02  0.12682619174E+02 -0.63517344450E+01  0.19025401551E+02  0.51100000000E-03 0.  1.
        -12    1    4    4    0    0 -0.14439431435E+01  0.83452883272E+01 -0.10137297485E+02  0.13209602922E+02  0.00000000000E+00 0.  1.
</event>
<event>
 8    1  0.6239251E-010  0.9118800E+02  0.7816164E-02  0.1184000E+00
        -11   -1    0    0    0    0  0.00000000000E+00  0.00000000000E+00  0.45593999997E+02  0.45594000000E+02  0.51100000000E-03 0. -1.
         11   -1    0    0    0    0 -0.00000000000E+00 -0.00000000000E+00 -0.45593999997E+02  0.45594000000E+02  0.51100000000E-03 0.  1.
         23    2    1    2    0    0 -0.71054273576E-14  0.00000000000E+00  0.35527136788E-14  0.91188000000E+02  0.91188000000E+02 0.  0.
    9900012    2    3    3    0    0 -0.35460981648E+02 -0.14846556975E+02  0.20142529977E+02  0.47787274346E+02  0.20000015051E+02 0.  0.
        -12    1    3    3    0    0  0.35460981648E+02  0.14846556975E+02 -0.20142529977E+02  0.43400725654E+02  0.00000000000E+00 0.  1.
         11    1    4    4    0    0 -0.34862901178E+02 -0.81288988926E+01  0.19354363307E+02  0.40695113405E+02  0.51100000000E-03 0.  1.
        -11    1    4    4    0    0  0.54503736804E+00 -0.46230398429E+01  0.66966986015E+00  0.47029800238E+01  0.51100000000E-03 0. -1.
        -12    1    4    4    0    0 -0.11431178381E+01 -0.20946182396E+01  0.11849681040E+00  0.23891809172E+01  0.00000000000E+00 0.  1.
</event>
<event>
 8    1  0.6239251E-010  0.9118800E+02  0.7816164E-02  0.1184000E+00
        -11   -1    0    0    0    0  0.00000000000E+00  0.00000000000E+00  0.45593999997E+02  0.45594000000E+02  0.51100000000E-03 0. -1.
         11   -1    0    0    0    0 -0.00000000000E+00 -0.00000000000E+00 -0.45593999997E+02  0.45594000000E+02  0.51100000000E-03 0.  1.
         23    2    1    2    0    0 -0.17763568394E-14 -0.17763568394E-14  0.00000000000E+00  0.91188000000E+02  0.91188000000E+02 0.  0.
    9900012    2    3    3    0    0  0.15203841929E+02 -0.12767932132E+02  0.38593341481E+02  0.47787275271E+02  0.20000019269E+02 0.  0.
        -12    1    3    3    0    0 -0.15203841929E+02  0.12767932132E+02 -0.38593341481E+02  0.43400724729E+02  0.00000000000E+00 0.  1.
         11    1    4    4    0    0  0.12033827129E+02 -0.16851976687E+02  0.30120890307E+02  0.36552293318E+02  0.51100000000E-03 0. -1.
        -11    1    4    4    0    0 -0.31191089593E+00  0.35479573790E+01  0.58272255910E+01  0.68294837521E+01  0.51100000000E-03 0.  1.
        -12    1    4    4    0    0  0.34819256961E+01  0.53608717562E+00  0.26452255827E+01  0.44054982007E+01  0.00000000000E+00 0.  1.
</event>
<event>
 8    1  0.6239251E-010  0.9118800E+02  0.7816164E-02  0.1184000E+00
        -11   -1    0    0    0    0  0.00000000000E+00  0.00000000000E+00  0.45593999997E+02  0.45594000000E+02  0.51100000000E-03 0. -1.
         11   -1    0    0    0    0 -0.00000000000E+00 -0.00000000000E+00 -0.45593999997E+02  0.45594000000E+02  0.51100000000E-03 0.  1.
         23    2    1    2    0    0  0.00000000000E+00  0.00000000000E+00 -0.35527136788E-14  0.91188000000E+02  0.91188000000E+02 0.  0.
    9900012    2    3    3    0    0  0.19242798113E+02  0.25690044967E+02  0.29212330794E+02  0.47787263139E+02  0.19999963958E+02 0.  0.
        -12    1    3    3    0    0 -0.19242798113E+02 -0.25690044967E+02 -0.29212330794E+02  0.43400736861E+02  0.00000000000E+00 0.  1.
         11    1    4    4    0    0  0.84611011318E+01  0.54107474397E+01  0.59885759051E+01  0.11693137383E+02  0.51100000000E-03 0. -1.
        -11    1    4    4    0    0 -0.14016946933E+01  0.12723194579E+02  0.14369928069E+02  0.19244200718E+02  0.51100000000E-03 0.  1.
        -12    1    4    4    0    0  0.12183391674E+02  0.75561029488E+01  0.88538268196E+01  0.16849925039E+02  0.00000000000E+00 0.  1.
</event>
<event>
 8    1  0.6239251E-010  0.9118800E+02  0.7816164E-02  0.1184000E+00
        -11   -1    0    0    0    0  0.00000000000E+00  0.00000000000E+00  0.45593999997E+02  0.45594000000E+02  0.51100000000E-03 0. -1.
         11   -1    0    0    0    0 -0.00000000000E+00 -0.00000000000E+00 -0.45593999997E+02  0.45594000000E+02  0.51100000000E-03 0.  1.
         23    2    1    2    0    0  0.00000000000E+00  0.44408920985E-15 -0.35527136788E-14  0.91188000000E+02  0.91188000000E+02 0.  0.
    9900012    2    3    3    0    0  0.33185452914E+02  0.27344013747E+01  0.27836522081E+02  0.47787271924E+02  0.20000004008E+02 0.  0.
        -12    1    3    3    0    0 -0.33185452914E+02 -0.27344013747E+01 -0.27836522081E+02  0.43400728076E+02  0.00000000000E+00 0.  1.
         11    1    4    4    0    0  0.90730400806E+01  0.40133651618E+01  0.17887408692E+02  0.20454499412E+02  0.51100000000E-03 0. -1.
        -11    1    4    4    0    0  0.66389450663E+00 -0.17597372113E+01  0.14934141709E+01  0.24016071943E+01  0.51100000000E-03 0.  1.
         12    1    4    4    0    0  0.23448518327E+02  0.48077342417E+00  0.84556992187E+01  0.24931165317E+02  0.00000000000E+00 0. -1.
</event>
<event>
 8    1  0.6239251E-010  0.9118800E+02  0.7816164E-02  0.1184000E+00
        -11   -1    0    0    0    0  0.00000000000E+00  0.00000000000E+00  0.45593999997E+02  0.45594000000E+02  0.51100000000E-03 0.  1.
         11   -1    0    0    0    0 -0.00000000000E+00 -0.00000000000E+00 -0.45593999997E+02  0.45594000000E+02  0.51100000000E-03 0. -1.
         23    2    1    2    0    0  0.00000000000E+00  0.00000000000E+00 -0.35527136788E-14  0.91188000000E+02  0.91188000000E+02 0.  0.
    9900012    2    3    3    0    0  0.34885114687E+02 -0.15795847713E+02  0.20424083457E+02  0.47787271702E+02  0.20000002999E+02 0.  0.
        -12    1    3    3    0    0 -0.34885114687E+02  0.15795847713E+02 -0.20424083457E+02  0.43400728298E+02  0.00000000000E+00 0.  1.
         11    1    4    4    0    0  0.13175276880E+02 -0.11670637835E+02  0.35535685823E+01  0.17956045173E+02  0.51100000000E-03 0. -1.
        -11    1    4    4    0    0  0.19883319309E+02 -0.28856059502E+01  0.18320362344E+02  0.27190233267E+02  0.51100000000E-03 0.  1.
        -12    1    4    4    0    0  0.18265184987E+01 -0.12396039281E+01 -0.14498474694E+01  0.26409932618E+01  0.00000000000E+00 0.  1.
</event>
<event>
 8    1  0.6239251E-010  0.9118800E+02  0.7816164E-02  0.1184000E+00
        -11   -1    0    0    0    0  0.00000000000E+00  0.00000000000E+00  0.45593999997E+02  0.45594000000E+02  0.51100000000E-03 0.  1.
         11   -1    0    0    0    0 -0.00000000000E+00 -0.00000000000E+00 -0.45593999997E+02  0.45594000000E+02  0.51100000000E-03 0. -1.
         23    2    1    2    0    0  0.71054273576E-14 -0.44408920985E-15  0.00000000000E+00  0.91188000000E+02  0.91188000000E+02 0.  0.
    9900012    2    3    3    0    0 -0.42040159854E+02  0.20571191870E+01  0.10583771781E+02  0.47787274142E+02  0.20000014122E+02 0.  0.
         12    1    3    3    0    0  0.42040159854E+02 -0.20571191870E+01 -0.10583771781E+02  0.43400725858E+02  0.00000000000E+00 0. -1.
         11    1    4    4    0    0 -0.45483896706E+01  0.48206775995E+01  0.57318191199E+01  0.87624501025E+01  0.51100000000E-03 0. -1.
        -11    1    4    4    0    0 -0.36386370443E+02 -0.29538499693E+01  0.64509344425E+01  0.37071656817E+02  0.51100000000E-03 0.  1.
         12    1    4    4    0    0 -0.11053997401E+01  0.19029155674E+00 -0.15989817816E+01  0.19531672227E+01  0.00000000000E+00 0. -1.
</event>
<event>
 8    1  0.6239251E-010  0.9118800E+02  0.7816164E-02  0.1184000E+00
        -11   -1    0    0    0    0  0.00000000000E+00  0.00000000000E+00  0.45593999997E+02  0.45594000000E+02  0.51100000000E-03 0. -1.
         11   -1    0    0    0    0 -0.00000000000E+00 -0.00000000000E+00 -0.45593999997E+02  0.45594000000E+02  0.51100000000E-03 0.  1.
         23    2    1    2    0    0  0.00000000000E+00  0.00000000000E+00 -0.35527136788E-14  0.91188000000E+02  0.91188000000E+02 0.  0.
    9900012    2    3    3    0    0 -0.32107388911E+02 -0.23653417325E+02 -0.17124680917E+02  0.47787271085E+02  0.20000000186E+02 0.  0.
         12    1    3    3    0    0  0.32107388911E+02  0.23653417325E+02  0.17124680917E+02  0.43400728915E+02  0.00000000000E+00 0. -1.
         11    1    4    4    0    0 -0.14266995678E+02 -0.18736723598E+02 -0.90251960881E+01  0.25220351733E+02  0.51100000000E-03 0. -1.
        -11    1    4    4    0    0 -0.96203467203E+01 -0.73778820131E+01 -0.67642479134E+01  0.13883056728E+02  0.51100000000E-03 0.  1.
         12    1    4    4    0    0 -0.82200465130E+01  0.24611882859E+01 -0.13352369154E+01  0.86838626242E+01  0.00000000000E+00 0. -1.
</event>
<event>
 8    1  0.6239251E-010  0.9118800E+02  0.7816164E-02  0.1184000E+00
        -11   -1    0    0    0    0  0.00000000000E+00  0.00000000000E+00  0.45593999997E+02  0.45594000000E+02  0.51100000000E-03 0. -1.
         11   -1    0    0    0    0 -0.00000000000E+00 -0.00000000000E+00 -0.45593999997E+02  0.45594000000E+02  0.51100000000E-03 0.  1.
         23    2    1    2    0    0 -0.17763568394E-14 -0.44408920985E-15  0.71054273576E-14  0.91188000000E+02  0.91188000000E+02 0.  0.
    9900012    2    3    3    0    0 -0.10924560518E+02  0.23085216689E+01  0.41939811921E+02  0.47787272831E+02  0.20000008148E+02 0.  0.
        -12    1    3    3    0    0  0.10924560518E+02 -0.23085216689E+01 -0.41939811921E+02  0.43400727169E+02  0.00000000000E+00 0.  1.
         11    1    4    4    0    0 -0.86741908142E+01  0.87384394761E+01  0.28054755142E+02  0.30637741384E+02  0.51100000000E-03 0. -1.
        -11    1    4    4    0    0 -0.67956017553E+00  0.14456567921E+01  0.77534666748E+00  0.17756374373E+01  0.51100000000E-03 0.  1.
         12    1    4    4    0    0 -0.15708095284E+01 -0.78755745993E+01  0.13109710111E+02  0.15373894011E+02  0.00000000000E+00 0. -1.
</event>
<event>
 8    1  0.6239251E-010  0.9118800E+02  0.7816164E-02  0.1184000E+00
        -11   -1    0    0    0    0  0.00000000000E+00  0.00000000000E+00  0.45593999997E+02  0.45594000000E+02  0.51100000000E-03 0. -1.
         11   -1    0    0    0    0 -0.00000000000E+00 -0.00000000000E+00 -0.45593999997E+02  0.45594000000E+02  0.51100000000E-03 0.  1.
         23    2    1    2    0    0  0.35527136788E-14  0.00000000000E+00  0.00000000000E+00  0.91188000000E+02  0.91188000000E+02 0.  0.
    9900012    2    3    3    0    0  0.27753418267E+02  0.63459073174E+01  0.32758205241E+02  0.47787276782E+02  0.20000026162E+02 0.  0.
        -12    1    3    3    0    0 -0.27753418267E+02 -0.63459073174E+01 -0.32758205241E+02  0.43400723218E+02  0.00000000000E+00 0.  1.
         11    1    4    4    0    0  0.24094655132E+01 -0.84661843372E+00  0.14956623450E+02  0.15173096985E+02  0.51100000000E-03 0. -1.
        -11    1    4    4    0    0  0.14786740546E+02  0.30991634295E+01  0.59906938993E+01  0.16252412855E+02  0.51100000000E-03 0.  1.
         12    1    4    4    0    0  0.10557212208E+02  0.40933623217E+01  0.11810887892E+02  0.16361766943E+02  0.00000000000E+00 0. -1.
</event>
<event>
 8    1  0.6239251E-010  0.9118800E+02  0.7816164E-02  0.1184000E+00
        -11   -1    0    0    0    0  0.00000000000E+00  0.00000000000E+00  0.45593999997E+02  0.45594000000E+02  0.51100000000E-03 0.  1.
         11   -1    0    0    0    0 -0.00000000000E+00 -0.00000000000E+00 -0.45593999997E+02  0.45594000000E+02  0.51100000000E-03 0. -1.
         23    2    1    2    0    0  0.71054273576E-14 -0.44408920985E-15 -0.17763568394E-14  0.91188000000E+02  0.91188000000E+02 0.  0.
    9900012    2    3    3    0    0  0.40591081702E+02  0.21518597732E+01 -0.15210417545E+02  0.47787271710E+02  0.20000003033E+02 0.  0.
         12    1    3    3    0    0 -0.40591081702E+02 -0.21518597732E+01  0.15210417545E+02  0.43400728290E+02  0.00000000000E+00 0. -1.
         11    1    4    4    0    0  0.17962849608E+02  0.60897831171E+01 -0.30817731671E+01  0.19215794300E+02  0.51100000000E-03 0. -1.
        -11    1    4    4    0    0  0.19351518413E+02 -0.67014454388E+01 -0.12918009270E+02  0.24212922162E+02  0.51100000000E-03 0.  1.
        -12    1    4    4    0    0  0.32767136816E+01  0.27635220948E+01  0.78936489216E+00  0.43585552483E+01  0.00000000000E+00 0.  1.
</event>
<event>
 8    1  0.6239251E-010  0.9118800E+02  0.7816164E-02  0.1184000E+00
        -11   -1    0    0    0    0  0.00000000000E+00  0.00000000000E+00  0.45593999997E+02  0.45594000000E+02  0.51100000000E-03 0. -1.
         11   -1    0    0    0    0 -0.00000000000E+00 -0.00000000000E+00 -0.45593999997E+02  0.45594000000E+02  0.51100000000E-03 0.  1.
         23    2    1    2    0    0  0.00000000000E+00  0.00000000000E+00  0.00000000000E+00  0.91188000000E+02  0.91188000000E+02 0.  0.
    9900012    2    3    3    0    0  0.22215040237E+02  0.83593988208E+01 -0.36335046723E+02  0.47787272106E+02  0.20000004839E+02 0.  0.
         12    1    3    3    0    0 -0.22215040237E+02 -0.83593988208E+01  0.36335046723E+02  0.43400727894E+02  0.00000000000E+00 0. -1.
         11    1    4    4    0    0  0.37540469363E+01  0.21294219484E+01  0.11878225526E+01  0.44764080368E+01  0.51100000000E-03 0. -1.
        -11    1    4    4    0    0  0.17406987974E+02  0.82748885253E+01 -0.34409835165E+02  0.39440002114E+02  0.51100000000E-03 0.  1.
        -12    1    4    4    0    0  0.10540053262E+01 -0.20449116530E+01 -0.31130341111E+01  0.38708619548E+01  0.00000000000E+00 0.  1.
</event>
<event>
 8    1  0.6239251E-010  0.9118800E+02  0.7816164E-02  0.1184000E+00
        -11   -1    0    0    0    0  0.00000000000E+00  0.00000000000E+00  0.45593999997E+02  0.45594000000E+02  0.51100000000E-03 0. -1.
         11   -1    0    0    0    0 -0.00000000000E+00 -0.00000000000E+00 -0.45593999997E+02  0.45594000000E+02  0.51100000000E-03 0.  1.
         23    2    1    2    0    0  0.00000000000E+00  0.00000000000E+00  0.00000000000E+00  0.91188000000E+02  0.91188000000E+02 0.  0.
    9900012    2    3    3    0    0 -0.41107637785E+02  0.80493120465E+01 -0.11357538889E+02  0.47787274220E+02  0.20000014477E+02 0.  0.
         12    1    3    3    0    0  0.41107637785E+02 -0.80493120465E+01  0.11357538889E+02  0.43400725780E+02  0.00000000000E+00 0. -1.
         11    1    4    4    0    0 -0.77460500625E+01  0.75414383933E+01  0.23658076029E+01  0.11066690132E+02  0.51100000000E-03 0. -1.
        -11    1    4    4    0    0 -0.16395841913E+02 -0.23659054367E+01 -0.91104452843E+01  0.18905590551E+02  0.51100000000E-03 0.  1.
        -12    1    4    4    0    0 -0.16965745809E+02  0.28737790899E+01 -0.46129012077E+01  0.17814993536E+02  0.00000000000E+00 0.  1.
</event>
<event>
 8    1  0.6239251E-010  0.9118800E+02  0.7816164E-02  0.1184000E+00
        -11   -1    0    0    0    0  0.00000000000E+00  0.00000000000E+00  0.45593999997E+02  0.45594000000E+02  0.51100000000E-03 0. -1.
         11   -1    0    0    0    0 -0.00000000000E+00 -0.00000000000E+00 -0.45593999997E+02  0.45594000000E+02  0.51100000000E-03 0.  1.
         23    2    1    2    0    0  0.00000000000E+00  0.00000000000E+00  0.00000000000E+00  0.91188000000E+02  0.91188000000E+02 0.  0.
    9900012    2    3    3    0    0  0.10718900234E+02 -0.31893450730E+02  0.27414190161E+02  0.47787252957E+02  0.19999917530E+02 0.  0.
        -12    1    3    3    0    0 -0.10718900234E+02  0.31893450730E+02 -0.27414190161E+02  0.43400747043E+02  0.00000000000E+00 0.  1.
         11    1    4    4    0    0  0.90819268777E+01 -0.33546945690E+02  0.23289125419E+02  0.41836136580E+02  0.51100000000E-03 0. -1.
        -11    1    4    4    0    0  0.16436179224E+01  0.38099037652E+00  0.56447434723E-01  0.16881410237E+01  0.51100000000E-03 0.  1.
         12    1    4    4    0    0 -0.66445662729E-02  0.12725045826E+01  0.40686173075E+01  0.42629753527E+01  0.00000000000E+00 0. -1.
</event>
<event>
 8    1  0.6239251E-010  0.9118800E+02  0.7816164E-02  0.1184000E+00
        -11   -1    0    0    0    0  0.00000000000E+00  0.00000000000E+00  0.45593999997E+02  0.45594000000E+02  0.51100000000E-03 0. -1.
         11   -1    0    0    0    0 -0.00000000000E+00 -0.00000000000E+00 -0.45593999997E+02  0.45594000000E+02  0.51100000000E-03 0.  1.
         23    2    1    2    0    0  0.00000000000E+00  0.00000000000E+00  0.00000000000E+00  0.91188000000E+02  0.91188000000E+02 0.  0.
    9900012    2    3    3    0    0  0.22381923121E+01  0.28491222489E+02 -0.32662880515E+02  0.47787273885E+02  0.20000012954E+02 0.  0.
         12    1    3    3    0    0 -0.22381923121E+01 -0.28491222489E+02  0.32662880515E+02  0.43400726115E+02  0.00000000000E+00 0. -1.
         11    1    4    4    0    0  0.11091331299E+01  0.30652837432E+02 -0.24489409788E+02  0.39249940267E+02  0.51100000000E-03 0. -1.
        -11    1    4    4    0    0  0.59843684832E+00 -0.93017323193E+00 -0.31753239305E+01  0.33624442342E+01  0.51100000000E-03 0.  1.
         12    1    4    4    0    0  0.53062233385E+00 -0.12314417107E+01 -0.49981467959E+01  0.51748893844E+01  0.00000000000E+00 0. -1.
</event>
<event>
 8    1  0.6239251E-010  0.9118800E+02  0.7816164E-02  0.1184000E+00
        -11   -1    0    0    0    0  0.00000000000E+00  0.00000000000E+00  0.45593999997E+02  0.45594000000E+02  0.51100000000E-03 0. -1.
         11   -1    0    0    0    0 -0.00000000000E+00 -0.00000000000E+00 -0.45593999997E+02  0.45594000000E+02  0.51100000000E-03 0.  1.
         23    2    1    2    0    0  0.87777007884E-15  0.00000000000E+00  0.35527136788E-14  0.91188000000E+02  0.91188000000E+02 0.  0.
    9900012    2    3    3    0    0  0.28805532275E-01 -0.30442324099E+02 -0.30933593750E+02  0.47787272488E+02  0.20000006581E+02 0.  0.
         12    1    3    3    0    0 -0.28805532275E-01  0.30442324099E+02  0.30933593750E+02  0.43400727512E+02  0.00000000000E+00 0. -1.
         11    1    4    4    0    0 -0.75610000115E+01 -0.13896736350E+02 -0.85547609808E+01  0.17985325631E+02  0.51100000000E-03 0. -1.
        -11    1    4    4    0    0  0.10361866261E+01 -0.39329670715E+00  0.34656660812E+00  0.11612380027E+01  0.51100000000E-03 0.  1.
         12    1    4    4    0    0  0.65536189177E+01 -0.16152291042E+02 -0.22725399377E+02  0.28640708854E+02  0.00000000000E+00 0. -1.
</event>
<event>
 8    1  0.6265313E-010  0.9118800E+02  0.7816164E-02  0.1184000E+00
        -11   -1    0    0    0    0  0.00000000000E+00  0.00000000000E+00  0.45593999997E+02  0.45594000000E+02  0.51100000000E-03 0. -1.
         11   -1    0    0    0    0 -0.00000000000E+00 -0.00000000000E+00 -0.45593999997E+02  0.45594000000E+02  0.51100000000E-03 0.  1.
         23    2    1    2    0    0  0.00000000000E+00 -0.35527136788E-14  0.00000000000E+00  0.91188000000E+02  0.91188000000E+02 0.  0.
    9900012    2    3    3    0    0  0.32408191773E+02 -0.15795728273E+02  0.24162495096E+02  0.47787284627E+02  0.20000061927E+02 0.  0.
        -12    1    3    3    0    0 -0.32408191773E+02  0.15795728273E+02 -0.24162495096E+02  0.43400715373E+02  0.00000000000E+00 0.  1.
         11    1    4    4    0    0  0.18955071722E+02 -0.13722892019E+02  0.21278200362E+02  0.31628694571E+02  0.51100000000E-03 0. -1.
        -11    1    4    4    0    0  0.11198540918E+02  0.96434200071E+00  0.44178095823E+01  0.12077016021E+02  0.51100000000E-03 0.  1.
        -12    1    4    4    0    0  0.22545791321E+01 -0.30371782542E+01 -0.15335148485E+01  0.40815740348E+01  0.00000000000E+00 0.  1.
</event>
<event>
 8    1  0.6239251E-010  0.9118800E+02  0.7816164E-02  0.1184000E+00
        -11   -1    0    0    0    0  0.00000000000E+00  0.00000000000E+00  0.45593999997E+02  0.45594000000E+02  0.51100000000E-03 0.  1.
         11   -1    0    0    0    0 -0.00000000000E+00 -0.00000000000E+00 -0.45593999997E+02  0.45594000000E+02  0.51100000000E-03 0. -1.
         23    2    1    2    0    0  0.00000000000E+00  0.17763568394E-14  0.00000000000E+00  0.91188000000E+02  0.91188000000E+02 0.  0.
    9900012    2    3    3    0    0 -0.34618333634E+02  0.13927542337E+02  0.22163431462E+02  0.47787272433E+02  0.20000006331E+02 0.  0.
        -12    1    3    3    0    0  0.34618333634E+02 -0.13927542337E+02 -0.22163431462E+02  0.43400727567E+02  0.00000000000E+00 0.  1.
         11    1    4    4    0    0 -0.26555961499E+02  0.87007311415E+01  0.11094672646E+02  0.30066818503E+02  0.51100000000E-03 0. -1.
        -11    1    4    4    0    0 -0.68975992008E+01  0.67534814622E+01  0.12148970362E+02  0.15517211983E+02  0.51100000000E-03 0.  1.
         12    1    4    4    0    0 -0.11647729342E+01 -0.15266702666E+01 -0.10802115461E+01  0.22032419467E+01  0.00000000000E+00 0. -1.
</event>
<event>
 8    1  0.6239251E-010  0.9118800E+02  0.7816164E-02  0.1184000E+00
        -11   -1    0    0    0    0  0.00000000000E+00  0.00000000000E+00  0.45593999997E+02  0.45594000000E+02  0.51100000000E-03 0. -1.
         11   -1    0    0    0    0 -0.00000000000E+00 -0.00000000000E+00 -0.45593999997E+02  0.45594000000E+02  0.51100000000E-03 0.  1.
         23    2    1    2    0    0 -0.35527136788E-14 -0.35527136788E-14  0.00000000000E+00  0.91188000000E+02  0.91188000000E+02 0.  0.
    9900012    2    3    3    0    0 -0.18188500124E+02  0.21322581715E+02 -0.33138331867E+02  0.47787273432E+02  0.20000010885E+02 0.  0.
         12    1    3    3    0    0  0.18188500124E+02 -0.21322581715E+02  0.33138331867E+02  0.43400726568E+02  0.00000000000E+00 0. -1.
         11    1    4    4    0    0  0.90958913770E+00 -0.11409745927E+01  0.97652674261E+00  0.17557847706E+01  0.51100000000E-03 0. -1.
        -11    1    4    4    0    0 -0.41813889182E+01  0.35272874284E+01 -0.12538227634E+02  0.13679653591E+02  0.51100000000E-03 0.  1.
         12    1    4    4    0    0 -0.14916700344E+02  0.18936268879E+02 -0.21576630975E+02  0.32351835071E+02  0.00000000000E+00 0. -1.
</event>
<event>
 8    1  0.6239251E-010  0.9118800E+02  0.7816164E-02  0.1184000E+00
        -11   -1    0    0    0    0  0.00000000000E+00  0.00000000000E+00  0.45593999997E+02  0.45594000000E+02  0.51100000000E-03 0. -1.
         11   -1    0    0    0    0 -0.00000000000E+00 -0.00000000000E+00 -0.45593999997E+02  0.45594000000E+02  0.51100000000E-03 0.  1.
         23    2    1    2    0    0  0.00000000000E+00 -0.17763568394E-14 -0.35527136788E-14  0.91188000000E+02  0.91188000000E+02 0.  0.
    9900012    2    3    3    0    0 -0.27471639389E+02  0.11609893168E+02  0.31530015334E+02  0.47787280454E+02  0.20000042904E+02 0.  0.
        -12    1    3    3    0    0  0.27471639389E+02 -0.11609893168E+02 -0.31530015334E+02  0.43400719546E+02  0.00000000000E+00 0.  1.
         11    1    4    4    0    0 -0.23851152648E+02  0.59384230962E+01  0.15377657908E+02  0.28993356386E+02  0.51100000000E-03 0. -1.
        -11    1    4    4    0    0  0.95585990710E+00  0.11463294492E+01  0.95866881936E-01  0.14956370175E+01  0.51100000000E-03 0.  1.
         12    1    4    4    0    0 -0.45763466478E+01  0.45251406230E+01  0.16056490544E+02  0.17298287051E+02  0.00000000000E+00 0. -1.
</event>
<event>
 8    1  0.6239251E-010  0.9118800E+02  0.7816164E-02  0.1184000E+00
        -11   -1    0    0    0    0  0.00000000000E+00  0.00000000000E+00  0.45593999997E+02  0.45594000000E+02  0.51100000000E-03 0. -1.
         11   -1    0    0    0    0 -0.00000000000E+00 -0.00000000000E+00 -0.45593999997E+02  0.45594000000E+02  0.51100000000E-03 0.  1.
         23    2    1    2    0    0  0.88817841970E-15  0.17763568394E-14  0.00000000000E+00  0.91188000000E+02  0.91188000000E+02 0.  0.
    9900012    2    3    3    0    0  0.65392152688E+01 -0.93013196770E+01 -0.41884927320E+02  0.47787273961E+02  0.20000013299E+02 0.  0.
         12    1    3    3    0    0 -0.65392152688E+01  0.93013196770E+01  0.41884927320E+02  0.43400726039E+02  0.00000000000E+00 0. -1.
         11    1    4    4    0    0  0.22667716383E+01 -0.52071049012E+01 -0.57410877729E+01  0.80754123232E+01  0.51100000000E-03 0. -1.
        -11    1    4    4    0    0  0.67784262921E+01  0.37139023515E+01 -0.12610604687E+02  0.14790790530E+02  0.51100000000E-03 0.  1.
        -12    1    4    4    0    0 -0.25059826616E+01 -0.78081171274E+01 -0.23533234860E+02  0.24921071108E+02  0.00000000000E+00 0.  1.
</event>
<event>
 8    1  0.6239251E-010  0.9118800E+02  0.7816164E-02  0.1184000E+00
        -11   -1    0    0    0    0  0.00000000000E+00  0.00000000000E+00  0.45593999997E+02  0.45594000000E+02  0.51100000000E-03 0. -1.
         11   -1    0    0    0    0 -0.00000000000E+00 -0.00000000000E+00 -0.45593999997E+02  0.45594000000E+02  0.51100000000E-03 0.  1.
         23    2    1    2    0    0  0.00000000000E+00  0.00000000000E+00  0.00000000000E+00  0.91188000000E+02  0.91188000000E+02 0.  0.
    9900012    2    3    3    0    0 -0.23745142361E+02 -0.27443759085E+02  0.23804025989E+02  0.47787270147E+02  0.19999995908E+02 0.  0.
        -12    1    3    3    0    0  0.23745142361E+02  0.27443759085E+02 -0.23804025989E+02  0.43400729853E+02  0.00000000000E+00 0.  1.
         11    1    4    4    0    0 -0.12767124439E+02 -0.14492953952E+02  0.18809562484E+02  0.26960059751E+02  0.51100000000E-03 0. -1.
        -11    1    4    4    0    0 -0.12884605874E+01 -0.77713202965E+01  0.58424194605E+01  0.98075183023E+01  0.51100000000E-03 0.  1.
         12    1    4    4    0    0 -0.96895573353E+01 -0.51794848366E+01 -0.84795595550E+00  0.11019692093E+02  0.00000000000E+00 0. -1.
</event>
<event>
 8    1  0.6239251E-010  0.9118800E+02  0.7816164E-02  0.1184000E+00
        -11   -1    0    0    0    0  0.00000000000E+00  0.00000000000E+00  0.45593999997E+02  0.45594000000E+02  0.51100000000E-03 0. -1.
         11   -1    0    0    0    0 -0.00000000000E+00 -0.00000000000E+00 -0.45593999997E+02  0.45594000000E+02  0.51100000000E-03 0.  1.
         23    2    1    2    0    0  0.11102230246E-15 -0.38857805862E-15  0.00000000000E+00  0.91188000000E+02  0.91188000000E+02 0.  0.
    9900012    2    3    3    0    0 -0.77247017980E+00  0.29774064241E+00 -0.43392832116E+02  0.47787271449E+02  0.20000001846E+02 0.  0.
         12    1    3    3    0    0  0.77247017980E+00 -0.29774064241E+00  0.43392832116E+02  0.43400728551E+02  0.00000000000E+00 0. -1.
         11    1    4    4    0    0  0.22951771055E+01 -0.47305031403E+01 -0.85670261956E+01  0.10051837444E+02  0.51100000000E-03 0. -1.
        -11    1    4    4    0    0 -0.16237138657E+01  0.93751844195E+01 -0.18839523409E+02  0.21105880037E+02  0.51100000000E-03 0.  1.
        -12    1    4    4    0    0 -0.14439334196E+01 -0.43469406368E+01 -0.15986282512E+02  0.16629553968E+02  0.00000000000E+00 0.  1.
</event>
<event>
 8    1  0.6239251E-010  0.9118800E+02  0.7816164E-02  0.1184000E+00
        -11   -1    0    0    0    0  0.00000000000E+00  0.00000000000E+00  0.45593999997E+02  0.45594000000E+02  0.51100000000E-03 0. -1.
         11   -1    0    0    0    0 -0.00000000000E+00 -0.00000000000E+00 -0.45593999997E+02  0.45594000000E+02  0.51100000000E-03 0.  1.
         23    2    1    2    0    0  0.00000000000E+00  0.35527136788E-14  0.00000000000E+00  0.91188000000E+02  0.91188000000E+02 0.  0.
    9900012    2    3    3    0    0 -0.49263705921E+01  0.26604815775E+02 -0.33934317247E+02  0.47787271473E+02  0.20000001955E+02 0.  0.
         12    1    3    3    0    0  0.49263705921E+01 -0.26604815775E+02  0.33934317247E+02  0.43400728527E+02  0.00000000000E+00 0. -1.
         11    1    4    4    0    0  0.19840973810E+01  0.43238178030E+01 -0.27535806385E+01  0.54967489851E+01  0.51100000000E-03 0.  1.
        -11    1    4    4    0    0 -0.25377436748E+01  0.12991164591E+02 -0.49674377567E+01  0.14138102366E+02  0.51100000000E-03 0. -1.
        -12    1    4    4    0    0 -0.43727242983E+01  0.92898333812E+01 -0.26213298852E+02  0.28152420122E+02  0.00000000000E+00 0.  1.
</event>
<event>
 8    1  0.6239251E-010  0.9118800E+02  0.7816164E-02  0.1184000E+00
        -11   -1    0    0    0    0  0.00000000000E+00  0.00000000000E+00  0.45593999997E+02  0.45594000000E+02  0.51100000000E-03 0. -1.
         11   -1    0    0    0    0 -0.00000000000E+00 -0.00000000000E+00 -0.45593999997E+02  0.45594000000E+02  0.51100000000E-03 0.  1.
         23    2    1    2    0    0  0.00000000000E+00  0.00000000000E+00  0.00000000000E+00  0.91188000000E+02  0.91188000000E+02 0.  0.
    9900012    2    3    3    0    0 -0.29274180068E+02  0.15838819656E+01  0.32002141204E+02  0.47787270255E+02  0.19999996402E+02 0.  0.
        -12    1    3    3    0    0  0.29274180068E+02 -0.15838819656E+01 -0.32002141204E+02  0.43400729745E+02  0.00000000000E+00 0.  1.
         11    1    4    4    0    0 -0.18780424862E+01 -0.48348304447E+01  0.10596714390E+02  0.11798007676E+02  0.51100000000E-03 0. -1.
        -11    1    4    4    0    0 -0.24860035408E+02  0.69444920967E+01  0.17091360583E+02  0.30957421369E+02  0.51100000000E-03 0.  1.
        -12    1    4    4    0    0 -0.25361021733E+01 -0.52577968640E+00  0.43140662317E+01  0.50318412101E+01  0.00000000000E+00 0.  1.
</event>
<event>
 8    1  0.6239251E-010  0.9118800E+02  0.7816164E-02  0.1184000E+00
        -11   -1    0    0    0    0  0.00000000000E+00  0.00000000000E+00  0.45593999997E+02  0.45594000000E+02  0.51100000000E-03 0. -1.
         11   -1    0    0    0    0 -0.00000000000E+00 -0.00000000000E+00 -0.45593999997E+02  0.45594000000E+02  0.51100000000E-03 0.  1.
         23    2    1    2    0    0  0.00000000000E+00  0.00000000000E+00  0.00000000000E+00  0.91188000000E+02  0.91188000000E+02 0.  0.
    9900012    2    3    3    0    0 -0.16907064347E+02  0.32898182655E+02 -0.22704271632E+02  0.47787271928E+02  0.20000004030E+02 0.  0.
         12    1    3    3    0    0  0.16907064347E+02 -0.32898182655E+02  0.22704271632E+02  0.43400728072E+02  0.00000000000E+00 0. -1.
         11    1    4    4    0    0 -0.63988926597E+01  0.10257121657E+02 -0.16379319963E+02  0.20357713395E+02  0.51100000000E-03 0. -1.
        -11    1    4    4    0    0  0.99677405062E+00  0.34822633978E+01 -0.32589853991E+01  0.48724432241E+01  0.51100000000E-03 0.  1.
         12    1    4    4    0    0 -0.11504945738E+02  0.19158797600E+02 -0.30659662698E+01  0.22557115309E+02  0.00000000000E+00 0. -1.
</event>
<event>
 8    1  0.6239251E-010  0.9118800E+02  0.7816164E-02  0.1184000E+00
        -11   -1    0    0    0    0  0.00000000000E+00  0.00000000000E+00  0.45593999997E+02  0.45594000000E+02  0.51100000000E-03 0. -1.
         11   -1    0    0    0    0 -0.00000000000E+00 -0.00000000000E+00 -0.45593999997E+02  0.45594000000E+02  0.51100000000E-03 0.  1.
         23    2    1    2    0    0  0.00000000000E+00 -0.35527136788E-14  0.00000000000E+00  0.91188000000E+02  0.91188000000E+02 0.  0.
    9900012    2    3    3    0    0  0.55939499546E+01  0.17145095971E+02  0.39476281007E+02  0.47787270120E+02  0.19999995787E+02 0.  0.
        -12    1    3    3    0    0 -0.55939499546E+01 -0.17145095971E+02 -0.39476281007E+02  0.43400729880E+02  0.00000000000E+00 0.  1.
         11    1    4    4    0    0 -0.24366013221E+01  0.52845853949E+01  0.63661584763E+00  0.58539857190E+01  0.51100000000E-03 0. -1.
        -11    1    4    4    0    0  0.71918931257E+01  0.97914882720E+01  0.37280750056E+02  0.39210341675E+02  0.51100000000E-03 0.  1.
        -12    1    4    4    0    0  0.83865815103E+00  0.20690223045E+01  0.15589151033E+01  0.27229427262E+01  0.00000000000E+00 0.  1.
</event>
<event>
 8    1  0.6239251E-010  0.9118800E+02  0.7816164E-02  0.1184000E+00
        -11   -1    0    0    0    0  0.00000000000E+00  0.00000000000E+00  0.45593999997E+02  0.45594000000E+02  0.51100000000E-03 0. -1.
         11   -1    0    0    0    0 -0.00000000000E+00 -0.00000000000E+00 -0.45593999997E+02  0.45594000000E+02  0.51100000000E-03 0.  1.
         23    2    1    2    0    0  0.00000000000E+00  0.00000000000E+00  0.00000000000E+00  0.91188000000E+02  0.91188000000E+02 0.  0.
    9900012    2    3    3    0    0  0.35272114094E+02  0.24355771832E+02  0.68042435215E+01  0.47787269775E+02  0.19999994212E+02 0.  0.
        -12    1    3    3    0    0 -0.35272114094E+02 -0.24355771832E+02 -0.68042435215E+01  0.43400730225E+02  0.00000000000E+00 0.  1.
         11    1    4    4    0    0  0.20086466877E+02  0.76383029365E+01  0.10178946018E+02  0.23778577873E+02  0.51100000000E-03 0. -1.
        -11    1    4    4    0    0  0.64264942655E+00  0.50217293227E+01 -0.11730477384E+00  0.50640422931E+01  0.51100000000E-03 0.  1.
         12    1    4    4    0    0  0.14542997791E+02  0.11695739573E+02 -0.32573977230E+01  0.18944649609E+02  0.00000000000E+00 0. -1.
</event>
<event>
 8    1  0.6239251E-010  0.9118800E+02  0.7816164E-02  0.1184000E+00
        -11   -1    0    0    0    0  0.00000000000E+00  0.00000000000E+00  0.45593999997E+02  0.45594000000E+02  0.51100000000E-03 0. -1.
         11   -1    0    0    0    0 -0.00000000000E+00 -0.00000000000E+00 -0.45593999997E+02  0.45594000000E+02  0.51100000000E-03 0.  1.
         23    2    1    2    0    0 -0.35527136788E-14  0.00000000000E+00  0.00000000000E+00  0.91188000000E+02  0.91188000000E+02 0.  0.
    9900012    2    3    3    0    0  0.28975055796E+02 -0.23136636528E+02 -0.22555829217E+02  0.47787271436E+02  0.20000001786E+02 0.  0.
         12    1    3    3    0    0 -0.28975055796E+02  0.23136636528E+02  0.22555829217E+02  0.43400728564E+02  0.00000000000E+00 0. -1.
         11    1    4    4    0    0  0.17126201619E+02 -0.11287380025E+02 -0.59055114079E+01  0.21344479262E+02  0.51100000000E-03 0. -1.
        -11    1    4    4    0    0  0.46951219271E+01 -0.27733056399E+01 -0.13355667094E+02  0.14425991747E+02  0.51100000000E-03 0.  1.
         12    1    4    4    0    0  0.71537322500E+01 -0.90759508631E+01 -0.32946507147E+01  0.12016800427E+02  0.00000000000E+00 0. -1.
</event>
<event>
 8    1  0.7198733E-010  0.9118800E+02  0.7816164E-02  0.1184000E+00
        -11   -1    0    0    0    0  0.00000000000E+00  0.00000000000E+00  0.45593999997E+02  0.45594000000E+02  0.51100000000E-03 0. -1.
         11   -1    0    0    0    0 -0.00000000000E+00 -0.00000000000E+00 -0.45593999997E+02  0.45594000000E+02  0.51100000000E-03 0.  1.
         23    2    1    2    0    0  0.00000000000E+00 -0.36082248300E-15  0.00000000000E+00  0.91188000000E+02  0.91188000000E+02 0.  0.
    9900012    2    3    3    0    0  0.93844607121E+01  0.17997793121E+00  0.42373615237E+02  0.47787265407E+02  0.19999974298E+02 0.  0.
        -12    1    3    3    0    0 -0.93844607121E+01 -0.17997793121E+00 -0.42373615237E+02  0.43400734593E+02  0.00000000000E+00 0.  1.
         11    1    4    4    0    0  0.82951666196E+01  0.53321055188E+01  0.10495464181E+02  0.14401246722E+02  0.51100000000E-03 0. -1.
        -11    1    4    4    0    0 -0.33925335384E+01 -0.71869681321E+00  0.86952158438E+01  0.93612278976E+01  0.51100000000E-03 0.  1.
         12    1    4    4    0    0  0.44818276309E+01 -0.44334307744E+01  0.23182935212E+02  0.24024790788E+02  0.00000000000E+00 0. -1.
</event>
<event>
 8    1  0.6239251E-010  0.9118800E+02  0.7816164E-02  0.1184000E+00
        -11   -1    0    0    0    0  0.00000000000E+00  0.00000000000E+00  0.45593999997E+02  0.45594000000E+02  0.51100000000E-03 0.  1.
         11   -1    0    0    0    0 -0.00000000000E+00 -0.00000000000E+00 -0.45593999997E+02  0.45594000000E+02  0.51100000000E-03 0. -1.
         23    2    1    2    0    0  0.00000000000E+00  0.00000000000E+00 -0.88817841970E-15  0.91188000000E+02  0.91188000000E+02 0.  0.
    9900012    2    3    3    0    0  0.34360190813E+01  0.42844689631E+02 -0.60124689174E+01  0.47787269140E+02  0.19999991318E+02 0.  0.
        -12    1    3    3    0    0 -0.34360190813E+01 -0.42844689631E+02  0.60124689174E+01  0.43400730860E+02  0.00000000000E+00 0.  1.
         11    1    4    4    0    0  0.30279418828E+01  0.25252802681E+02 -0.36657595167E+01  0.25696503038E+02  0.51100000000E-03 0. -1.
        -11    1    4    4    0    0 -0.55883730368E+01  0.58636074132E+01  0.17678465455E+01  0.82907832419E+01  0.51100000000E-03 0.  1.
        -12    1    4    4    0    0  0.59964502354E+01  0.11728279537E+02 -0.41145559461E+01  0.13799982861E+02  0.00000000000E+00 0.  1.
</event>
<event>
 8    1  0.6239251E-010  0.9118800E+02  0.7816164E-02  0.1184000E+00
        -11   -1    0    0    0    0  0.00000000000E+00  0.00000000000E+00  0.45593999997E+02  0.45594000000E+02  0.51100000000E-03 0. -1.
         11   -1    0    0    0    0 -0.00000000000E+00 -0.00000000000E+00 -0.45593999997E+02  0.45594000000E+02  0.51100000000E-03 0.  1.
         23    2    1    2    0    0  0.00000000000E+00  0.00000000000E+00  0.00000000000E+00  0.91188000000E+02  0.91188000000E+02 0.  0.
    9900012    2    3    3    0    0  0.12860646865E+02 -0.23863974917E+02 -0.33893033535E+02  0.47787271217E+02  0.20000000788E+02 0.  0.
         12    1    3    3    0    0 -0.12860646865E+02  0.23863974917E+02  0.33893033535E+02  0.43400728783E+02  0.00000000000E+00 0. -1.
         11    1    4    4    0    0  0.16207673678E+01 -0.38575291001E+01 -0.27473444727E+01  0.50055288962E+01  0.51100000000E-03 0. -1.
        -11    1    4    4    0    0  0.93794838313E+01 -0.17789187409E+01 -0.17506403726E+02  0.19940246752E+02  0.51100000000E-03 0.  1.
        -12    1    4    4    0    0  0.18603956661E+01 -0.18227527076E+02 -0.13639285336E+02  0.22841495569E+02  0.00000000000E+00 0.  1.
</event>
<event>
 8    1  0.6239251E-010  0.9118800E+02  0.7816164E-02  0.1184000E+00
        -11   -1    0    0    0    0  0.00000000000E+00  0.00000000000E+00  0.45593999997E+02  0.45594000000E+02  0.51100000000E-03 0. -1.
         11   -1    0    0    0    0 -0.00000000000E+00 -0.00000000000E+00 -0.45593999997E+02  0.45594000000E+02  0.51100000000E-03 0.  1.
         23    2    1    2    0    0  0.00000000000E+00  0.00000000000E+00  0.00000000000E+00  0.91188000000E+02  0.91188000000E+02 0.  0.
    9900012    2    3    3    0    0 -0.20295658058E+02 -0.13547291682E+02  0.35891232051E+02  0.47787269752E+02  0.19999994108E+02 0.  0.
        -12    1    3    3    0    0  0.20295658058E+02  0.13547291682E+02 -0.35891232051E+02  0.43400730248E+02  0.00000000000E+00 0.  1.
         11    1    4    4    0    0 -0.13500144574E+01 -0.15660712647E+01  0.80452402107E+01  0.83066845703E+01  0.51100000000E-03 0. -1.
        -11    1    4    4    0    0 -0.11439229483E+02 -0.13967312795E+02  0.25731167406E+02  0.31433020443E+02  0.51100000000E-03 0.  1.
        -12    1    4    4    0    0 -0.75064141174E+01  0.19860923773E+01  0.21148244347E+01  0.80475647386E+01  0.00000000000E+00 0.  1.
</event>
<event>
 8    1  0.6239251E-010  0.9118800E+02  0.7816164E-02  0.1184000E+00
        -11   -1    0    0    0    0  0.00000000000E+00  0.00000000000E+00  0.45593999997E+02  0.45594000000E+02  0.51100000000E-03 0. -1.
         11   -1    0    0    0    0 -0.00000000000E+00 -0.00000000000E+00 -0.45593999997E+02  0.45594000000E+02  0.51100000000E-03 0.  1.
         23    2    1    2    0    0 -0.35527136788E-14 -0.35527136788E-14 -0.35527136788E-14  0.91188000000E+02  0.91188000000E+02 0.  0.
    9900012    2    3    3    0    0 -0.31883535687E+02 -0.21170522615E+02 -0.20466364437E+02  0.47787274788E+02  0.20000017066E+02 0.  0.
         12    1    3    3    0    0  0.31883535687E+02  0.21170522615E+02  0.20466364437E+02  0.43400725212E+02  0.00000000000E+00 0. -1.
         11    1    4    4    0    0 -0.21029133973E+02 -0.93751162463E+01 -0.92134474660E+01  0.24799292223E+02  0.51100000000E-03 0. -1.
        -11    1    4    4    0    0  0.12252248793E+01 -0.68979286827E+01 -0.41760370096E+01  0.81560947447E+01  0.51100000000E-03 0.  1.
        -12    1    4    4    0    0 -0.12079626593E+02 -0.48974776863E+01 -0.70768799611E+01  0.14831887820E+02  0.00000000000E+00 0.  1.
</event>
<event>
 8    1  0.6239251E-010  0.9118800E+02  0.7816164E-02  0.1184000E+00
        -11   -1    0    0    0    0  0.00000000000E+00  0.00000000000E+00  0.45593999997E+02  0.45594000000E+02  0.51100000000E-03 0. -1.
         11   -1    0    0    0    0 -0.00000000000E+00 -0.00000000000E+00 -0.45593999997E+02  0.45594000000E+02  0.51100000000E-03 0.  1.
         23    2    1    2    0    0  0.35527136788E-14 -0.35527136788E-14  0.00000000000E+00  0.91188000000E+02  0.91188000000E+02 0.  0.
    9900012    2    3    3    0    0 -0.16449731243E+02  0.28848307529E+02  0.27942813129E+02  0.47787316701E+02  0.20000208165E+02 0.  0.
        -12    1    3    3    0    0  0.16449731243E+02 -0.28848307529E+02 -0.27942813129E+02  0.43400683299E+02  0.00000000000E+00 0.  1.
         11    1    4    4    0    0 -0.10031718685E+02  0.19394716584E+02  0.10574949488E+02  0.24261491464E+02  0.51100000000E-03 0. -1.
        -11    1    4    4    0    0 -0.78835603125E+01  0.93181726006E+01  0.18139767207E+02  0.21863897603E+02  0.51100000000E-03 0.  1.
        -12    1    4    4    0    0  0.14655477537E+01  0.13541834394E+00 -0.77190356519E+00  0.16619276339E+01  0.00000000000E+00 0.  1.
</event>
<event>
 8    1  0.6239251E-010  0.9118800E+02  0.7816164E-02  0.1184000E+00
        -11   -1    0    0    0    0  0.00000000000E+00  0.00000000000E+00  0.45593999997E+02  0.45594000000E+02  0.51100000000E-03 0. -1.
         11   -1    0    0    0    0 -0.00000000000E+00 -0.00000000000E+00 -0.45593999997E+02  0.45594000000E+02  0.51100000000E-03 0.  1.
         23    2    1    2    0    0  0.17763568394E-14  0.35527136788E-14  0.71054273576E-14  0.91188000000E+02  0.91188000000E+02 0.  0.
    9900012    2    3    3    0    0  0.15354256270E+01  0.14824549454E+02  0.40761480371E+02  0.47787273274E+02  0.20000010164E+02 0.  0.
        -12    1    3    3    0    0 -0.15354256270E+01 -0.14824549454E+02 -0.40761480371E+02  0.43400726726E+02  0.00000000000E+00 0.  1.
         11    1    4    4    0    0 -0.68917635826E+01  0.43168742535E+01  0.12489420478E+02  0.14903604690E+02  0.51100000000E-03 0.  1.
        -11    1    4    4    0    0 -0.19392641586E+01  0.37579164860E+00  0.16615122567E+01  0.25811989618E+01  0.51100000000E-03 0. -1.
         12    1    4    4    0    0  0.10366453368E+02  0.10131883551E+02  0.26610547636E+02  0.30302469622E+02  0.00000000000E+00 0. -1.
</event>
<event>
 8    1  0.6239251E-010  0.9118800E+02  0.7816164E-02  0.1184000E+00
        -11   -1    0    0    0    0  0.00000000000E+00  0.00000000000E+00  0.45593999997E+02  0.45594000000E+02  0.51100000000E-03 0. -1.
         11   -1    0    0    0    0 -0.00000000000E+00 -0.00000000000E+00 -0.45593999997E+02  0.45594000000E+02  0.51100000000E-03 0.  1.
         23    2    1    2    0    0  0.00000000000E+00 -0.88817841970E-15  0.00000000000E+00  0.91188000000E+02  0.91188000000E+02 0.  0.
    9900012    2    3    3    0    0 -0.33371589734E+02  0.75155760788E+01 -0.26711005185E+02  0.47787254808E+02  0.19999925973E+02 0.  0.
         12    1    3    3    0    0  0.33371589734E+02 -0.75155760788E+01  0.26711005185E+02  0.43400745192E+02  0.00000000000E+00 0. -1.
         11    1    4    4    0    0 -0.51847618095E+01 -0.21265678657E+01  0.98214628222E-01  0.56047919037E+01  0.51100000000E-03 0. -1.
        -11    1    4    4    0    0 -0.29604337366E+02  0.87382447865E+01 -0.25090469404E+02  0.39778202171E+02  0.51100000000E-03 0.  1.
        -12    1    4    4    0    0  0.14175094412E+01  0.90389915811E+00 -0.17187504097E+01  0.24042607335E+01  0.00000000000E+00 0.  1.
</event>
<event>
 8    1  0.6239251E-010  0.9118800E+02  0.7816164E-02  0.1184000E+00
        -11   -1    0    0    0    0  0.00000000000E+00  0.00000000000E+00  0.45593999997E+02  0.45594000000E+02  0.51100000000E-03 0. -1.
         11   -1    0    0    0    0 -0.00000000000E+00 -0.00000000000E+00 -0.45593999997E+02  0.45594000000E+02  0.51100000000E-03 0.  1.
         23    2    1    2    0    0  0.00000000000E+00  0.35527136788E-14  0.35527136788E-14  0.91188000000E+02  0.91188000000E+02 0.  0.
    9900012    2    3    3    0    0  0.59934002165E+01 -0.29279210931E+02 -0.31471101826E+02  0.47787270870E+02  0.19999999203E+02 0.  0.
         12    1    3    3    0    0 -0.59934002165E+01  0.29279210931E+02  0.31471101826E+02  0.43400729130E+02  0.00000000000E+00 0. -1.
         11    1    4    4    0    0  0.36499789368E+01 -0.77738456067E+01 -0.15870561105E+01  0.87334855078E+01  0.51100000000E-03 0. -1.
        -11    1    4    4    0    0  0.40890997154E+01 -0.22672149341E+02 -0.27593832214E+02  0.35946719861E+02  0.51100000000E-03 0.  1.
        -12    1    4    4    0    0 -0.17456784358E+01  0.11667840169E+01 -0.22902135018E+01  0.31070655010E+01  0.00000000000E+00 0.  1.
</event>
<event>
 8    1  0.6239251E-010  0.9118800E+02  0.7816164E-02  0.1184000E+00
        -11   -1    0    0    0    0  0.00000000000E+00  0.00000000000E+00  0.45593999997E+02  0.45594000000E+02  0.51100000000E-03 0.  1.
         11   -1    0    0    0    0 -0.00000000000E+00 -0.00000000000E+00 -0.45593999997E+02  0.45594000000E+02  0.51100000000E-03 0. -1.
         23    2    1    2    0    0 -0.71054273576E-14  0.22204460493E-15 -0.35527136788E-14  0.91188000000E+02  0.91188000000E+02 0.  0.
    9900012    2    3    3    0    0 -0.32354533933E+02  0.10184709306E+01 -0.28909714680E+02  0.47787254016E+02  0.19999922360E+02 0.  0.
         12    1    3    3    0    0  0.32354533933E+02 -0.10184709306E+01  0.28909714680E+02  0.43400745984E+02  0.00000000000E+00 0. -1.
         11    1    4    4    0    0  0.21580252238E+01  0.24158468172E+01 -0.21411904000E+01  0.38830510299E+01  0.51100000000E-03 0. -1.
        -11    1    4    4    0    0 -0.83625350954E+01  0.12593527135E+01 -0.76300818227E+01  0.11390176090E+02  0.51100000000E-03 0.  1.
         12    1    4    4    0    0 -0.26150024062E+02 -0.26567286000E+01 -0.19138442458E+02  0.32514026896E+02  0.00000000000E+00 0. -1.
</event>
<event>
 8    1  0.6239251E-010  0.9118800E+02  0.7816164E-02  0.1184000E+00
        -11   -1    0    0    0    0  0.00000000000E+00  0.00000000000E+00  0.45593999997E+02  0.45594000000E+02  0.51100000000E-03 0. -1.
         11   -1    0    0    0    0 -0.00000000000E+00 -0.00000000000E+00 -0.45593999997E+02  0.45594000000E+02  0.51100000000E-03 0.  1.
         23    2    1    2    0    0  0.00000000000E+00  0.00000000000E+00  0.00000000000E+00  0.91188000000E+02  0.91188000000E+02 0.  0.
    9900012    2    3    3    0    0  0.12204060092E+02 -0.13952552019E+02 -0.39242963349E+02  0.47787274625E+02  0.20000016327E+02 0.  0.
         12    1    3    3    0    0 -0.12204060092E+02  0.13952552019E+02  0.39242963349E+02  0.43400725375E+02  0.00000000000E+00 0. -1.
         11    1    4    4    0    0  0.14483087637E+02 -0.49961213289E+01 -0.21758685605E+02  0.26611303150E+02  0.51100000000E-03 0.  1.
        -11    1    4    4    0    0 -0.22395940663E+00 -0.51400049919E+01 -0.15641575854E+02  0.16465986292E+02  0.51100000000E-03 0. -1.
         12    1    4    4    0    0 -0.20550681381E+01 -0.38164256987E+01 -0.18427018907E+01  0.47099851829E+01  0.00000000000E+00 0. -1.
</event>
<event>
 8    1  0.6239251E-010  0.9118800E+02  0.7816164E-02  0.1184000E+00
        -11   -1    0    0    0    0  0.00000000000E+00  0.00000000000E+00  0.45593999997E+02  0.45594000000E+02  0.51100000000E-03 0.  1.
         11   -1    0    0    0    0 -0.00000000000E+00 -0.00000000000E+00 -0.45593999997E+02  0.45594000000E+02  0.51100000000E-03 0. -1.
         23    2    1    2    0    0  0.71054273576E-14  0.17763568394E-14  0.00000000000E+00  0.91188000000E+02  0.91188000000E+02 0.  0.
    9900012    2    3    3    0    0 -0.40931047666E+02 -0.14210391195E+02 -0.25173180114E+01  0.47787276839E+02  0.20000026419E+02 0.  0.
         12    1    3    3    0    0  0.40931047666E+02  0.14210391195E+02  0.25173180114E+01  0.43400723161E+02  0.00000000000E+00 0. -1.
         11    1    4    4    0    0 -0.21561538169E+02 -0.12992033729E+02  0.35196614197E+01  0.25418121202E+02  0.51100000000E-03 0. -1.
        -11    1    4    4    0    0 -0.14764343479E+02  0.12211498629E+01 -0.79556806968E+01  0.16815763467E+02  0.51100000000E-03 0.  1.
        -12    1    4    4    0    0 -0.46051660177E+01 -0.24395073281E+01  0.19187012656E+01  0.55533921706E+01  0.00000000000E+00 0.  1.
</event>
<event>
 8    1  0.6239251E-010  0.9118800E+02  0.7816164E-02  0.1184000E+00
        -11   -1    0    0    0    0  0.00000000000E+00  0.00000000000E+00  0.45593999997E+02  0.45594000000E+02  0.51100000000E-03 0. -1.
         11   -1    0    0    0    0 -0.00000000000E+00 -0.00000000000E+00 -0.45593999997E+02  0.45594000000E+02  0.51100000000E-03 0.  1.
         23    2    1    2    0    0  0.00000000000E+00  0.00000000000E+00  0.00000000000E+00  0.91188000000E+02  0.91188000000E+02 0.  0.
    9900012    2    3    3    0    0  0.95300897233E+01  0.68992563134E+01  0.41775602045E+02  0.47787271043E+02  0.19999999993E+02 0.  0.
        -12    1    3    3    0    0 -0.95300897233E+01 -0.68992563134E+01 -0.41775602045E+02  0.43400728957E+02  0.00000000000E+00 0.  1.
         11    1    4    4    0    0 -0.43842341552E+01 -0.23384085101E+01  0.40102776991E+01  0.63852949010E+01  0.51100000000E-03 0. -1.
        -11    1    4    4    0    0  0.72817551131E+01  0.56999410955E+01  0.17606762640E+02  0.19887467837E+02  0.51100000000E-03 0.  1.
         12    1    4    4    0    0  0.66325687654E+01  0.35377237280E+01  0.20158561705E+02  0.21514508305E+02  0.00000000000E+00 0. -1.
</event>
<event>
 8    1  0.6239251E-010  0.9118800E+02  0.7816164E-02  0.1184000E+00
        -11   -1    0    0    0    0  0.00000000000E+00  0.00000000000E+00  0.45593999997E+02  0.45594000000E+02  0.51100000000E-03 0. -1.
         11   -1    0    0    0    0 -0.00000000000E+00 -0.00000000000E+00 -0.45593999997E+02  0.45594000000E+02  0.51100000000E-03 0.  1.
         23    2    1    2    0    0 -0.71054273576E-14  0.00000000000E+00  0.00000000000E+00  0.91188000000E+02  0.91188000000E+02 0.  0.
    9900012    2    3    3    0    0 -0.35314671729E+02  0.14695190145E+02 -0.20507286459E+02  0.47787269008E+02  0.19999990715E+02 0.  0.
         12    1    3    3    0    0  0.35314671729E+02 -0.14695190145E+02  0.20507286459E+02  0.43400730992E+02  0.00000000000E+00 0. -1.
         11    1    4    4    0    0 -0.22063048088E+02  0.11282692001E+02 -0.37360429218E+01  0.25060631411E+02  0.51100000000E-03 0. -1.
        -11    1    4    4    0    0 -0.80572415185E+01 -0.26937538046E+00 -0.13086418865E+02  0.15370298076E+02  0.51100000000E-03 0.  1.
        -12    1    4    4    0    0 -0.51943821223E+01  0.36818735245E+01 -0.36848246723E+01  0.73563395210E+01  0.00000000000E+00 0.  1.
</event>
<event>
 8    1  0.6239251E-010  0.9118800E+02  0.7816164E-02  0.1184000E+00
        -11   -1    0    0    0    0  0.00000000000E+00  0.00000000000E+00  0.45593999997E+02  0.45594000000E+02  0.51100000000E-03 0. -1.
         11   -1    0    0    0    0 -0.00000000000E+00 -0.00000000000E+00 -0.45593999997E+02  0.45594000000E+02  0.51100000000E-03 0.  1.
         23    2    1    2    0    0  0.00000000000E+00 -0.44408920985E-15 -0.35527136788E-14  0.91188000000E+02  0.91188000000E+02 0.  0.
    9900012    2    3    3    0    0  0.32525002866E+02 -0.21497899792E+01 -0.28655293312E+02  0.47787271398E+02  0.20000001612E+02 0.  0.
         12    1    3    3    0    0 -0.32525002866E+02  0.21497899792E+01  0.28655293312E+02  0.43400728602E+02  0.00000000000E+00 0. -1.
         11    1    4    4    0    0  0.32464448265E+01  0.39026925545E+01 -0.37468577579E+01  0.63094656275E+01  0.51100000000E-03 0. -1.
        -11    1    4    4    0    0 -0.38039194133E-01 -0.29058298141E+01 -0.40955571655E-01  0.29063674078E+01  0.51100000000E-03 0.  1.
        -12    1    4    4    0    0  0.29316597233E+02 -0.31466527195E+01 -0.24867479983E+02  0.38571438363E+02  0.00000000000E+00 0.  1.
</event>
<event>
 8    1  0.6239251E-010  0.9118800E+02  0.7816164E-02  0.1184000E+00
        -11   -1    0    0    0    0  0.00000000000E+00  0.00000000000E+00  0.45593999997E+02  0.45594000000E+02  0.51100000000E-03 0.  1.
         11   -1    0    0    0    0 -0.00000000000E+00 -0.00000000000E+00 -0.45593999997E+02  0.45594000000E+02  0.51100000000E-03 0. -1.
         23    2    1    2    0    0  0.00000000000E+00  0.00000000000E+00  0.88817841970E-15  0.91188000000E+02  0.91188000000E+02 0.  0.
    9900012    2    3    3    0    0  0.18569856853E+02  0.38560248490E+02  0.72035181650E+01  0.47787273957E+02  0.20000013279E+02 0.  0.
        -12    1    3    3    0    0 -0.18569856853E+02 -0.38560248490E+02 -0.72035181650E+01  0.43400726043E+02  0.00000000000E+00 0.  1.
         11    1    4    4    0    0  0.39668133615E+01  0.15189000218E+02 -0.79978464468E+00  0.15718810121E+02  0.51100000000E-03 0. -1.
        -11    1    4    4    0    0  0.14065437732E+02  0.25322309633E+02  0.69569064082E+01  0.29790173728E+02  0.51100000000E-03 0.  1.
        -12    1    4    4    0    0  0.53760575931E+00 -0.19510613610E+01  0.10463964015E+01  0.22782901079E+01  0.00000000000E+00 0.  1.
</event>
<event>
 8    1  0.6239251E-010  0.9118800E+02  0.7816164E-02  0.1184000E+00
        -11   -1    0    0    0    0  0.00000000000E+00  0.00000000000E+00  0.45593999997E+02  0.45594000000E+02  0.51100000000E-03 0. -1.
         11   -1    0    0    0    0 -0.00000000000E+00 -0.00000000000E+00 -0.45593999997E+02  0.45594000000E+02  0.51100000000E-03 0.  1.
         23    2    1    2    0    0 -0.71054273576E-14  0.00000000000E+00  0.00000000000E+00  0.91188000000E+02  0.91188000000E+02 0.  0.
    9900012    2    3    3    0    0 -0.37840566869E+02 -0.11018850279E+02 -0.18174133271E+02  0.47787277856E+02  0.20000031057E+02 0.  0.
         12    1    3    3    0    0  0.37840566869E+02  0.11018850279E+02  0.18174133271E+02  0.43400722144E+02  0.00000000000E+00 0. -1.
         11    1    4    4    0    0 -0.13573524850E+02  0.98116341811E+00 -0.16931885157E+01  0.13713866928E+02  0.51100000000E-03 0. -1.
        -11    1    4    4    0    0 -0.14803550826E+02 -0.12461859611E+02 -0.15000195900E+02  0.24483646365E+02  0.51100000000E-03 0.  1.
        -12    1    4    4    0    0 -0.94634911927E+01  0.46184591325E+00 -0.14807488556E+01  0.95897645631E+01  0.00000000000E+00 0.  1.
</event>
<event>
 8    1  0.7577834E-010  0.9118800E+02  0.7816164E-02  0.1184000E+00
        -11   -1    0    0    0    0  0.00000000000E+00  0.00000000000E+00  0.45593999997E+02  0.45594000000E+02  0.51100000000E-03 0. -1.
         11   -1    0    0    0    0 -0.00000000000E+00 -0.00000000000E+00 -0.45593999997E+02  0.45594000000E+02  0.51100000000E-03 0.  1.
         23    2    1    2    0    0  0.00000000000E+00 -0.17763568394E-14  0.35527136788E-14  0.91188000000E+02  0.91188000000E+02 0.  0.
    9900012    2    3    3    0    0  0.35811734839E+02 -0.90838911692E+01  0.22773357878E+02  0.47787271204E+02  0.20000000728E+02 0.  0.
        -12    1    3    3    0    0 -0.35811734839E+02  0.90838911692E+01 -0.22773357878E+02  0.43400728796E+02  0.00000000000E+00 0.  1.
         11    1    4    4    0    0  0.25706542045E+02 -0.76626624508E+01  0.14192176012E+02  0.30347332007E+02  0.51100000000E-03 0. -1.
        -11    1    4    4    0    0 -0.18208653899E+00  0.48190362570E+00 -0.22930718806E+01  0.23502266960E+01  0.51100000000E-03 0.  1.
        -12    1    4    4    0    0  0.10287279333E+02 -0.19031323441E+01  0.10874253747E+02  0.15089712501E+02  0.00000000000E+00 0.  1.
</event>
<event>
 8    1  0.6239251E-010  0.9118800E+02  0.7816164E-02  0.1184000E+00
        -11   -1    0    0    0    0  0.00000000000E+00  0.00000000000E+00  0.45593999997E+02  0.45594000000E+02  0.51100000000E-03 0. -1.
         11   -1    0    0    0    0 -0.00000000000E+00 -0.00000000000E+00 -0.45593999997E+02  0.45594000000E+02  0.51100000000E-03 0.  1.
         23    2    1    2    0    0  0.17763568394E-14 -0.35527136788E-14  0.35527136788E-14  0.91188000000E+02  0.91188000000E+02 0.  0.
    9900012    2    3    3    0    0 -0.10556428151E+02  0.28322283378E+02 -0.31145355502E+02  0.47787273274E+02  0.20000010164E+02 0.  0.
         12    1    3    3    0    0  0.10556428151E+02 -0.28322283378E+02  0.31145355502E+02  0.43400726726E+02  0.00000000000E+00 0. -1.
         11    1    4    4    0    0  0.20743006838E+01  0.17134752025E+02 -0.16863292275E+02  0.24130335201E+02  0.51100000000E-03 0. -1.
        -11    1    4    4    0    0 -0.52434822698E+00  0.11291364254E+01 -0.54875244984E+01  0.56269721442E+01  0.51100000000E-03 0.  1.
         12    1    4    4    0    0 -0.12106380608E+02  0.10058394927E+02 -0.87945387285E+01  0.18029965929E+02  0.00000000000E+00 0. -1.
</event>
<event>
 8    1  0.7138043E-010  0.9118800E+02  0.7816164E-02  0.1184000E+00
        -11   -1    0    0    0    0  0.00000000000E+00  0.00000000000E+00  0.45593999997E+02  0.45594000000E+02  0.51100000000E-03 0. -1.
         11   -1    0    0    0    0 -0.00000000000E+00 -0.00000000000E+00 -0.45593999997E+02  0.45594000000E+02  0.51100000000E-03 0.  1.
         23    2    1    2    0    0 -0.44408920985E-15  0.00000000000E+00  0.35527136788E-14  0.91188000000E+02  0.91188000000E+02 0.  0.
    9900012    2    3    3    0    0 -0.26024538875E+01  0.34858537283E+02  0.25724170073E+02  0.47787270586E+02  0.19999997909E+02 0.  0.
        -12    1    3    3    0    0  0.26024538875E+01 -0.34858537283E+02 -0.25724170073E+02  0.43400729414E+02  0.00000000000E+00 0.  1.
         11    1    4    4    0    0 -0.55451610145E+01  0.13911576917E+02  0.15767433128E+02  0.21746096907E+02  0.51100000000E-03 0. -1.
        -11    1    4    4    0    0  0.45829747698E+01  0.20960442298E+02  0.10985982661E+02  0.24104680342E+02  0.51100000000E-03 0.  1.
        -12    1    4    4    0    0 -0.16402676428E+01 -0.13481932187E-01 -0.10292457155E+01  0.19364933372E+01  0.00000000000E+00 0.  1.
</event>
<event>
 8    1  0.6239251E-010  0.9118800E+02  0.7816164E-02  0.1184000E+00
        -11   -1    0    0    0    0  0.00000000000E+00  0.00000000000E+00  0.45593999997E+02  0.45594000000E+02  0.51100000000E-03 0. -1.
         11   -1    0    0    0    0 -0.00000000000E+00 -0.00000000000E+00 -0.45593999997E+02  0.45594000000E+02  0.51100000000E-03 0.  1.
         23    2    1    2    0    0  0.71054273576E-14  0.00000000000E+00  0.00000000000E+00  0.91188000000E+02  0.91188000000E+02 0.  0.
    9900012    2    3    3    0    0  0.37622573487E+02 -0.17186277277E+02  0.13145130237E+02  0.47787301718E+02  0.20000139852E+02 0.  0.
        -12    1    3    3    0    0 -0.37622573487E+02  0.17186277277E+02 -0.13145130237E+02  0.43400698282E+02  0.00000000000E+00 0.  1.
         11    1    4    4    0    0  0.11192422678E+02 -0.89187103231E+01  0.18144029219E+01  0.14425871809E+02  0.51100000000E-03 0.  1.
        -11    1    4    4    0    0  0.10114668435E+02 -0.86498564797E+01  0.10618672225E+02  0.17025942991E+02  0.51100000000E-03 0. -1.
        -12    1    4    4    0    0  0.16315482374E+02  0.38228952610E+00  0.71205509045E+00  0.16335486918E+02  0.00000000000E+00 0.  1.
</event>
<event>
 8    1  0.6239251E-010  0.9118800E+02  0.7816164E-02  0.1184000E+00
        -11   -1    0    0    0    0  0.00000000000E+00  0.00000000000E+00  0.45593999997E+02  0.45594000000E+02  0.51100000000E-03 0. -1.
         11   -1    0    0    0    0 -0.00000000000E+00 -0.00000000000E+00 -0.45593999997E+02  0.45594000000E+02  0.51100000000E-03 0.  1.
         23    2    1    2    0    0  0.00000000000E+00  0.88817841970E-15  0.00000000000E+00  0.91188000000E+02  0.91188000000E+02 0.  0.
    9900012    2    3    3    0    0  0.11417747906E+02  0.69475836201E+01  0.41291524172E+02  0.47787264363E+02  0.19999969535E+02 0.  0.
        -12    1    3    3    0    0 -0.11417747906E+02 -0.69475836201E+01 -0.41291524172E+02  0.43400735637E+02  0.00000000000E+00 0.  1.
         11    1    4    4    0    0  0.13058686955E+02  0.36251699582E+01  0.26369346929E+02  0.29648163855E+02  0.51100000000E-03 0. -1.
        -11    1    4    4    0    0 -0.18411290381E+01  0.53018413032E+01  0.36550337804E+01  0.66976525392E+01  0.51100000000E-03 0.  1.
         12    1    4    4    0    0  0.20018998901E+00 -0.19794276413E+01  0.11267143462E+02  0.11441447969E+02  0.00000000000E+00 0. -1.
</event>
<event>
 8    1  0.6239251E-010  0.9118800E+02  0.7816164E-02  0.1184000E+00
        -11   -1    0    0    0    0  0.00000000000E+00  0.00000000000E+00  0.45593999997E+02  0.45594000000E+02  0.51100000000E-03 0. -1.
         11   -1    0    0    0    0 -0.00000000000E+00 -0.00000000000E+00 -0.45593999997E+02  0.45594000000E+02  0.51100000000E-03 0.  1.
         23    2    1    2    0    0  0.41633363423E-16  0.00000000000E+00  0.00000000000E+00  0.91188000000E+02  0.91188000000E+02 0.  0.
    9900012    2    3    3    0    0 -0.11210257833E+00 -0.10659431624E+02 -0.42071216551E+02  0.47787270609E+02  0.19999998016E+02 0.  0.
         12    1    3    3    0    0  0.11210257833E+00  0.10659431624E+02  0.42071216551E+02  0.43400729391E+02  0.00000000000E+00 0. -1.
         11    1    4    4    0    0  0.76141818026E+00 -0.10703797779E+02 -0.87248695629E+01  0.13830198614E+02  0.51100000000E-03 0. -1.
        -11    1    4    4    0    0 -0.88184995645E+00  0.19341155151E+01 -0.30284434827E+02  0.30358943579E+02  0.51100000000E-03 0.  1.
        -12    1    4    4    0    0  0.83291978651E-02 -0.18897493602E+01 -0.30619121614E+01  0.35981284168E+01  0.00000000000E+00 0.  1.
</event>
<event>
 8    1  0.6239251E-010  0.9118800E+02  0.7816164E-02  0.1184000E+00
        -11   -1    0    0    0    0  0.00000000000E+00  0.00000000000E+00  0.45593999997E+02  0.45594000000E+02  0.51100000000E-03 0. -1.
         11   -1    0    0    0    0 -0.00000000000E+00 -0.00000000000E+00 -0.45593999997E+02  0.45594000000E+02  0.51100000000E-03 0.  1.
         23    2    1    2    0    0  0.00000000000E+00  0.00000000000E+00 -0.88817841970E-15  0.91188000000E+02  0.91188000000E+02 0.  0.
    9900012    2    3    3    0    0 -0.31371131104E+02 -0.29150666951E+02 -0.70508194642E+01  0.47787270680E+02  0.19999998337E+02 0.  0.
         12    1    3    3    0    0  0.31371131104E+02  0.29150666951E+02  0.70508194642E+01  0.43400729320E+02  0.00000000000E+00 0. -1.
         11    1    4    4    0    0 -0.68884304877E+01 -0.36221590292E+01  0.37135516072E+01  0.86232810703E+01  0.51100000000E-03 0. -1.
        -11    1    4    4    0    0 -0.13655997706E+02 -0.21929780784E+02 -0.10091028795E+02  0.27735003533E+02  0.51100000000E-03 0.  1.
        -12    1    4    4    0    0 -0.10826702910E+02 -0.35987271379E+01 -0.67334227621E+00  0.11428986076E+02  0.00000000000E+00 0.  1.
</event>
<event>
 8    1  0.6239251E-010  0.9118800E+02  0.7816164E-02  0.1184000E+00
        -11   -1    0    0    0    0  0.00000000000E+00  0.00000000000E+00  0.45593999997E+02  0.45594000000E+02  0.51100000000E-03 0. -1.
         11   -1    0    0    0    0 -0.00000000000E+00 -0.00000000000E+00 -0.45593999997E+02  0.45594000000E+02  0.51100000000E-03 0.  1.
         23    2    1    2    0    0 -0.35527136788E-14  0.00000000000E+00  0.00000000000E+00  0.91188000000E+02  0.91188000000E+02 0.  0.
    9900012    2    3    3    0    0 -0.20969516949E+02  0.20218256766E+01 -0.37944888153E+02  0.47787274694E+02  0.20000016639E+02 0.  0.
         12    1    3    3    0    0  0.20969516949E+02 -0.20218256766E+01  0.37944888153E+02  0.43400725306E+02  0.00000000000E+00 0. -1.
         11    1    4    4    0    0  0.81682629665E+00  0.22513899194E+01 -0.53762081350E+00  0.24545871687E+01  0.51100000000E-03 0. -1.
        -11    1    4    4    0    0 -0.20334067421E+02 -0.29612096273E+01 -0.36845956482E+02  0.42188476741E+02  0.51100000000E-03 0.  1.
        -12    1    4    4    0    0 -0.14522758248E+01  0.27316453845E+01 -0.56131085733E+00  0.31442107844E+01  0.00000000000E+00 0.  1.
</event>
<event>
 8    1  0.6239251E-010  0.9118800E+02  0.7816164E-02  0.1184000E+00
        -11   -1    0    0    0    0  0.00000000000E+00  0.00000000000E+00  0.45593999997E+02  0.45594000000E+02  0.51100000000E-03 0. -1.
         11   -1    0    0    0    0 -0.00000000000E+00 -0.00000000000E+00 -0.45593999997E+02  0.45594000000E+02  0.51100000000E-03 0.  1.
         23    2    1    2    0    0  0.00000000000E+00  0.00000000000E+00  0.71054273576E-14  0.91188000000E+02  0.91188000000E+02 0.  0.
    9900012    2    3    3    0    0  0.12176079366E+02  0.19188249020E+02  0.36975359252E+02  0.47787274188E+02  0.20000014335E+02 0.  0.
        -12    1    3    3    0    0 -0.12176079366E+02 -0.19188249020E+02 -0.36975359252E+02  0.43400725812E+02  0.00000000000E+00 0.  1.
         11    1    4    4    0    0  0.14567236522E+02  0.16647745941E+02  0.23913599610E+02  0.32576250112E+02  0.51100000000E-03 0. -1.
        -11    1    4    4    0    0 -0.38650911833E+01 -0.97248558306E+00  0.66656423663E+01  0.77663019823E+01  0.51100000000E-03 0.  1.
        -12    1    4    4    0    0  0.14739340279E+01  0.35129886619E+01  0.63961172756E+01  0.74447220942E+01  0.00000000000E+00 0.  1.
</event>
<event>
 8    1  0.6239251E-010  0.9118800E+02  0.7816164E-02  0.1184000E+00
        -11   -1    0    0    0    0  0.00000000000E+00  0.00000000000E+00  0.45593999997E+02  0.45594000000E+02  0.51100000000E-03 0. -1.
         11   -1    0    0    0    0 -0.00000000000E+00 -0.00000000000E+00 -0.45593999997E+02  0.45594000000E+02  0.51100000000E-03 0.  1.
         23    2    1    2    0    0 -0.35527136788E-14  0.00000000000E+00  0.00000000000E+00  0.91188000000E+02  0.91188000000E+02 0.  0.
    9900012    2    3    3    0    0 -0.17216703628E+02  0.92367271711E+00  0.39829081379E+02  0.47787265229E+02  0.19999973487E+02 0.  0.
        -12    1    3    3    0    0  0.17216703628E+02 -0.92367271711E+00 -0.39829081379E+02  0.43400734771E+02  0.00000000000E+00 0.  1.
         11    1    4    4    0    0 -0.10984308843E+02  0.12047341970E+01  0.17665602468E+02  0.20836984813E+02  0.51100000000E-03 0. -1.
        -11    1    4    4    0    0 -0.26869550321E+01  0.19994108585E+01 -0.92939453874E+00  0.34757942395E+01  0.51100000000E-03 0.  1.
        -12    1    4    4    0    0 -0.35454397529E+01 -0.22804723385E+01  0.23092873450E+02  0.23474486177E+02  0.00000000000E+00 0.  1.
</event>
<event>
 8    1  0.6239251E-010  0.9118800E+02  0.7816164E-02  0.1184000E+00
        -11   -1    0    0    0    0  0.00000000000E+00  0.00000000000E+00  0.45593999997E+02  0.45594000000E+02  0.51100000000E-03 0.  1.
         11   -1    0    0    0    0 -0.00000000000E+00 -0.00000000000E+00 -0.45593999997E+02  0.45594000000E+02  0.51100000000E-03 0. -1.
         23    2    1    2    0    0 -0.35527136788E-14 -0.71054273576E-14 -0.35527136788E-14  0.91188000000E+02  0.91188000000E+02 0.  0.
    9900012    2    3    3    0    0 -0.26188808548E+02 -0.31506599136E+02 -0.14321442048E+02  0.47787272072E+02  0.20000004687E+02 0.  0.
        -12    1    3    3    0    0  0.26188808548E+02  0.31506599136E+02  0.14321442048E+02  0.43400727928E+02  0.00000000000E+00 0.  1.
         11    1    4    4    0    0 -0.53859348558E+00 -0.11438007316E+01  0.30201100079E+01  0.32740537224E+01  0.51100000000E-03 0.  1.
        -11    1    4    4    0    0 -0.15916869098E+01 -0.62440523473E+01 -0.37278598441E+00  0.64545043641E+01  0.51100000000E-03 0. -1.
         12    1    4    4    0    0 -0.24058528153E+02 -0.24118746058E+02 -0.16968766072E+02  0.38058713986E+02  0.00000000000E+00 0. -1.
</event>
<event>
 8    1  0.6239251E-010  0.9118800E+02  0.7816164E-02  0.1184000E+00
        -11   -1    0    0    0    0  0.00000000000E+00  0.00000000000E+00  0.45593999997E+02  0.45594000000E+02  0.51100000000E-03 0. -1.
         11   -1    0    0    0    0 -0.00000000000E+00 -0.00000000000E+00 -0.45593999997E+02  0.45594000000E+02  0.51100000000E-03 0.  1.
         23    2    1    2    0    0  0.00000000000E+00 -0.44408920985E-15  0.00000000000E+00  0.91188000000E+02  0.91188000000E+02 0.  0.
    9900012    2    3    3    0    0 -0.16363684025E+01 -0.20833942238E+01  0.43319800113E+02  0.47787270572E+02  0.19999997846E+02 0.  0.
        -12    1    3    3    0    0  0.16363684025E+01  0.20833942238E+01 -0.43319800113E+02  0.43400729428E+02  0.00000000000E+00 0.  1.
         11    1    4    4    0    0 -0.55751679504E+01 -0.77649085588E+01  0.31008762436E+02  0.32448723406E+02  0.51100000000E-03 0. -1.
        -11    1    4    4    0    0  0.48626324092E+01  0.35709477894E+01  0.11326655472E+02  0.12833159646E+02  0.51100000000E-03 0.  1.
         12    1    4    4    0    0 -0.92383286132E+00  0.21105665457E+01  0.98438220533E+00  0.25053875200E+01  0.00000000000E+00 0. -1.
</event>
<event>
 8    1  0.6239251E-010  0.9118800E+02  0.7816164E-02  0.1184000E+00
        -11   -1    0    0    0    0  0.00000000000E+00  0.00000000000E+00  0.45593999997E+02  0.45594000000E+02  0.51100000000E-03 0. -1.
         11   -1    0    0    0    0 -0.00000000000E+00 -0.00000000000E+00 -0.45593999997E+02  0.45594000000E+02  0.51100000000E-03 0.  1.
         23    2    1    2    0    0  0.00000000000E+00  0.00000000000E+00  0.35527136788E-14  0.91188000000E+02  0.91188000000E+02 0.  0.
    9900012    2    3    3    0    0 -0.35732532874E+02  0.21628583405E+01  0.24538377948E+02  0.47787264360E+02  0.19999969523E+02 0.  0.
        -12    1    3    3    0    0  0.35732532874E+02 -0.21628583405E+01 -0.24538377948E+02  0.43400735640E+02  0.00000000000E+00 0.  1.
         11    1    4    4    0    0 -0.24399174102E+02  0.35593563475E+01  0.20615426302E+02  0.32140076483E+02  0.51100000000E-03 0. -1.
        -11    1    4    4    0    0 -0.82741355148E+01 -0.63852336313E-01 -0.22982037022E+01  0.85876152776E+01  0.51100000000E-03 0.  1.
         12    1    4    4    0    0 -0.30592232570E+01 -0.13326456707E+01  0.62211553481E+01  0.70595725993E+01  0.00000000000E+00 0. -1.
</event>
<event>
 8    1  0.6239251E-010  0.9118800E+02  0.7816164E-02  0.1184000E+00
        -11   -1    0    0    0    0  0.00000000000E+00  0.00000000000E+00  0.45593999997E+02  0.45594000000E+02  0.51100000000E-03 0. -1.
         11   -1    0    0    0    0 -0.00000000000E+00 -0.00000000000E+00 -0.45593999997E+02  0.45594000000E+02  0.51100000000E-03 0.  1.
         23    2    1    2    0    0 -0.35527136788E-14  0.00000000000E+00  0.00000000000E+00  0.91188000000E+02  0.91188000000E+02 0.  0.
    9900012    2    3    3    0    0  0.27723642185E+02 -0.23928215256E+02 -0.23290846313E+02  0.47787270244E+02  0.19999996352E+02 0.  0.
         12    1    3    3    0    0 -0.27723642185E+02  0.23928215256E+02  0.23290846313E+02  0.43400729756E+02  0.00000000000E+00 0. -1.
         11    1    4    4    0    0 -0.55748932334E+00  0.40357597772E-01  0.73910857194E+00  0.92666327410E+00  0.51100000000E-03 0. -1.
        -11    1    4    4    0    0  0.10697854414E+02 -0.11576493557E+02 -0.16987485100E+01  0.15853865109E+02  0.51100000000E-03 0.  1.
        -12    1    4    4    0    0  0.17583277094E+02 -0.12392079297E+02 -0.22331206375E+02  0.31006741861E+02  0.00000000000E+00 0.  1.
</event>
<event>
 8    1  0.6239251E-010  0.9118800E+02  0.7816164E-02  0.1184000E+00
        -11   -1    0    0    0    0  0.00000000000E+00  0.00000000000E+00  0.45593999997E+02  0.45594000000E+02  0.51100000000E-03 0. -1.
         11   -1    0    0    0    0 -0.00000000000E+00 -0.00000000000E+00 -0.45593999997E+02  0.45594000000E+02  0.51100000000E-03 0.  1.
         23    2    1    2    0    0  0.17763568394E-14  0.17763568394E-14  0.00000000000E+00  0.91188000000E+02  0.91188000000E+02 0.  0.
    9900012    2    3    3    0    0  0.99537248772E+01  0.12498563002E+02  0.40352602844E+02  0.47787271062E+02  0.20000000082E+02 0.  0.
        -12    1    3    3    0    0 -0.99537248772E+01 -0.12498563002E+02 -0.40352602844E+02  0.43400728938E+02  0.00000000000E+00 0.  1.
         11    1    4    4    0    0  0.55036117023E+01 -0.98384018257E+00  0.92762378978E+01  0.10830802051E+02  0.51100000000E-03 0. -1.
        -11    1    4    4    0    0 -0.17064582863E+01  0.79260726836E+01  0.48442405412E+01  0.94446437070E+01  0.51100000000E-03 0.  1.
        -12    1    4    4    0    0  0.61565714612E+01  0.55563305006E+01  0.26232124405E+02  0.27511825304E+02  0.00000000000E+00 0.  1.
</event>
<event>
 8    1  0.6239251E-010  0.9118800E+02  0.7816164E-02  0.1184000E+00
        -11   -1    0    0    0    0  0.00000000000E+00  0.00000000000E+00  0.45593999997E+02  0.45594000000E+02  0.51100000000E-03 0. -1.
         11   -1    0    0    0    0 -0.00000000000E+00 -0.00000000000E+00 -0.45593999997E+02  0.45594000000E+02  0.51100000000E-03 0.  1.
         23    2    1    2    0    0  0.17763568394E-14 -0.71054273576E-14  0.00000000000E+00  0.91188000000E+02  0.91188000000E+02 0.  0.
    9900012    2    3    3    0    0  0.13373203370E+02 -0.34118060752E+02  0.23253792459E+02  0.47787268421E+02  0.19999988038E+02 0.  0.
        -12    1    3    3    0    0 -0.13373203370E+02  0.34118060752E+02 -0.23253792459E+02  0.43400731579E+02  0.00000000000E+00 0.  1.
         11    1    4    4    0    0  0.12521739213E+02 -0.17203952006E+02  0.16709212336E+02  0.27054901492E+02  0.51100000000E-03 0. -1.
        -11    1    4    4    0    0 -0.35743663393E+01 -0.29045922368E+01  0.33550080663E+01  0.56981426953E+01  0.51100000000E-03 0.  1.
         12    1    4    4    0    0  0.44258304956E+01 -0.14009516510E+02  0.31895720566E+01  0.15034224234E+02  0.00000000000E+00 0. -1.
</event>
<event>
 8    1  0.6239251E-010  0.9118800E+02  0.7816164E-02  0.1184000E+00
        -11   -1    0    0    0    0  0.00000000000E+00  0.00000000000E+00  0.45593999997E+02  0.45594000000E+02  0.51100000000E-03 0. -1.
         11   -1    0    0    0    0 -0.00000000000E+00 -0.00000000000E+00 -0.45593999997E+02  0.45594000000E+02  0.51100000000E-03 0.  1.
         23    2    1    2    0    0  0.71054273576E-14  0.00000000000E+00 -0.71054273576E-14  0.91188000000E+02  0.91188000000E+02 0.  0.
    9900012    2    3    3    0    0 -0.17720458570E+02 -0.14541269042E+02 -0.36853228990E+02  0.47787266778E+02  0.19999980546E+02 0.  0.
         12    1    3    3    0    0  0.17720458570E+02  0.14541269042E+02  0.36853228990E+02  0.43400733222E+02  0.00000000000E+00 0. -1.
         11    1    4    4    0    0 -0.13033052232E+02 -0.35547283290E+01 -0.28549522700E+02  0.31584359906E+02  0.51100000000E-03 0.  1.
        -11    1    4    4    0    0  0.58991754889E+00 -0.68339963972E+01 -0.59706828324E+01  0.90939850021E+01  0.51100000000E-03 0. -1.
        -12    1    4    4    0    0 -0.52773238865E+01 -0.41525443160E+01 -0.23330234567E+01  0.71089218697E+01  0.00000000000E+00 0.  1.
</event>
<event>
 8    1  0.6239251E-010  0.9118800E+02  0.7816164E-02  0.1184000E+00
        -11   -1    0    0    0    0  0.00000000000E+00  0.00000000000E+00  0.45593999997E+02  0.45594000000E+02  0.51100000000E-03 0. -1.
         11   -1    0    0    0    0 -0.00000000000E+00 -0.00000000000E+00 -0.45593999997E+02  0.45594000000E+02  0.51100000000E-03 0.  1.
         23    2    1    2    0    0 -0.17763568394E-14  0.88817841970E-15  0.00000000000E+00  0.91188000000E+02  0.91188000000E+02 0.  0.
    9900012    2    3    3    0    0  0.96110023882E+01 -0.60738293668E+01  0.41885094961E+02  0.47787263256E+02  0.19999964488E+02 0.  0.
        -12    1    3    3    0    0 -0.96110023882E+01  0.60738293668E+01 -0.41885094961E+02  0.43400736744E+02  0.00000000000E+00 0.  1.
         11    1    4    4    0    0  0.37354128962E+01 -0.16809050724E+01  0.13764685071E+02  0.14361243217E+02  0.51100000000E-03 0. -1.
        -11    1    4    4    0    0 -0.34090793788E+01  0.19061894886E+01  0.17658752857E+02  0.18085544871E+02  0.51100000000E-03 0.  1.
        -12    1    4    4    0    0  0.92846688708E+01 -0.62991137830E+01  0.10461657033E+02  0.15340475168E+02  0.00000000000E+00 0.  1.
</event>
<event>
 8    1  0.6239251E-010  0.9118800E+02  0.7816164E-02  0.1184000E+00
        -11   -1    0    0    0    0  0.00000000000E+00  0.00000000000E+00  0.45593999997E+02  0.45594000000E+02  0.51100000000E-03 0.  1.
         11   -1    0    0    0    0 -0.00000000000E+00 -0.00000000000E+00 -0.45593999997E+02  0.45594000000E+02  0.51100000000E-03 0. -1.
         23    2    1    2    0    0  0.17763568394E-14  0.00000000000E+00  0.35527136788E-14  0.91188000000E+02  0.91188000000E+02 0.  0.
    9900012    2    3    3    0    0 -0.11749135875E+02  0.35075817405E+02 -0.22699519752E+02  0.47787270082E+02  0.19999995614E+02 0.  0.
         12    1    3    3    0    0  0.11749135875E+02 -0.35075817405E+02  0.22699519752E+02  0.43400729918E+02  0.00000000000E+00 0. -1.
         11    1    4    4    0    0 -0.74955631693E+01  0.33407504712E+02 -0.12710431492E+02  0.36521225435E+02  0.51100000000E-03 0.  1.
        -11    1    4    4    0    0 -0.27816059802E+01 -0.19005639282E+00 -0.61744653087E+01  0.67747675511E+01  0.51100000000E-03 0. -1.
        -12    1    4    4    0    0 -0.14719667252E+01  0.18583690856E+01 -0.38146229507E+01  0.44912770961E+01  0.00000000000E+00 0.  1.
</event>
<event>
 8    1  0.6239251E-010  0.9118800E+02  0.7816164E-02  0.1184000E+00
        -11   -1    0    0    0    0  0.00000000000E+00  0.00000000000E+00  0.45593999997E+02  0.45594000000E+02  0.51100000000E-03 0. -1.
         11   -1    0    0    0    0 -0.00000000000E+00 -0.00000000000E+00 -0.45593999997E+02  0.45594000000E+02  0.51100000000E-03 0.  1.
         23    2    1    2    0    0  0.00000000000E+00  0.17763568394E-14  0.00000000000E+00  0.91188000000E+02  0.91188000000E+02 0.  0.
    9900012    2    3    3    0    0 -0.41667982925E+02  0.86804243211E+01 -0.84884084007E+01  0.47787266773E+02  0.19999980525E+02 0.  0.
         12    1    3    3    0    0  0.41667982925E+02 -0.86804243211E+01  0.84884084007E+01  0.43400733227E+02  0.00000000000E+00 0. -1.
         11    1    4    4    0    0 -0.24280660703E+01 -0.16807446807E+01 -0.45435585824E+01  0.54188866363E+01  0.51100000000E-03 0. -1.
        -11    1    4    4    0    0 -0.36872971704E+02  0.10104767096E+02 -0.66045705851E+01  0.38798746284E+02  0.51100000000E-03 0.  1.
        -12    1    4    4    0    0 -0.23669451507E+01  0.25640190604E+00  0.26597207668E+01  0.35696338525E+01  0.00000000000E+00 0.  1.
</event>
<event>
 8    1  0.6239251E-010  0.9118800E+02  0.7816164E-02  0.1184000E+00
        -11   -1    0    0    0    0  0.00000000000E+00  0.00000000000E+00  0.45593999997E+02  0.45594000000E+02  0.51100000000E-03 0. -1.
         11   -1    0    0    0    0 -0.00000000000E+00 -0.00000000000E+00 -0.45593999997E+02  0.45594000000E+02  0.51100000000E-03 0.  1.
         23    2    1    2    0    0  0.00000000000E+00  0.35527136788E-14 -0.35527136788E-14  0.91188000000E+02  0.91188000000E+02 0.  0.
    9900012    2    3    3    0    0  0.22027916615E+02 -0.19982387812E+02  0.31608513989E+02  0.47787273166E+02  0.20000009675E+02 0.  0.
        -12    1    3    3    0    0 -0.22027916615E+02  0.19982387812E+02 -0.31608513989E+02  0.43400726834E+02  0.00000000000E+00 0.  1.
         11    1    4    4    0    0  0.13935741098E+02 -0.16142211477E+02  0.17302019474E+02  0.27461532176E+02  0.51100000000E-03 0. -1.
        -11    1    4    4    0    0 -0.14687439268E+01 -0.15631164530E+00  0.83384773179E+01  0.84682847315E+01  0.51100000000E-03 0.  1.
        -12    1    4    4    0    0  0.95609194439E+01 -0.36838646902E+01  0.59680171978E+01  0.11857456259E+02  0.00000000000E+00 0.  1.
</event>
<event>
 8    1  0.6239251E-010  0.9118800E+02  0.7816164E-02  0.1184000E+00
        -11   -1    0    0    0    0  0.00000000000E+00  0.00000000000E+00  0.45593999997E+02  0.45594000000E+02  0.51100000000E-03 0. -1.
         11   -1    0    0    0    0 -0.00000000000E+00 -0.00000000000E+00 -0.45593999997E+02  0.45594000000E+02  0.51100000000E-03 0.  1.
         23    2    1    2    0    0  0.88817841970E-15 -0.71054273576E-14  0.00000000000E+00  0.91188000000E+02  0.91188000000E+02 0.  0.
    9900012    2    3    3    0    0 -0.79177787202E+01  0.38727300181E+02 -0.17920052477E+02  0.47787270974E+02  0.19999999679E+02 0.  0.
         12    1    3    3    0    0  0.79177787202E+01 -0.38727300181E+02  0.17920052477E+02  0.43400729026E+02  0.00000000000E+00 0. -1.
         11    1    4    4    0    0 -0.11060174387E+02  0.18250172737E+02 -0.13014480588E+02  0.24995458940E+02  0.51100000000E-03 0. -1.
        -11    1    4    4    0    0  0.37466166473E+01  0.31116493615E+01 -0.13767240223E+01  0.50611132515E+01  0.51100000000E-03 0.  1.
        -12    1    4    4    0    0 -0.60422098092E+00  0.17365478083E+02 -0.35288478667E+01  0.17730698782E+02  0.00000000000E+00 0.  1.
</event>
<event>
 8    1  0.6239251E-010  0.9118800E+02  0.7816164E-02  0.1184000E+00
        -11   -1    0    0    0    0  0.00000000000E+00  0.00000000000E+00  0.45593999997E+02  0.45594000000E+02  0.51100000000E-03 0. -1.
         11   -1    0    0    0    0 -0.00000000000E+00 -0.00000000000E+00 -0.45593999997E+02  0.45594000000E+02  0.51100000000E-03 0.  1.
         23    2    1    2    0    0  0.00000000000E+00  0.00000000000E+00  0.00000000000E+00  0.91188000000E+02  0.91188000000E+02 0.  0.
    9900012    2    3    3    0    0 -0.87315764044E+01 -0.35038406967E+02  0.24076813201E+02  0.47787270476E+02  0.19999997409E+02 0.  0.
        -12    1    3    3    0    0  0.87315764044E+01  0.35038406967E+02 -0.24076813201E+02  0.43400729524E+02  0.00000000000E+00 0.  1.
         11    1    4    4    0    0 -0.11821679153E+02 -0.20988908266E+02  0.20652009725E+02  0.31729983835E+02  0.51100000000E-03 0. -1.
        -11    1    4    4    0    0  0.49294563906E+01 -0.99986598322E+01  0.32208635071E+01  0.11603736499E+02  0.51100000000E-03 0.  1.
        -12    1    4    4    0    0 -0.18393536420E+01 -0.40508388684E+01  0.20393996886E+00  0.44535501422E+01  0.00000000000E+00 0.  1.
</event>
<event>
 8    1  0.6239251E-010  0.9118800E+02  0.7816164E-02  0.1184000E+00
        -11   -1    0    0    0    0  0.00000000000E+00  0.00000000000E+00  0.45593999997E+02  0.45594000000E+02  0.51100000000E-03 0. -1.
         11   -1    0    0    0    0 -0.00000000000E+00 -0.00000000000E+00 -0.45593999997E+02  0.45594000000E+02  0.51100000000E-03 0.  1.
         23    2    1    2    0    0  0.00000000000E+00  0.00000000000E+00  0.00000000000E+00  0.91188000000E+02  0.91188000000E+02 0.  0.
    9900012    2    3    3    0    0  0.17665001417E+02  0.39371634954E+02  0.46310128291E+01  0.47787260446E+02  0.19999951678E+02 0.  0.
         12    1    3    3    0    0 -0.17665001417E+02 -0.39371634954E+02 -0.46310128291E+01  0.43400739554E+02  0.00000000000E+00 0. -1.
         11    1    4    4    0    0 -0.31761808870E+01  0.31471552510E+01  0.29608578230E+01  0.53627782454E+01  0.51100000000E-03 0. -1.
        -11    1    4    4    0    0  0.17213214688E+02  0.24284870849E+02  0.27825572998E+01  0.29896359936E+02  0.51100000000E-03 0.  1.
        -12    1    4    4    0    0  0.36279676159E+01  0.11939608854E+02 -0.11124022936E+01  0.12528122264E+02  0.00000000000E+00 0.  1.
</event>
<event>
 8    1  0.6239251E-010  0.9118800E+02  0.7816164E-02  0.1184000E+00
        -11   -1    0    0    0    0  0.00000000000E+00  0.00000000000E+00  0.45593999997E+02  0.45594000000E+02  0.51100000000E-03 0. -1.
         11   -1    0    0    0    0 -0.00000000000E+00 -0.00000000000E+00 -0.45593999997E+02  0.45594000000E+02  0.51100000000E-03 0.  1.
         23    2    1    2    0    0 -0.19081958236E-15  0.00000000000E+00  0.00000000000E+00  0.91188000000E+02  0.91188000000E+02 0.  0.
    9900012    2    3    3    0    0  0.22198737869E-01 -0.57168598768E+01 -0.43022549701E+02  0.47787276937E+02  0.20000026866E+02 0.  0.
         12    1    3    3    0    0 -0.22198737869E-01  0.57168598768E+01  0.43022549701E+02  0.43400723063E+02  0.00000000000E+00 0. -1.
         11    1    4    4    0    0 -0.20877015082E+01 -0.73929551139E+01 -0.81308368893E+01  0.11185919349E+02  0.51100000000E-03 0. -1.
        -11    1    4    4    0    0 -0.10880093223E+01 -0.78108348036E+00 -0.30893245138E+02  0.30922264650E+02  0.51100000000E-03 0.  1.
        -12    1    4    4    0    0  0.31979095684E+01  0.24571787175E+01 -0.39984676735E+01  0.56790929375E+01  0.00000000000E+00 0.  1.
</event>
<event>
 8    1  0.6239251E-010  0.9118800E+02  0.7816164E-02  0.1184000E+00
        -11   -1    0    0    0    0  0.00000000000E+00  0.00000000000E+00  0.45593999997E+02  0.45594000000E+02  0.51100000000E-03 0. -1.
         11   -1    0    0    0    0 -0.00000000000E+00 -0.00000000000E+00 -0.45593999997E+02  0.45594000000E+02  0.51100000000E-03 0.  1.
         23    2    1    2    0    0 -0.35527136788E-14  0.00000000000E+00  0.00000000000E+00  0.91188000000E+02  0.91188000000E+02 0.  0.
    9900012    2    3    3    0    0 -0.19177867333E+02  0.21806195994E+02 -0.32254028459E+02  0.47787272691E+02  0.20000007506E+02 0.  0.
         12    1    3    3    0    0  0.19177867333E+02 -0.21806195994E+02  0.32254028459E+02  0.43400727309E+02  0.00000000000E+00 0. -1.
         11    1    4    4    0    0 -0.20562775890E+01  0.18782240101E+01  0.17011051950E+01  0.32633973250E+01  0.51100000000E-03 0. -1.
        -11    1    4    4    0    0 -0.16400620007E+02  0.15926311864E+02 -0.33319910289E+02  0.40408466540E+02  0.51100000000E-03 0.  1.
        -12    1    4    4    0    0 -0.72096973719E+00  0.40016601199E+01 -0.63522336449E+00  0.41154088254E+01  0.00000000000E+00 0.  1.
</event>
<event>
 8    1  0.6239251E-010  0.9118800E+02  0.7816164E-02  0.1184000E+00
        -11   -1    0    0    0    0  0.00000000000E+00  0.00000000000E+00  0.45593999997E+02  0.45594000000E+02  0.51100000000E-03 0.  1.
         11   -1    0    0    0    0 -0.00000000000E+00 -0.00000000000E+00 -0.45593999997E+02  0.45594000000E+02  0.51100000000E-03 0. -1.
         23    2    1    2    0    0 -0.17763568394E-14  0.00000000000E+00  0.00000000000E+00  0.91188000000E+02  0.91188000000E+02 0.  0.
    9900012    2    3    3    0    0  0.12199622094E+02  0.40464534557E+02  0.98698831874E+01  0.47787263482E+02  0.19999965519E+02 0.  0.
         12    1    3    3    0    0 -0.12199622094E+02 -0.40464534557E+02 -0.98698831874E+01  0.43400736518E+02  0.00000000000E+00 0. -1.
         11    1    4    4    0    0 -0.27768011834E+01  0.11027960144E+02 -0.72179254271E+00  0.11395065357E+02  0.51100000000E-03 0. -1.
        -11    1    4    4    0    0  0.12952406832E+02  0.19966709483E+02  0.11919516981E+02  0.26617836419E+02  0.51100000000E-03 0.  1.
        -12    1    4    4    0    0  0.20240164458E+01  0.94698649302E+01 -0.13278412504E+01  0.97743617058E+01  0.00000000000E+00 0.  1.
</event>
<event>
 8    1  0.6239251E-010  0.9118800E+02  0.7816164E-02  0.1184000E+00
        -11   -1    0    0    0    0  0.00000000000E+00  0.00000000000E+00  0.45593999997E+02  0.45594000000E+02  0.51100000000E-03 0. -1.
         11   -1    0    0    0    0 -0.00000000000E+00 -0.00000000000E+00 -0.45593999997E+02  0.45594000000E+02  0.51100000000E-03 0.  1.
         23    2    1    2    0    0  0.00000000000E+00  0.22204460493E-15 -0.17763568394E-14  0.91188000000E+02  0.91188000000E+02 0.  0.
    9900012    2    3    3    0    0 -0.40718912105E+02  0.13727687919E+01  0.14956894358E+02  0.47787274360E+02  0.20000015119E+02 0.  0.
        -12    1    3    3    0    0  0.40718912105E+02 -0.13727687919E+01 -0.14956894358E+02  0.43400725640E+02  0.00000000000E+00 0.  1.
         11    1    4    4    0    0 -0.32056219127E+02  0.43406674805E+01  0.53094823130E+01  0.32781598216E+02  0.51100000000E-03 0. -1.
        -11    1    4    4    0    0 -0.83722555372E+01 -0.17805528496E+01  0.10476582376E+02  0.13528629264E+02  0.51100000000E-03 0.  1.
        -12    1    4    4    0    0 -0.29043744059E+00 -0.11873458389E+01 -0.82917033059E+00  0.14770468798E+01  0.00000000000E+00 0.  1.
</event>
<event>
 8    1  0.6239251E-010  0.9118800E+02  0.7816164E-02  0.1184000E+00
        -11   -1    0    0    0    0  0.00000000000E+00  0.00000000000E+00  0.45593999997E+02  0.45594000000E+02  0.51100000000E-03 0. -1.
         11   -1    0    0    0    0 -0.00000000000E+00 -0.00000000000E+00 -0.45593999997E+02  0.45594000000E+02  0.51100000000E-03 0.  1.
         23    2    1    2    0    0  0.00000000000E+00  0.44408920985E-15  0.00000000000E+00  0.91188000000E+02  0.91188000000E+02 0.  0.
    9900012    2    3    3    0    0  0.25150348320E+02 -0.22241134681E+01 -0.35300659602E+02  0.47787271092E+02  0.20000000219E+02 0.  0.
         12    1    3    3    0    0 -0.25150348320E+02  0.22241134681E+01  0.35300659602E+02  0.43400728908E+02  0.00000000000E+00 0. -1.
         11    1    4    4    0    0  0.74576094159E+01  0.48313455730E+01 -0.12095503358E+02  0.15008632182E+02  0.51100000000E-03 0. -1.
        -11    1    4    4    0    0  0.82670008812E+01 -0.72066020265E+01 -0.45433821415E+01  0.11871004081E+02  0.51100000000E-03 0.  1.
        -12    1    4    4    0    0  0.94257380233E+01  0.15114298543E+00 -0.18661774103E+02  0.20907634829E+02  0.00000000000E+00 0.  1.
</event>
<event>
 8    1  0.6239251E-010  0.9118800E+02  0.7816164E-02  0.1184000E+00
        -11   -1    0    0    0    0  0.00000000000E+00  0.00000000000E+00  0.45593999997E+02  0.45594000000E+02  0.51100000000E-03 0. -1.
         11   -1    0    0    0    0 -0.00000000000E+00 -0.00000000000E+00 -0.45593999997E+02  0.45594000000E+02  0.51100000000E-03 0.  1.
         23    2    1    2    0    0  0.00000000000E+00  0.35527136788E-14  0.00000000000E+00  0.91188000000E+02  0.91188000000E+02 0.  0.
    9900012    2    3    3    0    0 -0.44426565766E+01 -0.30408620110E+02  0.30646405788E+02  0.47787267723E+02  0.19999984857E+02 0.  0.
        -12    1    3    3    0    0  0.44426565766E+01  0.30408620110E+02 -0.30646405788E+02  0.43400732277E+02  0.00000000000E+00 0.  1.
         11    1    4    4    0    0 -0.44779248211E+01 -0.69758835621E+01  0.23632036176E+01  0.86197154115E+01  0.51100000000E-03 0. -1.
        -11    1    4    4    0    0  0.37053533741E+01 -0.47902843007E+01  0.14441823074E+02  0.15660227369E+02  0.51100000000E-03 0.  1.
         12    1    4    4    0    0 -0.36700851296E+01 -0.18642452247E+02  0.13841379097E+02  0.23507324942E+02  0.00000000000E+00 0. -1.
</event>
<event>
 8    1  0.6239251E-010  0.9118800E+02  0.7816164E-02  0.1184000E+00
        -11   -1    0    0    0    0  0.00000000000E+00  0.00000000000E+00  0.45593999997E+02  0.45594000000E+02  0.51100000000E-03 0. -1.
         11   -1    0    0    0    0 -0.00000000000E+00 -0.00000000000E+00 -0.45593999997E+02  0.45594000000E+02  0.51100000000E-03 0.  1.
         23    2    1    2    0    0  0.00000000000E+00  0.00000000000E+00  0.00000000000E+00  0.91188000000E+02  0.91188000000E+02 0.  0.
    9900012    2    3    3    0    0  0.32074629289E+02 -0.13135941981E+02 -0.26120681300E+02  0.47787253379E+02  0.19999919455E+02 0.  0.
         12    1    3    3    0    0 -0.32074629289E+02  0.13135941981E+02  0.26120681300E+02  0.43400746621E+02  0.00000000000E+00 0. -1.
         11    1    4    4    0    0  0.10560770047E+02  0.32798438052E+00 -0.18160283802E+02  0.21010315223E+02  0.51100000000E-03 0. -1.
        -11    1    4    4    0    0  0.97709981778E+01 -0.43225477200E+01 -0.33985594714E+01  0.11211914686E+02  0.51100000000E-03 0.  1.
         12    1    4    4    0    0  0.11742861064E+02 -0.91413786416E+01 -0.45618380258E+01  0.15565023469E+02  0.00000000000E+00 0. -1.
</event>
<event>
 8    1  0.6239251E-010  0.9118800E+02  0.7816164E-02  0.1184000E+00
        -11   -1    0    0    0    0  0.00000000000E+00  0.00000000000E+00  0.45593999997E+02  0.45594000000E+02  0.51100000000E-03 0. -1.
         11   -1    0    0    0    0 -0.00000000000E+00 -0.00000000000E+00 -0.45593999997E+02  0.45594000000E+02  0.51100000000E-03 0.  1.
         23    2    1    2    0    0  0.00000000000E+00 -0.44408920985E-15  0.17763568394E-14  0.91188000000E+02  0.91188000000E+02 0.  0.
    9900012    2    3    3    0    0 -0.42603215452E+02 -0.28725387604E+01  0.77677448216E+01  0.47787270681E+02  0.19999998345E+02 0.  0.
        -12    1    3    3    0    0  0.42603215452E+02  0.28725387604E+01 -0.77677448216E+01  0.43400729319E+02  0.00000000000E+00 0.  1.
         11    1    4    4    0    0 -0.29220524929E+02 -0.13782132359E+01  0.10412428719E+02  0.31050881162E+02  0.51100000000E-03 0. -1.
        -11    1    4    4    0    0 -0.12804690234E+01  0.20484874226E+01 -0.33226754493E+01  0.41080499075E+01  0.51100000000E-03 0.  1.
        -12    1    4    4    0    0 -0.12102221500E+02 -0.35428129471E+01  0.67799155154E+00  0.12628339612E+02  0.00000000000E+00 0.  1.
</event>
<event>
 8    1  0.6239251E-010  0.9118800E+02  0.7816164E-02  0.1184000E+00
        -11   -1    0    0    0    0  0.00000000000E+00  0.00000000000E+00  0.45593999997E+02  0.45594000000E+02  0.51100000000E-03 0. -1.
         11   -1    0    0    0    0 -0.00000000000E+00 -0.00000000000E+00 -0.45593999997E+02  0.45594000000E+02  0.51100000000E-03 0.  1.
         23    2    1    2    0    0  0.00000000000E+00 -0.71054273576E-14 -0.35527136788E-14  0.91188000000E+02  0.91188000000E+02 0.  0.
    9900012    2    3    3    0    0  0.35248810011E+01 -0.36149412939E+02 -0.23757513292E+02  0.47787259456E+02  0.19999947163E+02 0.  0.
         12    1    3    3    0    0 -0.35248810011E+01  0.36149412939E+02  0.23757513292E+02  0.43400740544E+02  0.00000000000E+00 0. -1.
         11    1    4    4    0    0 -0.16929931967E+01 -0.19361081676E+01 -0.15003775313E+01  0.29775617203E+01  0.51100000000E-03 0. -1.
        -11    1    4    4    0    0  0.32900949794E+00  0.21376443951E+01 -0.74044279889E+00  0.22860504389E+01  0.51100000000E-03 0.  1.
        -12    1    4    4    0    0  0.48888646999E+01 -0.36350949167E+02 -0.21516692962E+02  0.42523647297E+02  0.00000000000E+00 0.  1.
</event>
<event>
 8    1  0.6239251E-010  0.9118800E+02  0.7816164E-02  0.1184000E+00
        -11   -1    0    0    0    0  0.00000000000E+00  0.00000000000E+00  0.45593999997E+02  0.45594000000E+02  0.51100000000E-03 0. -1.
         11   -1    0    0    0    0 -0.00000000000E+00 -0.00000000000E+00 -0.45593999997E+02  0.45594000000E+02  0.51100000000E-03 0.  1.
         23    2    1    2    0    0  0.44408920985E-15  0.00000000000E+00  0.00000000000E+00  0.91188000000E+02  0.91188000000E+02 0.  0.
    9900012    2    3    3    0    0 -0.96290927761E+00  0.18479897155E+02 -0.39258001682E+02  0.47787257043E+02  0.19999936163E+02 0.  0.
         12    1    3    3    0    0  0.96290927761E+00 -0.18479897155E+02  0.39258001682E+02  0.43400742957E+02  0.00000000000E+00 0. -1.
         11    1    4    4    0    0 -0.19048895394E+01  0.12635177253E+01 -0.35423297718E+01  0.42158251473E+01  0.51100000000E-03 0. -1.
        -11    1    4    4    0    0 -0.61667145089E+01  0.14327559430E+02 -0.30608762521E+02  0.34354092483E+02  0.51100000000E-03 0.  1.
        -12    1    4    4    0    0  0.71086947707E+01  0.28888200000E+01 -0.51069093895E+01  0.92173394126E+01  0.00000000000E+00 0.  1.
</event>
<event>
 8    1  0.6564663E-010  0.9118800E+02  0.7816164E-02  0.1184000E+00
        -11   -1    0    0    0    0  0.00000000000E+00  0.00000000000E+00  0.45593999997E+02  0.45594000000E+02  0.51100000000E-03 0. -1.
         11   -1    0    0    0    0 -0.00000000000E+00 -0.00000000000E+00 -0.45593999997E+02  0.45594000000E+02  0.51100000000E-03 0.  1.
         23    2    1    2    0    0  0.35527136788E-14 -0.17763568394E-14  0.00000000000E+00  0.91188000000E+02  0.91188000000E+02 0.  0.
    9900012    2    3    3    0    0 -0.18532105837E+02  0.11438495540E+02  0.37541251489E+02  0.47787266247E+02  0.19999978125E+02 0.  0.
        -12    1    3    3    0    0  0.18532105837E+02 -0.11438495540E+02 -0.37541251489E+02  0.43400733753E+02  0.00000000000E+00 0.  1.
         11    1    4    4    0    0 -0.11134589647E+02  0.11408901721E+02  0.30912679212E+02  0.34781257330E+02  0.51100000000E-03 0. -1.
        -11    1    4    4    0    0 -0.67353867597E+01  0.67993333066E-01  0.40574808576E+00  0.67479396608E+01  0.51100000000E-03 0.  1.
        -12    1    4    4    0    0 -0.66212943048E+00 -0.38399514114E-01  0.62228241907E+01  0.62580692561E+01  0.00000000000E+00 0.  1.
</event>
<event>
 8    1  0.6239251E-010  0.9118800E+02  0.7816164E-02  0.1184000E+00
        -11   -1    0    0    0    0  0.00000000000E+00  0.00000000000E+00  0.45593999997E+02  0.45594000000E+02  0.51100000000E-03 0. -1.
         11   -1    0    0    0    0 -0.00000000000E+00 -0.00000000000E+00 -0.45593999997E+02  0.45594000000E+02  0.51100000000E-03 0.  1.
         23    2    1    2    0    0  0.88817841970E-15  0.00000000000E+00  0.00000000000E+00  0.91188000000E+02  0.91188000000E+02 0.  0.
    9900012    2    3    3    0    0  0.36200300637E+01 -0.64399872455E+01  0.42767337298E+02  0.47787271977E+02  0.20000004251E+02 0.  0.
        -12    1    3    3    0    0 -0.36200300637E+01  0.64399872455E+01 -0.42767337298E+02  0.43400728023E+02  0.00000000000E+00 0.  1.
         11    1    4    4    0    0 -0.28318534522E+01 -0.97444529492E+01  0.21814462208E+02  0.24059187828E+02  0.51100000000E-03 0. -1.
        -11    1    4    4    0    0  0.57445204885E+01 -0.16037798782E+00  0.57880358938E+01  0.81563837888E+01  0.51100000000E-03 0.  1.
         12    1    4    4    0    0  0.70736302736E+00  0.34648436916E+01  0.15164839196E+02  0.15571700360E+02  0.00000000000E+00 0. -1.
</event>
<event>
 8    1  0.6239251E-010  0.9118800E+02  0.7816164E-02  0.1184000E+00
        -11   -1    0    0    0    0  0.00000000000E+00  0.00000000000E+00  0.45593999997E+02  0.45594000000E+02  0.51100000000E-03 0. -1.
         11   -1    0    0    0    0 -0.00000000000E+00 -0.00000000000E+00 -0.45593999997E+02  0.45594000000E+02  0.51100000000E-03 0.  1.
         23    2    1    2    0    0  0.00000000000E+00  0.00000000000E+00  0.00000000000E+00  0.91188000000E+02  0.91188000000E+02 0.  0.
    9900012    2    3    3    0    0  0.19637550381E+02  0.37712392628E+02  0.87043187883E+01  0.47787272953E+02  0.20000008701E+02 0.  0.
        -12    1    3    3    0    0 -0.19637550381E+02 -0.37712392628E+02 -0.87043187883E+01  0.43400727047E+02  0.00000000000E+00 0.  1.
         11    1    4    4    0    0  0.11482690173E+02  0.96537070365E+01  0.95826984021E+01  0.17800964639E+02  0.51100000000E-03 0. -1.
        -11    1    4    4    0    0  0.72042227225E+01  0.19775673598E+02 -0.33004121548E+01  0.21304243989E+02  0.51100000000E-03 0.  1.
        -12    1    4    4    0    0  0.95063748549E+00  0.82830119938E+01  0.24220325410E+01  0.86820643252E+01  0.00000000000E+00 0.  1.
</event>
<event>
 8    1  0.6239251E-010  0.9118800E+02  0.7816164E-02  0.1184000E+00
        -11   -1    0    0    0    0  0.00000000000E+00  0.00000000000E+00  0.45593999997E+02  0.45594000000E+02  0.51100000000E-03 0.  1.
         11   -1    0    0    0    0 -0.00000000000E+00 -0.00000000000E+00 -0.45593999997E+02  0.45594000000E+02  0.51100000000E-03 0. -1.
         23    2    1    2    0    0  0.35527136788E-14  0.88817841970E-15  0.00000000000E+00  0.91188000000E+02  0.91188000000E+02 0.  0.
    9900012    2    3    3    0    0  0.26977319593E+02 -0.65478742922E+01 -0.33361248275E+02  0.47787270551E+02  0.19999997752E+02 0.  0.
         12    1    3    3    0    0 -0.26977319593E+02  0.65478742922E+01  0.33361248275E+02  0.43400729449E+02  0.00000000000E+00 0. -1.
         11    1    4    4    0    0  0.17425287223E+01  0.95318053449E+00 -0.11699403174E+02  0.11866802196E+02  0.51100000000E-03 0. -1.
        -11    1    4    4    0    0  0.84997056779E+01 -0.33086171641E+01 -0.12688626244E+01  0.92087977918E+01  0.51100000000E-03 0.  1.
        -12    1    4    4    0    0  0.16735085193E+02 -0.41924376626E+01 -0.20392982477E+02  0.26711670563E+02  0.00000000000E+00 0.  1.
</event>
<event>
 8    1  0.6239251E-010  0.9118800E+02  0.7816164E-02  0.1184000E+00
        -11   -1    0    0    0    0  0.00000000000E+00  0.00000000000E+00  0.45593999997E+02  0.45594000000E+02  0.51100000000E-03 0. -1.
         11   -1    0    0    0    0 -0.00000000000E+00 -0.00000000000E+00 -0.45593999997E+02  0.45594000000E+02  0.51100000000E-03 0.  1.
         23    2    1    2    0    0  0.00000000000E+00  0.00000000000E+00  0.00000000000E+00  0.91188000000E+02  0.91188000000E+02 0.  0.
    9900012    2    3    3    0    0 -0.29790401086E+02 -0.10207425282E+02  0.29865761188E+02  0.47787271676E+02  0.20000002877E+02 0.  0.
        -12    1    3    3    0    0  0.29790401086E+02  0.10207425282E+02 -0.29865761188E+02  0.43400728324E+02  0.00000000000E+00 0.  1.
         11    1    4    4    0    0 -0.10390041471E+02 -0.43931312073E+01  0.84242760727E+01  0.14079097669E+02  0.51100000000E-03 0. -1.
        -11    1    4    4    0    0 -0.16286252111E+02  0.30098235936E+01  0.15027237460E+02  0.22363338567E+02  0.51100000000E-03 0.  1.
        -12    1    4    4    0    0 -0.31141075037E+01 -0.88241176684E+01  0.64142476550E+01  0.11344835439E+02  0.00000000000E+00 0.  1.
</event>
<event>
 8    1  0.6239251E-010  0.9118800E+02  0.7816164E-02  0.1184000E+00
        -11   -1    0    0    0    0  0.00000000000E+00  0.00000000000E+00  0.45593999997E+02  0.45594000000E+02  0.51100000000E-03 0. -1.
         11   -1    0    0    0    0 -0.00000000000E+00 -0.00000000000E+00 -0.45593999997E+02  0.45594000000E+02  0.51100000000E-03 0.  1.
         23    2    1    2    0    0  0.00000000000E+00  0.00000000000E+00  0.00000000000E+00  0.91188000000E+02  0.91188000000E+02 0.  0.
    9900012    2    3    3    0    0  0.18624679907E+02 -0.84222020846E+01  0.38285911175E+02  0.47787272079E+02  0.20000004716E+02 0.  0.
        -12    1    3    3    0    0 -0.18624679907E+02  0.84222020846E+01 -0.38285911175E+02  0.43400727921E+02  0.00000000000E+00 0.  1.
         11    1    4    4    0    0  0.10756003683E+01  0.41108795736E+01  0.11986033818E+02  0.12716967169E+02  0.51100000000E-03 0. -1.
        -11    1    4    4    0    0  0.88558649402E+01 -0.73230450752E+01  0.75293676096E+01  0.13738439135E+02  0.51100000000E-03 0.  1.
        -12    1    4    4    0    0  0.86932145988E+01 -0.52100365830E+01  0.18770509747E+02  0.21331865775E+02  0.00000000000E+00 0.  1.
</event>
<event>
 8    1  0.6239251E-010  0.9118800E+02  0.7816164E-02  0.1184000E+00
        -11   -1    0    0    0    0  0.00000000000E+00  0.00000000000E+00  0.45593999997E+02  0.45594000000E+02  0.51100000000E-03 0. -1.
         11   -1    0    0    0    0 -0.00000000000E+00 -0.00000000000E+00 -0.45593999997E+02  0.45594000000E+02  0.51100000000E-03 0.  1.
         23    2    1    2    0    0  0.44408920985E-15  0.00000000000E+00  0.00000000000E+00  0.91188000000E+02  0.91188000000E+02 0.  0.
    9900012    2    3    3    0    0  0.30682306257E+01  0.30104999823E+02 -0.31111070457E+02  0.47787265461E+02  0.19999974545E+02 0.  0.
         12    1    3    3    0    0 -0.30682306257E+01 -0.30104999823E+02  0.31111070457E+02  0.43400734539E+02  0.00000000000E+00 0. -1.
         11    1    4    4    0    0  0.54070120023E+01  0.11803767392E+01 -0.42107170646E+01  0.69540784076E+01  0.51100000000E-03 0. -1.
        -11    1    4    4    0    0 -0.14033971250E+01 -0.97686089775E-01 -0.26814039123E+00  0.14321192664E+01  0.51100000000E-03 0.  1.
         12    1    4    4    0    0 -0.93538425161E+00  0.29022309173E+02 -0.26632213001E+02  0.39401067787E+02  0.00000000000E+00 0. -1.
</event>
<event>
 8    1  0.9195748E-010  0.9118800E+02  0.7816164E-02  0.1184000E+00
        -11   -1    0    0    0    0  0.00000000000E+00  0.00000000000E+00  0.45593999997E+02  0.45594000000E+02  0.51100000000E-03 0. -1.
         11   -1    0    0    0    0 -0.00000000000E+00 -0.00000000000E+00 -0.45593999997E+02  0.45594000000E+02  0.51100000000E-03 0.  1.
         23    2    1    2    0    0  0.00000000000E+00  0.44408920985E-15  0.00000000000E+00  0.91188000000E+02  0.91188000000E+02 0.  0.
    9900012    2    3    3    0    0  0.71092681365E+01 -0.30817633602E+01  0.42703442043E+02  0.47787275107E+02  0.20000018525E+02 0.  0.
        -12    1    3    3    0    0 -0.71092681365E+01  0.30817633602E+01 -0.42703442043E+02  0.43400724893E+02  0.00000000000E+00 0.  1.
         11    1    4    4    0    0  0.79301741484E+01 -0.75538332303E-01  0.22486401301E+02  0.23843900935E+02  0.51100000000E-03 0. -1.
        -11    1    4    4    0    0 -0.47622435088E-01  0.55596476907E+00 -0.16669573268E+01  0.17578713580E+01  0.51100000000E-03 0.  1.
        -12    1    4    4    0    0 -0.77328357678E+00 -0.35621897969E+01  0.21883998070E+02  0.22185502815E+02  0.00000000000E+00 0.  1.
</event>
<event>
 8    1  0.6239251E-010  0.9118800E+02  0.7816164E-02  0.1184000E+00
        -11   -1    0    0    0    0  0.00000000000E+00  0.00000000000E+00  0.45593999997E+02  0.45594000000E+02  0.51100000000E-03 0. -1.
         11   -1    0    0    0    0 -0.00000000000E+00 -0.00000000000E+00 -0.45593999997E+02  0.45594000000E+02  0.51100000000E-03 0.  1.
         23    2    1    2    0    0 -0.35527136788E-14  0.00000000000E+00  0.35527136788E-14  0.91188000000E+02  0.91188000000E+02 0.  0.
    9900012    2    3    3    0    0  0.31098505718E+02  0.53549924030E+01  0.29796484559E+02  0.47787268513E+02  0.19999988460E+02 0.  0.
        -12    1    3    3    0    0 -0.31098505718E+02 -0.53549924030E+01 -0.29796484559E+02  0.43400731487E+02  0.00000000000E+00 0.  1.
         11    1    4    4    0    0  0.11790226079E+02 -0.22932377919E+01  0.78876124049E+01  0.14369509396E+02  0.51100000000E-03 0. -1.
        -11    1    4    4    0    0  0.68365008747E+00  0.31412826673E+01 -0.11696360531E+01  0.34209769067E+01  0.51100000000E-03 0.  1.
        -12    1    4    4    0    0  0.18624629551E+02  0.45069475276E+01  0.23078508207E+02  0.29996782211E+02  0.00000000000E+00 0.  1.
</event>
<event>
 8    1  0.6239251E-010  0.9118800E+02  0.7816164E-02  0.1184000E+00
        -11   -1    0    0    0    0  0.00000000000E+00  0.00000000000E+00  0.45593999997E+02  0.45594000000E+02  0.51100000000E-03 0. -1.
         11   -1    0    0    0    0 -0.00000000000E+00 -0.00000000000E+00 -0.45593999997E+02  0.45594000000E+02  0.51100000000E-03 0.  1.
         23    2    1    2    0    0  0.00000000000E+00  0.35527136788E-14  0.00000000000E+00  0.91188000000E+02  0.91188000000E+02 0.  0.
    9900012    2    3    3    0    0  0.25539912778E+01  0.26411683526E+02 -0.34344203018E+02  0.47787260616E+02  0.19999952454E+02 0.  0.
         12    1    3    3    0    0 -0.25539912778E+01 -0.26411683526E+02  0.34344203018E+02  0.43400739384E+02  0.00000000000E+00 0. -1.
         11    1    4    4    0    0 -0.75602229843E+00 -0.99646643793E+00 -0.12406431189E+02  0.12469324367E+02  0.51100000000E-03 0. -1.
        -11    1    4    4    0    0  0.31213215457E+01  0.20715374552E+02 -0.15863999841E+02  0.26278049438E+02  0.51100000000E-03 0.  1.
         12    1    4    4    0    0  0.18869203053E+00  0.66927754115E+01 -0.60737719880E+01  0.90398868109E+01  0.00000000000E+00 0. -1.
</event>
<event>
 8    1  0.6239251E-010  0.9118800E+02  0.7816164E-02  0.1184000E+00
        -11   -1    0    0    0    0  0.00000000000E+00  0.00000000000E+00  0.45593999997E+02  0.45594000000E+02  0.51100000000E-03 0.  1.
         11   -1    0    0    0    0 -0.00000000000E+00 -0.00000000000E+00 -0.45593999997E+02  0.45594000000E+02  0.51100000000E-03 0. -1.
         23    2    1    2    0    0  0.00000000000E+00  0.00000000000E+00  0.00000000000E+00  0.91188000000E+02  0.91188000000E+02 0.  0.
    9900012    2    3    3    0    0  0.33322417701E+02  0.74739527023E+01  0.26783945909E+02  0.47787271332E+02  0.20000001312E+02 0.  0.
        -12    1    3    3    0    0 -0.33322417701E+02 -0.74739527023E+01 -0.26783945909E+02  0.43400728668E+02  0.00000000000E+00 0.  1.
         11    1    4    4    0    0 -0.78523658259E+00 -0.35047453149E+00  0.61837911948E+01  0.62432926161E+01  0.51100000000E-03 0.  1.
        -11    1    4    4    0    0  0.28177317255E+02  0.74946636350E+01  0.20429727235E+02  0.35602035698E+02  0.51100000000E-03 0. -1.
         12    1    4    4    0    0  0.59303370289E+01  0.32976359873E+00  0.17042747930E+00  0.59419430183E+01  0.00000000000E+00 0. -1.
</event>
<event>
 8    1  0.6239251E-010  0.9118800E+02  0.7816164E-02  0.1184000E+00
        -11   -1    0    0    0    0  0.00000000000E+00  0.00000000000E+00  0.45593999997E+02  0.45594000000E+02  0.51100000000E-03 0.  1.
         11   -1    0    0    0    0 -0.00000000000E+00 -0.00000000000E+00 -0.45593999997E+02  0.45594000000E+02  0.51100000000E-03 0. -1.
         23    2    1    2    0    0  0.17763568394E-14 -0.71054273576E-14  0.88817841970E-15  0.91188000000E+02  0.91188000000E+02 0.  0.
    9900012    2    3    3    0    0 -0.13277332570E+02  0.40909102967E+02 -0.58121374647E+01  0.47787271808E+02  0.20000003481E+02 0.  0.
         12    1    3    3    0    0  0.13277332570E+02 -0.40909102967E+02  0.58121374647E+01  0.43400728192E+02  0.00000000000E+00 0. -1.
         11    1    4    4    0    0 -0.33675395704E+01  0.20799098615E+02 -0.12262146852E+02  0.24378332011E+02  0.51100000000E-03 0. -1.
        -11    1    4    4    0    0 -0.34837849908E+01  0.91872984935E+01  0.30462804104E+01  0.10287032423E+02  0.51100000000E-03 0.  1.
         12    1    4    4    0    0 -0.64260080084E+01  0.10922705858E+02  0.34037289767E+01  0.13121907374E+02  0.00000000000E+00 0. -1.
</event>
<event>
 8    1  0.6239251E-010  0.9118800E+02  0.7816164E-02  0.1184000E+00
        -11   -1    0    0    0    0  0.00000000000E+00  0.00000000000E+00  0.45593999997E+02  0.45594000000E+02  0.51100000000E-03 0. -1.
         11   -1    0    0    0    0 -0.00000000000E+00 -0.00000000000E+00 -0.45593999997E+02  0.45594000000E+02  0.51100000000E-03 0.  1.
         23    2    1    2    0    0  0.00000000000E+00  0.00000000000E+00  0.00000000000E+00  0.91188000000E+02  0.91188000000E+02 0.  0.
    9900012    2    3    3    0    0  0.30968006850E+02 -0.35954745350E+01 -0.30194008060E+02  0.47787274106E+02  0.20000013958E+02 0.  0.
         12    1    3    3    0    0 -0.30968006850E+02  0.35954745350E+01  0.30194008060E+02  0.43400725894E+02  0.00000000000E+00 0. -1.
         11    1    4    4    0    0  0.89682860916E+01 -0.63951166716E+01 -0.56575742404E+01  0.12382884123E+02  0.51100000000E-03 0. -1.
        -11    1    4    4    0    0  0.23445882999E+02  0.37958297925E+01 -0.23151678469E+02  0.33168026315E+02  0.51100000000E-03 0.  1.
        -12    1    4    4    0    0 -0.14461622408E+01 -0.99618765594E+00 -0.13847553513E+01  0.22363636680E+01  0.00000000000E+00 0.  1.
</event>
<event>
 8    1  0.6239251E-010  0.9118800E+02  0.7816164E-02  0.1184000E+00
        -11   -1    0    0    0    0  0.00000000000E+00  0.00000000000E+00  0.45593999997E+02  0.45594000000E+02  0.51100000000E-03 0. -1.
         11   -1    0    0    0    0 -0.00000000000E+00 -0.00000000000E+00 -0.45593999997E+02  0.45594000000E+02  0.51100000000E-03 0.  1.
         23    2    1    2    0    0 -0.66613381478E-15  0.00000000000E+00  0.00000000000E+00  0.91188000000E+02  0.91188000000E+02 0.  0.
    9900012    2    3    3    0    0  0.14564581120E+01  0.22045293047E+02  0.37356483899E+02  0.47787272989E+02  0.20000008866E+02 0.  0.
        -12    1    3    3    0    0 -0.14564581120E+01 -0.22045293047E+02 -0.37356483899E+02  0.43400727011E+02  0.00000000000E+00 0.  1.
         11    1    4    4    0    0  0.60318951880E+01  0.46667124999E+00  0.12876894232E+02  0.14227295841E+02  0.51100000000E-03 0. -1.
        -11    1    4    4    0    0 -0.17242481365E+01  0.14690329801E+02  0.12104301124E+02  0.19112637894E+02  0.51100000000E-03 0.  1.
         12    1    4    4    0    0 -0.28511889396E+01  0.68882919958E+01  0.12375288544E+02  0.14447339254E+02  0.00000000000E+00 0. -1.
</event>
<event>
 8    1  0.6239251E-010  0.9118800E+02  0.7816164E-02  0.1184000E+00
        -11   -1    0    0    0    0  0.00000000000E+00  0.00000000000E+00  0.45593999997E+02  0.45594000000E+02  0.51100000000E-03 0. -1.
         11   -1    0    0    0    0 -0.00000000000E+00 -0.00000000000E+00 -0.45593999997E+02  0.45594000000E+02  0.51100000000E-03 0.  1.
         23    2    1    2    0    0  0.00000000000E+00  0.00000000000E+00  0.00000000000E+00  0.91188000000E+02  0.91188000000E+02 0.  0.
    9900012    2    3    3    0    0  0.35594806382E+02 -0.14760093573E+02 -0.19969291101E+02  0.47787272002E+02  0.20000004368E+02 0.  0.
         12    1    3    3    0    0 -0.35594806382E+02  0.14760093573E+02  0.19969291101E+02  0.43400727998E+02  0.00000000000E+00 0. -1.
         11    1    4    4    0    0  0.22298546514E+01  0.74311680233E+00 -0.13673148072E+01  0.27191955412E+01  0.51100000000E-03 0. -1.
        -11    1    4    4    0    0  0.30913581949E+02 -0.92488486464E+01 -0.20322155560E+02  0.38133722046E+02  0.51100000000E-03 0.  1.
        -12    1    4    4    0    0  0.24513697813E+01 -0.62543617293E+01  0.17201792666E+01  0.69343544151E+01  0.00000000000E+00 0.  1.
</event>
<event>
 8    1  0.6239251E-010  0.9118800E+02  0.7816164E-02  0.1184000E+00
        -11   -1    0    0    0    0  0.00000000000E+00  0.00000000000E+00  0.45593999997E+02  0.45594000000E+02  0.51100000000E-03 0.  1.
         11   -1    0    0    0    0 -0.00000000000E+00 -0.00000000000E+00 -0.45593999997E+02  0.45594000000E+02  0.51100000000E-03 0. -1.
         23    2    1    2    0    0  0.00000000000E+00  0.71054273576E-14 -0.35527136788E-14  0.91188000000E+02  0.91188000000E+02 0.  0.
    9900012    2    3    3    0    0 -0.13755328574E+02  0.36784880654E+02 -0.18473966879E+02  0.47787263127E+02  0.19999963900E+02 0.  0.
        -12    1    3    3    0    0  0.13755328574E+02 -0.36784880654E+02  0.18473966879E+02  0.43400736873E+02  0.00000000000E+00 0.  1.
         11    1    4    4    0    0  0.26350011035E+01  0.10467767725E+02 -0.11470525066E+02  0.15750883706E+02  0.51100000000E-03 0. -1.
        -11    1    4    4    0    0 -0.19820951884E+01  0.12504199119E+01 -0.36952012653E+00  0.23725085199E+01  0.51100000000E-03 0.  1.
         12    1    4    4    0    0 -0.14408234489E+02  0.25066693017E+02 -0.66339216859E+01  0.29663870901E+02  0.00000000000E+00 0. -1.
</event>
<event>
 8    1  0.6239251E-010  0.9118800E+02  0.7816164E-02  0.1184000E+00
        -11   -1    0    0    0    0  0.00000000000E+00  0.00000000000E+00  0.45593999997E+02  0.45594000000E+02  0.51100000000E-03 0. -1.
         11   -1    0    0    0    0 -0.00000000000E+00 -0.00000000000E+00 -0.45593999997E+02  0.45594000000E+02  0.51100000000E-03 0.  1.
         23    2    1    2    0    0  0.44408920985E-15  0.00000000000E+00  0.00000000000E+00  0.91188000000E+02  0.91188000000E+02 0.  0.
    9900012    2    3    3    0    0  0.18951746193E+01  0.41070686776E+02  0.13900876505E+02  0.47787223893E+02  0.19999785018E+02 0.  0.
        -12    1    3    3    0    0 -0.18951746193E+01 -0.41070686776E+02 -0.13900876505E+02  0.43400776107E+02  0.00000000000E+00 0.  1.
         11    1    4    4    0    0 -0.47076108464E+01  0.90027910337E+01  0.58093077128E+01  0.11702986911E+02  0.51100000000E-03 0. -1.
        -11    1    4    4    0    0  0.99148969964E+01  0.25887232470E+02  0.86780027710E+01  0.29047576831E+02  0.51100000000E-03 0.  1.
        -12    1    4    4    0    0 -0.33121115306E+01  0.61806632723E+01 -0.58643397909E+00  0.70366601516E+01  0.00000000000E+00 0.  1.
</event>
<event>
 8    1  0.6239251E-010  0.9118800E+02  0.7816164E-02  0.1184000E+00
        -11   -1    0    0    0    0  0.00000000000E+00  0.00000000000E+00  0.45593999997E+02  0.45594000000E+02  0.51100000000E-03 0. -1.
         11   -1    0    0    0    0 -0.00000000000E+00 -0.00000000000E+00 -0.45593999997E+02  0.45594000000E+02  0.51100000000E-03 0.  1.
         23    2    1    2    0    0  0.00000000000E+00  0.00000000000E+00  0.00000000000E+00  0.91188000000E+02  0.91188000000E+02 0.  0.
    9900012    2    3    3    0    0  0.21738520160E+02 -0.12160349412E+02  0.35541326493E+02  0.47787271372E+02  0.20000001492E+02 0.  0.
        -12    1    3    3    0    0 -0.21738520160E+02  0.12160349412E+02 -0.35541326493E+02  0.43400728628E+02  0.00000000000E+00 0.  1.
         11    1    4    4    0    0  0.61223991582E+01  0.20735190598E+01  0.96618064381E+01  0.11624704583E+02  0.51100000000E-03 0. -1.
        -11    1    4    4    0    0  0.13429801303E+02 -0.14541393154E+02  0.14413530831E+02  0.24485945953E+02  0.51100000000E-03 0.  1.
        -12    1    4    4    0    0  0.21863196985E+01  0.30752468241E+00  0.11465989224E+02  0.11676620835E+02  0.00000000000E+00 0.  1.
</event>
<event>
 8    1  0.6239251E-010  0.9118800E+02  0.7816164E-02  0.1184000E+00
        -11   -1    0    0    0    0  0.00000000000E+00  0.00000000000E+00  0.45593999997E+02  0.45594000000E+02  0.51100000000E-03 0. -1.
         11   -1    0    0    0    0 -0.00000000000E+00 -0.00000000000E+00 -0.45593999997E+02  0.45594000000E+02  0.51100000000E-03 0.  1.
         23    2    1    2    0    0  0.00000000000E+00  0.26645352591E-14  0.00000000000E+00  0.91188000000E+02  0.91188000000E+02 0.  0.
    9900012    2    3    3    0    0  0.94294206458E+01 -0.59009634899E+01  0.41951018110E+02  0.47787271155E+02  0.20000000504E+02 0.  0.
        -12    1    3    3    0    0 -0.94294206458E+01  0.59009634899E+01 -0.41951018110E+02  0.43400728845E+02  0.00000000000E+00 0.  1.
         11    1    4    4    0    0  0.38956977770E+00  0.31101079348E+01  0.22006069786E+02  0.22228172297E+02  0.51100000000E-03 0.  1.
        -11    1    4    4    0    0  0.88371501938E+01 -0.87890705807E+01  0.21023000485E+02  0.24439916835E+02  0.51100000000E-03 0. -1.
         12    1    4    4    0    0  0.20270067432E+00 -0.22200084395E+00 -0.10780521616E+01  0.11191820233E+01  0.00000000000E+00 0. -1.
</event>
<event>
 8    1  0.6239251E-010  0.9118800E+02  0.7816164E-02  0.1184000E+00
        -11   -1    0    0    0    0  0.00000000000E+00  0.00000000000E+00  0.45593999997E+02  0.45594000000E+02  0.51100000000E-03 0. -1.
         11   -1    0    0    0    0 -0.00000000000E+00 -0.00000000000E+00 -0.45593999997E+02  0.45594000000E+02  0.51100000000E-03 0.  1.
         23    2    1    2    0    0  0.22204460493E-14  0.17763568394E-14 -0.71054273576E-14  0.91188000000E+02  0.91188000000E+02 0.  0.
    9900012    2    3    3    0    0 -0.33226107326E+01 -0.12668465623E+02  0.41377456473E+02  0.47787266510E+02  0.19999979326E+02 0.  0.
        -12    1    3    3    0    0  0.33226107326E+01  0.12668465623E+02 -0.41377456473E+02  0.43400733490E+02  0.00000000000E+00 0.  1.
         11    1    4    4    0    0 -0.91262264507E+01 -0.40137673070E+01  0.12425617180E+02  0.15930922754E+02  0.51100000000E-03 0. -1.
        -11    1    4    4    0    0 -0.91401686030E+00 -0.88603065935E+00  0.15439408120E+00  0.12823084433E+01  0.51100000000E-03 0.  1.
         12    1    4    4    0    0  0.67176325784E+01 -0.77686676565E+01  0.28797445211E+02  0.30574035313E+02  0.00000000000E+00 0. -1.
</event>
<event>
 8    1  0.6239251E-010  0.9118800E+02  0.7816164E-02  0.1184000E+00
        -11   -1    0    0    0    0  0.00000000000E+00  0.00000000000E+00  0.45593999997E+02  0.45594000000E+02  0.51100000000E-03 0. -1.
         11   -1    0    0    0    0 -0.00000000000E+00 -0.00000000000E+00 -0.45593999997E+02  0.45594000000E+02  0.51100000000E-03 0.  1.
         23    2    1    2    0    0  0.17763568394E-14 -0.88817841970E-15  0.00000000000E+00  0.91188000000E+02  0.91188000000E+02 0.  0.
    9900012    2    3    3    0    0  0.11298981318E+02 -0.76269977007E+01  0.41204193445E+02  0.47787266939E+02  0.19999981284E+02 0.  0.
        -12    1    3    3    0    0 -0.11298981318E+02  0.76269977007E+01 -0.41204193445E+02  0.43400733061E+02  0.00000000000E+00 0.  1.
         11    1    4    4    0    0  0.19631977541E+00 -0.95239437312E+01  0.20569471836E+02  0.22668198374E+02  0.51100000000E-03 0.  1.
        -11    1    4    4    0    0  0.85882290972E+01  0.33252965436E+01  0.20192661833E+02  0.22193667301E+02  0.51100000000E-03 0. -1.
        -12    1    4    4    0    0  0.25144324452E+01 -0.14283505131E+01  0.44205977603E+00  0.29254012639E+01  0.00000000000E+00 0.  1.
</event>
<event>
 8    1  0.6426450E-010  0.9118800E+02  0.7816164E-02  0.1184000E+00
        -11   -1    0    0    0    0  0.00000000000E+00  0.00000000000E+00  0.45593999997E+02  0.45594000000E+02  0.51100000000E-03 0. -1.
         11   -1    0    0    0    0 -0.00000000000E+00 -0.00000000000E+00 -0.45593999997E+02  0.45594000000E+02  0.51100000000E-03 0.  1.
         23    2    1    2    0    0  0.00000000000E+00 -0.35527136788E-14  0.35527136788E-14  0.91188000000E+02  0.91188000000E+02 0.  0.
    9900012    2    3    3    0    0 -0.32338705059E+02  0.17884472454E+02  0.22759128452E+02  0.47787261207E+02  0.19999955147E+02 0.  0.
        -12    1    3    3    0    0  0.32338705059E+02 -0.17884472454E+02 -0.22759128452E+02  0.43400738793E+02  0.00000000000E+00 0.  1.
         11    1    4    4    0    0 -0.79990781977E+01  0.63532247395E+01  0.11727105764E+02  0.15552290071E+02  0.51100000000E-03 0. -1.
        -11    1    4    4    0    0 -0.48775952799E+01  0.74804750520E+01 -0.10192793919E+01  0.89881796521E+01  0.51100000000E-03 0.  1.
        -12    1    4    4    0    0 -0.19462031582E+02  0.40507726626E+01  0.12051302080E+02  0.23246791483E+02  0.00000000000E+00 0.  1.
</event>
<event>
 8    1  0.6239251E-010  0.9118800E+02  0.7816164E-02  0.1184000E+00
        -11   -1    0    0    0    0  0.00000000000E+00  0.00000000000E+00  0.45593999997E+02  0.45594000000E+02  0.51100000000E-03 0. -1.
         11   -1    0    0    0    0 -0.00000000000E+00 -0.00000000000E+00 -0.45593999997E+02  0.45594000000E+02  0.51100000000E-03 0.  1.
         23    2    1    2    0    0  0.00000000000E+00  0.00000000000E+00  0.00000000000E+00  0.91188000000E+02  0.91188000000E+02 0.  0.
    9900012    2    3    3    0    0  0.22908700939E+02  0.34363705194E+02 -0.13339808668E+02  0.47787270644E+02  0.19999998173E+02 0.  0.
         12    1    3    3    0    0 -0.22908700939E+02 -0.34363705194E+02  0.13339808668E+02  0.43400729356E+02  0.00000000000E+00 0. -1.
         11    1    4    4    0    0  0.12250270673E+01  0.41751401538E+01 -0.75882032089E+01  0.87471889668E+01  0.51100000000E-03 0. -1.
        -11    1    4    4    0    0  0.20044313083E+02  0.29211357057E+02 -0.28162605423E+01  0.35538840609E+02  0.51100000000E-03 0.  1.
        -12    1    4    4    0    0  0.16393607888E+01  0.97720798244E+00 -0.29353449168E+01  0.35012410682E+01  0.00000000000E+00 0.  1.
</event>
<event>
 8    1  0.8343949E-010  0.9118800E+02  0.7816164E-02  0.1184000E+00
        -11   -1    0    0    0    0  0.00000000000E+00  0.00000000000E+00  0.45593999997E+02  0.45594000000E+02  0.51100000000E-03 0. -1.
         11   -1    0    0    0    0 -0.00000000000E+00 -0.00000000000E+00 -0.45593999997E+02  0.45594000000E+02  0.51100000000E-03 0.  1.
         23    2    1    2    0    0  0.88817841970E-15  0.00000000000E+00  0.00000000000E+00  0.91188000000E+02  0.91188000000E+02 0.  0.
    9900012    2    3    3    0    0 -0.49071478300E+01  0.25641344256E+02  0.34670802385E+02  0.47787272206E+02  0.20000005295E+02 0.  0.
        -12    1    3    3    0    0  0.49071478300E+01 -0.25641344256E+02 -0.34670802385E+02  0.43400727794E+02  0.00000000000E+00 0.  1.
         11    1    4    4    0    0 -0.22206098937E+01  0.10550512228E+02  0.20597968769E+02  0.23249101794E+02  0.51100000000E-03 0. -1.
        -11    1    4    4    0    0 -0.40754966089E+01  0.15496798425E+02  0.72925054234E+01  0.17605143273E+02  0.51100000000E-03 0.  1.
        -12    1    4    4    0    0  0.13889586727E+01 -0.40596639731E+00  0.67803281927E+01  0.69330271391E+01  0.00000000000E+00 0.  1.
</event>
<event>
 8    1  0.1651343E-009  0.9118800E+02  0.7816164E-02  0.1184000E+00
        -11   -1    0    0    0    0  0.00000000000E+00  0.00000000000E+00  0.45593999997E+02  0.45594000000E+02  0.51100000000E-03 0. -1.
         11   -1    0    0    0    0 -0.00000000000E+00 -0.00000000000E+00 -0.45593999997E+02  0.45594000000E+02  0.51100000000E-03 0.  1.
         23    2    1    2    0    0  0.00000000000E+00 -0.71054273576E-14  0.00000000000E+00  0.91188000000E+02  0.91188000000E+02 0.  0.
    9900012    2    3    3    0    0  0.61074926888E+01 -0.34308230544E+02 -0.25870201928E+02  0.47787268464E+02  0.19999988236E+02 0.  0.
         12    1    3    3    0    0 -0.61074926888E+01  0.34308230544E+02  0.25870201928E+02  0.43400731536E+02  0.00000000000E+00 0. -1.
         11    1    4    4    0    0  0.23445742208E+01 -0.24251861746E+01  0.23898900042E+01  0.41340211358E+01  0.51100000000E-03 0. -1.
        -11    1    4    4    0    0  0.37111081433E+01 -0.61146414163E+01 -0.89245040752E+01  0.11437129734E+02  0.51100000000E-03 0.  1.
         12    1    4    4    0    0  0.51810324669E-01 -0.25768402953E+02 -0.19335587857E+02  0.32216117595E+02  0.00000000000E+00 0. -1.
</event>
<event>
 8    1  0.6239251E-010  0.9118800E+02  0.7816164E-02  0.1184000E+00
        -11   -1    0    0    0    0  0.00000000000E+00  0.00000000000E+00  0.45593999997E+02  0.45594000000E+02  0.51100000000E-03 0. -1.
         11   -1    0    0    0    0 -0.00000000000E+00 -0.00000000000E+00 -0.45593999997E+02  0.45594000000E+02  0.51100000000E-03 0.  1.
         23    2    1    2    0    0  0.00000000000E+00  0.00000000000E+00  0.00000000000E+00  0.91188000000E+02  0.91188000000E+02 0.  0.
    9900012    2    3    3    0    0  0.16755601718E+02  0.20054273199E+02  0.34651095347E+02  0.47787280291E+02  0.20000042160E+02 0.  0.
        -12    1    3    3    0    0 -0.16755601718E+02 -0.20054273199E+02 -0.34651095347E+02  0.43400719709E+02  0.00000000000E+00 0.  1.
         11    1    4    4    0    0  0.77527836818E+00 -0.20609334562E+01  0.59650559578E+01  0.63584900802E+01  0.51100000000E-03 0. -1.
        -11    1    4    4    0    0  0.21291838340E+01 -0.91839340371E+00  0.30189743888E+00  0.23383781918E+01  0.51100000000E-03 0.  1.
         12    1    4    4    0    0  0.13851139515E+02  0.23033600059E+02  0.28384141951E+02  0.39090412019E+02  0.00000000000E+00 0. -1.
</event>
<event>
 8    1  0.6239251E-010  0.9118800E+02  0.7816164E-02  0.1184000E+00
        -11   -1    0    0    0    0  0.00000000000E+00  0.00000000000E+00  0.45593999997E+02  0.45594000000E+02  0.51100000000E-03 0. -1.
         11   -1    0    0    0    0 -0.00000000000E+00 -0.00000000000E+00 -0.45593999997E+02  0.45594000000E+02  0.51100000000E-03 0.  1.
         23    2    1    2    0    0  0.00000000000E+00  0.00000000000E+00  0.00000000000E+00  0.91188000000E+02  0.91188000000E+02 0.  0.
    9900012    2    3    3    0    0  0.24351056133E+02 -0.15535285929E+02  0.32392986403E+02  0.47787255631E+02  0.19999929724E+02 0.  0.
        -12    1    3    3    0    0 -0.24351056133E+02  0.15535285929E+02 -0.32392986403E+02  0.43400744369E+02  0.00000000000E+00 0.  1.
         11    1    4    4    0    0  0.21099476203E+02 -0.90188082384E+01  0.26907149346E+02  0.35362713192E+02  0.51100000000E-03 0. -1.
        -11    1    4    4    0    0  0.45809602244E+01 -0.76825003548E+01  0.31247727926E+01  0.94747144309E+01  0.51100000000E-03 0.  1.
         12    1    4    4    0    0 -0.13293802948E+01  0.11660226637E+01  0.23610642638E+01  0.29498280083E+01  0.00000000000E+00 0. -1.
</event>
<event>
 8    1  0.6239251E-010  0.9118800E+02  0.7816164E-02  0.1184000E+00
        -11   -1    0    0    0    0  0.00000000000E+00  0.00000000000E+00  0.45593999997E+02  0.45594000000E+02  0.51100000000E-03 0. -1.
         11   -1    0    0    0    0 -0.00000000000E+00 -0.00000000000E+00 -0.45593999997E+02  0.45594000000E+02  0.51100000000E-03 0.  1.
         23    2    1    2    0    0 -0.17763568394E-14  0.00000000000E+00  0.00000000000E+00  0.91188000000E+02  0.91188000000E+02 0.  0.
    9900012    2    3    3    0    0 -0.15054852807E+02 -0.30750657550E+02  0.26671540945E+02  0.47787278472E+02  0.20000033863E+02 0.  0.
        -12    1    3    3    0    0  0.15054852807E+02  0.30750657550E+02 -0.26671540945E+02  0.43400721528E+02  0.00000000000E+00 0.  1.
         11    1    4    4    0    0 -0.14640155920E+02 -0.20555129205E+02  0.14481773415E+02  0.29095863340E+02  0.51100000000E-03 0. -1.
        -11    1    4    4    0    0 -0.34938869879E+01 -0.62145514965E+01  0.21264271447E+01  0.74397304554E+01  0.51100000000E-03 0.  1.
         12    1    4    4    0    0  0.30791901001E+01 -0.39809768483E+01  0.10063340385E+02  0.11251684676E+02  0.00000000000E+00 0. -1.
</event>
<event>
 8    1  0.6239251E-010  0.9118800E+02  0.7816164E-02  0.1184000E+00
        -11   -1    0    0    0    0  0.00000000000E+00  0.00000000000E+00  0.45593999997E+02  0.45594000000E+02  0.51100000000E-03 0. -1.
         11   -1    0    0    0    0 -0.00000000000E+00 -0.00000000000E+00 -0.45593999997E+02  0.45594000000E+02  0.51100000000E-03 0.  1.
         23    2    1    2    0    0  0.00000000000E+00  0.00000000000E+00  0.00000000000E+00  0.91188000000E+02  0.91188000000E+02 0.  0.
    9900012    2    3    3    0    0  0.25031444299E+01  0.14320259425E+02  0.40893623960E+02  0.47787262188E+02  0.19999959622E+02 0.  0.
        -12    1    3    3    0    0 -0.25031444299E+01 -0.14320259425E+02 -0.40893623960E+02  0.43400737812E+02  0.00000000000E+00 0.  1.
         11    1    4    4    0    0 -0.28714729898E+01  0.63127467640E+01  0.28145768314E+02  0.28987590501E+02  0.51100000000E-03 0. -1.
        -11    1    4    4    0    0  0.81611702484E+01  0.67960684906E+01  0.11018331453E+02  0.15303426904E+02  0.51100000000E-03 0.  1.
         12    1    4    4    0    0 -0.27865528287E+01  0.12114441707E+01  0.17295241929E+01  0.34962447826E+01  0.00000000000E+00 0. -1.
</event>
<event>
 8    1  0.6239251E-010  0.9118800E+02  0.7816164E-02  0.1184000E+00
        -11   -1    0    0    0    0  0.00000000000E+00  0.00000000000E+00  0.45593999997E+02  0.45594000000E+02  0.51100000000E-03 0. -1.
         11   -1    0    0    0    0 -0.00000000000E+00 -0.00000000000E+00 -0.45593999997E+02  0.45594000000E+02  0.51100000000E-03 0.  1.
         23    2    1    2    0    0  0.00000000000E+00  0.00000000000E+00  0.71054273576E-14  0.91188000000E+02  0.91188000000E+02 0.  0.
    9900012    2    3    3    0    0  0.99764700611E+01 -0.19196222436E+02  0.37624440416E+02  0.47787269277E+02  0.19999991941E+02 0.  0.
        -12    1    3    3    0    0 -0.99764700611E+01  0.19196222436E+02 -0.37624440416E+02  0.43400730723E+02  0.00000000000E+00 0.  1.
         11    1    4    4    0    0  0.11913326003E+01 -0.60130511321E+00  0.99895476390E+01  0.10078288719E+02  0.51100000000E-03 0. -1.
        -11    1    4    4    0    0 -0.43787779239E+01 -0.39522791145E+01  0.75694502735E+01  0.95963943234E+01  0.51100000000E-03 0.  1.
        -12    1    4    4    0    0  0.13163915385E+02 -0.14642638209E+02  0.20065442503E+02  0.28112586235E+02  0.00000000000E+00 0.  1.
</event>
<event>
 8    1  0.6239251E-010  0.9118800E+02  0.7816164E-02  0.1184000E+00
        -11   -1    0    0    0    0  0.00000000000E+00  0.00000000000E+00  0.45593999997E+02  0.45594000000E+02  0.51100000000E-03 0. -1.
         11   -1    0    0    0    0 -0.00000000000E+00 -0.00000000000E+00 -0.45593999997E+02  0.45594000000E+02  0.51100000000E-03 0.  1.
         23    2    1    2    0    0  0.00000000000E+00 -0.17763568394E-14  0.21316282073E-13  0.91188000000E+02  0.91188000000E+02 0.  0.
    9900012    2    3    3    0    0 -0.36573604653E+01 -0.11113158817E+02  0.41794078292E+02  0.47787267693E+02  0.19999984720E+02 0.  0.
        -12    1    3    3    0    0  0.36573604653E+01  0.11113158817E+02 -0.41794078292E+02  0.43400732307E+02  0.00000000000E+00 0.  1.
         11    1    4    4    0    0 -0.12646594076E+01 -0.30350556160E+00  0.71415802801E+01  0.72590390688E+01  0.51100000000E-03 0. -1.
        -11    1    4    4    0    0 -0.16085528575E+01  0.90743096933E+00 -0.15860542075E+01  0.24344283661E+01  0.51100000000E-03 0.  1.
        -12    1    4    4    0    0 -0.78414820017E+00 -0.11717084225E+02  0.36238552220E+02  0.38093800258E+02  0.00000000000E+00 0.  1.
</event>
<event>
 8    1  0.6239251E-010  0.9118800E+02  0.7816164E-02  0.1184000E+00
        -11   -1    0    0    0    0  0.00000000000E+00  0.00000000000E+00  0.45593999997E+02  0.45594000000E+02  0.51100000000E-03 0. -1.
         11   -1    0    0    0    0 -0.00000000000E+00 -0.00000000000E+00 -0.45593999997E+02  0.45594000000E+02  0.51100000000E-03 0.  1.
         23    2    1    2    0    0 -0.35527136788E-14  0.00000000000E+00 -0.71054273576E-14  0.91188000000E+02  0.91188000000E+02 0.  0.
    9900012    2    3    3    0    0  0.22104691616E+02  0.19277665257E+02  0.31990270045E+02  0.47787272509E+02  0.20000006676E+02 0.  0.
        -12    1    3    3    0    0 -0.22104691616E+02 -0.19277665257E+02 -0.31990270045E+02  0.43400727491E+02  0.00000000000E+00 0.  1.
         11    1    4    4    0    0  0.89583124819E+01  0.52860919873E+01  0.19343293225E+02  0.21962630172E+02  0.51100000000E-03 0. -1.
        -11    1    4    4    0    0  0.11729254025E+02  0.14892394025E+02  0.74585905049E+01  0.20371287941E+02  0.51100000000E-03 0.  1.
        -12    1    4    4    0    0  0.14171251089E+01 -0.90082075512E+00  0.51883863154E+01  0.54533543957E+01  0.00000000000E+00 0.  1.
</event>
<event>
 8    1  0.6239251E-010  0.9118800E+02  0.7816164E-02  0.1184000E+00
        -11   -1    0    0    0    0  0.00000000000E+00  0.00000000000E+00  0.45593999997E+02  0.45594000000E+02  0.51100000000E-03 0. -1.
         11   -1    0    0    0    0 -0.00000000000E+00 -0.00000000000E+00 -0.45593999997E+02  0.45594000000E+02  0.51100000000E-03 0.  1.
         23    2    1    2    0    0  0.00000000000E+00  0.00000000000E+00  0.00000000000E+00  0.91188000000E+02  0.91188000000E+02 0.  0.
    9900012    2    3    3    0    0  0.52566396038E+01 -0.25035068721E+02  0.35060472414E+02  0.47787266692E+02  0.19999980154E+02 0.  0.
        -12    1    3    3    0    0 -0.52566396038E+01  0.25035068721E+02 -0.35060472414E+02  0.43400733308E+02  0.00000000000E+00 0.  1.
         11    1    4    4    0    0  0.25475770524E+01 -0.55149124938E+01  0.24801089276E+02  0.25534260087E+02  0.51100000000E-03 0. -1.
        -11    1    4    4    0    0  0.26555209824E+01 -0.18725596094E+02  0.10100032519E+02  0.21440858143E+02  0.51100000000E-03 0.  1.
         12    1    4    4    0    0  0.53541569091E-01 -0.79456013279E+00  0.15935061965E+00  0.81214846193E+00  0.00000000000E+00 0. -1.
</event>
<event>
 8    1  0.6239251E-010  0.9118800E+02  0.7816164E-02  0.1184000E+00
        -11   -1    0    0    0    0  0.00000000000E+00  0.00000000000E+00  0.45593999997E+02  0.45594000000E+02  0.51100000000E-03 0. -1.
         11   -1    0    0    0    0 -0.00000000000E+00 -0.00000000000E+00 -0.45593999997E+02  0.45594000000E+02  0.51100000000E-03 0.  1.
         23    2    1    2    0    0 -0.27755575616E-15  0.88817841970E-15  0.00000000000E+00  0.91188000000E+02  0.91188000000E+02 0.  0.
    9900012    2    3    3    0    0 -0.28848318787E+00 -0.54963937946E+01  0.43050317286E+02  0.47787269756E+02  0.19999994127E+02 0.  0.
        -12    1    3    3    0    0  0.28848318787E+00  0.54963937946E+01 -0.43050317286E+02  0.43400730244E+02  0.00000000000E+00 0.  1.
         11    1    4    4    0    0 -0.21089030757E+00  0.20197671981E+01 -0.10160725992E+01  0.22707571522E+01  0.51100000000E-03 0.  1.
        -11    1    4    4    0    0 -0.22516696064E+01 -0.43978961204E+01  0.91934651403E+01  0.10437016233E+02  0.51100000000E-03 0. -1.
         12    1    4    4    0    0  0.21740767261E+01 -0.31182648722E+01  0.34872924744E+02  0.35079496371E+02  0.00000000000E+00 0. -1.
</event>
<event>
 8    1  0.6239251E-010  0.9118800E+02  0.7816164E-02  0.1184000E+00
        -11   -1    0    0    0    0  0.00000000000E+00  0.00000000000E+00  0.45593999997E+02  0.45594000000E+02  0.51100000000E-03 0. -1.
         11   -1    0    0    0    0 -0.00000000000E+00 -0.00000000000E+00 -0.45593999997E+02  0.45594000000E+02  0.51100000000E-03 0.  1.
         23    2    1    2    0    0  0.00000000000E+00  0.17763568394E-14  0.00000000000E+00  0.91188000000E+02  0.91188000000E+02 0.  0.
    9900012    2    3    3    0    0  0.20889989898E+02  0.12068551736E+02 -0.36077438181E+02  0.47787272303E+02  0.20000005739E+02 0.  0.
         12    1    3    3    0    0 -0.20889989898E+02 -0.12068551736E+02  0.36077438181E+02  0.43400727697E+02  0.00000000000E+00 0. -1.
         11    1    4    4    0    0  0.41408573162E+01  0.81967536597E+01 -0.42421254573E+01  0.10115784622E+02  0.51100000000E-03 0. -1.
        -11    1    4    4    0    0  0.17520507559E+02  0.28898695903E+01 -0.24658507007E+02  0.30386863929E+02  0.51100000000E-03 0.  1.
         12    1    4    4    0    0 -0.77137497754E+00  0.98192848620E+00 -0.71768057163E+01  0.72846237513E+01  0.00000000000E+00 0. -1.
</event>
<event>
 8    1  0.6239251E-010  0.9118800E+02  0.7816164E-02  0.1184000E+00
        -11   -1    0    0    0    0  0.00000000000E+00  0.00000000000E+00  0.45593999997E+02  0.45594000000E+02  0.51100000000E-03 0. -1.
         11   -1    0    0    0    0 -0.00000000000E+00 -0.00000000000E+00 -0.45593999997E+02  0.45594000000E+02  0.51100000000E-03 0.  1.
         23    2    1    2    0    0  0.17763568394E-14  0.00000000000E+00 -0.71054273576E-14  0.91188000000E+02  0.91188000000E+02 0.  0.
    9900012    2    3    3    0    0  0.15470752797E+02  0.17681498786E+01 -0.40511141483E+02  0.47787272698E+02  0.20000007539E+02 0.  0.
         12    1    3    3    0    0 -0.15470752797E+02 -0.17681498786E+01  0.40511141483E+02  0.43400727302E+02  0.00000000000E+00 0. -1.
         11    1    4    4    0    0 -0.23389285773E+01  0.16788855409E+01 -0.24552965027E+00  0.28895550902E+01  0.51100000000E-03 0. -1.
        -11    1    4    4    0    0  0.14641858631E+02 -0.14314164300E+01 -0.37917447369E+02  0.40671437059E+02  0.51100000000E-03 0.  1.
         12    1    4    4    0    0  0.31678227432E+01  0.15206807678E+01 -0.23481644634E+01  0.42262805488E+01  0.00000000000E+00 0. -1.
</event>
<event>
 8    1  0.6239251E-010  0.9118800E+02  0.7816164E-02  0.1184000E+00
        -11   -1    0    0    0    0  0.00000000000E+00  0.00000000000E+00  0.45593999997E+02  0.45594000000E+02  0.51100000000E-03 0. -1.
         11   -1    0    0    0    0 -0.00000000000E+00 -0.00000000000E+00 -0.45593999997E+02  0.45594000000E+02  0.51100000000E-03 0.  1.
         23    2    1    2    0    0  0.22204460493E-15  0.00000000000E+00 -0.71054273576E-14  0.91188000000E+02  0.91188000000E+02 0.  0.
    9900012    2    3    3    0    0 -0.14562340774E+01  0.12712448998E+02 -0.41471630501E+02  0.47787272891E+02  0.20000008419E+02 0.  0.
         12    1    3    3    0    0  0.14562340774E+01 -0.12712448998E+02  0.41471630501E+02  0.43400727109E+02  0.00000000000E+00 0. -1.
         11    1    4    4    0    0 -0.16551373466E+01  0.16160989050E+02 -0.25956319566E+02  0.30621031537E+02  0.51100000000E-03 0. -1.
        -11    1    4    4    0    0  0.12812093355E+01 -0.10884922016E+01 -0.14117983041E+02  0.14217726894E+02  0.51100000000E-03 0.  1.
         12    1    4    4    0    0 -0.10823060663E+01 -0.23600478507E+01 -0.13973278943E+01  0.29485144603E+01  0.00000000000E+00 0. -1.
</event>
<event>
 8    1  0.6239251E-010  0.9118800E+02  0.7816164E-02  0.1184000E+00
        -11   -1    0    0    0    0  0.00000000000E+00  0.00000000000E+00  0.45593999997E+02  0.45594000000E+02  0.51100000000E-03 0. -1.
         11   -1    0    0    0    0 -0.00000000000E+00 -0.00000000000E+00 -0.45593999997E+02  0.45594000000E+02  0.51100000000E-03 0.  1.
         23    2    1    2    0    0  0.35527136788E-14  0.00000000000E+00  0.00000000000E+00  0.91188000000E+02  0.91188000000E+02 0.  0.
    9900012    2    3    3    0    0  0.99284748676E+01 -0.33140087462E+02 -0.26206553154E+02  0.47787269149E+02  0.19999991358E+02 0.  0.
         12    1    3    3    0    0 -0.99284748676E+01  0.33140087462E+02  0.26206553154E+02  0.43400730851E+02  0.00000000000E+00 0. -1.
         11    1    4    4    0    0 -0.26038911322E+01 -0.16960501526E+01  0.17481595407E+01  0.35655149964E+01  0.51100000000E-03 0. -1.
        -11    1    4    4    0    0  0.64500773547E+01 -0.18889795163E+02 -0.13281046328E+02  0.23975279999E+02  0.51100000000E-03 0.  1.
         12    1    4    4    0    0  0.60822886452E+01 -0.12554242146E+02 -0.14673666367E+02  0.20246474154E+02  0.00000000000E+00 0. -1.
</event>
<event>
 8    1  0.6239251E-010  0.9118800E+02  0.7816164E-02  0.1184000E+00
        -11   -1    0    0    0    0  0.00000000000E+00  0.00000000000E+00  0.45593999997E+02  0.45594000000E+02  0.51100000000E-03 0. -1.
         11   -1    0    0    0    0 -0.00000000000E+00 -0.00000000000E+00 -0.45593999997E+02  0.45594000000E+02  0.51100000000E-03 0.  1.
         23    2    1    2    0    0 -0.17763568394E-14 -0.35527136788E-14 -0.71054273576E-14  0.91188000000E+02  0.91188000000E+02 0.  0.
    9900012    2    3    3    0    0 -0.13434659498E+02 -0.14299038337E+02 -0.38712672681E+02  0.47787267295E+02  0.19999982906E+02 0.  0.
         12    1    3    3    0    0  0.13434659498E+02  0.14299038337E+02  0.38712672681E+02  0.43400732705E+02  0.00000000000E+00 0. -1.
         11    1    4    4    0    0 -0.70081915671E+01  0.18527192829E+01 -0.14297283950E+02  0.16029960898E+02  0.51100000000E-03 0. -1.
        -11    1    4    4    0    0 -0.75777836648E+01 -0.16201222463E+02 -0.24769185839E+02  0.30551840893E+02  0.51100000000E-03 0.  1.
        -12    1    4    4    0    0  0.11513157341E+01  0.49464842627E-01  0.35379710717E+00  0.12054655048E+01  0.00000000000E+00 0.  1.
</event>
<event>
 8    1  0.6239251E-010  0.9118800E+02  0.7816164E-02  0.1184000E+00
        -11   -1    0    0    0    0  0.00000000000E+00  0.00000000000E+00  0.45593999997E+02  0.45594000000E+02  0.51100000000E-03 0. -1.
         11   -1    0    0    0    0 -0.00000000000E+00 -0.00000000000E+00 -0.45593999997E+02  0.45594000000E+02  0.51100000000E-03 0.  1.
         23    2    1    2    0    0  0.00000000000E+00  0.00000000000E+00  0.00000000000E+00  0.91188000000E+02  0.91188000000E+02 0.  0.
    9900012    2    3    3    0    0 -0.19897513422E+02 -0.19534773357E+02  0.33258160579E+02  0.47787266647E+02  0.19999979950E+02 0.  0.
        -12    1    3    3    0    0  0.19897513422E+02  0.19534773357E+02 -0.33258160579E+02  0.43400733353E+02  0.00000000000E+00 0.  1.
         11    1    4    4    0    0 -0.84682382716E+00  0.20152767687E+01 -0.11529351645E+00  0.21890052318E+01  0.51100000000E-03 0.  1.
        -11    1    4    4    0    0 -0.17687394278E+02 -0.12759815367E+02  0.20366130044E+02  0.29840175230E+02  0.51100000000E-03 0. -1.
        -12    1    4    4    0    0 -0.13632953170E+01 -0.87902347587E+01  0.13007324051E+02  0.15758086185E+02  0.00000000000E+00 0.  1.
</event>
<event>
 8    1  0.6239251E-010  0.9118800E+02  0.7816164E-02  0.1184000E+00
        -11   -1    0    0    0    0  0.00000000000E+00  0.00000000000E+00  0.45593999997E+02  0.45594000000E+02  0.51100000000E-03 0. -1.
         11   -1    0    0    0    0 -0.00000000000E+00 -0.00000000000E+00 -0.45593999997E+02  0.45594000000E+02  0.51100000000E-03 0.  1.
         23    2    1    2    0    0  0.00000000000E+00  0.00000000000E+00  0.00000000000E+00  0.91188000000E+02  0.91188000000E+02 0.  0.
    9900012    2    3    3    0    0  0.12805050960E+02  0.30387806410E+02  0.28217639972E+02  0.47787270581E+02  0.19999997888E+02 0.  0.
        -12    1    3    3    0    0 -0.12805050960E+02 -0.30387806410E+02 -0.28217639972E+02  0.43400729419E+02  0.00000000000E+00 0.  1.
         11    1    4    4    0    0 -0.23954553970E+01  0.13444317668E+02  0.70241317895E+01  0.15356637385E+02  0.51100000000E-03 0. -1.
        -11    1    4    4    0    0 -0.91425323139E+00  0.25694516382E+01  0.11219662877E+01  0.29490251447E+01  0.51100000000E-03 0.  1.
         12    1    4    4    0    0  0.16114759589E+02  0.14374037103E+02  0.20071541895E+02  0.29481608051E+02  0.00000000000E+00 0. -1.
</event>
<event>
 8    1  0.6239251E-010  0.9118800E+02  0.7816164E-02  0.1184000E+00
        -11   -1    0    0    0    0  0.00000000000E+00  0.00000000000E+00  0.45593999997E+02  0.45594000000E+02  0.51100000000E-03 0. -1.
         11   -1    0    0    0    0 -0.00000000000E+00 -0.00000000000E+00 -0.45593999997E+02  0.45594000000E+02  0.51100000000E-03 0.  1.
         23    2    1    2    0    0  0.35527136788E-14 -0.55511151231E-15 -0.35527136788E-14  0.91188000000E+02  0.91188000000E+02 0.  0.
    9900012    2    3    3    0    0  0.31948822990E+02  0.74690400214E+00 -0.29365593499E+02  0.47787271462E+02  0.20000001905E+02 0.  0.
         12    1    3    3    0    0 -0.31948822990E+02 -0.74690400214E+00  0.29365593499E+02  0.43400728538E+02  0.00000000000E+00 0. -1.
         11    1    4    4    0    0  0.11556707159E+02 -0.63451340830E+01 -0.13478899282E+02  0.18854679340E+02  0.51100000000E-03 0.  1.
        -11    1    4    4    0    0  0.16059597853E+02  0.10011835226E+02 -0.13045266944E+02  0.22985354417E+02  0.51100000000E-03 0. -1.
         12    1    4    4    0    0  0.43325179777E+01 -0.29197971407E+01 -0.28414272735E+01  0.59472377051E+01  0.00000000000E+00 0. -1.
</event>
<event>
 8    1  0.6239251E-010  0.9118800E+02  0.7816164E-02  0.1184000E+00
        -11   -1    0    0    0    0  0.00000000000E+00  0.00000000000E+00  0.45593999997E+02  0.45594000000E+02  0.51100000000E-03 0. -1.
         11   -1    0    0    0    0 -0.00000000000E+00 -0.00000000000E+00 -0.45593999997E+02  0.45594000000E+02  0.51100000000E-03 0.  1.
         23    2    1    2    0    0  0.00000000000E+00  0.71054273576E-14  0.00000000000E+00  0.91188000000E+02  0.91188000000E+02 0.  0.
    9900012    2    3    3    0    0  0.20530592194E+02 -0.38206232643E+02 -0.15498653805E+01  0.47787268309E+02  0.19999987527E+02 0.  0.
         12    1    3    3    0    0 -0.20530592194E+02  0.38206232643E+02  0.15498653805E+01  0.43400731691E+02  0.00000000000E+00 0. -1.
         11    1    4    4    0    0  0.73309276516E+01 -0.81877901403E+01  0.52307231651E+01  0.12171395676E+02  0.51100000000E-03 0. -1.
        -11    1    4    4    0    0  0.31896301278E+01 -0.40734820671E+01  0.31846311692E+01  0.60752672738E+01  0.51100000000E-03 0.  1.
         12    1    4    4    0    0  0.10010034415E+02 -0.25944960436E+02 -0.99652197148E+01  0.29540605359E+02  0.00000000000E+00 0. -1.
</event>
<event>
 8    1  0.6239251E-010  0.9118800E+02  0.7816164E-02  0.1184000E+00
        -11   -1    0    0    0    0  0.00000000000E+00  0.00000000000E+00  0.45593999997E+02  0.45594000000E+02  0.51100000000E-03 0. -1.
         11   -1    0    0    0    0 -0.00000000000E+00 -0.00000000000E+00 -0.45593999997E+02  0.45594000000E+02  0.51100000000E-03 0.  1.
         23    2    1    2    0    0  0.00000000000E+00 -0.17763568394E-14  0.00000000000E+00  0.91188000000E+02  0.91188000000E+02 0.  0.
    9900012    2    3    3    0    0  0.29453992509E+02  0.13495743484E+02 -0.28878204104E+02  0.47787269140E+02  0.19999991318E+02 0.  0.
         12    1    3    3    0    0 -0.29453992509E+02 -0.13495743484E+02  0.28878204104E+02  0.43400730860E+02  0.00000000000E+00 0. -1.
         11    1    4    4    0    0  0.58743736963E-01  0.67838546164E+00 -0.61758500766E+01  0.62132746673E+01  0.51100000000E-03 0. -1.
        -11    1    4    4    0    0  0.29867319448E+02  0.97212482743E+01 -0.22045411837E+02  0.38373944576E+02  0.51100000000E-03 0.  1.
        -12    1    4    4    0    0 -0.47207067661E+00  0.30961097483E+01 -0.65694219057E+00  0.32000498964E+01  0.00000000000E+00 0.  1.
</event>
<event>
 8    1  0.7125025E-010  0.9118800E+02  0.7816164E-02  0.1184000E+00
        -11   -1    0    0    0    0  0.00000000000E+00  0.00000000000E+00  0.45593999997E+02  0.45594000000E+02  0.51100000000E-03 0. -1.
         11   -1    0    0    0    0 -0.00000000000E+00 -0.00000000000E+00 -0.45593999997E+02  0.45594000000E+02  0.51100000000E-03 0.  1.
         23    2    1    2    0    0  0.00000000000E+00  0.00000000000E+00 -0.35527136788E-14  0.91188000000E+02  0.91188000000E+02 0.  0.
    9900012    2    3    3    0    0  0.26289281967E+02 -0.24752288505E+02  0.24079474405E+02  0.47787271663E+02  0.20000002820E+02 0.  0.
        -12    1    3    3    0    0 -0.26289281967E+02  0.24752288505E+02 -0.24079474405E+02  0.43400728337E+02  0.00000000000E+00 0.  1.
         11    1    4    4    0    0  0.19023325280E+02 -0.99865148702E+01  0.18126557922E+02  0.28110309253E+02  0.51100000000E-03 0. -1.
        -11    1    4    4    0    0  0.33361506917E+01 -0.13063735827E+02  0.71072976790E+01  0.15241547683E+02  0.51100000000E-03 0.  1.
        -12    1    4    4    0    0  0.39298059947E+01 -0.17020378078E+01 -0.11543811959E+01  0.44354147270E+01  0.00000000000E+00 0.  1.
</event>
<event>
 8    1  0.6239251E-010  0.9118800E+02  0.7816164E-02  0.1184000E+00
        -11   -1    0    0    0    0  0.00000000000E+00  0.00000000000E+00  0.45593999997E+02  0.45594000000E+02  0.51100000000E-03 0. -1.
         11   -1    0    0    0    0 -0.00000000000E+00 -0.00000000000E+00 -0.45593999997E+02  0.45594000000E+02  0.51100000000E-03 0.  1.
         23    2    1    2    0    0  0.00000000000E+00  0.44408920985E-15  0.71054273576E-14  0.91188000000E+02  0.91188000000E+02 0.  0.
    9900012    2    3    3    0    0 -0.22808972429E+02  0.27120510285E+01 -0.36824164389E+02  0.47787268128E+02  0.19999986705E+02 0.  0.
         12    1    3    3    0    0  0.22808972429E+02 -0.27120510285E+01  0.36824164389E+02  0.43400731872E+02  0.00000000000E+00 0. -1.
         11    1    4    4    0    0 -0.35517241961E+01 -0.34357978463E+01 -0.77400991204E+01  0.91830597439E+01  0.51100000000E-03 0. -1.
        -11    1    4    4    0    0 -0.77810180812E+01 -0.98673454918E+00 -0.16390140840E+01  0.80127557606E+01  0.51100000000E-03 0.  1.
        -12    1    4    4    0    0 -0.11476230152E+02  0.71345834240E+01 -0.27445051184E+02  0.30591452624E+02  0.00000000000E+00 0.  1.
</event>
<event>
 8    1  0.6239251E-010  0.9118800E+02  0.7816164E-02  0.1184000E+00
        -11   -1    0    0    0    0  0.00000000000E+00  0.00000000000E+00  0.45593999997E+02  0.45594000000E+02  0.51100000000E-03 0. -1.
         11   -1    0    0    0    0 -0.00000000000E+00 -0.00000000000E+00 -0.45593999997E+02  0.45594000000E+02  0.51100000000E-03 0.  1.
         23    2    1    2    0    0  0.00000000000E+00  0.00000000000E+00  0.35527136788E-14  0.91188000000E+02  0.91188000000E+02 0.  0.
    9900012    2    3    3    0    0 -0.27429793032E+02  0.20939684421E+02 -0.26320324126E+02  0.47787269689E+02  0.19999993819E+02 0.  0.
         12    1    3    3    0    0  0.27429793032E+02 -0.20939684421E+02  0.26320324126E+02  0.43400730311E+02  0.00000000000E+00 0. -1.
         11    1    4    4    0    0 -0.15278264514E+02  0.58697278858E+01 -0.22632402571E+02  0.27930354784E+02  0.51100000000E-03 0. -1.
        -11    1    4    4    0    0 -0.62281633923E+01  0.59072080900E+01 -0.12154143820E+01  0.86696227739E+01  0.51100000000E-03 0.  1.
         12    1    4    4    0    0 -0.59233651256E+01  0.91627484456E+01 -0.24725071738E+01  0.11187292130E+02  0.00000000000E+00 0. -1.
</event>
<event>
 8    1  0.6239251E-010  0.9118800E+02  0.7816164E-02  0.1184000E+00
        -11   -1    0    0    0    0  0.00000000000E+00  0.00000000000E+00  0.45593999997E+02  0.45594000000E+02  0.51100000000E-03 0. -1.
         11   -1    0    0    0    0 -0.00000000000E+00 -0.00000000000E+00 -0.45593999997E+02  0.45594000000E+02  0.51100000000E-03 0.  1.
         23    2    1    2    0    0  0.00000000000E+00  0.35527136788E-14  0.00000000000E+00  0.91188000000E+02  0.91188000000E+02 0.  0.
    9900012    2    3    3    0    0  0.14760552513E+02 -0.24419646388E+02  0.32702145543E+02  0.47787270013E+02  0.19999995299E+02 0.  0.
        -12    1    3    3    0    0 -0.14760552513E+02  0.24419646388E+02 -0.32702145543E+02  0.43400729987E+02  0.00000000000E+00 0.  1.
         11    1    4    4    0    0  0.15682362987E+01 -0.16756950229E+02  0.22503974307E+02  0.28101309683E+02  0.51100000000E-03 0. -1.
        -11    1    4    4    0    0  0.10036733015E+02 -0.85646850223E+01  0.63947534037E+01  0.14662288720E+02  0.51100000000E-03 0.  1.
         12    1    4    4    0    0  0.31555831996E+01  0.90198886268E+00  0.38034178327E+01  0.50236716102E+01  0.00000000000E+00 0. -1.
</event>
<event>
 8    1  0.6239251E-010  0.9118800E+02  0.7816164E-02  0.1184000E+00
        -11   -1    0    0    0    0  0.00000000000E+00  0.00000000000E+00  0.45593999997E+02  0.45594000000E+02  0.51100000000E-03 0. -1.
         11   -1    0    0    0    0 -0.00000000000E+00 -0.00000000000E+00 -0.45593999997E+02  0.45594000000E+02  0.51100000000E-03 0.  1.
         23    2    1    2    0    0  0.00000000000E+00 -0.88817841970E-15  0.00000000000E+00  0.91188000000E+02  0.91188000000E+02 0.  0.
    9900012    2    3    3    0    0 -0.20990042163E+02  0.57904232505E+01 -0.37543472465E+02  0.47787271940E+02  0.20000004082E+02 0.  0.
         12    1    3    3    0    0  0.20990042163E+02 -0.57904232505E+01  0.37543472465E+02  0.43400728060E+02  0.00000000000E+00 0. -1.
         11    1    4    4    0    0 -0.81066968356E+01  0.97652072944E+01 -0.80489682932E+01  0.15028762355E+02  0.51100000000E-03 0. -1.
        -11    1    4    4    0    0 -0.70018968275E+01 -0.44118908183E+01 -0.15474536176E+02  0.17548578572E+02  0.51100000000E-03 0.  1.
        -12    1    4    4    0    0 -0.58814484995E+01  0.43710677442E+00 -0.14019967996E+02  0.15209931012E+02  0.00000000000E+00 0.  1.
</event>
<event>
 8    1  0.6239251E-010  0.9118800E+02  0.7816164E-02  0.1184000E+00
        -11   -1    0    0    0    0  0.00000000000E+00  0.00000000000E+00  0.45593999997E+02  0.45594000000E+02  0.51100000000E-03 0. -1.
         11   -1    0    0    0    0 -0.00000000000E+00 -0.00000000000E+00 -0.45593999997E+02  0.45594000000E+02  0.51100000000E-03 0.  1.
         23    2    1    2    0    0  0.00000000000E+00  0.17763568394E-14  0.00000000000E+00  0.91188000000E+02  0.91188000000E+02 0.  0.
    9900012    2    3    3    0    0  0.33107655308E+02 -0.83123063877E+01  0.26803204434E+02  0.47787273677E+02  0.20000012001E+02 0.  0.
        -12    1    3    3    0    0 -0.33107655308E+02  0.83123063877E+01 -0.26803204434E+02  0.43400726323E+02  0.00000000000E+00 0.  1.
         11    1    4    4    0    0  0.77778934600E+00  0.25757279594E+00  0.67849038836E+01  0.68341949769E+01  0.51100000000E-03 0. -1.
        -11    1    4    4    0    0  0.30842223611E+02 -0.10721650751E+02  0.16545705039E+02  0.36605421834E+02  0.51100000000E-03 0.  1.
        -12    1    4    4    0    0  0.14876423507E+01  0.21517715673E+01  0.34725955111E+01  0.43476568661E+01  0.00000000000E+00 0.  1.
</event>
<event>
 8    1  0.6239251E-010  0.9118800E+02  0.7816164E-02  0.1184000E+00
        -11   -1    0    0    0    0  0.00000000000E+00  0.00000000000E+00  0.45593999997E+02  0.45594000000E+02  0.51100000000E-03 0. -1.
         11   -1    0    0    0    0 -0.00000000000E+00 -0.00000000000E+00 -0.45593999997E+02  0.45594000000E+02  0.51100000000E-03 0.  1.
         23    2    1    2    0    0  0.35527136788E-14  0.17763568394E-14  0.00000000000E+00  0.91188000000E+02  0.91188000000E+02 0.  0.
    9900012    2    3    3    0    0  0.18636776532E+02  0.10791310911E+02 -0.37680780788E+02  0.47787273376E+02  0.20000010630E+02 0.  0.
         12    1    3    3    0    0 -0.18636776532E+02 -0.10791310911E+02  0.37680780788E+02  0.43400726624E+02  0.00000000000E+00 0. -1.
         11    1    4    4    0    0 -0.20718403949E+01 -0.11959442851E+01 -0.38252979904E+00  0.24226296999E+01  0.51100000000E-03 0. -1.
        -11    1    4    4    0    0  0.14158865044E+02  0.98178792202E+01 -0.33023581157E+02  0.37248102292E+02  0.51100000000E-03 0.  1.
        -12    1    4    4    0    0  0.65497518829E+01  0.21693759760E+01 -0.42746698327E+01  0.81165413836E+01  0.00000000000E+00 0.  1.
</event>
<event>
 8    1  0.6239251E-010  0.9118800E+02  0.7816164E-02  0.1184000E+00
        -11   -1    0    0    0    0  0.00000000000E+00  0.00000000000E+00  0.45593999997E+02  0.45594000000E+02  0.51100000000E-03 0. -1.
         11   -1    0    0    0    0 -0.00000000000E+00 -0.00000000000E+00 -0.45593999997E+02  0.45594000000E+02  0.51100000000E-03 0.  1.
         23    2    1    2    0    0  0.00000000000E+00  0.00000000000E+00  0.35527136788E-14  0.91188000000E+02  0.91188000000E+02 0.  0.
    9900012    2    3    3    0    0  0.24949697076E+02  0.16891208247E+02  0.31238166417E+02  0.47787270267E+02  0.19999996456E+02 0.  0.
        -12    1    3    3    0    0 -0.24949697076E+02 -0.16891208247E+02 -0.31238166417E+02  0.43400729733E+02  0.00000000000E+00 0.  1.
         11    1    4    4    0    0  0.47984979234E+01  0.71548868919E+00  0.31242354394E+00  0.48615959434E+01  0.51100000000E-03 0. -1.
        -11    1    4    4    0    0  0.62487051248E+01  0.12003801156E+02  0.77932829472E+01  0.15616427802E+02  0.51100000000E-03 0.  1.
        -12    1    4    4    0    0  0.13902494028E+02  0.41719184016E+01  0.23132459926E+02  0.27309246522E+02  0.00000000000E+00 0.  1.
</event>
<event>
 8    1  0.6239251E-010  0.9118800E+02  0.7816164E-02  0.1184000E+00
        -11   -1    0    0    0    0  0.00000000000E+00  0.00000000000E+00  0.45593999997E+02  0.45594000000E+02  0.51100000000E-03 0. -1.
         11   -1    0    0    0    0 -0.00000000000E+00 -0.00000000000E+00 -0.45593999997E+02  0.45594000000E+02  0.51100000000E-03 0.  1.
         23    2    1    2    0    0  0.88817841970E-15 -0.71054273576E-14  0.35527136788E-14  0.91188000000E+02  0.91188000000E+02 0.  0.
    9900012    2    3    3    0    0 -0.73551098420E+01  0.34176687297E+02  0.25719246280E+02  0.47787271612E+02  0.20000002587E+02 0.  0.
        -12    1    3    3    0    0  0.73551098420E+01 -0.34176687297E+02 -0.25719246280E+02  0.43400728388E+02  0.00000000000E+00 0.  1.
         11    1    4    4    0    0 -0.57268108705E+01  0.21869308365E+02  0.11493393413E+02  0.25360621118E+02  0.51100000000E-03 0. -1.
        -11    1    4    4    0    0  0.33312416101E+01  0.86248489451E+01  0.13273797869E+02  0.16176492207E+02  0.51100000000E-03 0.  1.
        -12    1    4    4    0    0 -0.49595405817E+01  0.36825299871E+01  0.95205499878E+00  0.62501582867E+01  0.00000000000E+00 0.  1.
</event>
<event>
 8    1  0.6239251E-010  0.9118800E+02  0.7816164E-02  0.1184000E+00
        -11   -1    0    0    0    0  0.00000000000E+00  0.00000000000E+00  0.45593999997E+02  0.45594000000E+02  0.51100000000E-03 0. -1.
         11   -1    0    0    0    0 -0.00000000000E+00 -0.00000000000E+00 -0.45593999997E+02  0.45594000000E+02  0.51100000000E-03 0.  1.
         23    2    1    2    0    0 -0.71054273576E-14  0.00000000000E+00  0.00000000000E+00  0.91188000000E+02  0.91188000000E+02 0.  0.
    9900012    2    3    3    0    0 -0.37148660477E+02 -0.40000530134E+01 -0.22081657076E+02  0.47787274446E+02  0.20000015510E+02 0.  0.
         12    1    3    3    0    0  0.37148660477E+02  0.40000530134E+01  0.22081657076E+02  0.43400725554E+02  0.00000000000E+00 0. -1.
         11    1    4    4    0    0  0.11982230207E+01 -0.48004600846E+00 -0.42273937393E+01  0.44200724729E+01  0.51100000000E-03 0. -1.
        -11    1    4    4    0    0 -0.36395900205E+02 -0.24932811560E+01 -0.14298078557E+02  0.39183071004E+02  0.51100000000E-03 0.  1.
        -12    1    4    4    0    0 -0.19509832934E+01 -0.10267258489E+01 -0.35561847799E+01  0.41841309694E+01  0.00000000000E+00 0.  1.
</event>
<event>
 8    1  0.6239251E-010  0.9118800E+02  0.7816164E-02  0.1184000E+00
        -11   -1    0    0    0    0  0.00000000000E+00  0.00000000000E+00  0.45593999997E+02  0.45594000000E+02  0.51100000000E-03 0. -1.
         11   -1    0    0    0    0 -0.00000000000E+00 -0.00000000000E+00 -0.45593999997E+02  0.45594000000E+02  0.51100000000E-03 0.  1.
         23    2    1    2    0    0  0.71054273576E-14 -0.88817841970E-15  0.00000000000E+00  0.91188000000E+02  0.91188000000E+02 0.  0.
    9900012    2    3    3    0    0 -0.39713725672E+02 -0.65294534651E+01  0.16242222276E+02  0.47787267819E+02  0.19999985296E+02 0.  0.
        -12    1    3    3    0    0  0.39713725672E+02  0.65294534651E+01 -0.16242222276E+02  0.43400732181E+02  0.00000000000E+00 0.  1.
         11    1    4    4    0    0 -0.30293104094E+02 -0.97509420158E+01  0.14329015605E+02  0.34900912801E+02  0.51100000000E-03 0. -1.
        -11    1    4    4    0    0 -0.10744720954E+02  0.29707564490E+01  0.86927306546E+00  0.11181684049E+02  0.51100000000E-03 0.  1.
         12    1    4    4    0    0  0.13240993751E+01  0.25073210164E+00  0.10439336054E+01  0.17046709696E+01  0.00000000000E+00 0. -1.
</event>
<event>
 8    1  0.6239251E-010  0.9118800E+02  0.7816164E-02  0.1184000E+00
        -11   -1    0    0    0    0  0.00000000000E+00  0.00000000000E+00  0.45593999997E+02  0.45594000000E+02  0.51100000000E-03 0. -1.
         11   -1    0    0    0    0 -0.00000000000E+00 -0.00000000000E+00 -0.45593999997E+02  0.45594000000E+02  0.51100000000E-03 0.  1.
         23    2    1    2    0    0  0.00000000000E+00  0.00000000000E+00  0.00000000000E+00  0.91188000000E+02  0.91188000000E+02 0.  0.
    9900012    2    3    3    0    0  0.78622178883E+01  0.17970850289E+02 -0.38715079337E+02  0.47787270763E+02  0.19999998717E+02 0.  0.
         12    1    3    3    0    0 -0.78622178883E+01 -0.17970850289E+02  0.38715079337E+02  0.43400729237E+02  0.00000000000E+00 0. -1.
         11    1    4    4    0    0  0.89128550123E+01  0.15285541346E+02 -0.21219197182E+02  0.27628628052E+02  0.51100000000E-03 0. -1.
        -11    1    4    4    0    0 -0.38318983832E+00  0.62800311826E+01 -0.99261399179E+01  0.11752186181E+02  0.51100000000E-03 0.  1.
         12    1    4    4    0    0 -0.66744728561E+00 -0.35947222398E+01 -0.75697422369E+01  0.84064565302E+01  0.00000000000E+00 0. -1.
</event>
<event>
 8    1  0.6239251E-010  0.9118800E+02  0.7816164E-02  0.1184000E+00
        -11   -1    0    0    0    0  0.00000000000E+00  0.00000000000E+00  0.45593999997E+02  0.45594000000E+02  0.51100000000E-03 0. -1.
         11   -1    0    0    0    0 -0.00000000000E+00 -0.00000000000E+00 -0.45593999997E+02  0.45594000000E+02  0.51100000000E-03 0.  1.
         23    2    1    2    0    0  0.00000000000E+00  0.00000000000E+00  0.71054273576E-14  0.91188000000E+02  0.91188000000E+02 0.  0.
    9900012    2    3    3    0    0  0.27166931269E+02 -0.93296109710E+01 -0.32535205377E+02  0.47787269772E+02  0.19999994198E+02 0.  0.
         12    1    3    3    0    0 -0.27166931269E+02  0.93296109710E+01  0.32535205377E+02  0.43400730228E+02  0.00000000000E+00 0. -1.
         11    1    4    4    0    0  0.36963833413E+01  0.11325845663E+01 -0.15283470327E+01  0.41571435529E+01  0.51100000000E-03 0. -1.
        -11    1    4    4    0    0  0.21362746094E+02 -0.13221949751E+02 -0.20071650675E+02  0.32156772801E+02  0.51100000000E-03 0.  1.
        -12    1    4    4    0    0  0.21078018330E+01  0.27597542137E+01 -0.10935207669E+02  0.11473353418E+02  0.00000000000E+00 0.  1.
</event>
<event>
 8    1  0.6239251E-010  0.9118800E+02  0.7816164E-02  0.1184000E+00
        -11   -1    0    0    0    0  0.00000000000E+00  0.00000000000E+00  0.45593999997E+02  0.45594000000E+02  0.51100000000E-03 0. -1.
         11   -1    0    0    0    0 -0.00000000000E+00 -0.00000000000E+00 -0.45593999997E+02  0.45594000000E+02  0.51100000000E-03 0.  1.
         23    2    1    2    0    0  0.00000000000E+00  0.44408920985E-15  0.00000000000E+00  0.91188000000E+02  0.91188000000E+02 0.  0.
    9900012    2    3    3    0    0 -0.80890743432E+01 -0.23455479770E+01 -0.42575685890E+02  0.47787265582E+02  0.19999975092E+02 0.  0.
         12    1    3    3    0    0  0.80890743432E+01  0.23455479770E+01  0.42575685890E+02  0.43400734418E+02  0.00000000000E+00 0. -1.
         11    1    4    4    0    0  0.20438037240E+01 -0.30772458127E+01 -0.11241683173E+02  0.11833089887E+02  0.51100000000E-03 0. -1.
        -11    1    4    4    0    0 -0.10829758563E+02  0.59411490359E+01 -0.22816373943E+02  0.25945478268E+02  0.51100000000E-03 0.  1.
        -12    1    4    4    0    0  0.69688049598E+00 -0.52094512002E+01 -0.85176287749E+01  0.10008697427E+02  0.00000000000E+00 0.  1.
</event>
<event>
 8    1  0.6239251E-010  0.9118800E+02  0.7816164E-02  0.1184000E+00
        -11   -1    0    0    0    0  0.00000000000E+00  0.00000000000E+00  0.45593999997E+02  0.45594000000E+02  0.51100000000E-03 0. -1.
         11   -1    0    0    0    0 -0.00000000000E+00 -0.00000000000E+00 -0.45593999997E+02  0.45594000000E+02  0.51100000000E-03 0.  1.
         23    2    1    2    0    0  0.00000000000E+00 -0.35527136788E-14  0.71054273576E-14  0.91188000000E+02  0.91188000000E+02 0.  0.
    9900012    2    3    3    0    0  0.21387275891E+01 -0.25700647179E+02  0.34907394828E+02  0.47787266887E+02  0.19999981043E+02 0.  0.
        -12    1    3    3    0    0 -0.21387275891E+01  0.25700647179E+02 -0.34907394828E+02  0.43400733113E+02  0.00000000000E+00 0.  1.
         11    1    4    4    0    0  0.63405352532E+00 -0.35214863533E+01  0.14206232880E+02  0.14649912727E+02  0.51100000000E-03 0. -1.
        -11    1    4    4    0    0  0.23284358033E+01 -0.19943201166E+02  0.10493758295E+02  0.22655503734E+02  0.51100000000E-03 0.  1.
         12    1    4    4    0    0 -0.82376173947E+00 -0.22359596596E+01  0.10207403653E+02  0.10481850425E+02  0.00000000000E+00 0. -1.
</event>
<event>
 8    1  0.6239251E-010  0.9118800E+02  0.7816164E-02  0.1184000E+00
        -11   -1    0    0    0    0  0.00000000000E+00  0.00000000000E+00  0.45593999997E+02  0.45594000000E+02  0.51100000000E-03 0. -1.
         11   -1    0    0    0    0 -0.00000000000E+00 -0.00000000000E+00 -0.45593999997E+02  0.45594000000E+02  0.51100000000E-03 0.  1.
         23    2    1    2    0    0 -0.44408920985E-15 -0.88817841970E-15  0.00000000000E+00  0.91188000000E+02  0.91188000000E+02 0.  0.
    9900012    2    3    3    0    0  0.30055559285E+01 -0.57958737653E+01 -0.42906840147E+02  0.47787280530E+02  0.20000043247E+02 0.  0.
         12    1    3    3    0    0 -0.30055559285E+01  0.57958737653E+01  0.42906840147E+02  0.43400719470E+02  0.00000000000E+00 0. -1.
         11    1    4    4    0    0  0.39740265247E+01 -0.42631099592E+01 -0.24403984214E+02  0.25090265824E+02  0.51100000000E-03 0. -1.
        -11    1    4    4    0    0  0.20858414907E+00 -0.64799908744E+01 -0.15475707829E+02  0.16778895141E+02  0.51100000000E-03 0.  1.
         12    1    4    4    0    0 -0.11770547453E+01  0.49472270683E+01 -0.30271481043E+01  0.59181195649E+01  0.00000000000E+00 0. -1.
</event>
<event>
 8    1  0.9816591E-010  0.9118800E+02  0.7816164E-02  0.1184000E+00
        -11   -1    0    0    0    0  0.00000000000E+00  0.00000000000E+00  0.45593999997E+02  0.45594000000E+02  0.51100000000E-03 0. -1.
         11   -1    0    0    0    0 -0.00000000000E+00 -0.00000000000E+00 -0.45593999997E+02  0.45594000000E+02  0.51100000000E-03 0.  1.
         23    2    1    2    0    0 -0.88817841970E-15 -0.35527136788E-14  0.00000000000E+00  0.91188000000E+02  0.91188000000E+02 0.  0.
    9900012    2    3    3    0    0  0.79017789222E+01  0.26650946763E+02  0.33330322390E+02  0.47787291894E+02  0.20000095062E+02 0.  0.
        -12    1    3    3    0    0 -0.79017789222E+01 -0.26650946763E+02 -0.33330322390E+02  0.43400708106E+02  0.00000000000E+00 0.  1.
         11    1    4    4    0    0  0.50626450698E+01  0.21282972457E+02  0.30869382659E+02  0.37835354864E+02  0.51100000000E-03 0. -1.
        -11    1    4    4    0    0  0.73092232415E+00 -0.19080487836E+01  0.23709360675E+00  0.20569665151E+01  0.51100000000E-03 0.  1.
        -12    1    4    4    0    0  0.21082115283E+01  0.72760230894E+01  0.22238461243E+01  0.78949705149E+01  0.00000000000E+00 0.  1.
</event>
<event>
 8    1  0.7952285E-010  0.9118800E+02  0.7816164E-02  0.1184000E+00
        -11   -1    0    0    0    0  0.00000000000E+00  0.00000000000E+00  0.45593999997E+02  0.45594000000E+02  0.51100000000E-03 0. -1.
         11   -1    0    0    0    0 -0.00000000000E+00 -0.00000000000E+00 -0.45593999997E+02  0.45594000000E+02  0.51100000000E-03 0.  1.
         23    2    1    2    0    0  0.17763568394E-14  0.29143354396E-15  0.00000000000E+00  0.91188000000E+02  0.91188000000E+02 0.  0.
    9900012    2    3    3    0    0  0.13677535287E+02  0.76706137997E-01  0.41189108782E+02  0.47787268006E+02  0.19999986146E+02 0.  0.
        -12    1    3    3    0    0 -0.13677535287E+02 -0.76706137997E-01 -0.41189108782E+02  0.43400731994E+02  0.00000000000E+00 0.  1.
         11    1    4    4    0    0  0.13331772796E+02 -0.16817045783E+01  0.28968616132E+02  0.31933446682E+02  0.51100000000E-03 0. -1.
        -11    1    4    4    0    0 -0.95997213942E+00 -0.30409173423E+01  0.64282228440E+00  0.32529902461E+01  0.51100000000E-03 0.  1.
        -12    1    4    4    0    0  0.13057346305E+01  0.47993280585E+01  0.11577670366E+02  0.12600831078E+02  0.00000000000E+00 0.  1.
</event>
<event>
 8    1  0.6239251E-010  0.9118800E+02  0.7816164E-02  0.1184000E+00
        -11   -1    0    0    0    0  0.00000000000E+00  0.00000000000E+00  0.45593999997E+02  0.45594000000E+02  0.51100000000E-03 0.  1.
         11   -1    0    0    0    0 -0.00000000000E+00 -0.00000000000E+00 -0.45593999997E+02  0.45594000000E+02  0.51100000000E-03 0. -1.
         23    2    1    2    0    0  0.00000000000E+00  0.00000000000E+00  0.66613381478E-15  0.91188000000E+02  0.91188000000E+02 0.  0.
    9900012    2    3    3    0    0  0.27565508203E+02  0.33482179054E+02  0.16461058989E+01  0.47787271650E+02  0.20000002762E+02 0.  0.
        -12    1    3    3    0    0 -0.27565508203E+02 -0.33482179054E+02 -0.16461058989E+01  0.43400728350E+02  0.00000000000E+00 0.  1.
         11    1    4    4    0    0  0.50665563714E+01  0.16589607116E+02  0.49994156800E+01  0.18052124948E+02  0.51100000000E-03 0. -1.
        -11    1    4    4    0    0  0.15208707542E+02  0.13234015817E+02  0.15467842406E+01  0.20219705771E+02  0.51100000000E-03 0.  1.
         12    1    4    4    0    0  0.72902442896E+01  0.36585561209E+01 -0.49000940217E+01  0.95154409311E+01  0.00000000000E+00 0. -1.
</event>
<event>
 8    1  0.6239251E-010  0.9118800E+02  0.7816164E-02  0.1184000E+00
        -11   -1    0    0    0    0  0.00000000000E+00  0.00000000000E+00  0.45593999997E+02  0.45594000000E+02  0.51100000000E-03 0.  1.
         11   -1    0    0    0    0 -0.00000000000E+00 -0.00000000000E+00 -0.45593999997E+02  0.45594000000E+02  0.51100000000E-03 0. -1.
         23    2    1    2    0    0  0.00000000000E+00  0.00000000000E+00  0.00000000000E+00  0.91188000000E+02  0.91188000000E+02 0.  0.
    9900012    2    3    3    0    0 -0.29050996033E+02  0.25762280101E+02  0.19389889736E+02  0.47787271084E+02  0.20000000178E+02 0.  0.
        -12    1    3    3    0    0  0.29050996033E+02 -0.25762280101E+02 -0.19389889736E+02  0.43400728916E+02  0.00000000000E+00 0.  1.
         11    1    4    4    0    0 -0.49746768947E+01  0.94896367149E+01 -0.30137305797E+00  0.10718742518E+02  0.51100000000E-03 0. -1.
        -11    1    4    4    0    0 -0.24932511103E+02  0.13197769229E+02  0.17864649281E+02  0.33390970587E+02  0.51100000000E-03 0.  1.
        -12    1    4    4    0    0  0.85619196485E+00  0.30748741565E+01  0.18266135124E+01  0.36775579782E+01  0.00000000000E+00 0.  1.
</event>
<event>
 8    1  0.6239251E-010  0.9118800E+02  0.7816164E-02  0.1184000E+00
        -11   -1    0    0    0    0  0.00000000000E+00  0.00000000000E+00  0.45593999997E+02  0.45594000000E+02  0.51100000000E-03 0. -1.
         11   -1    0    0    0    0 -0.00000000000E+00 -0.00000000000E+00 -0.45593999997E+02  0.45594000000E+02  0.51100000000E-03 0.  1.
         23    2    1    2    0    0  0.00000000000E+00  0.00000000000E+00  0.00000000000E+00  0.91188000000E+02  0.91188000000E+02 0.  0.
    9900012    2    3    3    0    0 -0.38472653140E+01  0.30700943491E+02 -0.30434749619E+02  0.47787269983E+02  0.19999995162E+02 0.  0.
         12    1    3    3    0    0  0.38472653140E+01 -0.30700943491E+02  0.30434749619E+02  0.43400730017E+02  0.00000000000E+00 0. -1.
         11    1    4    4    0    0 -0.65755319296E+01  0.85312985807E+01 -0.20236629745E+02  0.22924699766E+02  0.51100000000E-03 0. -1.
        -11    1    4    4    0    0  0.34762048593E+00  0.24152776343E+01 -0.25950534007E+01  0.35621213436E+01  0.51100000000E-03 0.  1.
         12    1    4    4    0    0  0.23806461298E+01  0.19754367276E+02 -0.76030664727E+01  0.21300448874E+02  0.00000000000E+00 0. -1.
</event>
<event>
 8    1  0.6239251E-010  0.9118800E+02  0.7816164E-02  0.1184000E+00
        -11   -1    0    0    0    0  0.00000000000E+00  0.00000000000E+00  0.45593999997E+02  0.45594000000E+02  0.51100000000E-03 0. -1.
         11   -1    0    0    0    0 -0.00000000000E+00 -0.00000000000E+00 -0.45593999997E+02  0.45594000000E+02  0.51100000000E-03 0.  1.
         23    2    1    2    0    0 -0.35527136788E-14  0.00000000000E+00  0.00000000000E+00  0.91188000000E+02  0.91188000000E+02 0.  0.
    9900012    2    3    3    0    0 -0.25295695097E+02 -0.20288871888E+02  0.28846366743E+02  0.47787269739E+02  0.19999994047E+02 0.  0.
        -12    1    3    3    0    0  0.25295695097E+02  0.20288871888E+02 -0.28846366743E+02  0.43400730261E+02  0.00000000000E+00 0.  1.
         11    1    4    4    0    0 -0.22196521605E+02 -0.19387119680E+02  0.22487070976E+02  0.37070397114E+02  0.51100000000E-03 0. -1.
        -11    1    4    4    0    0  0.29890410004E+00 -0.36090524940E+01  0.88495922063E+00  0.37279695075E+01  0.51100000000E-03 0.  1.
         12    1    4    4    0    0 -0.33980775923E+01  0.27073002860E+01  0.54743365463E+01  0.69889031174E+01  0.00000000000E+00 0. -1.
</event>
<event>
 8    1  0.6239251E-010  0.9118800E+02  0.7816164E-02  0.1184000E+00
        -11   -1    0    0    0    0  0.00000000000E+00  0.00000000000E+00  0.45593999997E+02  0.45594000000E+02  0.51100000000E-03 0.  1.
         11   -1    0    0    0    0 -0.00000000000E+00 -0.00000000000E+00 -0.45593999997E+02  0.45594000000E+02  0.51100000000E-03 0. -1.
         23    2    1    2    0    0  0.00000000000E+00  0.00000000000E+00  0.00000000000E+00  0.91188000000E+02  0.91188000000E+02 0.  0.
    9900012    2    3    3    0    0  0.37354088496E+02 -0.14743094871E+02 -0.16460163353E+02  0.47787265543E+02  0.19999974918E+02 0.  0.
         12    1    3    3    0    0 -0.37354088496E+02  0.14743094871E+02  0.16460163353E+02  0.43400734457E+02  0.00000000000E+00 0. -1.
         11    1    4    4    0    0  0.71742573734E+01 -0.12088038082E+02 -0.76600269159E+01  0.16008330524E+02  0.51100000000E-03 0. -1.
        -11    1    4    4    0    0  0.23617965139E+02 -0.32876078272E+01 -0.79288010841E+01  0.25129316135E+02  0.51100000000E-03 0.  1.
         12    1    4    4    0    0  0.65618659838E+01  0.63255103898E+00 -0.87133535317E+00  0.66496188841E+01  0.00000000000E+00 0. -1.
</event>
<event>
 8    1  0.6239251E-010  0.9118800E+02  0.7816164E-02  0.1184000E+00
        -11   -1    0    0    0    0  0.00000000000E+00  0.00000000000E+00  0.45593999997E+02  0.45594000000E+02  0.51100000000E-03 0.  1.
         11   -1    0    0    0    0 -0.00000000000E+00 -0.00000000000E+00 -0.45593999997E+02  0.45594000000E+02  0.51100000000E-03 0. -1.
         23    2    1    2    0    0  0.00000000000E+00  0.00000000000E+00  0.88817841970E-15  0.91188000000E+02  0.91188000000E+02 0.  0.
    9900012    2    3    3    0    0  0.35681763719E+02  0.23481975534E+02 -0.76832242280E+01  0.47787269918E+02  0.19999994864E+02 0.  0.
         12    1    3    3    0    0 -0.35681763719E+02 -0.23481975534E+02  0.76832242280E+01  0.43400730082E+02  0.00000000000E+00 0. -1.
         11    1    4    4    0    0  0.47324230807E+01 -0.27072501634E+01  0.16523027095E+00  0.54545699157E+01  0.51100000000E-03 0. -1.
        -11    1    4    4    0    0  0.12949900002E+02  0.15804152363E+02 -0.67689541263E+01  0.21524169721E+02  0.51100000000E-03 0.  1.
         12    1    4    4    0    0  0.17999440636E+02  0.10385073335E+02 -0.10795003726E+01  0.20808530281E+02  0.00000000000E+00 0. -1.
</event>
<event>
 8    1  0.6239251E-010  0.9118800E+02  0.7816164E-02  0.1184000E+00
        -11   -1    0    0    0    0  0.00000000000E+00  0.00000000000E+00  0.45593999997E+02  0.45594000000E+02  0.51100000000E-03 0.  1.
         11   -1    0    0    0    0 -0.00000000000E+00 -0.00000000000E+00 -0.45593999997E+02  0.45594000000E+02  0.51100000000E-03 0. -1.
         23    2    1    2    0    0  0.35527136788E-14  0.00000000000E+00 -0.17763568394E-14  0.91188000000E+02  0.91188000000E+02 0.  0.
    9900012    2    3    3    0    0  0.24654531554E+02 -0.33960986965E+02 -0.11064741224E+02  0.47787273507E+02  0.20000011226E+02 0.  0.
         12    1    3    3    0    0 -0.24654531554E+02  0.33960986965E+02  0.11064741224E+02  0.43400726493E+02  0.00000000000E+00 0. -1.
         11    1    4    4    0    0  0.22242330319E+02 -0.26928982493E+02 -0.63960869159E+00  0.34932799139E+02  0.51100000000E-03 0. -1.
        -11    1    4    4    0    0  0.21283219125E+01 -0.45865929939E+01 -0.68688066620E+01  0.85291907398E+01  0.51100000000E-03 0.  1.
         12    1    4    4    0    0  0.28387932273E+00 -0.24454114785E+01 -0.35563258700E+01  0.43252836280E+01  0.00000000000E+00 0. -1.
</event>
<event>
 8    1  0.6239251E-010  0.9118800E+02  0.7816164E-02  0.1184000E+00
        -11   -1    0    0    0    0  0.00000000000E+00  0.00000000000E+00  0.45593999997E+02  0.45594000000E+02  0.51100000000E-03 0.  1.
         11   -1    0    0    0    0 -0.00000000000E+00 -0.00000000000E+00 -0.45593999997E+02  0.45594000000E+02  0.51100000000E-03 0. -1.
         23    2    1    2    0    0  0.00000000000E+00  0.00000000000E+00 -0.17763568394E-14  0.91188000000E+02  0.91188000000E+02 0.  0.
    9900012    2    3    3    0    0 -0.20739579808E+01  0.42768842697E+02 -0.70815398650E+01  0.47787269428E+02  0.19999992631E+02 0.  0.
         12    1    3    3    0    0  0.20739579808E+01 -0.42768842697E+02  0.70815398650E+01  0.43400730572E+02  0.00000000000E+00 0. -1.
         11    1    4    4    0    0  0.24626552532E+01  0.98470084687E+01 -0.52679917678E+01  0.11435907669E+02  0.51100000000E-03 0. -1.
        -11    1    4    4    0    0 -0.95105828203E+01  0.20442131031E+02  0.12182309546E+01  0.22579105244E+02  0.51100000000E-03 0.  1.
        -12    1    4    4    0    0  0.49739695864E+01  0.12479703197E+02 -0.30317790519E+01  0.13772256516E+02  0.00000000000E+00 0.  1.
</event>
<event>
 8    1  0.6239251E-010  0.9118800E+02  0.7816164E-02  0.1184000E+00
        -11   -1    0    0    0    0  0.00000000000E+00  0.00000000000E+00  0.45593999997E+02  0.45594000000E+02  0.51100000000E-03 0. -1.
         11   -1    0    0    0    0 -0.00000000000E+00 -0.00000000000E+00 -0.45593999997E+02  0.45594000000E+02  0.51100000000E-03 0.  1.
         23    2    1    2    0    0  0.00000000000E+00 -0.35527136788E-14  0.17763568394E-14  0.91188000000E+02  0.91188000000E+02 0.  0.
    9900012    2    3    3    0    0  0.34645428498E+02  0.23530243686E+02 -0.11386195601E+02  0.47787268047E+02  0.19999986336E+02 0.  0.
         12    1    3    3    0    0 -0.34645428498E+02 -0.23530243686E+02  0.11386195601E+02  0.43400731953E+02  0.00000000000E+00 0. -1.
         11    1    4    4    0    0  0.42095131466E+01  0.37347505025E+01  0.37960385640E+01  0.67880977665E+01  0.51100000000E-03 0. -1.
        -11    1    4    4    0    0  0.21769838306E+02  0.77450013135E+01 -0.10915824575E+02  0.25555158611E+02  0.51100000000E-03 0.  1.
        -12    1    4    4    0    0  0.86660770450E+01  0.12050491870E+02 -0.42664095900E+01  0.15444011670E+02  0.00000000000E+00 0.  1.
</event>
<event>
 8    1  0.6239251E-010  0.9118800E+02  0.7816164E-02  0.1184000E+00
        -11   -1    0    0    0    0  0.00000000000E+00  0.00000000000E+00  0.45593999997E+02  0.45594000000E+02  0.51100000000E-03 0. -1.
         11   -1    0    0    0    0 -0.00000000000E+00 -0.00000000000E+00 -0.45593999997E+02  0.45594000000E+02  0.51100000000E-03 0.  1.
         23    2    1    2    0    0  0.88817841970E-15  0.22204460493E-14 -0.71054273576E-14  0.91188000000E+02  0.91188000000E+02 0.  0.
    9900012    2    3    3    0    0  0.52460653885E+01  0.24291179044E+01 -0.43013967948E+02  0.47787271268E+02  0.20000001018E+02 0.  0.
         12    1    3    3    0    0 -0.52460653885E+01 -0.24291179044E+01  0.43013967948E+02  0.43400728732E+02  0.00000000000E+00 0. -1.
         11    1    4    4    0    0  0.17864648914E+01 -0.78031362330E+01 -0.90757727815E+01  0.12101654586E+02  0.51100000000E-03 0. -1.
        -11    1    4    4    0    0  0.35783610092E+01  0.76557355503E+01 -0.26053999441E+02  0.27390250847E+02  0.51100000000E-03 0.  1.
         12    1    4    4    0    0 -0.11876051213E+00  0.25765185872E+01 -0.78841957258E+01  0.82953658348E+01  0.00000000000E+00 0. -1.
</event>
<event>
 8    1  0.6239251E-010  0.9118800E+02  0.7816164E-02  0.1184000E+00
        -11   -1    0    0    0    0  0.00000000000E+00  0.00000000000E+00  0.45593999997E+02  0.45594000000E+02  0.51100000000E-03 0. -1.
         11   -1    0    0    0    0 -0.00000000000E+00 -0.00000000000E+00 -0.45593999997E+02  0.45594000000E+02  0.51100000000E-03 0.  1.
         23    2    1    2    0    0  0.44408920985E-15  0.00000000000E+00  0.00000000000E+00  0.91188000000E+02  0.91188000000E+02 0.  0.
    9900012    2    3    3    0    0 -0.37114032748E+01  0.33159842366E+02  0.27753798074E+02  0.47787274574E+02  0.20000016091E+02 0.  0.
        -12    1    3    3    0    0  0.37114032748E+01 -0.33159842366E+02 -0.27753798074E+02  0.43400725426E+02  0.00000000000E+00 0.  1.
         11    1    4    4    0    0 -0.88065266248E+01  0.93913327680E+01  0.12644954783E+02  0.18045689903E+02  0.51100000000E-03 0. -1.
        -11    1    4    4    0    0  0.21962193429E+01  0.56948437771E+01  0.15569173580E+00  0.61056420814E+01  0.51100000000E-03 0.  1.
         12    1    4    4    0    0  0.28989040071E+01  0.18073665821E+02  0.14953151554E+02  0.23635942589E+02  0.00000000000E+00 0. -1.
</event>
<event>
 8    1  0.6239251E-010  0.9118800E+02  0.7816164E-02  0.1184000E+00
        -11   -1    0    0    0    0  0.00000000000E+00  0.00000000000E+00  0.45593999997E+02  0.45594000000E+02  0.51100000000E-03 0. -1.
         11   -1    0    0    0    0 -0.00000000000E+00 -0.00000000000E+00 -0.45593999997E+02  0.45594000000E+02  0.51100000000E-03 0.  1.
         23    2    1    2    0    0  0.00000000000E+00  0.15543122345E-14 -0.71054273576E-14  0.91188000000E+02  0.91188000000E+02 0.  0.
    9900012    2    3    3    0    0  0.30011584910E+02  0.10215048387E+01  0.31335043689E+02  0.47787266551E+02  0.19999979512E+02 0.  0.
        -12    1    3    3    0    0 -0.30011584910E+02 -0.10215048387E+01 -0.31335043689E+02  0.43400733449E+02  0.00000000000E+00 0.  1.
         11    1    4    4    0    0  0.69079052831E+01  0.40119802419E-01  0.29072778670E+01  0.74948669005E+01  0.51100000000E-03 0. -1.
        -11    1    4    4    0    0  0.16233265981E+02  0.82010364061E+01  0.15028102120E+02  0.23592790766E+02  0.51100000000E-03 0.  1.
        -12    1    4    4    0    0  0.68704136455E+01 -0.72196513699E+01  0.13399663702E+02  0.16699608884E+02  0.00000000000E+00 0.  1.
</event>
<event>
 8    1  0.6239251E-010  0.9118800E+02  0.7816164E-02  0.1184000E+00
        -11   -1    0    0    0    0  0.00000000000E+00  0.00000000000E+00  0.45593999997E+02  0.45594000000E+02  0.51100000000E-03 0. -1.
         11   -1    0    0    0    0 -0.00000000000E+00 -0.00000000000E+00 -0.45593999997E+02  0.45594000000E+02  0.51100000000E-03 0.  1.
         23    2    1    2    0    0 -0.17763568394E-14 -0.17763568394E-14  0.00000000000E+00  0.91188000000E+02  0.91188000000E+02 0.  0.
    9900012    2    3    3    0    0  0.10756943661E+02 -0.12934918108E+02 -0.40007487939E+02  0.47787273802E+02  0.20000012571E+02 0.  0.
         12    1    3    3    0    0 -0.10756943661E+02  0.12934918108E+02  0.40007487939E+02  0.43400726198E+02  0.00000000000E+00 0. -1.
         11    1    4    4    0    0  0.57422764102E+01  0.55210303463E+00 -0.18042050019E+01  0.60443123746E+01  0.51100000000E-03 0. -1.
        -11    1    4    4    0    0  0.66399766552E+00 -0.52259723671E+01 -0.50407180745E+01  0.72911260481E+01  0.51100000000E-03 0.  1.
         12    1    4    4    0    0  0.43506695848E+01 -0.82610487754E+01 -0.33162564863E+02  0.34451835379E+02  0.00000000000E+00 0. -1.
</event>
<event>
 8    1  0.6239251E-010  0.9118800E+02  0.7816164E-02  0.1184000E+00
        -11   -1    0    0    0    0  0.00000000000E+00  0.00000000000E+00  0.45593999997E+02  0.45594000000E+02  0.51100000000E-03 0. -1.
         11   -1    0    0    0    0 -0.00000000000E+00 -0.00000000000E+00 -0.45593999997E+02  0.45594000000E+02  0.51100000000E-03 0.  1.
         23    2    1    2    0    0 -0.88817841970E-15  0.00000000000E+00  0.00000000000E+00  0.91188000000E+02  0.91188000000E+02 0.  0.
    9900012    2    3    3    0    0 -0.77077500726E+01  0.15466606517E+02 -0.39812033355E+02  0.47787270418E+02  0.19999997146E+02 0.  0.
         12    1    3    3    0    0  0.77077500726E+01 -0.15466606517E+02  0.39812033355E+02  0.43400729582E+02  0.00000000000E+00 0. -1.
         11    1    4    4    0    0  0.47848560275E+01  0.42092259746E+01 -0.33147895365E+01  0.71833321266E+01  0.51100000000E-03 0. -1.
        -11    1    4    4    0    0 -0.86571454724E+01  0.10927840829E+02 -0.28908156928E+02  0.32094320528E+02  0.51100000000E-03 0.  1.
        -12    1    4    4    0    0 -0.38354606277E+01  0.32953971308E+00 -0.75890868908E+01  0.85096177637E+01  0.00000000000E+00 0.  1.
</event>
<event>
 8    1  0.6239251E-010  0.9118800E+02  0.7816164E-02  0.1184000E+00
        -11   -1    0    0    0    0  0.00000000000E+00  0.00000000000E+00  0.45593999997E+02  0.45594000000E+02  0.51100000000E-03 0. -1.
         11   -1    0    0    0    0 -0.00000000000E+00 -0.00000000000E+00 -0.45593999997E+02  0.45594000000E+02  0.51100000000E-03 0.  1.
         23    2    1    2    0    0  0.00000000000E+00 -0.55511151231E-15  0.71054273576E-14  0.91188000000E+02  0.91188000000E+02 0.  0.
    9900012    2    3    3    0    0 -0.10233250107E+02 -0.94722296118E+00  0.42166413662E+02  0.47787273275E+02  0.20000010171E+02 0.  0.
        -12    1    3    3    0    0  0.10233250107E+02  0.94722296118E+00 -0.42166413662E+02  0.43400726725E+02  0.00000000000E+00 0.  1.
         11    1    4    4    0    0  0.49761537652E+00  0.48934491782E+01  0.11586497748E+02  0.12587310922E+02  0.51100000000E-03 0. -1.
        -11    1    4    4    0    0 -0.13418330885E+02 -0.46696678345E+01  0.22559723706E+02  0.26660805227E+02  0.51100000000E-03 0.  1.
         12    1    4    4    0    0  0.26874654007E+01 -0.11710043049E+01  0.80201922087E+01  0.85391571262E+01  0.00000000000E+00 0. -1.
</event>
<event>
 8    1  0.6239251E-010  0.9118800E+02  0.7816164E-02  0.1184000E+00
        -11   -1    0    0    0    0  0.00000000000E+00  0.00000000000E+00  0.45593999997E+02  0.45594000000E+02  0.51100000000E-03 0. -1.
         11   -1    0    0    0    0 -0.00000000000E+00 -0.00000000000E+00 -0.45593999997E+02  0.45594000000E+02  0.51100000000E-03 0.  1.
         23    2    1    2    0    0  0.00000000000E+00  0.00000000000E+00  0.00000000000E+00  0.91188000000E+02  0.91188000000E+02 0.  0.
    9900012    2    3    3    0    0  0.25846985734E+02  0.70470231840E+01  0.34145215475E+02  0.47787274809E+02  0.20000017164E+02 0.  0.
        -12    1    3    3    0    0 -0.25846985734E+02 -0.70470231840E+01 -0.34145215475E+02  0.43400725191E+02  0.00000000000E+00 0.  1.
         11    1    4    4    0    0  0.75883694165E+01 -0.17902094515E+01  0.68820991214E+01  0.10399590802E+02  0.51100000000E-03 0. -1.
        -11    1    4    4    0    0  0.19059565189E+02  0.11515100598E+02  0.21360332588E+02  0.30856577507E+02  0.51100000000E-03 0.  1.
        -12    1    4    4    0    0 -0.80094887126E+00 -0.26778679623E+01  0.59027837657E+01  0.65311064991E+01  0.00000000000E+00 0.  1.
</event>
<event>
 8    1  0.6239251E-010  0.9118800E+02  0.7816164E-02  0.1184000E+00
        -11   -1    0    0    0    0  0.00000000000E+00  0.00000000000E+00  0.45593999997E+02  0.45594000000E+02  0.51100000000E-03 0.  1.
         11   -1    0    0    0    0 -0.00000000000E+00 -0.00000000000E+00 -0.45593999997E+02  0.45594000000E+02  0.51100000000E-03 0. -1.
         23    2    1    2    0    0  0.00000000000E+00  0.35527136788E-14  0.00000000000E+00  0.91188000000E+02  0.91188000000E+02 0.  0.
    9900012    2    3    3    0    0  0.35834287347E+02  0.23954845024E+02  0.50687926426E+01  0.47787269492E+02  0.19999992921E+02 0.  0.
        -12    1    3    3    0    0 -0.35834287347E+02 -0.23954845024E+02 -0.50687926426E+01  0.43400730508E+02  0.00000000000E+00 0.  1.
         11    1    4    4    0    0  0.14927297439E+02  0.96634395509E+01  0.29005940181E+01  0.18017206185E+02  0.51100000000E-03 0. -1.
        -11    1    4    4    0    0  0.27581594390E+01  0.72990018646E+01  0.61284160329E+01  0.99217112962E+01  0.51100000000E-03 0.  1.
        -12    1    4    4    0    0  0.18148830469E+02  0.69924036083E+01 -0.39602174084E+01  0.19848352011E+02  0.00000000000E+00 0.  1.
</event>
<event>
 8    1  0.6239251E-010  0.9118800E+02  0.7816164E-02  0.1184000E+00
        -11   -1    0    0    0    0  0.00000000000E+00  0.00000000000E+00  0.45593999997E+02  0.45594000000E+02  0.51100000000E-03 0. -1.
         11   -1    0    0    0    0 -0.00000000000E+00 -0.00000000000E+00 -0.45593999997E+02  0.45594000000E+02  0.51100000000E-03 0.  1.
         23    2    1    2    0    0  0.71054273576E-14  0.00000000000E+00 -0.35527136788E-14  0.91188000000E+02  0.91188000000E+02 0.  0.
    9900012    2    3    3    0    0 -0.35551539674E+02  0.46618980386E+01  0.24453549712E+02  0.47787293093E+02  0.20000100529E+02 0.  0.
        -12    1    3    3    0    0  0.35551539674E+02 -0.46618980386E+01 -0.24453549712E+02  0.43400706907E+02  0.00000000000E+00 0.  1.
         11    1    4    4    0    0 -0.15217662855E+01 -0.34830416148E+01  0.20054758879E+01  0.42975906408E+01  0.51100000000E-03 0.  1.
        -11    1    4    4    0    0 -0.30389489498E+02  0.24511429648E+01  0.18195442283E+02  0.35504975622E+02  0.51100000000E-03 0. -1.
        -12    1    4    4    0    0 -0.36402838906E+01  0.56937966886E+01  0.42526315409E+01  0.79847268305E+01  0.00000000000E+00 0.  1.
</event>
<event>
 8    1  0.6239251E-010  0.9118800E+02  0.7816164E-02  0.1184000E+00
        -11   -1    0    0    0    0  0.00000000000E+00  0.00000000000E+00  0.45593999997E+02  0.45594000000E+02  0.51100000000E-03 0. -1.
         11   -1    0    0    0    0 -0.00000000000E+00 -0.00000000000E+00 -0.45593999997E+02  0.45594000000E+02  0.51100000000E-03 0.  1.
         23    2    1    2    0    0  0.35527136788E-14  0.00000000000E+00  0.71054273576E-14  0.91188000000E+02  0.91188000000E+02 0.  0.
    9900012    2    3    3    0    0  0.17333097050E+02 -0.13338138276E+02  0.37487081759E+02  0.47787268614E+02  0.19999988918E+02 0.  0.
        -12    1    3    3    0    0 -0.17333097050E+02  0.13338138276E+02 -0.37487081759E+02  0.43400731386E+02  0.00000000000E+00 0.  1.
         11    1    4    4    0    0 -0.34019962825E+01 -0.53214826748E+01  0.67520601132E+01  0.92456515508E+01  0.51100000000E-03 0. -1.
        -11    1    4    4    0    0  0.17375660318E+02 -0.81046693331E+01  0.21998497069E+02  0.29181040250E+02  0.51100000000E-03 0.  1.
         12    1    4    4    0    0  0.33594330153E+01  0.88013732242E-01  0.87365245768E+01  0.93605768136E+01  0.00000000000E+00 0. -1.
</event>
<event>
 8    1  0.6239251E-010  0.9118800E+02  0.7816164E-02  0.1184000E+00
        -11   -1    0    0    0    0  0.00000000000E+00  0.00000000000E+00  0.45593999997E+02  0.45594000000E+02  0.51100000000E-03 0. -1.
         11   -1    0    0    0    0 -0.00000000000E+00 -0.00000000000E+00 -0.45593999997E+02  0.45594000000E+02  0.51100000000E-03 0.  1.
         23    2    1    2    0    0 -0.17763568394E-14 -0.35527136788E-14 -0.71054273576E-14  0.91188000000E+02  0.91188000000E+02 0.  0.
    9900012    2    3    3    0    0  0.92593334791E+01  0.26074452986E+02  0.33436670949E+02  0.47787270523E+02  0.19999997622E+02 0.  0.
        -12    1    3    3    0    0 -0.92593334791E+01 -0.26074452986E+02 -0.33436670949E+02  0.43400729477E+02  0.00000000000E+00 0.  1.
         11    1    4    4    0    0  0.12884893648E+02  0.20882891166E+02  0.32794507887E+02  0.40958459146E+02  0.51100000000E-03 0. -1.
        -11    1    4    4    0    0 -0.21688981495E+01  0.36080261605E+01  0.15601512215E+01  0.44895483128E+01  0.51100000000E-03 0.  1.
         12    1    4    4    0    0 -0.14566620191E+01  0.15835356598E+01 -0.91798815990E+00  0.23392630646E+01  0.00000000000E+00 0. -1.
</event>
<event>
 8    1  0.6239251E-010  0.9118800E+02  0.7816164E-02  0.1184000E+00
        -11   -1    0    0    0    0  0.00000000000E+00  0.00000000000E+00  0.45593999997E+02  0.45594000000E+02  0.51100000000E-03 0. -1.
         11   -1    0    0    0    0 -0.00000000000E+00 -0.00000000000E+00 -0.45593999997E+02  0.45594000000E+02  0.51100000000E-03 0.  1.
         23    2    1    2    0    0  0.00000000000E+00  0.00000000000E+00  0.35527136788E-14  0.91188000000E+02  0.91188000000E+02 0.  0.
    9900012    2    3    3    0    0 -0.69630142537E+01 -0.32303945093E+02  0.28135296301E+02  0.47787270351E+02  0.19999996839E+02 0.  0.
        -12    1    3    3    0    0  0.69630142537E+01  0.32303945093E+02 -0.28135296301E+02  0.43400729649E+02  0.00000000000E+00 0.  1.
         11    1    4    4    0    0  0.15156080819E+01 -0.23352915723E+02  0.14027399347E+02  0.27284128597E+02  0.51100000000E-03 0. -1.
        -11    1    4    4    0    0 -0.83853564984E+01 -0.90167802661E+01  0.86590387907E+01  0.15053088820E+02  0.51100000000E-03 0.  1.
         12    1    4    4    0    0 -0.93265837212E-01  0.65750895498E-01  0.54488581639E+01  0.54500529343E+01  0.00000000000E+00 0. -1.
</event>
<event>
 8    1  0.6239251E-010  0.9118800E+02  0.7816164E-02  0.1184000E+00
        -11   -1    0    0    0    0  0.00000000000E+00  0.00000000000E+00  0.45593999997E+02  0.45594000000E+02  0.51100000000E-03 0.  1.
         11   -1    0    0    0    0 -0.00000000000E+00 -0.00000000000E+00 -0.45593999997E+02  0.45594000000E+02  0.51100000000E-03 0. -1.
         23    2    1    2    0    0 -0.88817841970E-15  0.00000000000E+00  0.00000000000E+00  0.91188000000E+02  0.91188000000E+02 0.  0.
    9900012    2    3    3    0    0 -0.54375416058E+01 -0.42130630792E+02 -0.88918926233E+01  0.47787278070E+02  0.20000032033E+02 0.  0.
        -12    1    3    3    0    0  0.54375416058E+01  0.42130630792E+02  0.88918926233E+01  0.43400721930E+02  0.00000000000E+00 0.  1.
         11    1    4    4    0    0  0.53734244320E+01 -0.20545741000E+02 -0.29061716347E+01  0.21434714768E+02  0.51100000000E-03 0. -1.
        -11    1    4    4    0    0 -0.10526288709E+02 -0.15458019825E+02 -0.73068279504E+01  0.20078417912E+02  0.51100000000E-03 0.  1.
        -12    1    4    4    0    0 -0.28467732921E+00 -0.61268699671E+01  0.13211069618E+01  0.62741453904E+01  0.00000000000E+00 0.  1.
</event>
<event>
 8    1  0.6239251E-010  0.9118800E+02  0.7816164E-02  0.1184000E+00
        -11   -1    0    0    0    0  0.00000000000E+00  0.00000000000E+00  0.45593999997E+02  0.45594000000E+02  0.51100000000E-03 0. -1.
         11   -1    0    0    0    0 -0.00000000000E+00 -0.00000000000E+00 -0.45593999997E+02  0.45594000000E+02  0.51100000000E-03 0.  1.
         23    2    1    2    0    0  0.66613381478E-15  0.71054273576E-14 -0.44408920985E-15  0.91188000000E+02  0.91188000000E+02 0.  0.
    9900012    2    3    3    0    0  0.16546368936E+01 -0.43316028835E+02  0.21464563672E+01  0.47787268990E+02  0.19999990633E+02 0.  0.
         12    1    3    3    0    0 -0.16546368936E+01  0.43316028835E+02 -0.21464563672E+01  0.43400731010E+02  0.00000000000E+00 0. -1.
         11    1    4    4    0    0 -0.31257381003E+01 -0.64892601934E+01  0.69554094571E+01  0.10012914536E+02  0.51100000000E-03 0. -1.
        -11    1    4    4    0    0  0.51276417359E+00 -0.19099355839E+02 -0.90752912876E+00  0.19127779012E+02  0.51100000000E-03 0.  1.
         12    1    4    4    0    0  0.42676108203E+01 -0.17727412802E+02 -0.39014239612E+01  0.18646575442E+02  0.00000000000E+00 0. -1.
</event>
<event>
 8    1  0.6239251E-010  0.9118800E+02  0.7816164E-02  0.1184000E+00
        -11   -1    0    0    0    0  0.00000000000E+00  0.00000000000E+00  0.45593999997E+02  0.45594000000E+02  0.51100000000E-03 0. -1.
         11   -1    0    0    0    0 -0.00000000000E+00 -0.00000000000E+00 -0.45593999997E+02  0.45594000000E+02  0.51100000000E-03 0.  1.
         23    2    1    2    0    0  0.00000000000E+00  0.44408920985E-15  0.00000000000E+00  0.91188000000E+02  0.91188000000E+02 0.  0.
    9900012    2    3    3    0    0 -0.40047595309E+02  0.12512605199E+01 -0.16680754716E+02  0.47787272807E+02  0.20000008038E+02 0.  0.
         12    1    3    3    0    0  0.40047595309E+02 -0.12512605199E+01  0.16680754716E+02  0.43400727193E+02  0.00000000000E+00 0. -1.
         11    1    4    4    0    0 -0.13296223605E+02 -0.58312407943E+01 -0.84979752018E+01  0.16822856896E+02  0.51100000000E-03 0.  1.
        -11    1    4    4    0    0 -0.16369576203E+02  0.87828804022E+01 -0.85230412274E+01  0.20438792656E+02  0.51100000000E-03 0. -1.
         12    1    4    4    0    0 -0.10381795501E+02 -0.17003790880E+01  0.34026171290E+00  0.10525623255E+02  0.00000000000E+00 0. -1.
</event>
<event>
 8    1  0.6239251E-010  0.9118800E+02  0.7816164E-02  0.1184000E+00
        -11   -1    0    0    0    0  0.00000000000E+00  0.00000000000E+00  0.45593999997E+02  0.45594000000E+02  0.51100000000E-03 0. -1.
         11   -1    0    0    0    0 -0.00000000000E+00 -0.00000000000E+00 -0.45593999997E+02  0.45594000000E+02  0.51100000000E-03 0.  1.
         23    2    1    2    0    0  0.35527136788E-14  0.00000000000E+00  0.35527136788E-14  0.91188000000E+02  0.91188000000E+02 0.  0.
    9900012    2    3    3    0    0 -0.28401389679E+02  0.13262785345E+02 -0.30018040381E+02  0.47787272366E+02  0.20000006027E+02 0.  0.
         12    1    3    3    0    0  0.28401389679E+02 -0.13262785345E+02  0.30018040381E+02  0.43400727634E+02  0.00000000000E+00 0. -1.
         11    1    4    4    0    0 -0.91225646155E+01  0.14335050131E+01 -0.11952556215E+02  0.15104294824E+02  0.51100000000E-03 0. -1.
        -11    1    4    4    0    0 -0.10707904874E+02  0.14040783958E+02 -0.83270732332E+01  0.19522883748E+02  0.51100000000E-03 0.  1.
        -12    1    4    4    0    0 -0.85709201897E+01 -0.22115036263E+01 -0.97384109329E+01  0.13160093795E+02  0.00000000000E+00 0.  1.
</event>
<event>
 8    1  0.6239251E-010  0.9118800E+02  0.7816164E-02  0.1184000E+00
        -11   -1    0    0    0    0  0.00000000000E+00  0.00000000000E+00  0.45593999997E+02  0.45594000000E+02  0.51100000000E-03 0. -1.
         11   -1    0    0    0    0 -0.00000000000E+00 -0.00000000000E+00 -0.45593999997E+02  0.45594000000E+02  0.51100000000E-03 0.  1.
         23    2    1    2    0    0  0.00000000000E+00  0.17763568394E-14  0.71054273576E-14  0.91188000000E+02  0.91188000000E+02 0.  0.
    9900012    2    3    3    0    0  0.93453265956E+01 -0.93262249008E+01 -0.41343798312E+02  0.47787271217E+02  0.20000000785E+02 0.  0.
         12    1    3    3    0    0 -0.93453265956E+01  0.93262249008E+01  0.41343798312E+02  0.43400728783E+02  0.00000000000E+00 0. -1.
         11    1    4    4    0    0  0.23026933597E+01  0.58384755854E+01 -0.10819502715E+02  0.12508070720E+02  0.51100000000E-03 0. -1.
        -11    1    4    4    0    0  0.96323851838E+00 -0.82251165585E+01 -0.11938870674E+02  0.14529865935E+02  0.51100000000E-03 0.  1.
         12    1    4    4    0    0  0.60793947175E+01 -0.69395839276E+01 -0.18585424923E+02  0.20749334562E+02  0.00000000000E+00 0. -1.
</event>
<event>
 8    1  0.6239251E-010  0.9118800E+02  0.7816164E-02  0.1184000E+00
        -11   -1    0    0    0    0  0.00000000000E+00  0.00000000000E+00  0.45593999997E+02  0.45594000000E+02  0.51100000000E-03 0.  1.
         11   -1    0    0    0    0 -0.00000000000E+00 -0.00000000000E+00 -0.45593999997E+02  0.45594000000E+02  0.51100000000E-03 0. -1.
         23    2    1    2    0    0  0.00000000000E+00  0.00000000000E+00 -0.17763568394E-14  0.91188000000E+02  0.91188000000E+02 0.  0.
    9900012    2    3    3    0    0  0.23556313162E+02  0.33696433198E+02 -0.13902285299E+02  0.47787273778E+02  0.20000012464E+02 0.  0.
         12    1    3    3    0    0 -0.23556313162E+02 -0.33696433198E+02  0.13902285299E+02  0.43400726222E+02  0.00000000000E+00 0. -1.
         11    1    4    4    0    0  0.12120781583E+02  0.10531287749E+02 -0.12682815376E+02  0.20461553557E+02  0.51100000000E-03 0. -1.
        -11    1    4    4    0    0  0.11370589364E+02  0.23603192811E+02 -0.21579803243E+01  0.26287980004E+02  0.51100000000E-03 0.  1.
        -12    1    4    4    0    0  0.64942214231E-01 -0.43804736213E+00  0.93851040161E+00  0.10377402163E+01  0.00000000000E+00 0.  1.
</event>
<event>
 8    1  0.6239251E-010  0.9118800E+02  0.7816164E-02  0.1184000E+00
        -11   -1    0    0    0    0  0.00000000000E+00  0.00000000000E+00  0.45593999997E+02  0.45594000000E+02  0.51100000000E-03 0. -1.
         11   -1    0    0    0    0 -0.00000000000E+00 -0.00000000000E+00 -0.45593999997E+02  0.45594000000E+02  0.51100000000E-03 0.  1.
         23    2    1    2    0    0  0.00000000000E+00  0.17763568394E-14  0.00000000000E+00  0.91188000000E+02  0.91188000000E+02 0.  0.
    9900012    2    3    3    0    0  0.16748387534E+02 -0.82236829296E+01 -0.39185277948E+02  0.47787268972E+02  0.19999990552E+02 0.  0.
         12    1    3    3    0    0 -0.16748387534E+02  0.82236829296E+01  0.39185277948E+02  0.43400731028E+02  0.00000000000E+00 0. -1.
         11    1    4    4    0    0  0.84468510344E+01 -0.50125283228E+00 -0.63623445311E+01  0.10586783033E+02  0.51100000000E-03 0. -1.
        -11    1    4    4    0    0  0.64034838125E+01 -0.88708013951E+01 -0.33194676149E+02  0.34951140857E+02  0.51100000000E-03 0.  1.
        -12    1    4    4    0    0  0.18980526868E+01  0.11483712978E+01  0.37174273212E+00  0.22493450821E+01  0.00000000000E+00 0.  1.
</event>
<event>
 8    1  0.6239251E-010  0.9118800E+02  0.7816164E-02  0.1184000E+00
        -11   -1    0    0    0    0  0.00000000000E+00  0.00000000000E+00  0.45593999997E+02  0.45594000000E+02  0.51100000000E-03 0. -1.
         11   -1    0    0    0    0 -0.00000000000E+00 -0.00000000000E+00 -0.45593999997E+02  0.45594000000E+02  0.51100000000E-03 0.  1.
         23    2    1    2    0    0  0.00000000000E+00  0.00000000000E+00  0.00000000000E+00  0.91188000000E+02  0.91188000000E+02 0.  0.
    9900012    2    3    3    0    0 -0.10631916738E+02 -0.23727549277E+02  0.34750381108E+02  0.47787271488E+02  0.20000002023E+02 0.  0.
        -12    1    3    3    0    0  0.10631916738E+02  0.23727549277E+02 -0.34750381108E+02  0.43400728512E+02  0.00000000000E+00 0.  1.
         11    1    4    4    0    0 -0.15199813517E+02 -0.13103093591E+02  0.18002059372E+02  0.26959219842E+02  0.51100000000E-03 0. -1.
        -11    1    4    4    0    0  0.40569905968E+01 -0.86648374723E+01  0.10249835287E+02  0.14021330350E+02  0.51100000000E-03 0.  1.
         12    1    4    4    0    0  0.51090618200E+00 -0.19596182131E+01  0.64984864487E+01  0.68067212953E+01  0.00000000000E+00 0. -1.
</event>
<event>
 8    1  0.6239251E-010  0.9118800E+02  0.7816164E-02  0.1184000E+00
        -11   -1    0    0    0    0  0.00000000000E+00  0.00000000000E+00  0.45593999997E+02  0.45594000000E+02  0.51100000000E-03 0. -1.
         11   -1    0    0    0    0 -0.00000000000E+00 -0.00000000000E+00 -0.45593999997E+02  0.45594000000E+02  0.51100000000E-03 0.  1.
         23    2    1    2    0    0  0.00000000000E+00  0.35527136788E-14 -0.35527136788E-14  0.91188000000E+02  0.91188000000E+02 0.  0.
    9900012    2    3    3    0    0  0.25228374967E+02 -0.26236605930E+02  0.23638798048E+02  0.47787272272E+02  0.20000005595E+02 0.  0.
        -12    1    3    3    0    0 -0.25228374967E+02  0.26236605930E+02 -0.23638798048E+02  0.43400727728E+02  0.00000000000E+00 0.  1.
         11    1    4    4    0    0  0.21160075290E+01 -0.33634902669E+01  0.55714295156E+01  0.68433458006E+01  0.51100000000E-03 0. -1.
        -11    1    4    4    0    0 -0.21422837556E+01 -0.28795461477E+00 -0.62365993964E+00  0.22497221008E+01  0.51100000000E-03 0.  1.
        -12    1    4    4    0    0  0.25254651194E+02 -0.22585161049E+02  0.18691028472E+02  0.38694204370E+02  0.00000000000E+00 0.  1.
</event>
<event>
 8    1  0.6239251E-010  0.9118800E+02  0.7816164E-02  0.1184000E+00
        -11   -1    0    0    0    0  0.00000000000E+00  0.00000000000E+00  0.45593999997E+02  0.45594000000E+02  0.51100000000E-03 0. -1.
         11   -1    0    0    0    0 -0.00000000000E+00 -0.00000000000E+00 -0.45593999997E+02  0.45594000000E+02  0.51100000000E-03 0.  1.
         23    2    1    2    0    0  0.00000000000E+00  0.00000000000E+00  0.00000000000E+00  0.91188000000E+02  0.91188000000E+02 0.  0.
    9900012    2    3    3    0    0 -0.14714228221E+02 -0.59046598518E+01 -0.40401109691E+02  0.47787272076E+02  0.20000004702E+02 0.  0.
         12    1    3    3    0    0  0.14714228221E+02  0.59046598518E+01  0.40401109691E+02  0.43400727924E+02  0.00000000000E+00 0. -1.
         11    1    4    4    0    0 -0.28020876033E+01  0.25686740607E+01 -0.44012598614E+01  0.58155713387E+01  0.51100000000E-03 0. -1.
        -11    1    4    4    0    0  0.37329687120E+01 -0.25159475750E+01 -0.49115294661E+01  0.66624447137E+01  0.51100000000E-03 0.  1.
        -12    1    4    4    0    0 -0.15645109330E+02 -0.59573863375E+01 -0.31088320363E+02  0.35309256023E+02  0.00000000000E+00 0.  1.
</event>
<event>
 8    1  0.6239251E-010  0.9118800E+02  0.7816164E-02  0.1184000E+00
        -11   -1    0    0    0    0  0.00000000000E+00  0.00000000000E+00  0.45593999997E+02  0.45594000000E+02  0.51100000000E-03 0.  1.
         11   -1    0    0    0    0 -0.00000000000E+00 -0.00000000000E+00 -0.45593999997E+02  0.45594000000E+02  0.51100000000E-03 0. -1.
         23    2    1    2    0    0  0.00000000000E+00  0.00000000000E+00  0.88817841970E-15  0.91188000000E+02  0.91188000000E+02 0.  0.
    9900012    2    3    3    0    0 -0.39806605043E+02  0.17074843031E+02  0.27399443629E+01  0.47787269998E+02  0.19999995228E+02 0.  0.
         12    1    3    3    0    0  0.39806605043E+02 -0.17074843031E+02 -0.27399443629E+01  0.43400730002E+02  0.00000000000E+00 0. -1.
         11    1    4    4    0    0 -0.36736343867E+01  0.41388103065E+01 -0.52159197884E+01  0.76046801288E+01  0.51100000000E-03 0. -1.
        -11    1    4    4    0    0 -0.32907956457E+02  0.14305159152E+02  0.73195769875E+01  0.36621679155E+02  0.51100000000E-03 0.  1.
        -12    1    4    4    0    0 -0.32250141994E+01 -0.13691264280E+01  0.63628716381E+00  0.35609107146E+01  0.00000000000E+00 0.  1.
</event>
<event>
 8    1  0.6239251E-010  0.9118800E+02  0.7816164E-02  0.1184000E+00
        -11   -1    0    0    0    0  0.00000000000E+00  0.00000000000E+00  0.45593999997E+02  0.45594000000E+02  0.51100000000E-03 0. -1.
         11   -1    0    0    0    0 -0.00000000000E+00 -0.00000000000E+00 -0.45593999997E+02  0.45594000000E+02  0.51100000000E-03 0.  1.
         23    2    1    2    0    0  0.00000000000E+00 -0.17763568394E-14  0.00000000000E+00  0.91188000000E+02  0.91188000000E+02 0.  0.
    9900012    2    3    3    0    0 -0.17465548013E+02  0.55921430263E+01 -0.39335791908E+02  0.47787286226E+02  0.20000069219E+02 0.  0.
         12    1    3    3    0    0  0.17465548013E+02 -0.55921430263E+01  0.39335791908E+02  0.43400713774E+02  0.00000000000E+00 0. -1.
         11    1    4    4    0    0 -0.38869471650E+01  0.94587607940E+01 -0.11747386338E+02  0.15574902890E+02  0.51100000000E-03 0. -1.
        -11    1    4    4    0    0 -0.10860465116E+02 -0.62241610195E+01 -0.17614133458E+02  0.21608969912E+02  0.51100000000E-03 0.  1.
        -12    1    4    4    0    0 -0.27181357324E+01  0.23575432518E+01 -0.99742721128E+01  0.10603413423E+02  0.00000000000E+00 0.  1.
</event>
<event>
 8    1  0.6239251E-010  0.9118800E+02  0.7816164E-02  0.1184000E+00
        -11   -1    0    0    0    0  0.00000000000E+00  0.00000000000E+00  0.45593999997E+02  0.45594000000E+02  0.51100000000E-03 0. -1.
         11   -1    0    0    0    0 -0.00000000000E+00 -0.00000000000E+00 -0.45593999997E+02  0.45594000000E+02  0.51100000000E-03 0.  1.
         23    2    1    2    0    0  0.00000000000E+00  0.00000000000E+00 -0.71054273576E-14  0.91188000000E+02  0.91188000000E+02 0.  0.
    9900012    2    3    3    0    0  0.20838435224E+02 -0.65806956343E+01 -0.37497700138E+02  0.47787268978E+02  0.19999990578E+02 0.  0.
         12    1    3    3    0    0 -0.20838435224E+02  0.65806956343E+01  0.37497700138E+02  0.43400731022E+02  0.00000000000E+00 0. -1.
         11    1    4    4    0    0 -0.31461352273E+01 -0.31847204446E+01 -0.70233115075E+01  0.83287163460E+01  0.51100000000E-03 0.  1.
        -11    1    4    4    0    0  0.16658630684E+02 -0.10079534001E+01 -0.16318073221E+02  0.23341068104E+02  0.51100000000E-03 0. -1.
        -12    1    4    4    0    0  0.73259397676E+01 -0.23880217896E+01 -0.14156315409E+02  0.16117484528E+02  0.00000000000E+00 0.  1.
</event>
<event>
 8    1  0.6239251E-010  0.9118800E+02  0.7816164E-02  0.1184000E+00
        -11   -1    0    0    0    0  0.00000000000E+00  0.00000000000E+00  0.45593999997E+02  0.45594000000E+02  0.51100000000E-03 0. -1.
         11   -1    0    0    0    0 -0.00000000000E+00 -0.00000000000E+00 -0.45593999997E+02  0.45594000000E+02  0.51100000000E-03 0.  1.
         23    2    1    2    0    0 -0.17763568394E-14  0.35527136788E-14  0.00000000000E+00  0.91188000000E+02  0.91188000000E+02 0.  0.
    9900012    2    3    3    0    0 -0.14672933391E+02 -0.17218635430E+02  0.37038452699E+02  0.47787270067E+02  0.19999995544E+02 0.  0.
        -12    1    3    3    0    0  0.14672933391E+02  0.17218635430E+02 -0.37038452699E+02  0.43400729933E+02  0.00000000000E+00 0.  1.
         11    1    4    4    0    0 -0.13090433549E+00 -0.21871367788E+01  0.96545990600E+00  0.23943300369E+01  0.51100000000E-03 0. -1.
        -11    1    4    4    0    0  0.30074061679E+01 -0.52483983252E+01  0.31415741545E+01  0.68161327208E+01  0.51100000000E-03 0.  1.
        -12    1    4    4    0    0 -0.17549435223E+02 -0.97831003256E+01  0.32931418639E+02  0.38576807309E+02  0.00000000000E+00 0.  1.
</event>
<event>
 8    1  0.6239251E-010  0.9118800E+02  0.7816164E-02  0.1184000E+00
        -11   -1    0    0    0    0  0.00000000000E+00  0.00000000000E+00  0.45593999997E+02  0.45594000000E+02  0.51100000000E-03 0. -1.
         11   -1    0    0    0    0 -0.00000000000E+00 -0.00000000000E+00 -0.45593999997E+02  0.45594000000E+02  0.51100000000E-03 0.  1.
         23    2    1    2    0    0  0.00000000000E+00  0.00000000000E+00  0.00000000000E+00  0.91188000000E+02  0.91188000000E+02 0.  0.
    9900012    2    3    3    0    0 -0.63479495642E+01 -0.59899723055E+01  0.42514082583E+02  0.47787269018E+02  0.19999990762E+02 0.  0.
        -12    1    3    3    0    0  0.63479495642E+01  0.59899723055E+01 -0.42514082583E+02  0.43400730982E+02  0.00000000000E+00 0.  1.
         11    1    4    4    0    0 -0.38204703746E+01 -0.42247153007E+01  0.80744917040E+01  0.98813779299E+01  0.51100000000E-03 0. -1.
        -11    1    4    4    0    0 -0.24464653801E+01 -0.75089564990E+01  0.97010445926E+01  0.12509192101E+02  0.51100000000E-03 0.  1.
        -12    1    4    4    0    0 -0.81013809526E-01  0.57436994942E+01  0.24738546286E+02  0.25396698988E+02  0.00000000000E+00 0.  1.
</event>
<event>
 8    1  0.6239251E-010  0.9118800E+02  0.7816164E-02  0.1184000E+00
        -11   -1    0    0    0    0  0.00000000000E+00  0.00000000000E+00  0.45593999997E+02  0.45594000000E+02  0.51100000000E-03 0. -1.
         11   -1    0    0    0    0 -0.00000000000E+00 -0.00000000000E+00 -0.45593999997E+02  0.45594000000E+02  0.51100000000E-03 0.  1.
         23    2    1    2    0    0 -0.44408920985E-15  0.71054273576E-14  0.00000000000E+00  0.91188000000E+02  0.91188000000E+02 0.  0.
    9900012    2    3    3    0    0 -0.28828885845E+01  0.34138353769E+02  0.26643663131E+02  0.47787273858E+02  0.20000012827E+02 0.  0.
        -12    1    3    3    0    0  0.28828885845E+01 -0.34138353769E+02 -0.26643663131E+02  0.43400726142E+02  0.00000000000E+00 0.  1.
         11    1    4    4    0    0 -0.26631847292E+01  0.76104582266E+00  0.72346465234E+01  0.77467318416E+01  0.51100000000E-03 0.  1.
        -11    1    4    4    0    0  0.27810112921E+01  0.30592095427E+02  0.15617065601E+02  0.34460166347E+02  0.51100000000E-03 0. -1.
         12    1    4    4    0    0 -0.30007151474E+01  0.27852125194E+01  0.37919510058E+01  0.55803756687E+01  0.00000000000E+00 0. -1.
</event>
<event>
 8    1  0.6239251E-010  0.9118800E+02  0.7816164E-02  0.1184000E+00
        -11   -1    0    0    0    0  0.00000000000E+00  0.00000000000E+00  0.45593999997E+02  0.45594000000E+02  0.51100000000E-03 0. -1.
         11   -1    0    0    0    0 -0.00000000000E+00 -0.00000000000E+00 -0.45593999997E+02  0.45594000000E+02  0.51100000000E-03 0.  1.
         23    2    1    2    0    0  0.00000000000E+00  0.00000000000E+00  0.00000000000E+00  0.91188000000E+02  0.91188000000E+02 0.  0.
    9900012    2    3    3    0    0  0.84801252135E+01 -0.30990710045E+02  0.29176818480E+02  0.47787269945E+02  0.19999994986E+02 0.  0.
        -12    1    3    3    0    0 -0.84801252135E+01  0.30990710045E+02 -0.29176818480E+02  0.43400730055E+02  0.00000000000E+00 0.  1.
         11    1    4    4    0    0  0.31119202734E+01 -0.99494959640E+01  0.20523929935E+02  0.23019735402E+02  0.51100000000E-03 0. -1.
        -11    1    4    4    0    0  0.14795086938E+01 -0.17808932925E+01 -0.13903056941E+01  0.27006438267E+01  0.51100000000E-03 0.  1.
         12    1    4    4    0    0  0.38886962463E+01 -0.19260320788E+02  0.10043194239E+02  0.22066890716E+02  0.00000000000E+00 0. -1.
</event>
<event>
 8    1  0.6239251E-010  0.9118800E+02  0.7816164E-02  0.1184000E+00
        -11   -1    0    0    0    0  0.00000000000E+00  0.00000000000E+00  0.45593999997E+02  0.45594000000E+02  0.51100000000E-03 0. -1.
         11   -1    0    0    0    0 -0.00000000000E+00 -0.00000000000E+00 -0.45593999997E+02  0.45594000000E+02  0.51100000000E-03 0.  1.
         23    2    1    2    0    0 -0.71054273576E-14 -0.35527136788E-14  0.35527136788E-14  0.91188000000E+02  0.91188000000E+02 0.  0.
    9900012    2    3    3    0    0  0.24232247472E+02  0.29260629784E+02 -0.20981809926E+02  0.47787278570E+02  0.20000034311E+02 0.  0.
         12    1    3    3    0    0 -0.24232247472E+02 -0.29260629784E+02  0.20981809926E+02  0.43400721430E+02  0.00000000000E+00 0. -1.
         11    1    4    4    0    0  0.16642632605E+02  0.21227734149E+02 -0.17042802801E+02  0.31906912177E+02  0.51100000000E-03 0. -1.
        -11    1    4    4    0    0  0.93846609318E+01  0.78417848286E+01 -0.55783846789E+01  0.13441868397E+02  0.51100000000E-03 0.  1.
         12    1    4    4    0    0 -0.17950460641E+01  0.19111080582E+00  0.16393775537E+01  0.24384979959E+01  0.00000000000E+00 0. -1.
</event>
<event>
 8    1  0.6239251E-010  0.9118800E+02  0.7816164E-02  0.1184000E+00
        -11   -1    0    0    0    0  0.00000000000E+00  0.00000000000E+00  0.45593999997E+02  0.45594000000E+02  0.51100000000E-03 0. -1.
         11   -1    0    0    0    0 -0.00000000000E+00 -0.00000000000E+00 -0.45593999997E+02  0.45594000000E+02  0.51100000000E-03 0.  1.
         23    2    1    2    0    0  0.00000000000E+00  0.00000000000E+00  0.71054273576E-14  0.91188000000E+02  0.91188000000E+02 0.  0.
    9900012    2    3    3    0    0  0.57737084030E+01  0.12097898757E+02  0.41278667271E+02  0.47787271496E+02  0.20000002058E+02 0.  0.
        -12    1    3    3    0    0 -0.57737084030E+01 -0.12097898757E+02 -0.41278667271E+02  0.43400728504E+02  0.00000000000E+00 0.  1.
         11    1    4    4    0    0  0.42529821479E+01  0.26714057293E+01  0.18587319496E+02  0.19253901216E+02  0.51100000000E-03 0. -1.
        -11    1    4    4    0    0  0.71106954502E+01  0.84300041632E+01  0.18254812902E+02  0.21327567942E+02  0.51100000000E-03 0.  1.
        -12    1    4    4    0    0 -0.55899691951E+01  0.99648886438E+00  0.44365348725E+01  0.72058023379E+01  0.00000000000E+00 0.  1.
</event>
<event>
 8    1  0.6239251E-010  0.9118800E+02  0.7816164E-02  0.1184000E+00
        -11   -1    0    0    0    0  0.00000000000E+00  0.00000000000E+00  0.45593999997E+02  0.45594000000E+02  0.51100000000E-03 0.  1.
         11   -1    0    0    0    0 -0.00000000000E+00 -0.00000000000E+00 -0.45593999997E+02  0.45594000000E+02  0.51100000000E-03 0. -1.
         23    2    1    2    0    0  0.35527136788E-14  0.71054273576E-14  0.00000000000E+00  0.91188000000E+02  0.91188000000E+02 0.  0.
    9900012    2    3    3    0    0 -0.19242871054E+02  0.34731987102E+02  0.17522103555E+02  0.47787272731E+02  0.20000007692E+02 0.  0.
        -12    1    3    3    0    0  0.19242871054E+02 -0.34731987102E+02 -0.17522103555E+02  0.43400727269E+02  0.00000000000E+00 0.  1.
         11    1    4    4    0    0 -0.10730661160E+01  0.10533996484E+02  0.99434423337E+01  0.14525446586E+02  0.51100000000E-03 0. -1.
        -11    1    4    4    0    0 -0.16716849694E+02  0.23578090192E+02  0.98148733559E+01  0.30523943717E+02  0.51100000000E-03 0.  1.
        -12    1    4    4    0    0 -0.14529552436E+01  0.61990042584E+00 -0.22362121349E+01  0.27378824281E+01  0.00000000000E+00 0.  1.
</event>
<event>
 8    1  0.6239251E-010  0.9118800E+02  0.7816164E-02  0.1184000E+00
        -11   -1    0    0    0    0  0.00000000000E+00  0.00000000000E+00  0.45593999997E+02  0.45594000000E+02  0.51100000000E-03 0. -1.
         11   -1    0    0    0    0 -0.00000000000E+00 -0.00000000000E+00 -0.45593999997E+02  0.45594000000E+02  0.51100000000E-03 0.  1.
         23    2    1    2    0    0  0.71054273576E-14  0.44408920985E-15  0.00000000000E+00  0.91188000000E+02  0.91188000000E+02 0.  0.
    9900012    2    3    3    0    0  0.41364516634E+02 -0.12125993115E+01  0.13081634306E+02  0.47787276624E+02  0.20000025441E+02 0.  0.
        -12    1    3    3    0    0 -0.41364516634E+02  0.12125993115E+01 -0.13081634306E+02  0.43400723376E+02  0.00000000000E+00 0.  1.
         11    1    4    4    0    0  0.10778670423E+02  0.13636796876E+01  0.13486716450E+01  0.10947980354E+02  0.51100000000E-03 0. -1.
        -11    1    4    4    0    0  0.12818286708E+02  0.52387212815E+01  0.10521476891E+02  0.17391209016E+02  0.51100000000E-03 0.  1.
        -12    1    4    4    0    0  0.17767559503E+02 -0.78150002807E+01  0.12114857692E+01  0.19448087254E+02  0.00000000000E+00 0.  1.
</event>
<event>
 8    1  0.6239251E-010  0.9118800E+02  0.7816164E-02  0.1184000E+00
        -11   -1    0    0    0    0  0.00000000000E+00  0.00000000000E+00  0.45593999997E+02  0.45594000000E+02  0.51100000000E-03 0. -1.
         11   -1    0    0    0    0 -0.00000000000E+00 -0.00000000000E+00 -0.45593999997E+02  0.45594000000E+02  0.51100000000E-03 0.  1.
         23    2    1    2    0    0 -0.44408920985E-15  0.00000000000E+00  0.00000000000E+00  0.91188000000E+02  0.91188000000E+02 0.  0.
    9900012    2    3    3    0    0  0.37537417075E+01 -0.39222455908E+02 -0.18197026797E+02  0.47787269494E+02  0.19999992929E+02 0.  0.
         12    1    3    3    0    0 -0.37537417075E+01  0.39222455908E+02  0.18197026797E+02  0.43400730506E+02  0.00000000000E+00 0. -1.
         11    1    4    4    0    0  0.10129073656E+01 -0.14162080998E+01 -0.20999736176E+01  0.27279142525E+01  0.51100000000E-03 0. -1.
        -11    1    4    4    0    0  0.59314977130E+01 -0.10234073894E+02  0.18983035663E+01  0.11980087240E+02  0.51100000000E-03 0.  1.
        -12    1    4    4    0    0 -0.31906633711E+01 -0.27572173915E+02 -0.17995356745E+02  0.33079268001E+02  0.00000000000E+00 0.  1.
</event>
<event>
 8    1  0.6239251E-010  0.9118800E+02  0.7816164E-02  0.1184000E+00
        -11   -1    0    0    0    0  0.00000000000E+00  0.00000000000E+00  0.45593999997E+02  0.45594000000E+02  0.51100000000E-03 0.  1.
         11   -1    0    0    0    0 -0.00000000000E+00 -0.00000000000E+00 -0.45593999997E+02  0.45594000000E+02  0.51100000000E-03 0. -1.
         23    2    1    2    0    0  0.00000000000E+00  0.35527136788E-14  0.35527136788E-14  0.91188000000E+02  0.91188000000E+02 0.  0.
    9900012    2    3    3    0    0 -0.25577290215E+02  0.21183715492E+02 -0.27940573778E+02  0.47787271437E+02  0.20000001790E+02 0.  0.
         12    1    3    3    0    0  0.25577290215E+02 -0.21183715492E+02  0.27940573778E+02  0.43400728563E+02  0.00000000000E+00 0. -1.
         11    1    4    4    0    0 -0.98291120093E+01  0.16183881559E+02 -0.90218556590E+01  0.20974349692E+02  0.51100000000E-03 0. -1.
        -11    1    4    4    0    0 -0.16660179854E+02  0.50448399156E+01 -0.19141587854E+02  0.25873005013E+02  0.51100000000E-03 0.  1.
        -12    1    4    4    0    0  0.91200164837E+00 -0.45005982617E-01  0.22286973551E+00  0.93991673254E+00  0.00000000000E+00 0.  1.
</event>
<event>
 8    1  0.6239251E-010  0.9118800E+02  0.7816164E-02  0.1184000E+00
        -11   -1    0    0    0    0  0.00000000000E+00  0.00000000000E+00  0.45593999997E+02  0.45594000000E+02  0.51100000000E-03 0.  1.
         11   -1    0    0    0    0 -0.00000000000E+00 -0.00000000000E+00 -0.45593999997E+02  0.45594000000E+02  0.51100000000E-03 0. -1.
         23    2    1    2    0    0  0.00000000000E+00  0.00000000000E+00  0.00000000000E+00  0.91188000000E+02  0.91188000000E+02 0.  0.
    9900012    2    3    3    0    0 -0.25048625042E+02  0.23966437335E+02 -0.26111294633E+02  0.47787269103E+02  0.19999991147E+02 0.  0.
         12    1    3    3    0    0  0.25048625042E+02 -0.23966437335E+02  0.26111294633E+02  0.43400730897E+02  0.00000000000E+00 0. -1.
         11    1    4    4    0    0 -0.13089658741E+01 -0.27855198720E+01 -0.16414408438E+01  0.34880999013E+01  0.51100000000E-03 0. -1.
        -11    1    4    4    0    0 -0.21552517717E+02  0.22175307463E+02 -0.24114483795E+02  0.39214329142E+02  0.51100000000E-03 0.  1.
         12    1    4    4    0    0 -0.21871414505E+01  0.45766497439E+01 -0.35536999350E+00  0.50848400599E+01  0.00000000000E+00 0. -1.
</event>
<event>
 8    1  0.6239251E-010  0.9118800E+02  0.7816164E-02  0.1184000E+00
        -11   -1    0    0    0    0  0.00000000000E+00  0.00000000000E+00  0.45593999997E+02  0.45594000000E+02  0.51100000000E-03 0. -1.
         11   -1    0    0    0    0 -0.00000000000E+00 -0.00000000000E+00 -0.45593999997E+02  0.45594000000E+02  0.51100000000E-03 0.  1.
         23    2    1    2    0    0  0.00000000000E+00  0.00000000000E+00  0.00000000000E+00  0.91188000000E+02  0.91188000000E+02 0.  0.
    9900012    2    3    3    0    0 -0.10735818661E+02 -0.12584766817E+01 -0.42033100941E+02  0.47787272580E+02  0.20000007000E+02 0.  0.
         12    1    3    3    0    0  0.10735818661E+02  0.12584766817E+01  0.42033100941E+02  0.43400727420E+02  0.00000000000E+00 0. -1.
         11    1    4    4    0    0  0.21724678680E+01  0.83578230813E+00  0.33197396165E+00  0.23512455585E+01  0.51100000000E-03 0. -1.
        -11    1    4    4    0    0 -0.10642634230E+02 -0.10335791248E+01 -0.41393629684E+02  0.42752386224E+02  0.51100000000E-03 0.  1.
        -12    1    4    4    0    0 -0.22656522991E+01 -0.10606798650E+01 -0.97144521857E+00  0.26836407973E+01  0.00000000000E+00 0.  1.
</event>
<event>
 8    1  0.6239251E-010  0.9118800E+02  0.7816164E-02  0.1184000E+00
        -11   -1    0    0    0    0  0.00000000000E+00  0.00000000000E+00  0.45593999997E+02  0.45594000000E+02  0.51100000000E-03 0. -1.
         11   -1    0    0    0    0 -0.00000000000E+00 -0.00000000000E+00 -0.45593999997E+02  0.45594000000E+02  0.51100000000E-03 0.  1.
         23    2    1    2    0    0  0.00000000000E+00  0.00000000000E+00 -0.35527136788E-14  0.91188000000E+02  0.91188000000E+02 0.  0.
    9900012    2    3    3    0    0  0.32407155506E+02  0.12382701115E+02  0.26078114543E+02  0.47787273358E+02  0.20000010550E+02 0.  0.
        -12    1    3    3    0    0 -0.32407155506E+02 -0.12382701115E+02 -0.26078114543E+02  0.43400726642E+02  0.00000000000E+00 0.  1.
         11    1    4    4    0    0  0.20710942599E+02  0.17124393867E+02  0.17218727853E+02  0.31916650792E+02  0.51100000000E-03 0. -1.
        -11    1    4    4    0    0  0.75763177756E+01 -0.11014282440E+01  0.47941919412E+01  0.90331617856E+01  0.51100000000E-03 0.  1.
         12    1    4    4    0    0  0.41198951309E+01 -0.36402645075E+01  0.40651947491E+01  0.68374607804E+01  0.00000000000E+00 0. -1.
</event>
<event>
 8    1  0.6239251E-010  0.9118800E+02  0.7816164E-02  0.1184000E+00
        -11   -1    0    0    0    0  0.00000000000E+00  0.00000000000E+00  0.45593999997E+02  0.45594000000E+02  0.51100000000E-03 0. -1.
         11   -1    0    0    0    0 -0.00000000000E+00 -0.00000000000E+00 -0.45593999997E+02  0.45594000000E+02  0.51100000000E-03 0.  1.
         23    2    1    2    0    0 -0.71054273576E-14  0.00000000000E+00 -0.17763568394E-14  0.91188000000E+02  0.91188000000E+02 0.  0.
    9900012    2    3    3    0    0  0.38350313948E+02 -0.15517367979E+02  0.13118229115E+02  0.47787271618E+02  0.20000002617E+02 0.  0.
        -12    1    3    3    0    0 -0.38350313948E+02  0.15517367979E+02 -0.13118229115E+02  0.43400728382E+02  0.00000000000E+00 0.  1.
         11    1    4    4    0    0  0.39401012113E+02 -0.16537802597E+02  0.12263969617E+02  0.44456086438E+02  0.51100000000E-03 0. -1.
        -11    1    4    4    0    0 -0.88514701633E+00  0.19264923803E+01  0.69664303946E-01  0.21212523443E+01  0.51100000000E-03 0.  1.
         12    1    4    4    0    0 -0.16555114877E+00 -0.90605776228E+00  0.78459519325E+00  0.12099328364E+01  0.00000000000E+00 0. -1.
</event>
<event>
 8    1  0.6239251E-010  0.9118800E+02  0.7816164E-02  0.1184000E+00
        -11   -1    0    0    0    0  0.00000000000E+00  0.00000000000E+00  0.45593999997E+02  0.45594000000E+02  0.51100000000E-03 0. -1.
         11   -1    0    0    0    0 -0.00000000000E+00 -0.00000000000E+00 -0.45593999997E+02  0.45594000000E+02  0.51100000000E-03 0.  1.
         23    2    1    2    0    0  0.17763568394E-14  0.00000000000E+00  0.00000000000E+00  0.91188000000E+02  0.91188000000E+02 0.  0.
    9900012    2    3    3    0    0  0.70431324614E+01 -0.16353439844E+02 -0.39580078555E+02  0.47787270421E+02  0.19999997156E+02 0.  0.
         12    1    3    3    0    0 -0.70431324614E+01  0.16353439844E+02  0.39580078555E+02  0.43400729579E+02  0.00000000000E+00 0. -1.
         11    1    4    4    0    0  0.52843649403E+01 -0.94502704928E+01 -0.29270314660E+02  0.31208707852E+02  0.51100000000E-03 0. -1.
        -11    1    4    4    0    0  0.14003224173E+01 -0.95621937750E+01 -0.56308461229E+01  0.11184939919E+02  0.51100000000E-03 0.  1.
        -12    1    4    4    0    0  0.35844510385E+00  0.26590244234E+01 -0.46789177715E+01  0.53936226499E+01  0.00000000000E+00 0.  1.
</event>
<event>
 8    1  0.6239251E-010  0.9118800E+02  0.7816164E-02  0.1184000E+00
        -11   -1    0    0    0    0  0.00000000000E+00  0.00000000000E+00  0.45593999997E+02  0.45594000000E+02  0.51100000000E-03 0.  1.
         11   -1    0    0    0    0 -0.00000000000E+00 -0.00000000000E+00 -0.45593999997E+02  0.45594000000E+02  0.51100000000E-03 0. -1.
         23    2    1    2    0    0 -0.71054273576E-14  0.17763568394E-14 -0.88817841970E-15  0.91188000000E+02  0.91188000000E+02 0.  0.
    9900012    2    3    3    0    0  0.40070757487E+02 -0.14928697162E+02  0.74223623164E+01  0.47787273429E+02  0.20000010871E+02 0.  0.
         12    1    3    3    0    0 -0.40070757487E+02  0.14928697162E+02 -0.74223623164E+01  0.43400726571E+02  0.00000000000E+00 0. -1.
         11    1    4    4    0    0  0.13953471973E+02 -0.91522007908E+01 -0.19215581376E+01  0.16797456514E+02  0.51100000000E-03 0. -1.
        -11    1    4    4    0    0  0.10283993777E+02  0.29685670341E+00  0.95397785231E+01  0.14030539064E+02  0.51100000000E-03 0.  1.
        -12    1    4    4    0    0  0.15833291738E+02 -0.60733530748E+01 -0.19585806920E+00  0.16959277851E+02  0.00000000000E+00 0.  1.
</event>
<event>
 8    1  0.6239251E-010  0.9118800E+02  0.7816164E-02  0.1184000E+00
        -11   -1    0    0    0    0  0.00000000000E+00  0.00000000000E+00  0.45593999997E+02  0.45594000000E+02  0.51100000000E-03 0. -1.
         11   -1    0    0    0    0 -0.00000000000E+00 -0.00000000000E+00 -0.45593999997E+02  0.45594000000E+02  0.51100000000E-03 0.  1.
         23    2    1    2    0    0  0.00000000000E+00  0.00000000000E+00  0.00000000000E+00  0.91188000000E+02  0.91188000000E+02 0.  0.
    9900012    2    3    3    0    0  0.36253797277E+02 -0.18921027332E+02 -0.14535483476E+02  0.47787269912E+02  0.19999994837E+02 0.  0.
         12    1    3    3    0    0 -0.36253797277E+02  0.18921027332E+02  0.14535483476E+02  0.43400730088E+02  0.00000000000E+00 0. -1.
         11    1    4    4    0    0  0.12356906436E+02  0.33143664298E+01 -0.40508717236E+01  0.13419676728E+02  0.51100000000E-03 0. -1.
        -11    1    4    4    0    0  0.14593378788E+02 -0.15054691828E+02 -0.71256511583E+01  0.22144646196E+02  0.51100000000E-03 0.  1.
         12    1    4    4    0    0  0.93035120527E+01 -0.71807019343E+01 -0.33589605939E+01  0.12222946987E+02  0.00000000000E+00 0. -1.
</event>
<event>
 8    1  0.6239251E-010  0.9118800E+02  0.7816164E-02  0.1184000E+00
        -11   -1    0    0    0    0  0.00000000000E+00  0.00000000000E+00  0.45593999997E+02  0.45594000000E+02  0.51100000000E-03 0. -1.
         11   -1    0    0    0    0 -0.00000000000E+00 -0.00000000000E+00 -0.45593999997E+02  0.45594000000E+02  0.51100000000E-03 0.  1.
         23    2    1    2    0    0  0.00000000000E+00  0.35527136788E-14  0.00000000000E+00  0.91188000000E+02  0.91188000000E+02 0.  0.
    9900012    2    3    3    0    0  0.20227483720E+02  0.31790254310E+02 -0.21537234370E+02  0.47787264626E+02  0.19999970734E+02 0.  0.
         12    1    3    3    0    0 -0.20227483720E+02 -0.31790254310E+02  0.21537234370E+02  0.43400735374E+02  0.00000000000E+00 0. -1.
         11    1    4    4    0    0  0.14297330221E+02  0.23367298649E+02 -0.75347456374E+01  0.28411559086E+02  0.51100000000E-03 0. -1.
        -11    1    4    4    0    0 -0.56315325579E+00  0.65716413194E+01 -0.77071058396E+01  0.10144116122E+02  0.51100000000E-03 0.  1.
         12    1    4    4    0    0  0.64933067544E+01  0.18513143413E+01 -0.62953828934E+01  0.92315894174E+01  0.00000000000E+00 0. -1.
</event>
<event>
 8    1  0.6239251E-010  0.9118800E+02  0.7816164E-02  0.1184000E+00
        -11   -1    0    0    0    0  0.00000000000E+00  0.00000000000E+00  0.45593999997E+02  0.45594000000E+02  0.51100000000E-03 0. -1.
         11   -1    0    0    0    0 -0.00000000000E+00 -0.00000000000E+00 -0.45593999997E+02  0.45594000000E+02  0.51100000000E-03 0.  1.
         23    2    1    2    0    0  0.00000000000E+00 -0.35527136788E-14  0.00000000000E+00  0.91188000000E+02  0.91188000000E+02 0.  0.
    9900012    2    3    3    0    0 -0.43163876802E+01  0.19253185586E+02  0.38656257150E+02  0.47787279099E+02  0.20000036726E+02 0.  0.
        -12    1    3    3    0    0  0.43163876802E+01 -0.19253185586E+02 -0.38656257150E+02  0.43400720901E+02  0.00000000000E+00 0.  1.
         11    1    4    4    0    0 -0.37801907714E+01  0.12038136943E+02  0.12326815189E+02  0.17639641615E+02  0.51100000000E-03 0. -1.
        -11    1    4    4    0    0  0.40032727454E+01 -0.77741832454E+00  0.29702728394E+01  0.50451058390E+01  0.51100000000E-03 0.  1.
        -12    1    4    4    0    0 -0.45394696542E+01  0.79924669680E+01  0.23359169122E+02  0.25102531646E+02  0.00000000000E+00 0.  1.
</event>
<event>
 8    1  0.6239251E-010  0.9118800E+02  0.7816164E-02  0.1184000E+00
        -11   -1    0    0    0    0  0.00000000000E+00  0.00000000000E+00  0.45593999997E+02  0.45594000000E+02  0.51100000000E-03 0. -1.
         11   -1    0    0    0    0 -0.00000000000E+00 -0.00000000000E+00 -0.45593999997E+02  0.45594000000E+02  0.51100000000E-03 0.  1.
         23    2    1    2    0    0  0.17763568394E-14  0.00000000000E+00  0.00000000000E+00  0.91188000000E+02  0.91188000000E+02 0.  0.
    9900012    2    3    3    0    0 -0.13235494678E+02 -0.11290719448E+02  0.39761347867E+02  0.47787269024E+02  0.19999990790E+02 0.  0.
        -12    1    3    3    0    0  0.13235494678E+02  0.11290719448E+02 -0.39761347867E+02  0.43400730976E+02  0.00000000000E+00 0.  1.
         11    1    4    4    0    0 -0.86367554346E+01 -0.11970559928E+01  0.24538136836E+02  0.26041248955E+02  0.51100000000E-03 0. -1.
        -11    1    4    4    0    0  0.17728943956E+01 -0.87635810272E+01  0.77179589078E+01  0.11811451940E+02  0.51100000000E-03 0.  1.
        -12    1    4    4    0    0 -0.63716336388E+01 -0.13300824280E+01  0.75052521227E+01  0.99345681294E+01  0.00000000000E+00 0.  1.
</event>
<event>
 8    1  0.6239251E-010  0.9118800E+02  0.7816164E-02  0.1184000E+00
        -11   -1    0    0    0    0  0.00000000000E+00  0.00000000000E+00  0.45593999997E+02  0.45594000000E+02  0.51100000000E-03 0. -1.
         11   -1    0    0    0    0 -0.00000000000E+00 -0.00000000000E+00 -0.45593999997E+02  0.45594000000E+02  0.51100000000E-03 0.  1.
         23    2    1    2    0    0 -0.35527136788E-14  0.35527136788E-14  0.71054273576E-14  0.91188000000E+02  0.91188000000E+02 0.  0.
    9900012    2    3    3    0    0  0.28727138597E+02 -0.24093226824E+02 -0.21860729917E+02  0.47787267480E+02  0.19999983748E+02 0.  0.
         12    1    3    3    0    0 -0.28727138597E+02  0.24093226824E+02  0.21860729917E+02  0.43400732520E+02  0.00000000000E+00 0. -1.
         11    1    4    4    0    0  0.19986571077E+01 -0.67154661217E+01 -0.25080786964E+01  0.74419469546E+01  0.51100000000E-03 0.  1.
        -11    1    4    4    0    0  0.70393656069E+01 -0.58396959782E+01  0.16930170209E+01  0.93016678160E+01  0.51100000000E-03 0. -1.
        -12    1    4    4    0    0  0.19689115882E+02 -0.11538064724E+02 -0.21045668242E+02  0.31043652709E+02  0.00000000000E+00 0.  1.
</event>
<event>
 8    1  0.6239251E-010  0.9118800E+02  0.7816164E-02  0.1184000E+00
        -11   -1    0    0    0    0  0.00000000000E+00  0.00000000000E+00  0.45593999997E+02  0.45594000000E+02  0.51100000000E-03 0. -1.
         11   -1    0    0    0    0 -0.00000000000E+00 -0.00000000000E+00 -0.45593999997E+02  0.45594000000E+02  0.51100000000E-03 0.  1.
         23    2    1    2    0    0 -0.35527136788E-14  0.17763568394E-14  0.35527136788E-14  0.91188000000E+02  0.91188000000E+02 0.  0.
    9900012    2    3    3    0    0  0.25858286666E+02  0.14952649323E+02  0.31486350615E+02  0.47787274360E+02  0.20000015116E+02 0.  0.
        -12    1    3    3    0    0 -0.25858286666E+02 -0.14952649323E+02 -0.31486350615E+02  0.43400725640E+02  0.00000000000E+00 0.  1.
         11    1    4    4    0    0  0.13005850875E+02  0.21720440584E+01  0.77308872750E+01  0.15285174212E+02  0.51100000000E-03 0. -1.
        -11    1    4    4    0    0  0.24309212487E+01  0.10943390378E+02  0.91746606076E+01  0.14485909312E+02  0.51100000000E-03 0.  1.
        -12    1    4    4    0    0  0.10421514542E+02  0.18372148862E+01  0.14580802732E+02  0.18016190835E+02  0.00000000000E+00 0.  1.
</event>
<event>
 8    1  0.6239251E-010  0.9118800E+02  0.7816164E-02  0.1184000E+00
        -11   -1    0    0    0    0  0.00000000000E+00  0.00000000000E+00  0.45593999997E+02  0.45594000000E+02  0.51100000000E-03 0. -1.
         11   -1    0    0    0    0 -0.00000000000E+00 -0.00000000000E+00 -0.45593999997E+02  0.45594000000E+02  0.51100000000E-03 0.  1.
         23    2    1    2    0    0  0.11102230246E-15  0.17763568394E-14  0.00000000000E+00  0.91188000000E+02  0.91188000000E+02 0.  0.
    9900012    2    3    3    0    0  0.53989592505E+00 -0.99646439460E+01 -0.42237893572E+02  0.47787248048E+02  0.19999895149E+02 0.  0.
         12    1    3    3    0    0 -0.53989592505E+00  0.99646439460E+01  0.42237893572E+02  0.43400751952E+02  0.00000000000E+00 0. -1.
         11    1    4    4    0    0  0.11406188694E+01 -0.10469963942E+02 -0.13962051610E+02  0.17488854787E+02  0.51100000000E-03 0. -1.
        -11    1    4    4    0    0  0.92542985089E+00  0.51307087138E+01 -0.88520826366E+01  0.10273264310E+02  0.51100000000E-03 0.  1.
        -12    1    4    4    0    0 -0.15261527952E+01 -0.46253887180E+01 -0.19423759326E+02  0.20025128951E+02  0.00000000000E+00 0.  1.
</event>
<event>
 8    1  0.6239251E-010  0.9118800E+02  0.7816164E-02  0.1184000E+00
        -11   -1    0    0    0    0  0.00000000000E+00  0.00000000000E+00  0.45593999997E+02  0.45594000000E+02  0.51100000000E-03 0. -1.
         11   -1    0    0    0    0 -0.00000000000E+00 -0.00000000000E+00 -0.45593999997E+02  0.45594000000E+02  0.51100000000E-03 0.  1.
         23    2    1    2    0    0  0.88817841970E-15  0.00000000000E+00  0.00000000000E+00  0.91188000000E+02  0.91188000000E+02 0.  0.
    9900012    2    3    3    0    0 -0.79559427288E+01  0.27321237764E+02 -0.32770037298E+02  0.47787281087E+02  0.20000045790E+02 0.  0.
         12    1    3    3    0    0  0.79559427288E+01 -0.27321237764E+02  0.32770037298E+02  0.43400718913E+02  0.00000000000E+00 0. -1.
         11    1    4    4    0    0  0.40752677619E+01  0.14291614419E+02 -0.19383661818E+02  0.24425077191E+02  0.51100000000E-03 0. -1.
        -11    1    4    4    0    0 -0.57279503555E+01  0.98314592448E+01 -0.50950952174E+01  0.12467036604E+02  0.51100000000E-03 0.  1.
         12    1    4    4    0    0 -0.63032601352E+01  0.31981640999E+01 -0.82912802624E+01  0.10895167293E+02  0.00000000000E+00 0. -1.
</event>
<event>
 8    1  0.6239251E-010  0.9118800E+02  0.7816164E-02  0.1184000E+00
        -11   -1    0    0    0    0  0.00000000000E+00  0.00000000000E+00  0.45593999997E+02  0.45594000000E+02  0.51100000000E-03 0. -1.
         11   -1    0    0    0    0 -0.00000000000E+00 -0.00000000000E+00 -0.45593999997E+02  0.45594000000E+02  0.51100000000E-03 0.  1.
         23    2    1    2    0    0  0.77715611724E-15  0.00000000000E+00  0.00000000000E+00  0.91188000000E+02  0.91188000000E+02 0.  0.
    9900012    2    3    3    0    0 -0.51255952005E+00 -0.20045873024E+02  0.38490559315E+02  0.47787275364E+02  0.20000019696E+02 0.  0.
        -12    1    3    3    0    0  0.51255952005E+00  0.20045873024E+02 -0.38490559315E+02  0.43400724636E+02  0.00000000000E+00 0.  1.
         11    1    4    4    0    0  0.33129057297E+01 -0.96683347037E+01  0.96975089943E+01  0.14088779978E+02  0.51100000000E-03 0. -1.
        -11    1    4    4    0    0 -0.50969818338E+01 -0.11864087894E+02  0.28986761980E+02  0.31732761868E+02  0.51100000000E-03 0.  1.
        -12    1    4    4    0    0  0.12715165840E+01  0.14865495739E+01 -0.19371166003E+00  0.19657335186E+01  0.00000000000E+00 0.  1.
</event>
<event>
 8    1  0.6239251E-010  0.9118800E+02  0.7816164E-02  0.1184000E+00
        -11   -1    0    0    0    0  0.00000000000E+00  0.00000000000E+00  0.45593999997E+02  0.45594000000E+02  0.51100000000E-03 0. -1.
         11   -1    0    0    0    0 -0.00000000000E+00 -0.00000000000E+00 -0.45593999997E+02  0.45594000000E+02  0.51100000000E-03 0.  1.
         23    2    1    2    0    0  0.00000000000E+00  0.71054273576E-14  0.00000000000E+00  0.91188000000E+02  0.91188000000E+02 0.  0.
    9900012    2    3    3    0    0 -0.14555904669E+02 -0.34142860339E+02 -0.22494759624E+02  0.47787268631E+02  0.19999988994E+02 0.  0.
         12    1    3    3    0    0  0.14555904669E+02  0.34142860339E+02  0.22494759624E+02  0.43400731369E+02  0.00000000000E+00 0. -1.
         11    1    4    4    0    0  0.28696729496E+00  0.13566422792E+01 -0.30985846941E+01  0.33947099832E+01  0.51100000000E-03 0. -1.
        -11    1    4    4    0    0 -0.11016628424E+02 -0.29419943376E+02 -0.19906652622E+02  0.37191047161E+02  0.51100000000E-03 0.  1.
        -12    1    4    4    0    0 -0.38262435398E+01 -0.60795592428E+01  0.51047769276E+00  0.72015114863E+01  0.00000000000E+00 0.  1.
</event>
<event>
 8    1  0.6239251E-010  0.9118800E+02  0.7816164E-02  0.1184000E+00
        -11   -1    0    0    0    0  0.00000000000E+00  0.00000000000E+00  0.45593999997E+02  0.45594000000E+02  0.51100000000E-03 0. -1.
         11   -1    0    0    0    0 -0.00000000000E+00 -0.00000000000E+00 -0.45593999997E+02  0.45594000000E+02  0.51100000000E-03 0.  1.
         23    2    1    2    0    0  0.17763568394E-14  0.00000000000E+00 -0.88817841970E-15  0.91188000000E+02  0.91188000000E+02 0.  0.
    9900012    2    3    3    0    0 -0.65476282476E+01 -0.42341176055E+02  0.69265284781E+01  0.47787269336E+02  0.19999992210E+02 0.  0.
        -12    1    3    3    0    0  0.65476282476E+01  0.42341176055E+02 -0.69265284781E+01  0.43400730664E+02  0.00000000000E+00 0.  1.
         11    1    4    4    0    0 -0.11737643177E+01 -0.34670770334E+02  0.53079321332E+01  0.35094361114E+02  0.51100000000E-03 0. -1.
        -11    1    4    4    0    0 -0.95062346710E-01 -0.53245529438E+01 -0.22067940199E+01  0.57645330260E+01  0.51100000000E-03 0.  1.
         12    1    4    4    0    0 -0.52788015832E+01 -0.23458527773E+01  0.38253903647E+01  0.69283751955E+01  0.00000000000E+00 0. -1.
</event>
<event>
 8    1  0.6239251E-010  0.9118800E+02  0.7816164E-02  0.1184000E+00
        -11   -1    0    0    0    0  0.00000000000E+00  0.00000000000E+00  0.45593999997E+02  0.45594000000E+02  0.51100000000E-03 0. -1.
         11   -1    0    0    0    0 -0.00000000000E+00 -0.00000000000E+00 -0.45593999997E+02  0.45594000000E+02  0.51100000000E-03 0.  1.
         23    2    1    2    0    0  0.35527136788E-14  0.35527136788E-14  0.00000000000E+00  0.91188000000E+02  0.91188000000E+02 0.  0.
    9900012    2    3    3    0    0 -0.23381065924E+02 -0.17620893478E+02 -0.32038312770E+02  0.47787267105E+02  0.19999982036E+02 0.  0.
         12    1    3    3    0    0  0.23381065924E+02  0.17620893478E+02  0.32038312770E+02  0.43400732895E+02  0.00000000000E+00 0. -1.
         11    1    4    4    0    0 -0.79474697022E+01 -0.11004520230E+02 -0.20360074532E+02  0.24470275343E+02  0.51100000000E-03 0. -1.
        -11    1    4    4    0    0 -0.63516292338E+01 -0.52000545847E+01 -0.11492875407E+02  0.14123382987E+02  0.51100000000E-03 0.  1.
         12    1    4    4    0    0 -0.90819669879E+01 -0.14163186637E+01 -0.18536283128E+00  0.91936087749E+01  0.00000000000E+00 0. -1.
</event>
<event>
 8    1  0.6239251E-010  0.9118800E+02  0.7816164E-02  0.1184000E+00
        -11   -1    0    0    0    0  0.00000000000E+00  0.00000000000E+00  0.45593999997E+02  0.45594000000E+02  0.51100000000E-03 0.  1.
         11   -1    0    0    0    0 -0.00000000000E+00 -0.00000000000E+00 -0.45593999997E+02  0.45594000000E+02  0.51100000000E-03 0. -1.
         23    2    1    2    0    0 -0.71054273576E-14  0.00000000000E+00 -0.17763568394E-14  0.91188000000E+02  0.91188000000E+02 0.  0.
    9900012    2    3    3    0    0  0.39433214660E+02 -0.10448117760E+02 -0.14814905213E+02  0.47787274204E+02  0.20000014405E+02 0.  0.
         12    1    3    3    0    0 -0.39433214660E+02  0.10448117760E+02  0.14814905213E+02  0.43400725796E+02  0.00000000000E+00 0. -1.
         11    1    4    4    0    0  0.11530538745E+02 -0.59545963195E+01  0.22727628411E+01  0.13174824184E+02  0.51100000000E-03 0. -1.
        -11    1    4    4    0    0  0.82192013299E+01 -0.58842007666E+01 -0.36871554725E+01  0.10759842234E+02  0.51100000000E-03 0.  1.
         12    1    4    4    0    0  0.19683474585E+02  0.13906793265E+01 -0.13400512581E+02  0.23852607786E+02  0.00000000000E+00 0. -1.
</event>
<event>
 8    1  0.6239251E-010  0.9118800E+02  0.7816164E-02  0.1184000E+00
        -11   -1    0    0    0    0  0.00000000000E+00  0.00000000000E+00  0.45593999997E+02  0.45594000000E+02  0.51100000000E-03 0. -1.
         11   -1    0    0    0    0 -0.00000000000E+00 -0.00000000000E+00 -0.45593999997E+02  0.45594000000E+02  0.51100000000E-03 0.  1.
         23    2    1    2    0    0  0.00000000000E+00  0.00000000000E+00  0.00000000000E+00  0.91188000000E+02  0.91188000000E+02 0.  0.
    9900012    2    3    3    0    0  0.17951834225E+02 -0.16730266419E+02 -0.35797389789E+02  0.47787270949E+02  0.19999999564E+02 0.  0.
         12    1    3    3    0    0 -0.17951834225E+02  0.16730266419E+02  0.35797389789E+02  0.43400729051E+02  0.00000000000E+00 0. -1.
         11    1    4    4    0    0  0.10142838594E+02 -0.77943363434E-01 -0.12628372940E+02  0.16197501452E+02  0.51100000000E-03 0. -1.
        -11    1    4    4    0    0  0.88987798186E+01 -0.16465792389E+02 -0.23830112253E+02  0.30301565166E+02  0.51100000000E-03 0.  1.
        -12    1    4    4    0    0 -0.10897841876E+01 -0.18653066641E+00  0.66109540430E+00  0.12882043310E+01  0.00000000000E+00 0.  1.
</event>
<event>
 8    1  0.6239251E-010  0.9118800E+02  0.7816164E-02  0.1184000E+00
        -11   -1    0    0    0    0  0.00000000000E+00  0.00000000000E+00  0.45593999997E+02  0.45594000000E+02  0.51100000000E-03 0. -1.
         11   -1    0    0    0    0 -0.00000000000E+00 -0.00000000000E+00 -0.45593999997E+02  0.45594000000E+02  0.51100000000E-03 0.  1.
         23    2    1    2    0    0 -0.88817841970E-15  0.17763568394E-14  0.00000000000E+00  0.91188000000E+02  0.91188000000E+02 0.  0.
    9900012    2    3    3    0    0 -0.59718690529E+01  0.14800962254E+02 -0.40359532755E+02  0.47787267427E+02  0.19999983507E+02 0.  0.
         12    1    3    3    0    0  0.59718690529E+01 -0.14800962254E+02  0.40359532755E+02  0.43400732573E+02  0.00000000000E+00 0. -1.
         11    1    4    4    0    0  0.35057405073E+01 -0.26716503830E+01 -0.30463662171E+01  0.53580107935E+01  0.51100000000E-03 0. -1.
        -11    1    4    4    0    0 -0.91837484695E+01  0.14428031734E+02 -0.32522988839E+02  0.36745804372E+02  0.51100000000E-03 0.  1.
         12    1    4    4    0    0 -0.29386109075E+00  0.30445809037E+01 -0.47901776987E+01  0.56834522612E+01  0.00000000000E+00 0. -1.
</event>
<event>
 8    1  0.6239251E-010  0.9118800E+02  0.7816164E-02  0.1184000E+00
        -11   -1    0    0    0    0  0.00000000000E+00  0.00000000000E+00  0.45593999997E+02  0.45594000000E+02  0.51100000000E-03 0. -1.
         11   -1    0    0    0    0 -0.00000000000E+00 -0.00000000000E+00 -0.45593999997E+02  0.45594000000E+02  0.51100000000E-03 0.  1.
         23    2    1    2    0    0  0.00000000000E+00  0.00000000000E+00  0.00000000000E+00  0.91188000000E+02  0.91188000000E+02 0.  0.
    9900012    2    3    3    0    0  0.34854936684E+02 -0.11849654930E+02  0.22985701169E+02  0.47787269689E+02  0.19999993822E+02 0.  0.
        -12    1    3    3    0    0 -0.34854936684E+02  0.11849654930E+02 -0.22985701169E+02  0.43400730311E+02  0.00000000000E+00 0.  1.
         11    1    4    4    0    0  0.27973501533E+01 -0.43834934163E+01 -0.19919047630E+01  0.55684708185E+01  0.51100000000E-03 0.  1.
        -11    1    4    4    0    0  0.24313381056E+02 -0.19150296864E+01  0.19518468376E+02  0.31237452602E+02  0.51100000000E-03 0. -1.
         12    1    4    4    0    0  0.77442054757E+01 -0.55511318278E+01  0.54591375565E+01  0.10981346269E+02  0.00000000000E+00 0. -1.
</event>
<event>
 8    1  0.6239251E-010  0.9118800E+02  0.7816164E-02  0.1184000E+00
        -11   -1    0    0    0    0  0.00000000000E+00  0.00000000000E+00  0.45593999997E+02  0.45594000000E+02  0.51100000000E-03 0. -1.
         11   -1    0    0    0    0 -0.00000000000E+00 -0.00000000000E+00 -0.45593999997E+02  0.45594000000E+02  0.51100000000E-03 0.  1.
         23    2    1    2    0    0  0.00000000000E+00 -0.17763568394E-14  0.00000000000E+00  0.91188000000E+02  0.91188000000E+02 0.  0.
    9900012    2    3    3    0    0 -0.29017336595E+02  0.11174368753E+02  0.30277895004E+02  0.47787271136E+02  0.20000000416E+02 0.  0.
        -12    1    3    3    0    0  0.29017336595E+02 -0.11174368753E+02 -0.30277895004E+02  0.43400728864E+02  0.00000000000E+00 0.  1.
         11    1    4    4    0    0 -0.12216273268E+02  0.77654683274E+01  0.52929734052E+01  0.15412832272E+02  0.51100000000E-03 0. -1.
        -11    1    4    4    0    0 -0.10727230965E+02 -0.22339532206E+01  0.19701189653E+02  0.22543311762E+02  0.51100000000E-03 0.  1.
        -12    1    4    4    0    0 -0.60738323615E+01  0.56428536459E+01  0.52837319451E+01  0.98311271018E+01  0.00000000000E+00 0.  1.
</event>
<event>
 8    1  0.6239251E-010  0.9118800E+02  0.7816164E-02  0.1184000E+00
        -11   -1    0    0    0    0  0.00000000000E+00  0.00000000000E+00  0.45593999997E+02  0.45594000000E+02  0.51100000000E-03 0. -1.
         11   -1    0    0    0    0 -0.00000000000E+00 -0.00000000000E+00 -0.45593999997E+02  0.45594000000E+02  0.51100000000E-03 0.  1.
         23    2    1    2    0    0  0.17763568394E-14  0.35527136788E-14  0.00000000000E+00  0.91188000000E+02  0.91188000000E+02 0.  0.
    9900012    2    3    3    0    0 -0.11026995657E+02 -0.27838460460E+02  0.31417342711E+02  0.47787263404E+02  0.19999965166E+02 0.  0.
        -12    1    3    3    0    0  0.11026995657E+02  0.27838460460E+02 -0.31417342711E+02  0.43400736596E+02  0.00000000000E+00 0.  1.
         11    1    4    4    0    0 -0.14802941045E+02 -0.23075254425E+02  0.24980464008E+02  0.37089324781E+02  0.51100000000E-03 0. -1.
        -11    1    4    4    0    0  0.35488897302E+01 -0.61467055264E+01  0.49433901645E+01  0.86494921079E+01  0.51100000000E-03 0.  1.
         12    1    4    4    0    0  0.22705565748E+00  0.13834994913E+01  0.14934885382E+01  0.20484465157E+01  0.00000000000E+00 0. -1.
</event>
<event>
 8    1  0.6239251E-010  0.9118800E+02  0.7816164E-02  0.1184000E+00
        -11   -1    0    0    0    0  0.00000000000E+00  0.00000000000E+00  0.45593999997E+02  0.45594000000E+02  0.51100000000E-03 0. -1.
         11   -1    0    0    0    0 -0.00000000000E+00 -0.00000000000E+00 -0.45593999997E+02  0.45594000000E+02  0.51100000000E-03 0.  1.
         23    2    1    2    0    0 -0.71054273576E-14  0.00000000000E+00  0.00000000000E+00  0.91188000000E+02  0.91188000000E+02 0.  0.
    9900012    2    3    3    0    0  0.28057595265E+02 -0.19753807135E+02 -0.26574080824E+02  0.47787270512E+02  0.19999997574E+02 0.  0.
         12    1    3    3    0    0 -0.28057595265E+02  0.19753807135E+02  0.26574080824E+02  0.43400729488E+02  0.00000000000E+00 0. -1.
         11    1    4    4    0    0  0.20606024795E+02 -0.20639877229E+02 -0.25929000177E+02  0.39024682450E+02  0.51100000000E-03 0.  1.
        -11    1    4    4    0    0  0.77356461607E+01 -0.45165676061E-01 -0.34370879278E+00  0.77434099373E+01  0.51100000000E-03 0. -1.
        -12    1    4    4    0    0 -0.28407569013E+00  0.93123576963E+00 -0.30137185458E+00  0.10191781253E+01  0.00000000000E+00 0.  1.
</event>
<event>
 8    1  0.6239251E-010  0.9118800E+02  0.7816164E-02  0.1184000E+00
        -11   -1    0    0    0    0  0.00000000000E+00  0.00000000000E+00  0.45593999997E+02  0.45594000000E+02  0.51100000000E-03 0. -1.
         11   -1    0    0    0    0 -0.00000000000E+00 -0.00000000000E+00 -0.45593999997E+02  0.45594000000E+02  0.51100000000E-03 0.  1.
         23    2    1    2    0    0  0.00000000000E+00  0.00000000000E+00  0.00000000000E+00  0.91188000000E+02  0.91188000000E+02 0.  0.
    9900012    2    3    3    0    0  0.32984598046E+02 -0.20820612464E+02  0.19030016764E+02  0.47787272475E+02  0.20000006524E+02 0.  0.
        -12    1    3    3    0    0 -0.32984598046E+02  0.20820612464E+02 -0.19030016764E+02  0.43400727525E+02  0.00000000000E+00 0.  1.
         11    1    4    4    0    0 -0.91810621980E-01 -0.75526342872E+01  0.38354331957E+01  0.84712019175E+01  0.51100000000E-03 0. -1.
        -11    1    4    4    0    0  0.21067123195E+02 -0.67289142350E+01  0.62701075067E+01  0.22987305516E+02  0.51100000000E-03 0.  1.
        -12    1    4    4    0    0  0.12009285473E+02 -0.65390639420E+01  0.89244760620E+01  0.16328765042E+02  0.00000000000E+00 0.  1.
</event>
<event>
 8    1  0.6239251E-010  0.9118800E+02  0.7816164E-02  0.1184000E+00
        -11   -1    0    0    0    0  0.00000000000E+00  0.00000000000E+00  0.45593999997E+02  0.45594000000E+02  0.51100000000E-03 0.  1.
         11   -1    0    0    0    0 -0.00000000000E+00 -0.00000000000E+00 -0.45593999997E+02  0.45594000000E+02  0.51100000000E-03 0. -1.
         23    2    1    2    0    0  0.35527136788E-14  0.00000000000E+00  0.00000000000E+00  0.91188000000E+02  0.91188000000E+02 0.  0.
    9900012    2    3    3    0    0 -0.24276581006E+02 -0.34932003171E+02 -0.86038475886E+01  0.47787269313E+02  0.19999992104E+02 0.  0.
         12    1    3    3    0    0  0.24276581006E+02  0.34932003171E+02  0.86038475886E+01  0.43400730687E+02  0.00000000000E+00 0. -1.
         11    1    4    4    0    0 -0.17306753457E+02 -0.19273786394E+02 -0.69644821168E+00  0.25913077732E+02  0.51100000000E-03 0. -1.
        -11    1    4    4    0    0  0.13941886348E+01 -0.86787028874E+01 -0.71199602783E+00  0.88187631991E+01  0.51100000000E-03 0.  1.
         12    1    4    4    0    0 -0.83640161842E+01 -0.69795138892E+01 -0.71954033491E+01  0.13055428381E+02  0.00000000000E+00 0. -1.
</event>
<event>
 8    1  0.6239251E-010  0.9118800E+02  0.7816164E-02  0.1184000E+00
        -11   -1    0    0    0    0  0.00000000000E+00  0.00000000000E+00  0.45593999997E+02  0.45594000000E+02  0.51100000000E-03 0. -1.
         11   -1    0    0    0    0 -0.00000000000E+00 -0.00000000000E+00 -0.45593999997E+02  0.45594000000E+02  0.51100000000E-03 0.  1.
         23    2    1    2    0    0  0.00000000000E+00  0.00000000000E+00  0.00000000000E+00  0.91188000000E+02  0.91188000000E+02 0.  0.
    9900012    2    3    3    0    0  0.41846932721E+01  0.11897443296E+02 -0.41527853025E+02  0.47787269688E+02  0.19999993816E+02 0.  0.
         12    1    3    3    0    0 -0.41846932721E+01 -0.11897443296E+02  0.41527853025E+02  0.43400730312E+02  0.00000000000E+00 0. -1.
         11    1    4    4    0    0 -0.23526182184E+01  0.17683370135E+01 -0.31043418816E+01  0.42777058167E+01  0.51100000000E-03 0.  1.
        -11    1    4    4    0    0 -0.16434167212E+01 -0.38523589920E+01 -0.88175937041E+01  0.97617338273E+01  0.51100000000E-03 0. -1.
        -12    1    4    4    0    0  0.81807282117E+01  0.13981465274E+02 -0.29605917439E+02  0.33747830044E+02  0.00000000000E+00 0.  1.
</event>
<event>
 8    1  0.6239251E-010  0.9118800E+02  0.7816164E-02  0.1184000E+00
        -11   -1    0    0    0    0  0.00000000000E+00  0.00000000000E+00  0.45593999997E+02  0.45594000000E+02  0.51100000000E-03 0. -1.
         11   -1    0    0    0    0 -0.00000000000E+00 -0.00000000000E+00 -0.45593999997E+02  0.45594000000E+02  0.51100000000E-03 0.  1.
         23    2    1    2    0    0  0.00000000000E+00  0.00000000000E+00  0.00000000000E+00  0.91188000000E+02  0.91188000000E+02 0.  0.
    9900012    2    3    3    0    0 -0.22316797740E+02 -0.13675573350E+02  0.34620262771E+02  0.47787270027E+02  0.19999995362E+02 0.  0.
        -12    1    3    3    0    0  0.22316797740E+02  0.13675573350E+02 -0.34620262771E+02  0.43400729973E+02  0.00000000000E+00 0.  1.
         11    1    4    4    0    0 -0.16545132148E+02 -0.13145256803E+02  0.20745849141E+02  0.29612994294E+02  0.51100000000E-03 0. -1.
        -11    1    4    4    0    0 -0.33150234097E+01  0.27314523332E+01  0.13390175778E+02  0.14062255142E+02  0.51100000000E-03 0.  1.
         12    1    4    4    0    0 -0.24566421828E+01 -0.32617688806E+01  0.48423785198E+00  0.41120205911E+01  0.00000000000E+00 0. -1.
</event>
<event>
 8    1  0.6239251E-010  0.9118800E+02  0.7816164E-02  0.1184000E+00
        -11   -1    0    0    0    0  0.00000000000E+00  0.00000000000E+00  0.45593999997E+02  0.45594000000E+02  0.51100000000E-03 0.  1.
         11   -1    0    0    0    0 -0.00000000000E+00 -0.00000000000E+00 -0.45593999997E+02  0.45594000000E+02  0.51100000000E-03 0. -1.
         23    2    1    2    0    0  0.00000000000E+00  0.00000000000E+00  0.00000000000E+00  0.91188000000E+02  0.91188000000E+02 0.  0.
    9900012    2    3    3    0    0 -0.31173087076E+02 -0.21310234725E+02  0.21394706714E+02  0.47787297963E+02  0.20000122733E+02 0.  0.
        -12    1    3    3    0    0  0.31173087076E+02  0.21310234725E+02 -0.21394706714E+02  0.43400702037E+02  0.00000000000E+00 0.  1.
         11    1    4    4    0    0 -0.26961025776E+02 -0.11968792172E+02  0.13562238140E+02  0.32466647510E+02  0.51100000000E-03 0. -1.
        -11    1    4    4    0    0 -0.62305945637E+00  0.92857108657E-01  0.47141413935E+01  0.47560440356E+01  0.51100000000E-03 0.  1.
         12    1    4    4    0    0 -0.35890018441E+01 -0.94342996620E+01  0.31183271805E+01  0.10564606417E+02  0.00000000000E+00 0. -1.
</event>
<event>
 8    1  0.6239251E-010  0.9118800E+02  0.7816164E-02  0.1184000E+00
        -11   -1    0    0    0    0  0.00000000000E+00  0.00000000000E+00  0.45593999997E+02  0.45594000000E+02  0.51100000000E-03 0.  1.
         11   -1    0    0    0    0 -0.00000000000E+00 -0.00000000000E+00 -0.45593999997E+02  0.45594000000E+02  0.51100000000E-03 0. -1.
         23    2    1    2    0    0 -0.71054273576E-14  0.88817841970E-15  0.35527136788E-14  0.91188000000E+02  0.91188000000E+02 0.  0.
    9900012    2    3    3    0    0 -0.38512837594E+02  0.44403172491E+01 -0.19510721780E+02  0.47787270269E+02  0.19999996464E+02 0.  0.
         12    1    3    3    0    0  0.38512837594E+02 -0.44403172491E+01  0.19510721780E+02  0.43400729731E+02  0.00000000000E+00 0. -1.
         11    1    4    4    0    0 -0.12604317259E+02 -0.52642485019E+01 -0.41154600806E+01  0.14265978333E+02  0.51100000000E-03 0.  1.
        -11    1    4    4    0    0 -0.48268530379E+01  0.70176495702E+01 -0.47416265807E+01  0.97482787522E+01  0.51100000000E-03 0. -1.
         12    1    4    4    0    0 -0.21081667297E+02  0.26869161808E+01 -0.10653635119E+02  0.23773013184E+02  0.00000000000E+00 0. -1.
</event>
<event>
 8    1  0.6239251E-010  0.9118800E+02  0.7816164E-02  0.1184000E+00
        -11   -1    0    0    0    0  0.00000000000E+00  0.00000000000E+00  0.45593999997E+02  0.45594000000E+02  0.51100000000E-03 0. -1.
         11   -1    0    0    0    0 -0.00000000000E+00 -0.00000000000E+00 -0.45593999997E+02  0.45594000000E+02  0.51100000000E-03 0.  1.
         23    2    1    2    0    0  0.17763568394E-14  0.00000000000E+00  0.00000000000E+00  0.91188000000E+02  0.91188000000E+02 0.  0.
    9900012    2    3    3    0    0  0.10148382480E+02  0.17027032721E+02  0.38609778338E+02  0.47787256993E+02  0.19999935934E+02 0.  0.
        -12    1    3    3    0    0 -0.10148382480E+02 -0.17027032721E+02 -0.38609778338E+02  0.43400743007E+02  0.00000000000E+00 0.  1.
         11    1    4    4    0    0  0.36705732478E+01  0.43860802445E+00  0.10244202172E+02  0.10890783414E+02  0.51100000000E-03 0. -1.
        -11    1    4    4    0    0  0.93759871260E+01  0.55091737069E+01  0.19820349260E+02  0.22607661856E+02  0.51100000000E-03 0.  1.
        -12    1    4    4    0    0 -0.28981778937E+01  0.11079250990E+02  0.85452269055E+01  0.14288811723E+02  0.00000000000E+00 0.  1.
</event>
<event>
 8    1  0.6239251E-010  0.9118800E+02  0.7816164E-02  0.1184000E+00
        -11   -1    0    0    0    0  0.00000000000E+00  0.00000000000E+00  0.45593999997E+02  0.45594000000E+02  0.51100000000E-03 0. -1.
         11   -1    0    0    0    0 -0.00000000000E+00 -0.00000000000E+00 -0.45593999997E+02  0.45594000000E+02  0.51100000000E-03 0.  1.
         23    2    1    2    0    0  0.00000000000E+00  0.00000000000E+00  0.00000000000E+00  0.91188000000E+02  0.91188000000E+02 0.  0.
    9900012    2    3    3    0    0  0.37343400133E+02 -0.97528760267E+01  0.19848806087E+02  0.47787271580E+02  0.20000002443E+02 0.  0.
        -12    1    3    3    0    0 -0.37343400133E+02  0.97528760267E+01 -0.19848806087E+02  0.43400728420E+02  0.00000000000E+00 0.  1.
         11    1    4    4    0    0  0.16160515675E+02 -0.27810795897E+01  0.58670341105E+00  0.16408561537E+02  0.51100000000E-03 0. -1.
        -11    1    4    4    0    0  0.18231330847E+02 -0.26694667793E+01  0.18491859421E+02  0.26104718777E+02  0.51100000000E-03 0.  1.
        -12    1    4    4    0    0  0.29515536113E+01 -0.43023296577E+01  0.77024325511E+00  0.52739912662E+01  0.00000000000E+00 0.  1.
</event>
<event>
 8    1  0.6239251E-010  0.9118800E+02  0.7816164E-02  0.1184000E+00
        -11   -1    0    0    0    0  0.00000000000E+00  0.00000000000E+00  0.45593999997E+02  0.45594000000E+02  0.51100000000E-03 0. -1.
         11   -1    0    0    0    0 -0.00000000000E+00 -0.00000000000E+00 -0.45593999997E+02  0.45594000000E+02  0.51100000000E-03 0.  1.
         23    2    1    2    0    0  0.00000000000E+00  0.17763568394E-14  0.00000000000E+00  0.91188000000E+02  0.91188000000E+02 0.  0.
    9900012    2    3    3    0    0 -0.22430376257E+02 -0.12431124674E+02  0.35013833988E+02  0.47787271778E+02  0.20000003343E+02 0.  0.
        -12    1    3    3    0    0  0.22430376257E+02  0.12431124674E+02 -0.35013833988E+02  0.43400728222E+02  0.00000000000E+00 0.  1.
         11    1    4    4    0    0 -0.52605910752E+01 -0.52828870667E+01  0.12819967608E+02  0.14830181522E+02  0.51100000000E-03 0. -1.
        -11    1    4    4    0    0 -0.55626041948E+01  0.49344695611E+01  0.86963765264E+01  0.11441963128E+02  0.51100000000E-03 0.  1.
        -12    1    4    4    0    0 -0.11607180987E+02 -0.12082707168E+02  0.13497489853E+02  0.21515127128E+02  0.00000000000E+00 0.  1.
</event>
<event>
 8    1  0.6239251E-010  0.9118800E+02  0.7816164E-02  0.1184000E+00
        -11   -1    0    0    0    0  0.00000000000E+00  0.00000000000E+00  0.45593999997E+02  0.45594000000E+02  0.51100000000E-03 0. -1.
         11   -1    0    0    0    0 -0.00000000000E+00 -0.00000000000E+00 -0.45593999997E+02  0.45594000000E+02  0.51100000000E-03 0.  1.
         23    2    1    2    0    0 -0.88817841970E-15  0.00000000000E+00  0.00000000000E+00  0.91188000000E+02  0.91188000000E+02 0.  0.
    9900012    2    3    3    0    0  0.66318898016E+01  0.16000604149E+02  0.39794754903E+02  0.47787264831E+02  0.19999971668E+02 0.  0.
        -12    1    3    3    0    0 -0.66318898016E+01 -0.16000604149E+02 -0.39794754903E+02  0.43400735169E+02  0.00000000000E+00 0.  1.
         11    1    4    4    0    0  0.10799496054E+02  0.14243485138E+02  0.38109716444E+02  0.42093425515E+02  0.51100000000E-03 0. -1.
        -11    1    4    4    0    0 -0.92453053520E+00  0.42759056038E+00 -0.88353049894E+00  0.13484126970E+01  0.51100000000E-03 0.  1.
         12    1    4    4    0    0 -0.32430757168E+01  0.13295284509E+01  0.25685689581E+01  0.43454266188E+01  0.00000000000E+00 0. -1.
</event>
<event>
 8    1  0.6239251E-010  0.9118800E+02  0.7816164E-02  0.1184000E+00
        -11   -1    0    0    0    0  0.00000000000E+00  0.00000000000E+00  0.45593999997E+02  0.45594000000E+02  0.51100000000E-03 0. -1.
         11   -1    0    0    0    0 -0.00000000000E+00 -0.00000000000E+00 -0.45593999997E+02  0.45594000000E+02  0.51100000000E-03 0.  1.
         23    2    1    2    0    0 -0.35527136788E-14  0.00000000000E+00 -0.71054273576E-14  0.91188000000E+02  0.91188000000E+02 0.  0.
    9900012    2    3    3    0    0 -0.17360622186E+02 -0.12751202517E+02 -0.37678100238E+02  0.47787267220E+02  0.19999982562E+02 0.  0.
         12    1    3    3    0    0  0.17360622186E+02  0.12751202517E+02  0.37678100238E+02  0.43400732780E+02  0.00000000000E+00 0. -1.
         11    1    4    4    0    0 -0.17463433355E+02 -0.11414234349E+02 -0.28718264729E+02  0.35496407982E+02  0.51100000000E-03 0. -1.
        -11    1    4    4    0    0 -0.29823380381E+01  0.77231050613E+00 -0.77863988041E+01  0.83736975279E+01  0.51100000000E-03 0.  1.
         12    1    4    4    0    0  0.30851492078E+01 -0.21092786740E+01 -0.11734367054E+01  0.39171617098E+01  0.00000000000E+00 0. -1.
</event>
<event>
 8    1  0.1071349E-009  0.9118800E+02  0.7816164E-02  0.1184000E+00
        -11   -1    0    0    0    0  0.00000000000E+00  0.00000000000E+00  0.45593999997E+02  0.45594000000E+02  0.51100000000E-03 0. -1.
         11   -1    0    0    0    0 -0.00000000000E+00 -0.00000000000E+00 -0.45593999997E+02  0.45594000000E+02  0.51100000000E-03 0.  1.
         23    2    1    2    0    0  0.88817841970E-15  0.00000000000E+00  0.00000000000E+00  0.91188000000E+02  0.91188000000E+02 0.  0.
    9900012    2    3    3    0    0 -0.41579815653E+01  0.20623518748E+02  0.37960571335E+02  0.47787270601E+02  0.19999997979E+02 0.  0.
        -12    1    3    3    0    0  0.41579815653E+01 -0.20623518748E+02 -0.37960571335E+02  0.43400729399E+02  0.00000000000E+00 0.  1.
         11    1    4    4    0    0 -0.36822310426E+01  0.12571017581E+02  0.20801995114E+02  0.24582764480E+02  0.51100000000E-03 0. -1.
        -11    1    4    4    0    0  0.63318877796E+01  0.51540446233E+01  0.79988877526E+01  0.11429749970E+02  0.51100000000E-03 0.  1.
        -12    1    4    4    0    0 -0.68076383022E+01  0.28984565436E+01  0.91596884684E+01  0.11774756152E+02  0.00000000000E+00 0.  1.
</event>
<event>
 8    1  0.6239251E-010  0.9118800E+02  0.7816164E-02  0.1184000E+00
        -11   -1    0    0    0    0  0.00000000000E+00  0.00000000000E+00  0.45593999997E+02  0.45594000000E+02  0.51100000000E-03 0. -1.
         11   -1    0    0    0    0 -0.00000000000E+00 -0.00000000000E+00 -0.45593999997E+02  0.45594000000E+02  0.51100000000E-03 0.  1.
         23    2    1    2    0    0  0.00000000000E+00  0.00000000000E+00  0.00000000000E+00  0.91188000000E+02  0.91188000000E+02 0.  0.
    9900012    2    3    3    0    0  0.96510871873E+01  0.41250025596E+01  0.42112519351E+02  0.47787269406E+02  0.19999992528E+02 0.  0.
        -12    1    3    3    0    0 -0.96510871873E+01 -0.41250025596E+01 -0.42112519351E+02  0.43400730594E+02  0.00000000000E+00 0.  1.
         11    1    4    4    0    0  0.71611291919E+01  0.14620913644E+01  0.11489349745E+02  0.13617071649E+02  0.51100000000E-03 0. -1.
        -11    1    4    4    0    0 -0.45069472918E+01 -0.27220254140E+01  0.18080952956E+02  0.18831963687E+02  0.51100000000E-03 0.  1.
        -12    1    4    4    0    0  0.69969052872E+01  0.53849366092E+01  0.12542216650E+02  0.15338234069E+02  0.00000000000E+00 0.  1.
</event>
<event>
 8    1  0.6239251E-010  0.9118800E+02  0.7816164E-02  0.1184000E+00
        -11   -1    0    0    0    0  0.00000000000E+00  0.00000000000E+00  0.45593999997E+02  0.45594000000E+02  0.51100000000E-03 0. -1.
         11   -1    0    0    0    0 -0.00000000000E+00 -0.00000000000E+00 -0.45593999997E+02  0.45594000000E+02  0.51100000000E-03 0.  1.
         23    2    1    2    0    0  0.00000000000E+00  0.00000000000E+00  0.00000000000E+00  0.91188000000E+02  0.91188000000E+02 0.  0.
    9900012    2    3    3    0    0  0.73918247975E+01  0.41619019215E+02  0.98407974914E+01  0.47787272707E+02  0.20000007581E+02 0.  0.
        -12    1    3    3    0    0 -0.73918247975E+01 -0.41619019215E+02 -0.98407974914E+01  0.43400727293E+02  0.00000000000E+00 0.  1.
         11    1    4    4    0    0 -0.20415885603E+01  0.17646255830E+02 -0.25554944312E+01  0.17946837625E+02  0.51100000000E-03 0. -1.
        -11    1    4    4    0    0  0.62792737687E+00  0.65783116332E+00  0.31165451637E+01  0.32465194668E+01  0.51100000000E-03 0.  1.
         12    1    4    4    0    0  0.88054859809E+01  0.23314932222E+02  0.92797467588E+01  0.26593915615E+02  0.00000000000E+00 0. -1.
</event>
<event>
 8    1  0.6239251E-010  0.9118800E+02  0.7816164E-02  0.1184000E+00
        -11   -1    0    0    0    0  0.00000000000E+00  0.00000000000E+00  0.45593999997E+02  0.45594000000E+02  0.51100000000E-03 0. -1.
         11   -1    0    0    0    0 -0.00000000000E+00 -0.00000000000E+00 -0.45593999997E+02  0.45594000000E+02  0.51100000000E-03 0.  1.
         23    2    1    2    0    0  0.00000000000E+00  0.17763568394E-14  0.00000000000E+00  0.91188000000E+02  0.91188000000E+02 0.  0.
    9900012    2    3    3    0    0  0.21467393471E+02 -0.14718569634E+02 -0.34729497359E+02  0.47787271189E+02  0.20000000659E+02 0.  0.
         12    1    3    3    0    0 -0.21467393471E+02  0.14718569634E+02  0.34729497359E+02  0.43400728811E+02  0.00000000000E+00 0. -1.
         11    1    4    4    0    0  0.32829102503E+01  0.78780258360E+00 -0.37814523368E-01  0.33763238620E+01  0.51100000000E-03 0. -1.
        -11    1    4    4    0    0  0.11668202365E+02 -0.11133727732E+02 -0.32470546390E+02  0.36255250969E+02  0.51100000000E-03 0.  1.
        -12    1    4    4    0    0  0.65162808556E+01 -0.43726444848E+01 -0.22211364456E+01  0.81556963583E+01  0.00000000000E+00 0.  1.
</event>
<event>
 8    1  0.6239251E-010  0.9118800E+02  0.7816164E-02  0.1184000E+00
        -11   -1    0    0    0    0  0.00000000000E+00  0.00000000000E+00  0.45593999997E+02  0.45594000000E+02  0.51100000000E-03 0. -1.
         11   -1    0    0    0    0 -0.00000000000E+00 -0.00000000000E+00 -0.45593999997E+02  0.45594000000E+02  0.51100000000E-03 0.  1.
         23    2    1    2    0    0  0.88817841970E-15 -0.13322676296E-14  0.00000000000E+00  0.91188000000E+02  0.91188000000E+02 0.  0.
    9900012    2    3    3    0    0  0.56190612860E+01 -0.30110852540E+01 -0.42929976524E+02  0.47787269955E+02  0.19999995031E+02 0.  0.
         12    1    3    3    0    0 -0.56190612860E+01  0.30110852540E+01  0.42929976524E+02  0.43400730045E+02  0.00000000000E+00 0. -1.
         11    1    4    4    0    0 -0.49750064707E+01  0.32252038889E+01 -0.13210961778E+02  0.14480405411E+02  0.51100000000E-03 0. -1.
        -11    1    4    4    0    0  0.10597835848E+02 -0.79957828769E+01 -0.26052841964E+02  0.29240335893E+02  0.51100000000E-03 0.  1.
        -12    1    4    4    0    0 -0.37680916185E-02  0.17594937339E+01 -0.36661727822E+01  0.40665286508E+01  0.00000000000E+00 0.  1.
</event>
<event>
 8    1  0.6239251E-010  0.9118800E+02  0.7816164E-02  0.1184000E+00
        -11   -1    0    0    0    0  0.00000000000E+00  0.00000000000E+00  0.45593999997E+02  0.45594000000E+02  0.51100000000E-03 0. -1.
         11   -1    0    0    0    0 -0.00000000000E+00 -0.00000000000E+00 -0.45593999997E+02  0.45594000000E+02  0.51100000000E-03 0.  1.
         23    2    1    2    0    0  0.35527136788E-14 -0.35527136788E-14  0.00000000000E+00  0.91188000000E+02  0.91188000000E+02 0.  0.
    9900012    2    3    3    0    0  0.29883344135E+02 -0.19425507354E+02  0.24764058970E+02  0.47787271788E+02  0.20000003389E+02 0.  0.
        -12    1    3    3    0    0 -0.29883344135E+02  0.19425507354E+02 -0.24764058970E+02  0.43400728212E+02  0.00000000000E+00 0.  1.
         11    1    4    4    0    0  0.68492340211E+01 -0.17737761517E+01  0.14065501495E+02  0.15744733122E+02  0.51100000000E-03 0. -1.
        -11    1    4    4    0    0  0.51235987417E+01 -0.84266557684E+01  0.18305139836E+01  0.10030482202E+02  0.51100000000E-03 0.  1.
         12    1    4    4    0    0  0.17910511372E+02 -0.92250754342E+01  0.88680434914E+01  0.22012056463E+02  0.00000000000E+00 0. -1.
</event>
<event>
 8    1  0.6239251E-010  0.9118800E+02  0.7816164E-02  0.1184000E+00
        -11   -1    0    0    0    0  0.00000000000E+00  0.00000000000E+00  0.45593999997E+02  0.45594000000E+02  0.51100000000E-03 0. -1.
         11   -1    0    0    0    0 -0.00000000000E+00 -0.00000000000E+00 -0.45593999997E+02  0.45594000000E+02  0.51100000000E-03 0.  1.
         23    2    1    2    0    0  0.71054273576E-14  0.71054273576E-14 -0.35527136788E-14  0.91188000000E+02  0.91188000000E+02 0.  0.
    9900012    2    3    3    0    0 -0.29894350829E+02 -0.25051881869E+02  0.19035592166E+02  0.47787276898E+02  0.20000026688E+02 0.  0.
        -12    1    3    3    0    0  0.29894350829E+02  0.25051881869E+02 -0.19035592166E+02  0.43400723102E+02  0.00000000000E+00 0.  1.
         11    1    4    4    0    0 -0.76550502452E+01 -0.69772327499E+01  0.33199419975E+01  0.10876745204E+02  0.51100000000E-03 0. -1.
        -11    1    4    4    0    0 -0.24977593891E+01 -0.71814130928E+01 -0.24149469592E+01  0.79776854446E+01  0.51100000000E-03 0.  1.
        -12    1    4    4    0    0 -0.19741541195E+02 -0.10893236026E+02  0.18130597128E+02  0.28932846249E+02  0.00000000000E+00 0.  1.
</event>
<event>
 8    1  0.6239251E-010  0.9118800E+02  0.7816164E-02  0.1184000E+00
        -11   -1    0    0    0    0  0.00000000000E+00  0.00000000000E+00  0.45593999997E+02  0.45594000000E+02  0.51100000000E-03 0. -1.
         11   -1    0    0    0    0 -0.00000000000E+00 -0.00000000000E+00 -0.45593999997E+02  0.45594000000E+02  0.51100000000E-03 0.  1.
         23    2    1    2    0    0  0.00000000000E+00  0.00000000000E+00  0.00000000000E+00  0.91188000000E+02  0.91188000000E+02 0.  0.
    9900012    2    3    3    0    0  0.13232982413E+02  0.18947649798E+02  0.36735515935E+02  0.47787269737E+02  0.19999994037E+02 0.  0.
        -12    1    3    3    0    0 -0.13232982413E+02 -0.18947649798E+02 -0.36735515935E+02  0.43400730263E+02  0.00000000000E+00 0.  1.
         11    1    4    4    0    0 -0.11390783842E+01  0.12111036422E+02  0.98860026065E+01  0.15675067801E+02  0.51100000000E-03 0.  1.
        -11    1    4    4    0    0  0.10586986681E+02  0.20746552079E+01  0.12410358365E+02  0.16444010345E+02  0.51100000000E-03 0. -1.
         12    1    4    4    0    0  0.37850741163E+01  0.47619581677E+01  0.14439154964E+02  0.15668191591E+02  0.00000000000E+00 0. -1.
</event>
<event>
 8    1  0.6239251E-010  0.9118800E+02  0.7816164E-02  0.1184000E+00
        -11   -1    0    0    0    0  0.00000000000E+00  0.00000000000E+00  0.45593999997E+02  0.45594000000E+02  0.51100000000E-03 0. -1.
         11   -1    0    0    0    0 -0.00000000000E+00 -0.00000000000E+00 -0.45593999997E+02  0.45594000000E+02  0.51100000000E-03 0.  1.
         23    2    1    2    0    0  0.00000000000E+00 -0.35527136788E-14  0.00000000000E+00  0.91188000000E+02  0.91188000000E+02 0.  0.
    9900012    2    3    3    0    0  0.25189541047E+02  0.22082827309E+02  0.27594562806E+02  0.47787261106E+02  0.19999954686E+02 0.  0.
        -12    1    3    3    0    0 -0.25189541047E+02 -0.22082827309E+02 -0.27594562806E+02  0.43400738894E+02  0.00000000000E+00 0.  1.
         11    1    4    4    0    0  0.26965791991E+02  0.15879928311E+02  0.26591590855E+02  0.41066272844E+02  0.51100000000E-03 0. -1.
        -11    1    4    4    0    0 -0.44576074941E+00  0.41955403342E+01  0.39783875507E+00  0.42378694267E+01  0.51100000000E-03 0.  1.
         12    1    4    4    0    0 -0.13304901946E+01  0.20073586636E+01  0.60513319581E+00  0.24831188346E+01  0.00000000000E+00 0. -1.
</event>
<event>
 8    1  0.6239251E-010  0.9118800E+02  0.7816164E-02  0.1184000E+00
        -11   -1    0    0    0    0  0.00000000000E+00  0.00000000000E+00  0.45593999997E+02  0.45594000000E+02  0.51100000000E-03 0. -1.
         11   -1    0    0    0    0 -0.00000000000E+00 -0.00000000000E+00 -0.45593999997E+02  0.45594000000E+02  0.51100000000E-03 0.  1.
         23    2    1    2    0    0  0.00000000000E+00  0.17763568394E-14  0.00000000000E+00  0.91188000000E+02  0.91188000000E+02 0.  0.
    9900012    2    3    3    0    0  0.10532225086E+02  0.11272838321E+02  0.40566230631E+02  0.47787265943E+02  0.19999976741E+02 0.  0.
        -12    1    3    3    0    0 -0.10532225086E+02 -0.11272838321E+02 -0.40566230631E+02  0.43400734057E+02  0.00000000000E+00 0.  1.
         11    1    4    4    0    0  0.65936768127E+01  0.14131397611E+01  0.29524646292E+02  0.30284951326E+02  0.51100000000E-03 0. -1.
        -11    1    4    4    0    0 -0.54933973349E+00  0.80181181167E+01  0.94308822205E+01  0.12390864861E+02  0.51100000000E-03 0.  1.
         12    1    4    4    0    0  0.44878880073E+01  0.18415804433E+01  0.16107021181E+01  0.51114497560E+01  0.00000000000E+00 0. -1.
</event>
<event>
 8    1  0.6239251E-010  0.9118800E+02  0.7816164E-02  0.1184000E+00
        -11   -1    0    0    0    0  0.00000000000E+00  0.00000000000E+00  0.45593999997E+02  0.45594000000E+02  0.51100000000E-03 0. -1.
         11   -1    0    0    0    0 -0.00000000000E+00 -0.00000000000E+00 -0.45593999997E+02  0.45594000000E+02  0.51100000000E-03 0.  1.
         23    2    1    2    0    0 -0.71054273576E-14  0.35527136788E-14  0.00000000000E+00  0.91188000000E+02  0.91188000000E+02 0.  0.
    9900012    2    3    3    0    0 -0.36000536856E+02  0.20996579353E+02  0.12113199736E+02  0.47787255695E+02  0.19999930014E+02 0.  0.
        -12    1    3    3    0    0  0.36000536856E+02 -0.20996579353E+02 -0.12113199736E+02  0.43400744305E+02  0.00000000000E+00 0.  1.
         11    1    4    4    0    0 -0.22524111502E+02  0.88754837681E+01  0.74646851457E+01  0.25334390375E+02  0.51100000000E-03 0. -1.
        -11    1    4    4    0    0 -0.31347788119E+01  0.86625727290E+01  0.66556329487E+01  0.11365054100E+02  0.51100000000E-03 0.  1.
        -12    1    4    4    0    0 -0.10341646542E+02  0.34585228555E+01 -0.20071183589E+01  0.11087811220E+02  0.00000000000E+00 0.  1.
</event>
<event>
 8    1  0.6239251E-010  0.9118800E+02  0.7816164E-02  0.1184000E+00
        -11   -1    0    0    0    0  0.00000000000E+00  0.00000000000E+00  0.45593999997E+02  0.45594000000E+02  0.51100000000E-03 0. -1.
         11   -1    0    0    0    0 -0.00000000000E+00 -0.00000000000E+00 -0.45593999997E+02  0.45594000000E+02  0.51100000000E-03 0.  1.
         23    2    1    2    0    0  0.11102230246E-15  0.00000000000E+00  0.00000000000E+00  0.91188000000E+02  0.91188000000E+02 0.  0.
    9900012    2    3    3    0    0  0.54391519485E+00 -0.24515019240E+02 -0.35809791092E+02  0.47787272470E+02  0.20000006497E+02 0.  0.
         12    1    3    3    0    0 -0.54391519485E+00  0.24515019240E+02  0.35809791092E+02  0.43400727530E+02  0.00000000000E+00 0. -1.
         11    1    4    4    0    0 -0.25596300898E+01 -0.14443004891E+01 -0.34351993150E+01  0.45208743286E+01  0.51100000000E-03 0. -1.
        -11    1    4    4    0    0  0.16303282861E+01  0.10034896722E+01 -0.10602373448E+02  0.10773824058E+02  0.51100000000E-03 0.  1.
        -12    1    4    4    0    0  0.14732169985E+01 -0.24074208424E+02 -0.21772218329E+02  0.32492574083E+02  0.00000000000E+00 0.  1.
</event>
<event>
 8    1  0.6239251E-010  0.9118800E+02  0.7816164E-02  0.1184000E+00
        -11   -1    0    0    0    0  0.00000000000E+00  0.00000000000E+00  0.45593999997E+02  0.45594000000E+02  0.51100000000E-03 0. -1.
         11   -1    0    0    0    0 -0.00000000000E+00 -0.00000000000E+00 -0.45593999997E+02  0.45594000000E+02  0.51100000000E-03 0.  1.
         23    2    1    2    0    0  0.00000000000E+00  0.00000000000E+00 -0.35527136788E-14  0.91188000000E+02  0.91188000000E+02 0.  0.
    9900012    2    3    3    0    0 -0.23511259671E+02 -0.30277892991E+02 -0.20349283403E+02  0.47787268781E+02  0.19999989679E+02 0.  0.
         12    1    3    3    0    0  0.23511259671E+02  0.30277892991E+02  0.20349283403E+02  0.43400731219E+02  0.00000000000E+00 0. -1.
         11    1    4    4    0    0 -0.97656320575E+01 -0.32924448690E+01 -0.13781579817E+01  0.10397455572E+02  0.51100000000E-03 0. -1.
        -11    1    4    4    0    0 -0.13069866650E+02 -0.27971347993E+02 -0.17481244324E+02  0.35479735430E+02  0.51100000000E-03 0.  1.
        -12    1    4    4    0    0 -0.67576096424E+00  0.98589987045E+00 -0.14898810974E+01  0.19100777785E+01  0.00000000000E+00 0.  1.
</event>
<event>
 8    1  0.6239251E-010  0.9118800E+02  0.7816164E-02  0.1184000E+00
        -11   -1    0    0    0    0  0.00000000000E+00  0.00000000000E+00  0.45593999997E+02  0.45594000000E+02  0.51100000000E-03 0.  1.
         11   -1    0    0    0    0 -0.00000000000E+00 -0.00000000000E+00 -0.45593999997E+02  0.45594000000E+02  0.51100000000E-03 0. -1.
         23    2    1    2    0    0  0.00000000000E+00  0.00000000000E+00 -0.88817841970E-15  0.91188000000E+02  0.91188000000E+02 0.  0.
    9900012    2    3    3    0    0  0.23909695536E+02 -0.35776085374E+02 -0.56587521750E+01  0.47787270726E+02  0.19999998549E+02 0.  0.
        -12    1    3    3    0    0 -0.23909695536E+02  0.35776085374E+02  0.56587521750E+01  0.43400729274E+02  0.00000000000E+00 0.  1.
         11    1    4    4    0    0  0.12285444050E+02 -0.10938154538E+02  0.75165325666E+00  0.16466339699E+02  0.51100000000E-03 0. -1.
        -11    1    4    4    0    0  0.52916586735E+01 -0.22623267882E+02 -0.20597559821E+01  0.23325018674E+02  0.51100000000E-03 0.  1.
        -12    1    4    4    0    0  0.63325928133E+01 -0.22146629542E+01 -0.43506494495E+01  0.79959123539E+01  0.00000000000E+00 0.  1.
</event>
<event>
 8    1  0.6239251E-010  0.9118800E+02  0.7816164E-02  0.1184000E+00
        -11   -1    0    0    0    0  0.00000000000E+00  0.00000000000E+00  0.45593999997E+02  0.45594000000E+02  0.51100000000E-03 0. -1.
         11   -1    0    0    0    0 -0.00000000000E+00 -0.00000000000E+00 -0.45593999997E+02  0.45594000000E+02  0.51100000000E-03 0.  1.
         23    2    1    2    0    0  0.35527136788E-14 -0.35527136788E-14 -0.35527136788E-14  0.91188000000E+02  0.91188000000E+02 0.  0.
    9900012    2    3    3    0    0  0.18095228555E+02  0.24229032138E+02  0.31131022057E+02  0.47787264648E+02  0.19999970835E+02 0.  0.
        -12    1    3    3    0    0 -0.18095228555E+02 -0.24229032138E+02 -0.31131022057E+02  0.43400735352E+02  0.00000000000E+00 0.  1.
         11    1    4    4    0    0  0.16608766384E+02  0.22400006688E+02  0.30923285413E+02  0.41639656596E+02  0.51100000000E-03 0. -1.
        -11    1    4    4    0    0 -0.18569125661E+01  0.85718651699E-01 -0.10960720384E+01  0.21579726921E+01  0.51100000000E-03 0.  1.
         12    1    4    4    0    0  0.33433747367E+01  0.17433067984E+01  0.13038086827E+01  0.39896353598E+01  0.00000000000E+00 0. -1.
</event>
<event>
 8    1  0.6239251E-010  0.9118800E+02  0.7816164E-02  0.1184000E+00
        -11   -1    0    0    0    0  0.00000000000E+00  0.00000000000E+00  0.45593999997E+02  0.45594000000E+02  0.51100000000E-03 0. -1.
         11   -1    0    0    0    0 -0.00000000000E+00 -0.00000000000E+00 -0.45593999997E+02  0.45594000000E+02  0.51100000000E-03 0.  1.
         23    2    1    2    0    0  0.00000000000E+00  0.35527136788E-14  0.00000000000E+00  0.91188000000E+02  0.91188000000E+02 0.  0.
    9900012    2    3    3    0    0 -0.23414453035E+01 -0.16556163216E+02  0.40050400043E+02  0.47787269014E+02  0.19999990740E+02 0.  0.
        -12    1    3    3    0    0  0.23414453035E+01  0.16556163216E+02 -0.40050400043E+02  0.43400730986E+02  0.00000000000E+00 0.  1.
         11    1    4    4    0    0  0.34042260805E+01 -0.41382130420E+00  0.13810046077E+02  0.14229454529E+02  0.51100000000E-03 0. -1.
        -11    1    4    4    0    0 -0.86968630932E+01 -0.72379011735E+01  0.11888738909E+02  0.16412335427E+02  0.51100000000E-03 0.  1.
        -12    1    4    4    0    0  0.29511917093E+01 -0.89044407385E+01  0.14351615057E+02  0.17145479058E+02  0.00000000000E+00 0.  1.
</event>
<event>
 8    1  0.6239251E-010  0.9118800E+02  0.7816164E-02  0.1184000E+00
        -11   -1    0    0    0    0  0.00000000000E+00  0.00000000000E+00  0.45593999997E+02  0.45594000000E+02  0.51100000000E-03 0. -1.
         11   -1    0    0    0    0 -0.00000000000E+00 -0.00000000000E+00 -0.45593999997E+02  0.45594000000E+02  0.51100000000E-03 0.  1.
         23    2    1    2    0    0  0.00000000000E+00  0.00000000000E+00  0.00000000000E+00  0.91188000000E+02  0.91188000000E+02 0.  0.
    9900012    2    3    3    0    0  0.17227190430E+02  0.16135448606E+01 -0.39802556327E+02  0.47787272963E+02  0.20000008750E+02 0.  0.
         12    1    3    3    0    0 -0.17227190430E+02 -0.16135448606E+01  0.39802556327E+02  0.43400727037E+02  0.00000000000E+00 0. -1.
         11    1    4    4    0    0  0.13973002840E+02 -0.22879952308E+00 -0.10998957036E+02  0.17784100026E+02  0.51100000000E-03 0. -1.
        -11    1    4    4    0    0  0.13219629189E+01 -0.14959420470E+01 -0.22668956279E+02  0.22756691491E+02  0.51100000000E-03 0.  1.
         12    1    4    4    0    0  0.19322246710E+01  0.33382864307E+01 -0.61346430117E+01  0.72464814464E+01  0.00000000000E+00 0. -1.
</event>
<event>
 8    1  0.6239251E-010  0.9118800E+02  0.7816164E-02  0.1184000E+00
        -11   -1    0    0    0    0  0.00000000000E+00  0.00000000000E+00  0.45593999997E+02  0.45594000000E+02  0.51100000000E-03 0. -1.
         11   -1    0    0    0    0 -0.00000000000E+00 -0.00000000000E+00 -0.45593999997E+02  0.45594000000E+02  0.51100000000E-03 0.  1.
         23    2    1    2    0    0  0.00000000000E+00 -0.88817841970E-15 -0.71054273576E-14  0.91188000000E+02  0.91188000000E+02 0.  0.
    9900012    2    3    3    0    0 -0.67818015554E+01 -0.57981997711E+01  0.42473657434E+02  0.47787268108E+02  0.19999986611E+02 0.  0.
        -12    1    3    3    0    0  0.67818015554E+01  0.57981997711E+01 -0.42473657434E+02  0.43400731892E+02  0.00000000000E+00 0.  1.
         11    1    4    4    0    0  0.47840043185E+00  0.34745742342E+01  0.73242839048E-02  0.35073618274E+01  0.51100000000E-03 0. -1.
        -11    1    4    4    0    0 -0.11114192665E+01 -0.13687539204E+01  0.23815658298E+01  0.29632070706E+01  0.51100000000E-03 0.  1.
         12    1    4    4    0    0 -0.61487827207E+01 -0.79040200849E+01  0.40084767321E+02  0.41316699210E+02  0.00000000000E+00 0. -1.
</event>
<event>
 8    1  0.6239251E-010  0.9118800E+02  0.7816164E-02  0.1184000E+00
        -11   -1    0    0    0    0  0.00000000000E+00  0.00000000000E+00  0.45593999997E+02  0.45594000000E+02  0.51100000000E-03 0. -1.
         11   -1    0    0    0    0 -0.00000000000E+00 -0.00000000000E+00 -0.45593999997E+02  0.45594000000E+02  0.51100000000E-03 0.  1.
         23    2    1    2    0    0  0.88817841970E-15 -0.35527136788E-14 -0.71054273576E-14  0.91188000000E+02  0.91188000000E+02 0.  0.
    9900012    2    3    3    0    0  0.75940193021E+01 -0.25691594933E+02  0.34145224695E+02  0.47787267877E+02  0.19999985557E+02 0.  0.
        -12    1    3    3    0    0 -0.75940193021E+01  0.25691594933E+02 -0.34145224695E+02  0.43400732123E+02  0.00000000000E+00 0.  1.
         11    1    4    4    0    0  0.73759119424E+01 -0.13868281298E+02  0.27138272171E+02  0.31356325038E+02  0.51100000000E-03 0. -1.
        -11    1    4    4    0    0  0.45681516730E+01 -0.64309831607E+01  0.43698044052E+01  0.90178015570E+01  0.51100000000E-03 0.  1.
         12    1    4    4    0    0 -0.43500443132E+01 -0.53923304743E+01  0.26371481181E+01  0.74131412821E+01  0.00000000000E+00 0. -1.
</event>
<event>
 8    1  0.6239251E-010  0.9118800E+02  0.7816164E-02  0.1184000E+00
        -11   -1    0    0    0    0  0.00000000000E+00  0.00000000000E+00  0.45593999997E+02  0.45594000000E+02  0.51100000000E-03 0. -1.
         11   -1    0    0    0    0 -0.00000000000E+00 -0.00000000000E+00 -0.45593999997E+02  0.45594000000E+02  0.51100000000E-03 0.  1.
         23    2    1    2    0    0  0.00000000000E+00 -0.44408920985E-15  0.00000000000E+00  0.91188000000E+02  0.91188000000E+02 0.  0.
    9900012    2    3    3    0    0 -0.19230142030E+02  0.30465746174E+01 -0.38788464156E+02  0.47787251954E+02  0.19999912958E+02 0.  0.
         12    1    3    3    0    0  0.19230142030E+02 -0.30465746174E+01  0.38788464156E+02  0.43400748046E+02  0.00000000000E+00 0. -1.
         11    1    4    4    0    0 -0.12366719599E+02 -0.51658285244E+01 -0.24393133905E+02  0.27832472401E+02  0.51100000000E-03 0. -1.
        -11    1    4    4    0    0  0.75901406106E-01  0.32274277282E+01 -0.96619597754E+01  0.10187026933E+02  0.51100000000E-03 0.  1.
         12    1    4    4    0    0 -0.69393238373E+01  0.49849754136E+01 -0.47333704758E+01  0.97677526205E+01  0.00000000000E+00 0. -1.
</event>
<event>
 8    1  0.6239251E-010  0.9118800E+02  0.7816164E-02  0.1184000E+00
        -11   -1    0    0    0    0  0.00000000000E+00  0.00000000000E+00  0.45593999997E+02  0.45594000000E+02  0.51100000000E-03 0. -1.
         11   -1    0    0    0    0 -0.00000000000E+00 -0.00000000000E+00 -0.45593999997E+02  0.45594000000E+02  0.51100000000E-03 0.  1.
         23    2    1    2    0    0  0.17763568394E-14  0.00000000000E+00  0.00000000000E+00  0.91188000000E+02  0.91188000000E+02 0.  0.
    9900012    2    3    3    0    0 -0.10993855156E+02 -0.38011414605E+02  0.17829485042E+02  0.47787273874E+02  0.20000012899E+02 0.  0.
        -12    1    3    3    0    0  0.10993855156E+02  0.38011414605E+02 -0.17829485042E+02  0.43400726126E+02  0.00000000000E+00 0.  1.
         11    1    4    4    0    0  0.49796178487E+00 -0.19733321397E+01  0.75409671103E+01  0.78107740264E+01  0.51100000000E-03 0. -1.
        -11    1    4    4    0    0 -0.60401664651E+01 -0.28275422652E+02  0.58304124929E+01  0.29495369928E+02  0.51100000000E-03 0.  1.
        -12    1    4    4    0    0 -0.54516504758E+01 -0.77626598129E+01  0.44581054386E+01  0.10481129919E+02  0.00000000000E+00 0.  1.
</event>
<event>
 8    1  0.6239251E-010  0.9118800E+02  0.7816164E-02  0.1184000E+00
        -11   -1    0    0    0    0  0.00000000000E+00  0.00000000000E+00  0.45593999997E+02  0.45594000000E+02  0.51100000000E-03 0. -1.
         11   -1    0    0    0    0 -0.00000000000E+00 -0.00000000000E+00 -0.45593999997E+02  0.45594000000E+02  0.51100000000E-03 0.  1.
         23    2    1    2    0    0  0.00000000000E+00  0.00000000000E+00  0.00000000000E+00  0.91188000000E+02  0.91188000000E+02 0.  0.
    9900012    2    3    3    0    0  0.32201030232E+02  0.78068801096E+01  0.28031592914E+02  0.47787263528E+02  0.19999965728E+02 0.  0.
        -12    1    3    3    0    0 -0.32201030232E+02 -0.78068801096E+01 -0.28031592914E+02  0.43400736472E+02  0.00000000000E+00 0.  1.
         11    1    4    4    0    0  0.65869287126E+01 -0.39934137093E+01  0.10055589165E+02  0.12666880304E+02  0.51100000000E-03 0. -1.
        -11    1    4    4    0    0  0.21052056941E+02  0.11185025991E+02  0.18903814985E+02  0.30424465963E+02  0.51100000000E-03 0.  1.
        -12    1    4    4    0    0  0.45620445780E+01  0.61526782838E+00 -0.92781123604E+00  0.46959172610E+01  0.00000000000E+00 0.  1.
</event>
<event>
 8    1  0.6239251E-010  0.9118800E+02  0.7816164E-02  0.1184000E+00
        -11   -1    0    0    0    0  0.00000000000E+00  0.00000000000E+00  0.45593999997E+02  0.45594000000E+02  0.51100000000E-03 0. -1.
         11   -1    0    0    0    0 -0.00000000000E+00 -0.00000000000E+00 -0.45593999997E+02  0.45594000000E+02  0.51100000000E-03 0.  1.
         23    2    1    2    0    0  0.00000000000E+00  0.00000000000E+00 -0.35527136788E-14  0.91188000000E+02  0.91188000000E+02 0.  0.
    9900012    2    3    3    0    0  0.25329594278E+01 -0.36617086793E+02 -0.23160235837E+02  0.47787268984E+02  0.19999990606E+02 0.  0.
         12    1    3    3    0    0 -0.25329594278E+01  0.36617086793E+02  0.23160235837E+02  0.43400731016E+02  0.00000000000E+00 0. -1.
         11    1    4    4    0    0 -0.35244021951E+01 -0.12510711483E+02 -0.11778320324E+01  0.13050923385E+02  0.51100000000E-03 0. -1.
        -11    1    4    4    0    0  0.43903080441E+01 -0.24677417250E+02 -0.21109663073E+02  0.32769919166E+02  0.51100000000E-03 0.  1.
         12    1    4    4    0    0  0.16670535788E+01  0.57104193957E+00 -0.87274073156E+00  0.19664264328E+01  0.00000000000E+00 0. -1.
</event>
<event>
 8    1  0.6239251E-010  0.9118800E+02  0.7816164E-02  0.1184000E+00
        -11   -1    0    0    0    0  0.00000000000E+00  0.00000000000E+00  0.45593999997E+02  0.45594000000E+02  0.51100000000E-03 0. -1.
         11   -1    0    0    0    0 -0.00000000000E+00 -0.00000000000E+00 -0.45593999997E+02  0.45594000000E+02  0.51100000000E-03 0.  1.
         23    2    1    2    0    0  0.17763568394E-14  0.00000000000E+00  0.00000000000E+00  0.91188000000E+02  0.91188000000E+02 0.  0.
    9900012    2    3    3    0    0  0.15441856641E+02 -0.27862005779E+02 -0.29476787285E+02  0.47787270845E+02  0.19999999090E+02 0.  0.
         12    1    3    3    0    0 -0.15441856641E+02  0.27862005779E+02  0.29476787285E+02  0.43400729155E+02  0.00000000000E+00 0. -1.
         11    1    4    4    0    0  0.30226883598E+01  0.17127655847E+01 -0.15015596768E+01  0.37848239844E+01  0.51100000000E-03 0. -1.
        -11    1    4    4    0    0  0.85442476303E+01 -0.28648819654E+02 -0.23627062445E+02  0.38105079914E+02  0.51100000000E-03 0.  1.
        -12    1    4    4    0    0  0.38749206512E+01 -0.92595170923E+00 -0.43481651629E+01  0.58973669467E+01  0.00000000000E+00 0.  1.
</event>
<event>
 8    1  0.6239251E-010  0.9118800E+02  0.7816164E-02  0.1184000E+00
        -11   -1    0    0    0    0  0.00000000000E+00  0.00000000000E+00  0.45593999997E+02  0.45594000000E+02  0.51100000000E-03 0. -1.
         11   -1    0    0    0    0 -0.00000000000E+00 -0.00000000000E+00 -0.45593999997E+02  0.45594000000E+02  0.51100000000E-03 0.  1.
         23    2    1    2    0    0  0.66613381478E-15  0.00000000000E+00  0.00000000000E+00  0.91188000000E+02  0.91188000000E+02 0.  0.
    9900012    2    3    3    0    0  0.60144618044E+00  0.37025210960E+02  0.22636209944E+02  0.47787239813E+02  0.19999857605E+02 0.  0.
        -12    1    3    3    0    0 -0.60144618044E+00 -0.37025210960E+02 -0.22636209944E+02  0.43400760187E+02  0.00000000000E+00 0.  1.
         11    1    4    4    0    0  0.13972664217E+01  0.31206253944E+02  0.18526588097E+02  0.36318275089E+02  0.51100000000E-03 0. -1.
        -11    1    4    4    0    0 -0.28414178620E+01  0.17796026806E+01  0.57476156932E+01  0.66540008706E+01  0.51100000000E-03 0.  1.
        -12    1    4    4    0    0  0.20455976207E+01  0.40393543353E+01 -0.16379938462E+01  0.48149638537E+01  0.00000000000E+00 0.  1.
</event>
<event>
 8    1  0.6239251E-010  0.9118800E+02  0.7816164E-02  0.1184000E+00
        -11   -1    0    0    0    0  0.00000000000E+00  0.00000000000E+00  0.45593999997E+02  0.45594000000E+02  0.51100000000E-03 0. -1.
         11   -1    0    0    0    0 -0.00000000000E+00 -0.00000000000E+00 -0.45593999997E+02  0.45594000000E+02  0.51100000000E-03 0.  1.
         23    2    1    2    0    0  0.00000000000E+00 -0.16653345369E-15  0.00000000000E+00  0.91188000000E+02  0.91188000000E+02 0.  0.
    9900012    2    3    3    0    0 -0.20274517655E+02 -0.43829212126E+00  0.38371540397E+02  0.47787270990E+02  0.19999999754E+02 0.  0.
        -12    1    3    3    0    0  0.20274517655E+02  0.43829212126E+00 -0.38371540397E+02  0.43400729010E+02  0.00000000000E+00 0.  1.
         11    1    4    4    0    0 -0.19559597865E+02 -0.16712808370E+00  0.31975437387E+02  0.37483788453E+02  0.51100000000E-03 0. -1.
        -11    1    4    4    0    0 -0.30744939305E+01 -0.17139205558E+01  0.20875052156E+00  0.35261329586E+01  0.51100000000E-03 0.  1.
         12    1    4    4    0    0  0.23595741407E+01  0.14427565182E+01  0.61873524886E+01  0.67773495789E+01  0.00000000000E+00 0. -1.
</event>
<event>
 8    1  0.6239251E-010  0.9118800E+02  0.7816164E-02  0.1184000E+00
        -11   -1    0    0    0    0  0.00000000000E+00  0.00000000000E+00  0.45593999997E+02  0.45594000000E+02  0.51100000000E-03 0. -1.
         11   -1    0    0    0    0 -0.00000000000E+00 -0.00000000000E+00 -0.45593999997E+02  0.45594000000E+02  0.51100000000E-03 0.  1.
         23    2    1    2    0    0  0.00000000000E+00  0.00000000000E+00  0.00000000000E+00  0.91188000000E+02  0.91188000000E+02 0.  0.
    9900012    2    3    3    0    0 -0.11699458570E+02 -0.18404399424E+02 -0.37523645004E+02  0.47787272087E+02  0.20000004753E+02 0.  0.
         12    1    3    3    0    0  0.11699458570E+02  0.18404399424E+02  0.37523645004E+02  0.43400727913E+02  0.00000000000E+00 0. -1.
         11    1    4    4    0    0 -0.15873048256E+00  0.14286204694E+01  0.25277978335E+00  0.14594689760E+01  0.51100000000E-03 0. -1.
        -11    1    4    4    0    0 -0.14303805129E+02 -0.15137516156E+02 -0.25699104824E+02  0.33078500957E+02  0.51100000000E-03 0.  1.
        -12    1    4    4    0    0  0.27630770407E+01 -0.46955037374E+01 -0.12077319963E+02  0.13249302154E+02  0.00000000000E+00 0.  1.
</event>
<event>
 8    1  0.6239251E-010  0.9118800E+02  0.7816164E-02  0.1184000E+00
        -11   -1    0    0    0    0  0.00000000000E+00  0.00000000000E+00  0.45593999997E+02  0.45594000000E+02  0.51100000000E-03 0.  1.
         11   -1    0    0    0    0 -0.00000000000E+00 -0.00000000000E+00 -0.45593999997E+02  0.45594000000E+02  0.51100000000E-03 0. -1.
         23    2    1    2    0    0  0.00000000000E+00  0.11102230246E-15  0.00000000000E+00  0.91188000000E+02  0.91188000000E+02 0.  0.
    9900012    2    3    3    0    0  0.37931354119E+02  0.78942867424E+00  0.21076344621E+02  0.47787272754E+02  0.20000007795E+02 0.  0.
         12    1    3    3    0    0 -0.37931354119E+02 -0.78942867424E+00 -0.21076344621E+02  0.43400727246E+02  0.00000000000E+00 0. -1.
         11    1    4    4    0    0  0.59174406222E+01 -0.33156466259E+01  0.43693388881E+01  0.80685028751E+01  0.51100000000E-03 0. -1.
        -11    1    4    4    0    0  0.74203061784E+01  0.43780013956E+00  0.12437376967E+02  0.14489339489E+02  0.51100000000E-03 0.  1.
        -12    1    4    4    0    0  0.24593607318E+02  0.36672751606E+01  0.42696287657E+01  0.25229430390E+02  0.00000000000E+00 0.  1.
</event>
<event>
 8    1  0.6239251E-010  0.9118800E+02  0.7816164E-02  0.1184000E+00
        -11   -1    0    0    0    0  0.00000000000E+00  0.00000000000E+00  0.45593999997E+02  0.45594000000E+02  0.51100000000E-03 0. -1.
         11   -1    0    0    0    0 -0.00000000000E+00 -0.00000000000E+00 -0.45593999997E+02  0.45594000000E+02  0.51100000000E-03 0.  1.
         23    2    1    2    0    0  0.00000000000E+00  0.17763568394E-14  0.00000000000E+00  0.91188000000E+02  0.91188000000E+02 0.  0.
    9900012    2    3    3    0    0  0.33587139041E+02 -0.53274029735E+01  0.26965649139E+02  0.47787269995E+02  0.19999995217E+02 0.  0.
        -12    1    3    3    0    0 -0.33587139041E+02  0.53274029735E+01 -0.26965649139E+02  0.43400730005E+02  0.00000000000E+00 0.  1.
         11    1    4    4    0    0  0.25400195887E+01  0.33001462011E+01 -0.49243829432E+00  0.41934663698E+01  0.51100000000E-03 0. -1.
        -11    1    4    4    0    0  0.10833474576E+02  0.11504449745E+01  0.55673043138E+01  0.12234482932E+02  0.51100000000E-03 0.  1.
         12    1    4    4    0    0  0.20213644877E+02 -0.97779941491E+01  0.21890783120E+02  0.31359320694E+02  0.00000000000E+00 0. -1.
</event>
<event>
 8    1  0.6239251E-010  0.9118800E+02  0.7816164E-02  0.1184000E+00
        -11   -1    0    0    0    0  0.00000000000E+00  0.00000000000E+00  0.45593999997E+02  0.45594000000E+02  0.51100000000E-03 0. -1.
         11   -1    0    0    0    0 -0.00000000000E+00 -0.00000000000E+00 -0.45593999997E+02  0.45594000000E+02  0.51100000000E-03 0.  1.
         23    2    1    2    0    0  0.00000000000E+00 -0.35527136788E-14  0.00000000000E+00  0.91188000000E+02  0.91188000000E+02 0.  0.
    9900012    2    3    3    0    0  0.26725574328E+02 -0.28147169377E+02 -0.19419158072E+02  0.47787272272E+02  0.20000005596E+02 0.  0.
         12    1    3    3    0    0 -0.26725574328E+02  0.28147169377E+02  0.19419158072E+02  0.43400727728E+02  0.00000000000E+00 0. -1.
         11    1    4    4    0    0  0.97202120783E+01 -0.11937840638E+02 -0.15813303305E+02  0.22069325400E+02  0.51100000000E-03 0. -1.
        -11    1    4    4    0    0  0.18089355561E+02 -0.16081778618E+02 -0.40477231068E+01  0.24540424829E+02  0.51100000000E-03 0.  1.
         12    1    4    4    0    0 -0.10839933114E+01 -0.12755012088E+00  0.44186833962E+00  0.11775220432E+01  0.00000000000E+00 0. -1.
</event>
<event>
 8    1  0.6239251E-010  0.9118800E+02  0.7816164E-02  0.1184000E+00
        -11   -1    0    0    0    0  0.00000000000E+00  0.00000000000E+00  0.45593999997E+02  0.45594000000E+02  0.51100000000E-03 0. -1.
         11   -1    0    0    0    0 -0.00000000000E+00 -0.00000000000E+00 -0.45593999997E+02  0.45594000000E+02  0.51100000000E-03 0.  1.
         23    2    1    2    0    0 -0.22204460493E-15  0.00000000000E+00 -0.71054273576E-14  0.91188000000E+02  0.91188000000E+02 0.  0.
    9900012    2    3    3    0    0  0.15601750175E+01  0.57395232307E+01  0.42991239521E+02  0.47787274792E+02  0.20000017088E+02 0.  0.
        -12    1    3    3    0    0 -0.15601750175E+01 -0.57395232307E+01 -0.42991239521E+02  0.43400725208E+02  0.00000000000E+00 0.  1.
         11    1    4    4    0    0 -0.11024544709E+01  0.96273655597E+01  0.16141752754E+02  0.18827048513E+02  0.51100000000E-03 0. -1.
        -11    1    4    4    0    0  0.13693620842E+01 -0.57916482578E+01  0.80006497722E+01  0.99713960456E+01  0.51100000000E-03 0.  1.
        -12    1    4    4    0    0  0.12932674042E+01  0.19038059288E+01  0.18848836995E+02  0.18988830234E+02  0.00000000000E+00 0.  1.
</event>
<event>
 8    1  0.6239251E-010  0.9118800E+02  0.7816164E-02  0.1184000E+00
        -11   -1    0    0    0    0  0.00000000000E+00  0.00000000000E+00  0.45593999997E+02  0.45594000000E+02  0.51100000000E-03 0. -1.
         11   -1    0    0    0    0 -0.00000000000E+00 -0.00000000000E+00 -0.45593999997E+02  0.45594000000E+02  0.51100000000E-03 0.  1.
         23    2    1    2    0    0  0.00000000000E+00  0.00000000000E+00 -0.71054273576E-14  0.91188000000E+02  0.91188000000E+02 0.  0.
    9900012    2    3    3    0    0  0.18355928520E+02  0.63201172021E-01 -0.39327838494E+02  0.47787274352E+02  0.20000015079E+02 0.  0.
         12    1    3    3    0    0 -0.18355928520E+02 -0.63201172021E-01  0.39327838494E+02  0.43400725648E+02  0.00000000000E+00 0. -1.
         11    1    4    4    0    0  0.75231476716E+01 -0.21986796938E+01 -0.26729963065E+01  0.82811142246E+01  0.51100000000E-03 0. -1.
        -11    1    4    4    0    0  0.84501628668E+01  0.28257665407E+01 -0.35831939656E+02  0.36923137851E+02  0.51100000000E-03 0.  1.
        -12    1    4    4    0    0  0.23826179815E+01 -0.56388567497E+00 -0.82290253121E+00  0.25830222756E+01  0.00000000000E+00 0.  1.
</event>
<event>
 8    1  0.6239251E-010  0.9118800E+02  0.7816164E-02  0.1184000E+00
        -11   -1    0    0    0    0  0.00000000000E+00  0.00000000000E+00  0.45593999997E+02  0.45594000000E+02  0.51100000000E-03 0. -1.
         11   -1    0    0    0    0 -0.00000000000E+00 -0.00000000000E+00 -0.45593999997E+02  0.45594000000E+02  0.51100000000E-03 0.  1.
         23    2    1    2    0    0  0.00000000000E+00 -0.66613381478E-15 -0.35527136788E-14  0.91188000000E+02  0.91188000000E+02 0.  0.
    9900012    2    3    3    0    0  0.36630273318E+02 -0.15857748785E+01 -0.23223516982E+02  0.47787270209E+02  0.19999996193E+02 0.  0.
         12    1    3    3    0    0 -0.36630273318E+02  0.15857748785E+01  0.23223516982E+02  0.43400729791E+02  0.00000000000E+00 0. -1.
         11    1    4    4    0    0  0.17170614947E+02  0.71536548715E+01 -0.11291979517E+02  0.21760367583E+02  0.51100000000E-03 0. -1.
        -11    1    4    4    0    0  0.17369235217E+02 -0.42470728291E+01 -0.75388622618E+01  0.19405215899E+02  0.51100000000E-03 0.  1.
         12    1    4    4    0    0  0.20904231544E+01 -0.44923569208E+01 -0.43926752035E+01  0.66216867271E+01  0.00000000000E+00 0. -1.
</event>
<event>
 8    1  0.6239251E-010  0.9118800E+02  0.7816164E-02  0.1184000E+00
        -11   -1    0    0    0    0  0.00000000000E+00  0.00000000000E+00  0.45593999997E+02  0.45594000000E+02  0.51100000000E-03 0. -1.
         11   -1    0    0    0    0 -0.00000000000E+00 -0.00000000000E+00 -0.45593999997E+02  0.45594000000E+02  0.51100000000E-03 0.  1.
         23    2    1    2    0    0  0.00000000000E+00  0.00000000000E+00 -0.35527136788E-14  0.91188000000E+02  0.91188000000E+02 0.  0.
    9900012    2    3    3    0    0 -0.27201445011E+02  0.11853045567E+02 -0.31673482739E+02  0.47787276403E+02  0.20000024433E+02 0.  0.
         12    1    3    3    0    0  0.27201445011E+02 -0.11853045567E+02  0.31673482739E+02  0.43400723597E+02  0.00000000000E+00 0. -1.
         11    1    4    4    0    0 -0.34599420769E+01  0.75643788942E+01 -0.44625658453E+01  0.94395720992E+01  0.51100000000E-03 0. -1.
        -11    1    4    4    0    0 -0.16907444239E+02 -0.27042202907E+01 -0.15546568807E+02  0.23127262700E+02  0.51100000000E-03 0.  1.
        -12    1    4    4    0    0 -0.68340586950E+01  0.69928869635E+01 -0.11664348086E+02  0.15220441604E+02  0.00000000000E+00 0.  1.
</event>
<event>
 8    1  0.6239251E-010  0.9118800E+02  0.7816164E-02  0.1184000E+00
        -11   -1    0    0    0    0  0.00000000000E+00  0.00000000000E+00  0.45593999997E+02  0.45594000000E+02  0.51100000000E-03 0. -1.
         11   -1    0    0    0    0 -0.00000000000E+00 -0.00000000000E+00 -0.45593999997E+02  0.45594000000E+02  0.51100000000E-03 0.  1.
         23    2    1    2    0    0  0.00000000000E+00  0.00000000000E+00  0.00000000000E+00  0.91188000000E+02  0.91188000000E+02 0.  0.
    9900012    2    3    3    0    0 -0.39945583942E+02 -0.50191998490E+01 -0.16210509107E+02  0.47787278242E+02  0.20000032815E+02 0.  0.
         12    1    3    3    0    0  0.39945583942E+02  0.50191998490E+01  0.16210509107E+02  0.43400721758E+02  0.00000000000E+00 0. -1.
         11    1    4    4    0    0 -0.10916420356E+02  0.47608332230E+01  0.68235785244E+00  0.11928930332E+02  0.51100000000E-03 0. -1.
        -11    1    4    4    0    0 -0.14858646447E+02 -0.92560094481E+00 -0.71422040236E+01  0.16512031671E+02  0.51100000000E-03 0.  1.
         12    1    4    4    0    0 -0.14170517139E+02 -0.88544321271E+01 -0.97506629362E+01  0.19346316238E+02  0.00000000000E+00 0. -1.
</event>
<event>
 8    1  0.6239251E-010  0.9118800E+02  0.7816164E-02  0.1184000E+00
        -11   -1    0    0    0    0  0.00000000000E+00  0.00000000000E+00  0.45593999997E+02  0.45594000000E+02  0.51100000000E-03 0. -1.
         11   -1    0    0    0    0 -0.00000000000E+00 -0.00000000000E+00 -0.45593999997E+02  0.45594000000E+02  0.51100000000E-03 0.  1.
         23    2    1    2    0    0  0.00000000000E+00 -0.88817841970E-15  0.00000000000E+00  0.91188000000E+02  0.91188000000E+02 0.  0.
    9900012    2    3    3    0    0  0.43211707961E+02 -0.33499228824E+01 -0.22692740687E+01  0.47787270824E+02  0.19999998995E+02 0.  0.
         12    1    3    3    0    0 -0.43211707961E+02  0.33499228824E+01  0.22692740687E+01  0.43400729176E+02  0.00000000000E+00 0. -1.
         11    1    4    4    0    0  0.10609483715E+02 -0.83740383859E+01  0.18610230576E+01  0.13643645798E+02  0.51100000000E-03 0. -1.
        -11    1    4    4    0    0  0.29861686577E+02  0.54288839079E+01 -0.58123381214E+01  0.30902692123E+02  0.51100000000E-03 0.  1.
        -12    1    4    4    0    0  0.27405376683E+01 -0.40476840437E+00  0.16820409951E+01  0.32409329030E+01  0.00000000000E+00 0.  1.
</event>
<event>
 8    1  0.6239251E-010  0.9118800E+02  0.7816164E-02  0.1184000E+00
        -11   -1    0    0    0    0  0.00000000000E+00  0.00000000000E+00  0.45593999997E+02  0.45594000000E+02  0.51100000000E-03 0. -1.
         11   -1    0    0    0    0 -0.00000000000E+00 -0.00000000000E+00 -0.45593999997E+02  0.45594000000E+02  0.51100000000E-03 0.  1.
         23    2    1    2    0    0  0.00000000000E+00  0.44408920985E-15  0.00000000000E+00  0.91188000000E+02  0.91188000000E+02 0.  0.
    9900012    2    3    3    0    0 -0.18360650359E+02  0.16698355381E+01 -0.39290220805E+02  0.47787270937E+02  0.19999999509E+02 0.  0.
         12    1    3    3    0    0  0.18360650359E+02 -0.16698355381E+01  0.39290220805E+02  0.43400729063E+02  0.00000000000E+00 0. -1.
         11    1    4    4    0    0  0.27967511222E+00 -0.42176387122E+01 -0.87817465841E+01  0.97460642212E+01  0.51100000000E-03 0. -1.
        -11    1    4    4    0    0 -0.83176570096E+01  0.51658644310E+01 -0.61157345681E+01  0.11544339869E+02  0.51100000000E-03 0.  1.
         12    1    4    4    0    0 -0.10322668462E+02  0.72160981927E+00 -0.24392739653E+02  0.26496866846E+02  0.00000000000E+00 0. -1.
</event>
<event>
 8    1  0.6239251E-010  0.9118800E+02  0.7816164E-02  0.1184000E+00
        -11   -1    0    0    0    0  0.00000000000E+00  0.00000000000E+00  0.45593999997E+02  0.45594000000E+02  0.51100000000E-03 0. -1.
         11   -1    0    0    0    0 -0.00000000000E+00 -0.00000000000E+00 -0.45593999997E+02  0.45594000000E+02  0.51100000000E-03 0.  1.
         23    2    1    2    0    0  0.55511151231E-16  0.00000000000E+00  0.00000000000E+00  0.91188000000E+02  0.91188000000E+02 0.  0.
    9900012    2    3    3    0    0  0.39366657564E+00  0.38026704671E+02 -0.20915027913E+02  0.47787266894E+02  0.19999981077E+02 0.  0.
         12    1    3    3    0    0 -0.39366657564E+00 -0.38026704671E+02  0.20915027913E+02  0.43400733106E+02  0.00000000000E+00 0. -1.
         11    1    4    4    0    0 -0.72433362495E+01  0.19325021941E+02 -0.97744882294E+01  0.22835564662E+02  0.51100000000E-03 0.  1.
        -11    1    4    4    0    0  0.83610639073E+01  0.17534949657E+02 -0.70982103474E+01  0.20682515309E+02  0.51100000000E-03 0. -1.
        -12    1    4    4    0    0 -0.72406108215E+00  0.11667330736E+01 -0.40423293366E+01  0.42691869228E+01  0.00000000000E+00 0.  1.
</event>
<event>
 8    1  0.6239251E-010  0.9118800E+02  0.7816164E-02  0.1184000E+00
        -11   -1    0    0    0    0  0.00000000000E+00  0.00000000000E+00  0.45593999997E+02  0.45594000000E+02  0.51100000000E-03 0. -1.
         11   -1    0    0    0    0 -0.00000000000E+00 -0.00000000000E+00 -0.45593999997E+02  0.45594000000E+02  0.51100000000E-03 0.  1.
         23    2    1    2    0    0  0.00000000000E+00  0.00000000000E+00  0.00000000000E+00  0.91188000000E+02  0.91188000000E+02 0.  0.
    9900012    2    3    3    0    0  0.16446002583E+02  0.99644105432E+01  0.38908391952E+02  0.47787269099E+02  0.19999991132E+02 0.  0.
        -12    1    3    3    0    0 -0.16446002583E+02 -0.99644105432E+01 -0.38908391952E+02  0.43400730901E+02  0.00000000000E+00 0.  1.
         11    1    4    4    0    0  0.12218067298E+02  0.12665569326E+02  0.14948713969E+02  0.23090298059E+02  0.51100000000E-03 0. -1.
        -11    1    4    4    0    0  0.35997565417E+01 -0.28255565185E+01  0.14262734505E+02  0.14978905588E+02  0.51100000000E-03 0.  1.
         12    1    4    4    0    0  0.62817874258E+00  0.12439773607E+00  0.96969434782E+01  0.97180654530E+01  0.00000000000E+00 0. -1.
</event>
<event>
 8    1  0.6239251E-010  0.9118800E+02  0.7816164E-02  0.1184000E+00
        -11   -1    0    0    0    0  0.00000000000E+00  0.00000000000E+00  0.45593999997E+02  0.45594000000E+02  0.51100000000E-03 0. -1.
         11   -1    0    0    0    0 -0.00000000000E+00 -0.00000000000E+00 -0.45593999997E+02  0.45594000000E+02  0.51100000000E-03 0.  1.
         23    2    1    2    0    0  0.00000000000E+00  0.00000000000E+00  0.00000000000E+00  0.91188000000E+02  0.91188000000E+02 0.  0.
    9900012    2    3    3    0    0 -0.21702514393E+02 -0.34135890622E+02 -0.15727842087E+02  0.47787272169E+02  0.20000005128E+02 0.  0.
         12    1    3    3    0    0  0.21702514393E+02  0.34135890622E+02  0.15727842087E+02  0.43400727831E+02  0.00000000000E+00 0. -1.
         11    1    4    4    0    0 -0.23772119459E+01  0.17673250638E+01 -0.43530763417E+01  0.52653440927E+01  0.51100000000E-03 0. -1.
        -11    1    4    4    0    0 -0.94760641400E+01 -0.14497798450E+02 -0.34335258693E+01  0.17657039719E+02  0.51100000000E-03 0.  1.
         12    1    4    4    0    0 -0.98492383067E+01 -0.21405417236E+02 -0.79412398763E+01  0.24864888358E+02  0.00000000000E+00 0. -1.
</event>
<event>
 8    1  0.6239251E-010  0.9118800E+02  0.7816164E-02  0.1184000E+00
        -11   -1    0    0    0    0  0.00000000000E+00  0.00000000000E+00  0.45593999997E+02  0.45594000000E+02  0.51100000000E-03 0. -1.
         11   -1    0    0    0    0 -0.00000000000E+00 -0.00000000000E+00 -0.45593999997E+02  0.45594000000E+02  0.51100000000E-03 0.  1.
         23    2    1    2    0    0  0.00000000000E+00 -0.88817841970E-15  0.00000000000E+00  0.91188000000E+02  0.91188000000E+02 0.  0.
    9900012    2    3    3    0    0  0.40637873279E+02  0.63462504122E+01  0.13853257135E+02  0.47787258391E+02  0.19999942309E+02 0.  0.
        -12    1    3    3    0    0 -0.40637873279E+02 -0.63462504122E+01 -0.13853257135E+02  0.43400741609E+02  0.00000000000E+00 0.  1.
         11    1    4    4    0    0  0.35077746254E+02  0.91987040466E+01  0.10641486328E+02  0.37792931481E+02  0.51100000000E-03 0. -1.
        -11    1    4    4    0    0  0.78933161722E-01 -0.14533100263E+01  0.40242197963E+01  0.42793323903E+01  0.51100000000E-03 0.  1.
         12    1    4    4    0    0  0.54811938630E+01 -0.13991436082E+01 -0.81244898940E+00  0.57149945197E+01  0.00000000000E+00 0. -1.
</event>
<event>
 8    1  0.6239251E-010  0.9118800E+02  0.7816164E-02  0.1184000E+00
        -11   -1    0    0    0    0  0.00000000000E+00  0.00000000000E+00  0.45593999997E+02  0.45594000000E+02  0.51100000000E-03 0. -1.
         11   -1    0    0    0    0 -0.00000000000E+00 -0.00000000000E+00 -0.45593999997E+02  0.45594000000E+02  0.51100000000E-03 0.  1.
         23    2    1    2    0    0  0.00000000000E+00 -0.88817841970E-15  0.00000000000E+00  0.91188000000E+02  0.91188000000E+02 0.  0.
    9900012    2    3    3    0    0 -0.26863276069E+02  0.18823422270E+01 -0.34035923948E+02  0.47787274978E+02  0.20000017935E+02 0.  0.
         12    1    3    3    0    0  0.26863276069E+02 -0.18823422270E+01  0.34035923948E+02  0.43400725022E+02  0.00000000000E+00 0. -1.
         11    1    4    4    0    0 -0.13507942950E+02 -0.85781457119E+01 -0.20777515178E+02  0.26225068996E+02  0.51100000000E-03 0. -1.
        -11    1    4    4    0    0 -0.11921290631E+02  0.97308328435E+01 -0.12176508522E+02  0.19623293255E+02  0.51100000000E-03 0.  1.
         12    1    4    4    0    0 -0.14340424882E+01  0.72965509545E+00 -0.10819002477E+01  0.19389127269E+01  0.00000000000E+00 0. -1.
</event>
<event>
 8    1  0.6239251E-010  0.9118800E+02  0.7816164E-02  0.1184000E+00
        -11   -1    0    0    0    0  0.00000000000E+00  0.00000000000E+00  0.45593999997E+02  0.45594000000E+02  0.51100000000E-03 0. -1.
         11   -1    0    0    0    0 -0.00000000000E+00 -0.00000000000E+00 -0.45593999997E+02  0.45594000000E+02  0.51100000000E-03 0.  1.
         23    2    1    2    0    0  0.00000000000E+00  0.71054273576E-14  0.00000000000E+00  0.91188000000E+02  0.91188000000E+02 0.  0.
    9900012    2    3    3    0    0 -0.23660804466E+02 -0.32317219879E+02 -0.16714863624E+02  0.47787273801E+02  0.20000012566E+02 0.  0.
         12    1    3    3    0    0  0.23660804466E+02  0.32317219879E+02  0.16714863624E+02  0.43400726199E+02  0.00000000000E+00 0. -1.
         11    1    4    4    0    0 -0.87101027049E+00 -0.39957471008E+01 -0.65896189471E+01  0.77554968838E+01  0.51100000000E-03 0. -1.
        -11    1    4    4    0    0 -0.23478859946E+02 -0.23885210284E+02 -0.11375006419E+02  0.35371611583E+02  0.51100000000E-03 0.  1.
        -12    1    4    4    0    0  0.68906575078E+00 -0.44362624945E+01  0.12497617422E+01  0.46601653341E+01  0.00000000000E+00 0.  1.
</event>
<event>
 8    1  0.6239251E-010  0.9118800E+02  0.7816164E-02  0.1184000E+00
        -11   -1    0    0    0    0  0.00000000000E+00  0.00000000000E+00  0.45593999997E+02  0.45594000000E+02  0.51100000000E-03 0. -1.
         11   -1    0    0    0    0 -0.00000000000E+00 -0.00000000000E+00 -0.45593999997E+02  0.45594000000E+02  0.51100000000E-03 0.  1.
         23    2    1    2    0    0  0.00000000000E+00  0.00000000000E+00 -0.35527136788E-14  0.91188000000E+02  0.91188000000E+02 0.  0.
    9900012    2    3    3    0    0  0.31887655690E+02  0.78252698343E+01 -0.28382525293E+02  0.47787249137E+02  0.19999900117E+02 0.  0.
         12    1    3    3    0    0 -0.31887655690E+02 -0.78252698343E+01  0.28382525293E+02  0.43400750863E+02  0.00000000000E+00 0. -1.
         11    1    4    4    0    0  0.67730627330E+01 -0.15165823925E+01 -0.20507680503E+01  0.72374063583E+01  0.51100000000E-03 0. -1.
        -11    1    4    4    0    0  0.96971796076E+01  0.92470463656E+01 -0.19562626002E+02  0.23711589892E+02  0.51100000000E-03 0.  1.
        -12    1    4    4    0    0  0.15417413350E+02  0.94805861136E-01 -0.67691312409E+01  0.16838252888E+02  0.00000000000E+00 0.  1.
</event>
<event>
 8    1  0.6239251E-010  0.9118800E+02  0.7816164E-02  0.1184000E+00
        -11   -1    0    0    0    0  0.00000000000E+00  0.00000000000E+00  0.45593999997E+02  0.45594000000E+02  0.51100000000E-03 0. -1.
         11   -1    0    0    0    0 -0.00000000000E+00 -0.00000000000E+00 -0.45593999997E+02  0.45594000000E+02  0.51100000000E-03 0.  1.
         23    2    1    2    0    0  0.00000000000E+00  0.35527136788E-14  0.00000000000E+00  0.91188000000E+02  0.91188000000E+02 0.  0.
    9900012    2    3    3    0    0  0.18172285896E+02 -0.21121791444E+02 -0.33275537574E+02  0.47787269023E+02  0.19999990783E+02 0.  0.
         12    1    3    3    0    0 -0.18172285896E+02  0.21121791444E+02  0.33275537574E+02  0.43400730977E+02  0.00000000000E+00 0. -1.
         11    1    4    4    0    0  0.15242302633E+02 -0.11403523003E+02 -0.99939451128E+01  0.21499931758E+02  0.51100000000E-03 0. -1.
        -11    1    4    4    0    0  0.14571596923E+01 -0.67494391965E+01 -0.21377966889E+02  0.22465433724E+02  0.51100000000E-03 0.  1.
        -12    1    4    4    0    0  0.14728235708E+01 -0.29688292447E+01 -0.19036255725E+01  0.38219035408E+01  0.00000000000E+00 0.  1.
</event>
<event>
 8    1  0.6239251E-010  0.9118800E+02  0.7816164E-02  0.1184000E+00
        -11   -1    0    0    0    0  0.00000000000E+00  0.00000000000E+00  0.45593999997E+02  0.45594000000E+02  0.51100000000E-03 0. -1.
         11   -1    0    0    0    0 -0.00000000000E+00 -0.00000000000E+00 -0.45593999997E+02  0.45594000000E+02  0.51100000000E-03 0.  1.
         23    2    1    2    0    0 -0.44408920985E-15  0.00000000000E+00  0.00000000000E+00  0.91188000000E+02  0.91188000000E+02 0.  0.
    9900012    2    3    3    0    0 -0.37696224043E+01 -0.38690524497E+02 -0.19299137638E+02  0.47787268987E+02  0.19999990619E+02 0.  0.
         12    1    3    3    0    0  0.37696224043E+01  0.38690524497E+02  0.19299137638E+02  0.43400731013E+02  0.00000000000E+00 0. -1.
         11    1    4    4    0    0  0.46207501572E+01 -0.29152332202E+01 -0.55621533729E+01  0.77966317823E+01  0.51100000000E-03 0. -1.
        -11    1    4    4    0    0 -0.95307909415E+01 -0.25933029905E+02 -0.10685611284E+02  0.29623306784E+02  0.51100000000E-03 0.  1.
        -12    1    4    4    0    0  0.11404183800E+01 -0.98422613712E+01 -0.30513729809E+01  0.10367330421E+02  0.00000000000E+00 0.  1.
</event>
<event>
 8    1  0.6239251E-010  0.9118800E+02  0.7816164E-02  0.1184000E+00
        -11   -1    0    0    0    0  0.00000000000E+00  0.00000000000E+00  0.45593999997E+02  0.45594000000E+02  0.51100000000E-03 0. -1.
         11   -1    0    0    0    0 -0.00000000000E+00 -0.00000000000E+00 -0.45593999997E+02  0.45594000000E+02  0.51100000000E-03 0.  1.
         23    2    1    2    0    0  0.35527136788E-14  0.00000000000E+00  0.00000000000E+00  0.91188000000E+02  0.91188000000E+02 0.  0.
    9900012    2    3    3    0    0 -0.19516363227E+02 -0.10343290213E+02 -0.37359759165E+02  0.47787266240E+02  0.19999978096E+02 0.  0.
         12    1    3    3    0    0  0.19516363227E+02  0.10343290213E+02  0.37359759165E+02  0.43400733760E+02  0.00000000000E+00 0. -1.
         11    1    4    4    0    0 -0.63851754301E+01 -0.66927666213E+01 -0.26259760388E+02  0.27841311144E+02  0.51100000000E-03 0. -1.
        -11    1    4    4    0    0 -0.41786832497E+01 -0.73251822225E+00 -0.94875149990E+01  0.10392830113E+02  0.51100000000E-03 0.  1.
         12    1    4    4    0    0 -0.89525045473E+01 -0.29180053690E+01 -0.16124837778E+01  0.95531249828E+01  0.00000000000E+00 0. -1.
</event>
<event>
 8    1  0.6239251E-010  0.9118800E+02  0.7816164E-02  0.1184000E+00
        -11   -1    0    0    0    0  0.00000000000E+00  0.00000000000E+00  0.45593999997E+02  0.45594000000E+02  0.51100000000E-03 0.  1.
         11   -1    0    0    0    0 -0.00000000000E+00 -0.00000000000E+00 -0.45593999997E+02  0.45594000000E+02  0.51100000000E-03 0. -1.
         23    2    1    2    0    0  0.00000000000E+00  0.00000000000E+00  0.38857805862E-15  0.91188000000E+02  0.91188000000E+02 0.  0.
    9900012    2    3    3    0    0  0.42446027281E+02 -0.90401924830E+01  0.48319199398E+00  0.47787265138E+02  0.19999973072E+02 0.  0.
         12    1    3    3    0    0 -0.42446027281E+02  0.90401924830E+01 -0.48319199398E+00  0.43400734862E+02  0.00000000000E+00 0. -1.
         11    1    4    4    0    0  0.13846815016E+02  0.39612405477E+01 -0.18471506867E+01  0.14520250641E+02  0.51100000000E-03 0. -1.
        -11    1    4    4    0    0  0.11204916325E+02  0.25178544894E+00 -0.48675564409E+00  0.11218309903E+02  0.51100000000E-03 0.  1.
         12    1    4    4    0    0  0.17394295940E+02 -0.13253218480E+02  0.28170983247E+01  0.22048704594E+02  0.00000000000E+00 0. -1.
</event>
<event>
 8    1  0.6239251E-010  0.9118800E+02  0.7816164E-02  0.1184000E+00
        -11   -1    0    0    0    0  0.00000000000E+00  0.00000000000E+00  0.45593999997E+02  0.45594000000E+02  0.51100000000E-03 0. -1.
         11   -1    0    0    0    0 -0.00000000000E+00 -0.00000000000E+00 -0.45593999997E+02  0.45594000000E+02  0.51100000000E-03 0.  1.
         23    2    1    2    0    0  0.00000000000E+00  0.00000000000E+00  0.35527136788E-14  0.91188000000E+02  0.91188000000E+02 0.  0.
    9900012    2    3    3    0    0 -0.23845041225E+02 -0.22277408795E+02  0.28613896707E+02  0.47787262467E+02  0.19999960893E+02 0.  0.
        -12    1    3    3    0    0  0.23845041225E+02  0.22277408795E+02 -0.28613896707E+02  0.43400737533E+02  0.00000000000E+00 0.  1.
         11    1    4    4    0    0 -0.19151866199E+02 -0.14486319167E+02  0.21909291366E+02  0.32506375841E+02  0.51100000000E-03 0. -1.
        -11    1    4    4    0    0 -0.24046728991E+01  0.23119216179E+01  0.21222980724E+01  0.39536796391E+01  0.51100000000E-03 0.  1.
         12    1    4    4    0    0 -0.22885021271E+01 -0.10103011247E+02  0.45823072685E+01  0.11327206987E+02  0.00000000000E+00 0. -1.
</event>
<event>
 8    1  0.6239251E-010  0.9118800E+02  0.7816164E-02  0.1184000E+00
        -11   -1    0    0    0    0  0.00000000000E+00  0.00000000000E+00  0.45593999997E+02  0.45594000000E+02  0.51100000000E-03 0. -1.
         11   -1    0    0    0    0 -0.00000000000E+00 -0.00000000000E+00 -0.45593999997E+02  0.45594000000E+02  0.51100000000E-03 0.  1.
         23    2    1    2    0    0  0.00000000000E+00  0.00000000000E+00  0.00000000000E+00  0.91188000000E+02  0.91188000000E+02 0.  0.
    9900012    2    3    3    0    0 -0.12681606531E+02  0.20019612799E+02 -0.36359526513E+02  0.47787271791E+02  0.20000003404E+02 0.  0.
         12    1    3    3    0    0  0.12681606531E+02 -0.20019612799E+02  0.36359526513E+02  0.43400728209E+02  0.00000000000E+00 0. -1.
         11    1    4    4    0    0 -0.87245983833E+01  0.20234695172E+02 -0.19171737751E+02  0.29208167253E+02  0.51100000000E-03 0.  1.
        -11    1    4    4    0    0  0.41946130253E+00 -0.21569660470E+01 -0.66741355954E+01  0.70265593657E+01  0.51100000000E-03 0. -1.
         12    1    4    4    0    0 -0.43764694503E+01  0.19418836744E+01 -0.10513653167E+02  0.11552545172E+02  0.00000000000E+00 0. -1.
</event>
<event>
 8    1  0.6239251E-010  0.9118800E+02  0.7816164E-02  0.1184000E+00
        -11   -1    0    0    0    0  0.00000000000E+00  0.00000000000E+00  0.45593999997E+02  0.45594000000E+02  0.51100000000E-03 0. -1.
         11   -1    0    0    0    0 -0.00000000000E+00 -0.00000000000E+00 -0.45593999997E+02  0.45594000000E+02  0.51100000000E-03 0.  1.
         23    2    1    2    0    0 -0.35527136788E-14  0.00000000000E+00  0.00000000000E+00  0.91188000000E+02  0.91188000000E+02 0.  0.
    9900012    2    3    3    0    0 -0.20510136954E+02  0.99497034826E+01  0.36931843271E+02  0.47787269999E+02  0.19999995232E+02 0.  0.
        -12    1    3    3    0    0  0.20510136954E+02 -0.99497034826E+01 -0.36931843271E+02  0.43400730001E+02  0.00000000000E+00 0.  1.
         11    1    4    4    0    0 -0.13087987519E+02  0.27059828840E+01  0.12240640827E+02  0.18123218500E+02  0.51100000000E-03 0. -1.
        -11    1    4    4    0    0 -0.24924024293E+00  0.67591946817E+01  0.19916513445E+02  0.21033695384E+02  0.51100000000E-03 0.  1.
        -12    1    4    4    0    0 -0.71729091914E+01  0.48452591699E+00  0.47746889986E+01  0.86303561146E+01  0.00000000000E+00 0.  1.
</event>
<event>
 8    1  0.6239251E-010  0.9118800E+02  0.7816164E-02  0.1184000E+00
        -11   -1    0    0    0    0  0.00000000000E+00  0.00000000000E+00  0.45593999997E+02  0.45594000000E+02  0.51100000000E-03 0.  1.
         11   -1    0    0    0    0 -0.00000000000E+00 -0.00000000000E+00 -0.45593999997E+02  0.45594000000E+02  0.51100000000E-03 0. -1.
         23    2    1    2    0    0  0.88817841970E-15  0.00000000000E+00  0.47184478547E-15  0.91188000000E+02  0.91188000000E+02 0.  0.
    9900012    2    3    3    0    0 -0.64820791022E+01  0.42913265709E+02 -0.23985395890E+00  0.47787271282E+02  0.20000001084E+02 0.  0.
         12    1    3    3    0    0  0.64820791022E+01 -0.42913265709E+02  0.23985395890E+00  0.43400728718E+02  0.00000000000E+00 0. -1.
         11    1    4    4    0    0  0.39392156518E+00  0.14716865672E+02  0.69431701929E+01  0.16277251672E+02  0.51100000000E-03 0. -1.
        -11    1    4    4    0    0  0.18293996061E+01  0.52899208461E+01  0.97750309005E+00  0.56820311535E+01  0.51100000000E-03 0.  1.
         12    1    4    4    0    0 -0.87054002735E+01  0.22906479191E+02 -0.81605272418E+01  0.25827988456E+02  0.00000000000E+00 0. -1.
</event>
<event>
 8    1  0.6239251E-010  0.9118800E+02  0.7816164E-02  0.1184000E+00
        -11   -1    0    0    0    0  0.00000000000E+00  0.00000000000E+00  0.45593999997E+02  0.45594000000E+02  0.51100000000E-03 0. -1.
         11   -1    0    0    0    0 -0.00000000000E+00 -0.00000000000E+00 -0.45593999997E+02  0.45594000000E+02  0.51100000000E-03 0.  1.
         23    2    1    2    0    0 -0.88817841970E-15  0.35527136788E-14  0.00000000000E+00  0.91188000000E+02  0.91188000000E+02 0.  0.
    9900012    2    3    3    0    0 -0.54070904707E+01 -0.25632317582E+02 -0.34603049398E+02  0.47787270057E+02  0.19999995496E+02 0.  0.
         12    1    3    3    0    0  0.54070904707E+01  0.25632317582E+02  0.34603049398E+02  0.43400729943E+02  0.00000000000E+00 0. -1.
         11    1    4    4    0    0  0.12117672462E+01  0.13599828684E+01 -0.14131697112E+01  0.23054245065E+01  0.51100000000E-03 0. -1.
        -11    1    4    4    0    0 -0.10775580322E+02 -0.18124882702E+02 -0.20076648540E+02  0.29115224902E+02  0.51100000000E-03 0.  1.
        -12    1    4    4    0    0  0.41567226046E+01 -0.88674177480E+01 -0.13113231147E+02  0.16366620649E+02  0.00000000000E+00 0.  1.
</event>
<event>
 8    1  0.6239251E-010  0.9118800E+02  0.7816164E-02  0.1184000E+00
        -11   -1    0    0    0    0  0.00000000000E+00  0.00000000000E+00  0.45593999997E+02  0.45594000000E+02  0.51100000000E-03 0. -1.
         11   -1    0    0    0    0 -0.00000000000E+00 -0.00000000000E+00 -0.45593999997E+02  0.45594000000E+02  0.51100000000E-03 0.  1.
         23    2    1    2    0    0  0.00000000000E+00  0.00000000000E+00  0.00000000000E+00  0.91188000000E+02  0.91188000000E+02 0.  0.
    9900012    2    3    3    0    0 -0.19302625094E+02  0.29522849204E+02 -0.25287021910E+02  0.47787269157E+02  0.19999991393E+02 0.  0.
         12    1    3    3    0    0  0.19302625094E+02 -0.29522849204E+02  0.25287021910E+02  0.43400730843E+02  0.00000000000E+00 0. -1.
         11    1    4    4    0    0 -0.19882485658E+01  0.64818624670E+01 -0.54106081438E+00  0.68015013392E+01  0.51100000000E-03 0. -1.
        -11    1    4    4    0    0 -0.14054348926E+02  0.90765290577E+01 -0.19554731059E+02  0.25735104634E+02  0.51100000000E-03 0.  1.
        -12    1    4    4    0    0 -0.32600276026E+01  0.13964457679E+02 -0.51912300361E+01  0.15250663183E+02  0.00000000000E+00 0.  1.
</event>
<event>
 8    1  0.6239251E-010  0.9118800E+02  0.7816164E-02  0.1184000E+00
        -11   -1    0    0    0    0  0.00000000000E+00  0.00000000000E+00  0.45593999997E+02  0.45594000000E+02  0.51100000000E-03 0. -1.
         11   -1    0    0    0    0 -0.00000000000E+00 -0.00000000000E+00 -0.45593999997E+02  0.45594000000E+02  0.51100000000E-03 0.  1.
         23    2    1    2    0    0  0.00000000000E+00  0.00000000000E+00  0.00000000000E+00  0.91188000000E+02  0.91188000000E+02 0.  0.
    9900012    2    3    3    0    0 -0.28226517119E+02 -0.19681837629E+02 -0.26448292578E+02  0.47787272110E+02  0.20000004857E+02 0.  0.
         12    1    3    3    0    0  0.28226517119E+02  0.19681837629E+02  0.26448292578E+02  0.43400727890E+02  0.00000000000E+00 0. -1.
         11    1    4    4    0    0  0.11044230006E+01 -0.31149772827E+01  0.76872087088E+00  0.33931940225E+01  0.51100000000E-03 0. -1.
        -11    1    4    4    0    0 -0.23329465878E+02 -0.84052751380E+01 -0.21103103099E+02  0.32561535421E+02  0.51100000000E-03 0.  1.
        -12    1    4    4    0    0 -0.60014742408E+01 -0.81615852083E+01 -0.61139103498E+01  0.11832542666E+02  0.00000000000E+00 0.  1.
</event>
<event>
 8    1  0.6239251E-010  0.9118800E+02  0.7816164E-02  0.1184000E+00
        -11   -1    0    0    0    0  0.00000000000E+00  0.00000000000E+00  0.45593999997E+02  0.45594000000E+02  0.51100000000E-03 0. -1.
         11   -1    0    0    0    0 -0.00000000000E+00 -0.00000000000E+00 -0.45593999997E+02  0.45594000000E+02  0.51100000000E-03 0.  1.
         23    2    1    2    0    0  0.35527136788E-14  0.00000000000E+00  0.00000000000E+00  0.91188000000E+02  0.91188000000E+02 0.  0.
    9900012    2    3    3    0    0  0.29901352662E+02 -0.13227678589E+02 -0.28540513694E+02  0.47787270815E+02  0.19999998953E+02 0.  0.
         12    1    3    3    0    0 -0.29901352662E+02  0.13227678589E+02  0.28540513694E+02  0.43400729185E+02  0.00000000000E+00 0. -1.
         11    1    4    4    0    0  0.27822336002E+02 -0.11174395102E+02 -0.15171345334E+02  0.33602369054E+02  0.51100000000E-03 0. -1.
        -11    1    4    4    0    0  0.31118698746E+01 -0.11508033262E+01 -0.10349882840E+02  0.10868677817E+02  0.51100000000E-03 0.  1.
         12    1    4    4    0    0 -0.10328532143E+01 -0.90248016098E+00 -0.30192855194E+01  0.33162239446E+01  0.00000000000E+00 0. -1.
</event>
<event>
 8    1  0.6239251E-010  0.9118800E+02  0.7816164E-02  0.1184000E+00
        -11   -1    0    0    0    0  0.00000000000E+00  0.00000000000E+00  0.45593999997E+02  0.45594000000E+02  0.51100000000E-03 0. -1.
         11   -1    0    0    0    0 -0.00000000000E+00 -0.00000000000E+00 -0.45593999997E+02  0.45594000000E+02  0.51100000000E-03 0.  1.
         23    2    1    2    0    0  0.00000000000E+00  0.00000000000E+00  0.00000000000E+00  0.91188000000E+02  0.91188000000E+02 0.  0.
    9900012    2    3    3    0    0 -0.27644988565E+02 -0.24599401468E+02  0.22677020562E+02  0.47787271816E+02  0.20000003518E+02 0.  0.
        -12    1    3    3    0    0  0.27644988565E+02  0.24599401468E+02 -0.22677020562E+02  0.43400728184E+02  0.00000000000E+00 0.  1.
         11    1    4    4    0    0 -0.33518669199E+01  0.43086096298E+00  0.58988633782E+01  0.67983264437E+01  0.51100000000E-03 0. -1.
        -11    1    4    4    0    0 -0.19843670531E+02 -0.19070210662E+02  0.64603327840E+01  0.28269773519E+02  0.51100000000E-03 0.  1.
        -12    1    4    4    0    0 -0.44494511136E+01 -0.59600517685E+01  0.10317824400E+02  0.12719171853E+02  0.00000000000E+00 0.  1.
</event>
<event>
 8    1  0.6239251E-010  0.9118800E+02  0.7816164E-02  0.1184000E+00
        -11   -1    0    0    0    0  0.00000000000E+00  0.00000000000E+00  0.45593999997E+02  0.45594000000E+02  0.51100000000E-03 0. -1.
         11   -1    0    0    0    0 -0.00000000000E+00 -0.00000000000E+00 -0.45593999997E+02  0.45594000000E+02  0.51100000000E-03 0.  1.
         23    2    1    2    0    0  0.00000000000E+00  0.17763568394E-14  0.00000000000E+00  0.91188000000E+02  0.91188000000E+02 0.  0.
    9900012    2    3    3    0    0 -0.52008574911E+01 -0.15980515712E+02 -0.40014968947E+02  0.47787267969E+02  0.19999985976E+02 0.  0.
         12    1    3    3    0    0  0.52008574911E+01  0.15980515712E+02  0.40014968947E+02  0.43400732031E+02  0.00000000000E+00 0. -1.
         11    1    4    4    0    0 -0.32819741661E+01  0.23956954946E+01 -0.65935972254E+01  0.77450781766E+01  0.51100000000E-03 0. -1.
        -11    1    4    4    0    0  0.18677453065E+00 -0.19502447444E+02 -0.31115447754E+02  0.36722628313E+02  0.51100000000E-03 0.  1.
        -12    1    4    4    0    0 -0.21056578556E+01  0.11262362377E+01 -0.23059239671E+01  0.33195614786E+01  0.00000000000E+00 0.  1.
</event>
<event>
 8    1  0.6239251E-010  0.9118800E+02  0.7816164E-02  0.1184000E+00
        -11   -1    0    0    0    0  0.00000000000E+00  0.00000000000E+00  0.45593999997E+02  0.45594000000E+02  0.51100000000E-03 0. -1.
         11   -1    0    0    0    0 -0.00000000000E+00 -0.00000000000E+00 -0.45593999997E+02  0.45594000000E+02  0.51100000000E-03 0.  1.
         23    2    1    2    0    0  0.35527136788E-14  0.00000000000E+00  0.00000000000E+00  0.91188000000E+02  0.91188000000E+02 0.  0.
    9900012    2    3    3    0    0  0.22788565300E+02  0.94301923750E+01  0.35712403385E+02  0.47787274289E+02  0.20000014795E+02 0.  0.
        -12    1    3    3    0    0 -0.22788565300E+02 -0.94301923750E+01 -0.35712403385E+02  0.43400725711E+02  0.00000000000E+00 0.  1.
         11    1    4    4    0    0  0.63399107957E+01  0.96194064824E+01  0.18825312264E+02  0.22070791378E+02  0.51100000000E-03 0. -1.
        -11    1    4    4    0    0  0.12166006516E+02 -0.42104452730E+01  0.14459062402E+02  0.19359856657E+02  0.51100000000E-03 0.  1.
         12    1    4    4    0    0  0.42826479879E+01  0.40212311656E+01  0.24280287190E+01  0.63566262542E+01  0.00000000000E+00 0. -1.
</event>
<event>
 8    1  0.6239251E-010  0.9118800E+02  0.7816164E-02  0.1184000E+00
        -11   -1    0    0    0    0  0.00000000000E+00  0.00000000000E+00  0.45593999997E+02  0.45594000000E+02  0.51100000000E-03 0. -1.
         11   -1    0    0    0    0 -0.00000000000E+00 -0.00000000000E+00 -0.45593999997E+02  0.45594000000E+02  0.51100000000E-03 0.  1.
         23    2    1    2    0    0  0.00000000000E+00  0.00000000000E+00 -0.71054273576E-14  0.91188000000E+02  0.91188000000E+02 0.  0.
    9900012    2    3    3    0    0 -0.14521747311E+02  0.20853097684E+02  0.35183614391E+02  0.47787313950E+02  0.20000195624E+02 0.  0.
        -12    1    3    3    0    0  0.14521747311E+02 -0.20853097684E+02 -0.35183614391E+02  0.43400686050E+02  0.00000000000E+00 0.  1.
         11    1    4    4    0    0  0.26083402109E+01  0.62165670034E+00  0.16585970672E+01  0.31529097991E+01  0.51100000000E-03 0.  1.
        -11    1    4    4    0    0 -0.12993428470E+02  0.19197984534E+02  0.20557558891E+02  0.30983947802E+02  0.51100000000E-03 0. -1.
        -12    1    4    4    0    0 -0.41366590520E+01  0.10334564497E+01  0.12967458433E+02  0.13650456350E+02  0.00000000000E+00 0.  1.
</event>
<event>
 8    1  0.6239251E-010  0.9118800E+02  0.7816164E-02  0.1184000E+00
        -11   -1    0    0    0    0  0.00000000000E+00  0.00000000000E+00  0.45593999997E+02  0.45594000000E+02  0.51100000000E-03 0. -1.
         11   -1    0    0    0    0 -0.00000000000E+00 -0.00000000000E+00 -0.45593999997E+02  0.45594000000E+02  0.51100000000E-03 0.  1.
         23    2    1    2    0    0  0.17763568394E-14  0.35527136788E-14  0.00000000000E+00  0.91188000000E+02  0.91188000000E+02 0.  0.
    9900012    2    3    3    0    0 -0.96511948581E+01  0.24377870317E+02 -0.34586083611E+02  0.47787270710E+02  0.19999998474E+02 0.  0.
         12    1    3    3    0    0  0.96511948581E+01 -0.24377870317E+02  0.34586083611E+02  0.43400729290E+02  0.00000000000E+00 0. -1.
         11    1    4    4    0    0 -0.36066443085E-01 -0.29006321213E+01 -0.16642861725E+01  0.33443708252E+01  0.51100000000E-03 0. -1.
        -11    1    4    4    0    0 -0.37801110080E+01  0.19544421872E+02 -0.19295397574E+02  0.27723384233E+02  0.51100000000E-03 0.  1.
         12    1    4    4    0    0 -0.58350174070E+01  0.77340805669E+01 -0.13626399865E+02  0.16719515652E+02  0.00000000000E+00 0. -1.
</event>
<event>
 8    1  0.6239251E-010  0.9118800E+02  0.7816164E-02  0.1184000E+00
        -11   -1    0    0    0    0  0.00000000000E+00  0.00000000000E+00  0.45593999997E+02  0.45594000000E+02  0.51100000000E-03 0. -1.
         11   -1    0    0    0    0 -0.00000000000E+00 -0.00000000000E+00 -0.45593999997E+02  0.45594000000E+02  0.51100000000E-03 0.  1.
         23    2    1    2    0    0  0.71054273576E-14  0.00000000000E+00  0.00000000000E+00  0.91188000000E+02  0.91188000000E+02 0.  0.
    9900012    2    3    3    0    0 -0.38312898174E+02 -0.33353279588E+01  0.20115184649E+02  0.47787271520E+02  0.20000002170E+02 0.  0.
        -12    1    3    3    0    0  0.38312898174E+02  0.33353279588E+01 -0.20115184649E+02  0.43400728480E+02  0.00000000000E+00 0.  1.
         11    1    4    4    0    0 -0.29556010054E+02 -0.44476458187E+01  0.20597070662E+02  0.36298465584E+02  0.51100000000E-03 0. -1.
        -11    1    4    4    0    0 -0.25956595627E+01 -0.31705626680E+00  0.32295047217E+01  0.41554391164E+01  0.51100000000E-03 0.  1.
         12    1    4    4    0    0 -0.61612285573E+01  0.14293741267E+01 -0.37113907344E+01  0.73333668198E+01  0.00000000000E+00 0. -1.
</event>
<event>
 8    1  0.6239251E-010  0.9118800E+02  0.7816164E-02  0.1184000E+00
        -11   -1    0    0    0    0  0.00000000000E+00  0.00000000000E+00  0.45593999997E+02  0.45594000000E+02  0.51100000000E-03 0. -1.
         11   -1    0    0    0    0 -0.00000000000E+00 -0.00000000000E+00 -0.45593999997E+02  0.45594000000E+02  0.51100000000E-03 0.  1.
         23    2    1    2    0    0  0.00000000000E+00  0.00000000000E+00  0.00000000000E+00  0.91188000000E+02  0.91188000000E+02 0.  0.
    9900012    2    3    3    0    0 -0.14723146770E+02 -0.16201654072E+02 -0.37474778995E+02  0.47787266064E+02  0.19999977293E+02 0.  0.
         12    1    3    3    0    0  0.14723146770E+02  0.16201654072E+02  0.37474778995E+02  0.43400733936E+02  0.00000000000E+00 0. -1.
         11    1    4    4    0    0 -0.65369570791E+01 -0.68512107470E+01 -0.29704428174E+01  0.99244358704E+01  0.51100000000E-03 0. -1.
        -11    1    4    4    0    0 -0.10040997137E+02 -0.65756874193E+01 -0.23881757619E+02  0.26728255382E+02  0.51100000000E-03 0.  1.
         12    1    4    4    0    0  0.18548074466E+01 -0.27747559053E+01 -0.10622578559E+02  0.11134574811E+02  0.00000000000E+00 0. -1.
</event>
<event>
 8    1  0.6239251E-010  0.9118800E+02  0.7816164E-02  0.1184000E+00
        -11   -1    0    0    0    0  0.00000000000E+00  0.00000000000E+00  0.45593999997E+02  0.45594000000E+02  0.51100000000E-03 0.  1.
         11   -1    0    0    0    0 -0.00000000000E+00 -0.00000000000E+00 -0.45593999997E+02  0.45594000000E+02  0.51100000000E-03 0. -1.
         23    2    1    2    0    0  0.35527136788E-14  0.00000000000E+00  0.44408920985E-15  0.91188000000E+02  0.91188000000E+02 0.  0.
    9900012    2    3    3    0    0  0.31506951483E+02 -0.29706673045E+02  0.29066797745E+01  0.47787271867E+02  0.20000003751E+02 0.  0.
         12    1    3    3    0    0 -0.31506951483E+02  0.29706673045E+02 -0.29066797745E+01  0.43400728133E+02  0.00000000000E+00 0. -1.
         11    1    4    4    0    0  0.65267943937E+01 -0.90947405026E+01  0.31161047027E+01  0.11619959494E+02  0.51100000000E-03 0.  1.
        -11    1    4    4    0    0  0.60142776860E+00 -0.92508873906E+01  0.74280851070E-02  0.92704200720E+01  0.51100000000E-03 0. -1.
        -12    1    4    4    0    0  0.24378729320E+02 -0.11361045152E+02 -0.21685301330E+00  0.26896892301E+02  0.00000000000E+00 0.  1.
</event>
<event>
 8    1  0.6239251E-010  0.9118800E+02  0.7816164E-02  0.1184000E+00
        -11   -1    0    0    0    0  0.00000000000E+00  0.00000000000E+00  0.45593999997E+02  0.45594000000E+02  0.51100000000E-03 0. -1.
         11   -1    0    0    0    0 -0.00000000000E+00 -0.00000000000E+00 -0.45593999997E+02  0.45594000000E+02  0.51100000000E-03 0.  1.
         23    2    1    2    0    0  0.00000000000E+00  0.00000000000E+00  0.17763568394E-14  0.91188000000E+02  0.91188000000E+02 0.  0.
    9900012    2    3    3    0    0  0.41164711749E+02 -0.47494721862E+01  0.12904739487E+02  0.47787270966E+02  0.19999999642E+02 0.  0.
        -12    1    3    3    0    0 -0.41164711749E+02  0.47494721862E+01 -0.12904739487E+02  0.43400729034E+02  0.00000000000E+00 0.  1.
         11    1    4    4    0    0  0.10821460704E+01  0.33041056561E+00 -0.79239673873E+00  0.13813414177E+01  0.51100000000E-03 0.  1.
        -11    1    4    4    0    0  0.36305803308E+02  0.16829966528E+01  0.13112788402E+02  0.38637922453E+02  0.51100000000E-03 0. -1.
        -12    1    4    4    0    0  0.37767623708E+01 -0.67628794046E+01  0.58434782410E+00  0.77680070949E+01  0.00000000000E+00 0.  1.
</event>
<event>
 8    1  0.6239251E-010  0.9118800E+02  0.7816164E-02  0.1184000E+00
        -11   -1    0    0    0    0  0.00000000000E+00  0.00000000000E+00  0.45593999997E+02  0.45594000000E+02  0.51100000000E-03 0. -1.
         11   -1    0    0    0    0 -0.00000000000E+00 -0.00000000000E+00 -0.45593999997E+02  0.45594000000E+02  0.51100000000E-03 0.  1.
         23    2    1    2    0    0  0.00000000000E+00  0.55511151231E-16  0.00000000000E+00  0.91188000000E+02  0.91188000000E+02 0.  0.
    9900012    2    3    3    0    0  0.14219715884E+02  0.45692722711E+00 -0.41002611618E+02  0.47787271184E+02  0.20000000636E+02 0.  0.
         12    1    3    3    0    0 -0.14219715884E+02 -0.45692722711E+00  0.41002611618E+02  0.43400728816E+02  0.00000000000E+00 0. -1.
         11    1    4    4    0    0 -0.22676567593E+01  0.72085498482E+00 -0.28747088949E+00  0.23967767649E+01  0.51100000000E-03 0. -1.
        -11    1    4    4    0    0  0.50122519589E+01  0.59270036207E+00 -0.27090863315E+02  0.27557010702E+02  0.51100000000E-03 0.  1.
        -12    1    4    4    0    0  0.11475120684E+02 -0.85662811978E+00 -0.13624277413E+02  0.17833483717E+02  0.00000000000E+00 0.  1.
</event>
<event>
 8    1  0.6239251E-010  0.9118800E+02  0.7816164E-02  0.1184000E+00
        -11   -1    0    0    0    0  0.00000000000E+00  0.00000000000E+00  0.45593999997E+02  0.45594000000E+02  0.51100000000E-03 0. -1.
         11   -1    0    0    0    0 -0.00000000000E+00 -0.00000000000E+00 -0.45593999997E+02  0.45594000000E+02  0.51100000000E-03 0.  1.
         23    2    1    2    0    0  0.00000000000E+00 -0.71054273576E-14  0.00000000000E+00  0.91188000000E+02  0.91188000000E+02 0.  0.
    9900012    2    3    3    0    0 -0.90457954393E+01  0.40580461187E+02  0.12450828209E+02  0.47787269956E+02  0.19999995037E+02 0.  0.
        -12    1    3    3    0    0  0.90457954393E+01 -0.40580461187E+02 -0.12450828209E+02  0.43400730044E+02  0.00000000000E+00 0.  1.
         11    1    4    4    0    0 -0.11246041015E+01  0.18899341467E+02  0.12087027144E+02  0.22462102922E+02  0.51100000000E-03 0.  1.
        -11    1    4    4    0    0 -0.89628157698E+01  0.20956153224E+02  0.24078363924E+01  0.22919208119E+02  0.51100000000E-03 0. -1.
         12    1    4    4    0    0  0.10416244320E+01  0.72496649650E+00 -0.20440353272E+01  0.24059589143E+01  0.00000000000E+00 0. -1.
</event>
<event>
 8    1  0.6239251E-010  0.9118800E+02  0.7816164E-02  0.1184000E+00
        -11   -1    0    0    0    0  0.00000000000E+00  0.00000000000E+00  0.45593999997E+02  0.45594000000E+02  0.51100000000E-03 0. -1.
         11   -1    0    0    0    0 -0.00000000000E+00 -0.00000000000E+00 -0.45593999997E+02  0.45594000000E+02  0.51100000000E-03 0.  1.
         23    2    1    2    0    0  0.00000000000E+00 -0.88817841970E-15  0.71054273576E-14  0.91188000000E+02  0.91188000000E+02 0.  0.
    9900012    2    3    3    0    0 -0.51285001630E+01 -0.59520985835E+01  0.42683651803E+02  0.47787272786E+02  0.20000007938E+02 0.  0.
        -12    1    3    3    0    0  0.51285001630E+01  0.59520985835E+01 -0.42683651803E+02  0.43400727214E+02  0.00000000000E+00 0.  1.
         11    1    4    4    0    0 -0.35733090519E+01 -0.29010052260E+01  0.32770608337E+02  0.33092251963E+02  0.51100000000E-03 0. -1.
        -11    1    4    4    0    0  0.30050988849E+01 -0.44303962220E+01  0.78536199763E+01  0.95046502821E+01  0.51100000000E-03 0.  1.
         12    1    4    4    0    0 -0.45602899960E+01  0.13793028645E+01  0.20594234896E+01  0.51903705406E+01  0.00000000000E+00 0. -1.
</event>
<event>
 8    1  0.6239251E-010  0.9118800E+02  0.7816164E-02  0.1184000E+00
        -11   -1    0    0    0    0  0.00000000000E+00  0.00000000000E+00  0.45593999997E+02  0.45594000000E+02  0.51100000000E-03 0. -1.
         11   -1    0    0    0    0 -0.00000000000E+00 -0.00000000000E+00 -0.45593999997E+02  0.45594000000E+02  0.51100000000E-03 0.  1.
         23    2    1    2    0    0 -0.71054273576E-14  0.35527136788E-14  0.00000000000E+00  0.91188000000E+02  0.91188000000E+02 0.  0.
    9900012    2    3    3    0    0 -0.36844830981E+02 -0.16533347864E+02  0.15897475475E+02  0.47787275489E+02  0.20000020264E+02 0.  0.
        -12    1    3    3    0    0  0.36844830981E+02  0.16533347864E+02 -0.15897475475E+02  0.43400724511E+02  0.00000000000E+00 0.  1.
         11    1    4    4    0    0 -0.13626161966E+02 -0.93339779430E+01  0.12369815524E+02  0.20635110141E+02  0.51100000000E-03 0. -1.
        -11    1    4    4    0    0 -0.38508049040E+01 -0.37424205983E+01 -0.33285951227E+01  0.63177492903E+01  0.51100000000E-03 0.  1.
        -12    1    4    4    0    0 -0.19367864111E+02 -0.34569493232E+01  0.68562550732E+01  0.20834416058E+02  0.00000000000E+00 0.  1.
</event>
<event>
 8    1  0.6239251E-010  0.9118800E+02  0.7816164E-02  0.1184000E+00
        -11   -1    0    0    0    0  0.00000000000E+00  0.00000000000E+00  0.45593999997E+02  0.45594000000E+02  0.51100000000E-03 0. -1.
         11   -1    0    0    0    0 -0.00000000000E+00 -0.00000000000E+00 -0.45593999997E+02  0.45594000000E+02  0.51100000000E-03 0.  1.
         23    2    1    2    0    0 -0.17763568394E-14 -0.35527136788E-14  0.00000000000E+00  0.91188000000E+02  0.91188000000E+02 0.  0.
    9900012    2    3    3    0    0  0.93546258592E+01 -0.30479487730E+02  0.29446816933E+02  0.47787271610E+02  0.20000002579E+02 0.  0.
        -12    1    3    3    0    0 -0.93546258592E+01  0.30479487730E+02 -0.29446816933E+02  0.43400728390E+02  0.00000000000E+00 0.  1.
         11    1    4    4    0    0  0.51724623562E+01 -0.23641580602E+02  0.25388666155E+02  0.35075106124E+02  0.51100000000E-03 0. -1.
        -11    1    4    4    0    0  0.23886152585E+01 -0.39736578142E+01 -0.25490539074E+01  0.52908520449E+01  0.51100000000E-03 0.  1.
         12    1    4    4    0    0  0.17935482445E+01 -0.28642493138E+01  0.66072046857E+01  0.74213134414E+01  0.00000000000E+00 0. -1.
</event>
<event>
 8    1  0.6239251E-010  0.9118800E+02  0.7816164E-02  0.1184000E+00
        -11   -1    0    0    0    0  0.00000000000E+00  0.00000000000E+00  0.45593999997E+02  0.45594000000E+02  0.51100000000E-03 0. -1.
         11   -1    0    0    0    0 -0.00000000000E+00 -0.00000000000E+00 -0.45593999997E+02  0.45594000000E+02  0.51100000000E-03 0.  1.
         23    2    1    2    0    0  0.00000000000E+00  0.00000000000E+00  0.35527136788E-14  0.91188000000E+02  0.91188000000E+02 0.  0.
    9900012    2    3    3    0    0  0.29773666252E+02  0.19574558805E+02  0.24778794599E+02  0.47787271708E+02  0.20000003026E+02 0.  0.
        -12    1    3    3    0    0 -0.29773666252E+02 -0.19574558805E+02 -0.24778794599E+02  0.43400728292E+02  0.00000000000E+00 0.  1.
         11    1    4    4    0    0  0.23614398061E+02  0.22133958002E+02  0.24104693025E+02  0.40355769337E+02  0.51100000000E-03 0. -1.
        -11    1    4    4    0    0  0.34479516789E+01 -0.79554471219E+00 -0.11466533569E+01  0.37196876685E+01  0.51100000000E-03 0.  1.
         12    1    4    4    0    0  0.27113165119E+01 -0.17638544854E+01  0.18207549303E+01  0.37118147030E+01  0.00000000000E+00 0. -1.
</event>
<event>
 8    1  0.6239251E-010  0.9118800E+02  0.7816164E-02  0.1184000E+00
        -11   -1    0    0    0    0  0.00000000000E+00  0.00000000000E+00  0.45593999997E+02  0.45594000000E+02  0.51100000000E-03 0.  1.
         11   -1    0    0    0    0 -0.00000000000E+00 -0.00000000000E+00 -0.45593999997E+02  0.45594000000E+02  0.51100000000E-03 0. -1.
         23    2    1    2    0    0 -0.71054273576E-14  0.88817841970E-15  0.88817841970E-15  0.91188000000E+02  0.91188000000E+02 0.  0.
    9900012    2    3    3    0    0  0.42754419606E+02 -0.31816959711E+01 -0.67497827511E+01  0.47787272445E+02  0.20000006386E+02 0.  0.
         12    1    3    3    0    0 -0.42754419606E+02  0.31816959711E+01  0.67497827511E+01  0.43400727555E+02  0.00000000000E+00 0. -1.
         11    1    4    4    0    0  0.41852679672E+01 -0.40183795317E+01 -0.67918205559E+01  0.89326742213E+01  0.51100000000E-03 0. -1.
        -11    1    4    4    0    0  0.23183756814E+02  0.26121469835E+01 -0.80071489832E+00  0.23344186353E+02  0.51100000000E-03 0.  1.
         12    1    4    4    0    0  0.15385394825E+02 -0.17754634229E+01  0.84275270317E+00  0.15510411871E+02  0.00000000000E+00 0. -1.
</event>
<event>
 8    1  0.6239251E-010  0.9118800E+02  0.7816164E-02  0.1184000E+00
        -11   -1    0    0    0    0  0.00000000000E+00  0.00000000000E+00  0.45593999997E+02  0.45594000000E+02  0.51100000000E-03 0. -1.
         11   -1    0    0    0    0 -0.00000000000E+00 -0.00000000000E+00 -0.45593999997E+02  0.45594000000E+02  0.51100000000E-03 0.  1.
         23    2    1    2    0    0  0.00000000000E+00  0.00000000000E+00  0.00000000000E+00  0.91188000000E+02  0.91188000000E+02 0.  0.
    9900012    2    3    3    0    0  0.85325209811E+01 -0.25587588539E+02  0.34001397798E+02  0.47787266668E+02  0.19999980046E+02 0.  0.
        -12    1    3    3    0    0 -0.85325209811E+01  0.25587588539E+02 -0.34001397798E+02  0.43400733332E+02  0.00000000000E+00 0.  1.
         11    1    4    4    0    0  0.14435568949E+01 -0.20286194046E+02  0.17493367146E+02  0.26825946764E+02  0.51100000000E-03 0. -1.
        -11    1    4    4    0    0  0.48475997585E+01 -0.21383130682E+01  0.16231985559E+02  0.17074804879E+02  0.51100000000E-03 0.  1.
         12    1    4    4    0    0  0.22413643277E+01 -0.31630814248E+01  0.27604509237E+00  0.38865150253E+01  0.00000000000E+00 0. -1.
</event>
<event>
 8    1  0.6239251E-010  0.9118800E+02  0.7816164E-02  0.1184000E+00
        -11   -1    0    0    0    0  0.00000000000E+00  0.00000000000E+00  0.45593999997E+02  0.45594000000E+02  0.51100000000E-03 0. -1.
         11   -1    0    0    0    0 -0.00000000000E+00 -0.00000000000E+00 -0.45593999997E+02  0.45594000000E+02  0.51100000000E-03 0.  1.
         23    2    1    2    0    0  0.00000000000E+00  0.00000000000E+00  0.00000000000E+00  0.91188000000E+02  0.91188000000E+02 0.  0.
    9900012    2    3    3    0    0 -0.27703281931E+02  0.83844187927E+01 -0.32339653637E+02  0.47787268375E+02  0.19999987829E+02 0.  0.
         12    1    3    3    0    0  0.27703281931E+02 -0.83844187927E+01  0.32339653637E+02  0.43400731625E+02  0.00000000000E+00 0. -1.
         11    1    4    4    0    0  0.36104852928E-01  0.98315794631E+00  0.15511748487E+01  0.18368578552E+01  0.51100000000E-03 0. -1.
        -11    1    4    4    0    0 -0.23520567401E+02  0.52585459018E+01 -0.20140624651E+02  0.31408822924E+02  0.51100000000E-03 0.  1.
        -12    1    4    4    0    0 -0.42188193825E+01  0.21427149446E+01 -0.13750203835E+02  0.14541587596E+02  0.00000000000E+00 0.  1.
</event>
<event>
 8    1  0.6239251E-010  0.9118800E+02  0.7816164E-02  0.1184000E+00
        -11   -1    0    0    0    0  0.00000000000E+00  0.00000000000E+00  0.45593999997E+02  0.45594000000E+02  0.51100000000E-03 0.  1.
         11   -1    0    0    0    0 -0.00000000000E+00 -0.00000000000E+00 -0.45593999997E+02  0.45594000000E+02  0.51100000000E-03 0. -1.
         23    2    1    2    0    0  0.00000000000E+00  0.00000000000E+00  0.00000000000E+00  0.91188000000E+02  0.91188000000E+02 0.  0.
    9900012    2    3    3    0    0 -0.34887815420E+02 -0.23046845861E+02  0.11632115521E+02  0.47787275577E+02  0.20000020667E+02 0.  0.
        -12    1    3    3    0    0  0.34887815420E+02  0.23046845861E+02 -0.11632115521E+02  0.43400724423E+02  0.00000000000E+00 0.  1.
         11    1    4    4    0    0 -0.14035060776E+02 -0.73453572001E+01 -0.50361396924E+01  0.16622271404E+02  0.51100000000E-03 0. -1.
        -11    1    4    4    0    0 -0.88382748667E+01 -0.57656451690E+01  0.85837549103E+01  0.13602889967E+02  0.51100000000E-03 0.  1.
         12    1    4    4    0    0 -0.12014479777E+02 -0.99358434921E+01  0.80845003034E+01  0.17562114206E+02  0.00000000000E+00 0. -1.
</event>
<event>
 8    1  0.6239251E-010  0.9118800E+02  0.7816164E-02  0.1184000E+00
        -11   -1    0    0    0    0  0.00000000000E+00  0.00000000000E+00  0.45593999997E+02  0.45594000000E+02  0.51100000000E-03 0. -1.
         11   -1    0    0    0    0 -0.00000000000E+00 -0.00000000000E+00 -0.45593999997E+02  0.45594000000E+02  0.51100000000E-03 0.  1.
         23    2    1    2    0    0  0.00000000000E+00 -0.44408920985E-15 -0.71054273576E-14  0.91188000000E+02  0.91188000000E+02 0.  0.
    9900012    2    3    3    0    0  0.14622895831E+02 -0.29891167312E+01 -0.40753643051E+02  0.47787270475E+02  0.19999997405E+02 0.  0.
         12    1    3    3    0    0 -0.14622895831E+02  0.29891167312E+01  0.40753643051E+02  0.43400729525E+02  0.00000000000E+00 0. -1.
         11    1    4    4    0    0 -0.24030723143E+01 -0.39666061226E+01 -0.56400044755E+01  0.73019429897E+01  0.51100000000E-03 0. -1.
        -11    1    4    4    0    0  0.15184011147E+02 -0.28977633053E+01 -0.23738555822E+02  0.28327906020E+02  0.51100000000E-03 0.  1.
         12    1    4    4    0    0  0.18419569989E+01  0.38752526967E+01 -0.11375082753E+02  0.12157421466E+02  0.00000000000E+00 0. -1.
</event>
<event>
 8    1  0.6239251E-010  0.9118800E+02  0.7816164E-02  0.1184000E+00
        -11   -1    0    0    0    0  0.00000000000E+00  0.00000000000E+00  0.45593999997E+02  0.45594000000E+02  0.51100000000E-03 0. -1.
         11   -1    0    0    0    0 -0.00000000000E+00 -0.00000000000E+00 -0.45593999997E+02  0.45594000000E+02  0.51100000000E-03 0.  1.
         23    2    1    2    0    0  0.00000000000E+00  0.00000000000E+00  0.00000000000E+00  0.91188000000E+02  0.91188000000E+02 0.  0.
    9900012    2    3    3    0    0 -0.33196345451E+02  0.26815930662E+02  0.79077088868E+01  0.47787270186E+02  0.19999996085E+02 0.  0.
        -12    1    3    3    0    0  0.33196345451E+02 -0.26815930662E+02 -0.79077088868E+01  0.43400729814E+02  0.00000000000E+00 0.  1.
         11    1    4    4    0    0 -0.94539624186E+01  0.13028656096E+02 -0.42633359125E+01  0.16652306701E+02  0.51100000000E-03 0. -1.
        -11    1    4    4    0    0 -0.53768789427E-01 -0.55101277333E+00 -0.44118041624E+00  0.70791707133E+00  0.51100000000E-03 0.  1.
         12    1    4    4    0    0 -0.23688614243E+02  0.14338287339E+02  0.12612225216E+02  0.30427046414E+02  0.00000000000E+00 0. -1.
</event>
<event>
 8    1  0.6239251E-010  0.9118800E+02  0.7816164E-02  0.1184000E+00
        -11   -1    0    0    0    0  0.00000000000E+00  0.00000000000E+00  0.45593999997E+02  0.45594000000E+02  0.51100000000E-03 0. -1.
         11   -1    0    0    0    0 -0.00000000000E+00 -0.00000000000E+00 -0.45593999997E+02  0.45594000000E+02  0.51100000000E-03 0.  1.
         23    2    1    2    0    0  0.00000000000E+00  0.00000000000E+00  0.35527136788E-14  0.91188000000E+02  0.91188000000E+02 0.  0.
    9900012    2    3    3    0    0  0.84519893529E+01 -0.36199756258E+02  0.22400086479E+02  0.47787281671E+02  0.20000048452E+02 0.  0.
        -12    1    3    3    0    0 -0.84519893529E+01  0.36199756258E+02 -0.22400086479E+02  0.43400718329E+02  0.00000000000E+00 0.  1.
         11    1    4    4    0    0 -0.56428680522E+01 -0.10818570971E+02  0.76429705257E+01  0.14397862217E+02  0.51100000000E-03 0. -1.
        -11    1    4    4    0    0  0.89681886644E+01 -0.99988867323E+01  0.43313929285E+01  0.14112657750E+02  0.51100000000E-03 0.  1.
         12    1    4    4    0    0  0.51266687407E+01 -0.15382298555E+02  0.10425723025E+02  0.19276761704E+02  0.00000000000E+00 0. -1.
</event>
<event>
 8    1  0.6239251E-010  0.9118800E+02  0.7816164E-02  0.1184000E+00
        -11   -1    0    0    0    0  0.00000000000E+00  0.00000000000E+00  0.45593999997E+02  0.45594000000E+02  0.51100000000E-03 0. -1.
         11   -1    0    0    0    0 -0.00000000000E+00 -0.00000000000E+00 -0.45593999997E+02  0.45594000000E+02  0.51100000000E-03 0.  1.
         23    2    1    2    0    0  0.00000000000E+00  0.00000000000E+00  0.35527136788E-14  0.91188000000E+02  0.91188000000E+02 0.  0.
    9900012    2    3    3    0    0 -0.32733290691E+02 -0.35250787603E+01  0.28279473482E+02  0.47787272816E+02  0.20000008075E+02 0.  0.
        -12    1    3    3    0    0  0.32733290691E+02  0.35250787603E+01 -0.28279473482E+02  0.43400727184E+02  0.00000000000E+00 0.  1.
         11    1    4    4    0    0 -0.23699547447E+02 -0.71158722347E+01  0.19141751215E+02  0.31284354344E+02  0.51100000000E-03 0. -1.
        -11    1    4    4    0    0 -0.34107062825E+01  0.15301202919E+01  0.97893729314E+01  0.10478836200E+02  0.51100000000E-03 0.  1.
         12    1    4    4    0    0 -0.56230369609E+01  0.20606731825E+01 -0.65165066432E+00  0.60240822718E+01  0.00000000000E+00 0. -1.
</event>
<event>
 8    1  0.6239251E-010  0.9118800E+02  0.7816164E-02  0.1184000E+00
        -11   -1    0    0    0    0  0.00000000000E+00  0.00000000000E+00  0.45593999997E+02  0.45594000000E+02  0.51100000000E-03 0. -1.
         11   -1    0    0    0    0 -0.00000000000E+00 -0.00000000000E+00 -0.45593999997E+02  0.45594000000E+02  0.51100000000E-03 0.  1.
         23    2    1    2    0    0  0.00000000000E+00  0.00000000000E+00  0.00000000000E+00  0.91188000000E+02  0.91188000000E+02 0.  0.
    9900012    2    3    3    0    0  0.29495929250E+02 -0.19269666873E+02 -0.25343503568E+02  0.47787273315E+02  0.20000010353E+02 0.  0.
         12    1    3    3    0    0 -0.29495929250E+02  0.19269666873E+02  0.25343503568E+02  0.43400726685E+02  0.00000000000E+00 0. -1.
         11    1    4    4    0    0  0.21228040916E+02 -0.36492725283E+01 -0.88751065894E+01  0.23296232064E+02  0.51100000000E-03 0.  1.
        -11    1    4    4    0    0  0.81029369156E+01 -0.12806913846E+02 -0.14957729057E+02  0.21293386009E+02  0.51100000000E-03 0. -1.
        -12    1    4    4    0    0  0.16495141778E+00 -0.28134804979E+01 -0.15106679216E+01  0.31976552428E+01  0.00000000000E+00 0.  1.
</event>
<event>
 8    1  0.6239251E-010  0.9118800E+02  0.7816164E-02  0.1184000E+00
        -11   -1    0    0    0    0  0.00000000000E+00  0.00000000000E+00  0.45593999997E+02  0.45594000000E+02  0.51100000000E-03 0. -1.
         11   -1    0    0    0    0 -0.00000000000E+00 -0.00000000000E+00 -0.45593999997E+02  0.45594000000E+02  0.51100000000E-03 0.  1.
         23    2    1    2    0    0  0.00000000000E+00 -0.35527136788E-14  0.00000000000E+00  0.91188000000E+02  0.91188000000E+02 0.  0.
    9900012    2    3    3    0    0  0.16529404237E+02  0.28673852104E+02  0.28075120656E+02  0.47787269606E+02  0.19999993443E+02 0.  0.
        -12    1    3    3    0    0 -0.16529404237E+02 -0.28673852104E+02 -0.28075120656E+02  0.43400730394E+02  0.00000000000E+00 0.  1.
         11    1    4    4    0    0  0.71740055839E+01  0.20288978960E+01  0.11186265403E+02  0.13443039713E+02  0.51100000000E-03 0. -1.
        -11    1    4    4    0    0  0.10149181584E+02  0.23151115800E+02  0.17452097152E+02  0.30717352504E+02  0.51100000000E-03 0.  1.
        -12    1    4    4    0    0 -0.79378293143E+00  0.34938384077E+01 -0.56324189900E+00  0.36268773895E+01  0.00000000000E+00 0.  1.
</event>
<event>
 8    1  0.6239251E-010  0.9118800E+02  0.7816164E-02  0.1184000E+00
        -11   -1    0    0    0    0  0.00000000000E+00  0.00000000000E+00  0.45593999997E+02  0.45594000000E+02  0.51100000000E-03 0. -1.
         11   -1    0    0    0    0 -0.00000000000E+00 -0.00000000000E+00 -0.45593999997E+02  0.45594000000E+02  0.51100000000E-03 0.  1.
         23    2    1    2    0    0  0.00000000000E+00  0.00000000000E+00  0.17763568394E-14  0.91188000000E+02  0.91188000000E+02 0.  0.
    9900012    2    3    3    0    0 -0.38877719156E+02  0.12890815636E+02  0.14351757850E+02  0.47787272726E+02  0.20000007665E+02 0.  0.
        -12    1    3    3    0    0  0.38877719156E+02 -0.12890815636E+02 -0.14351757850E+02  0.43400727274E+02  0.00000000000E+00 0.  1.
         11    1    4    4    0    0 -0.29744157981E+02  0.15017948565E+02  0.13710200790E+02  0.36030866199E+02  0.51100000000E-03 0. -1.
        -11    1    4    4    0    0 -0.19844392801E+01 -0.33924884692E+01  0.19367411531E+01  0.43815458260E+01  0.51100000000E-03 0.  1.
         12    1    4    4    0    0 -0.71491218951E+01  0.12653555409E+01 -0.12951840933E+01  0.73748607005E+01  0.00000000000E+00 0. -1.
</event>
<event>
 8    1  0.6239251E-010  0.9118800E+02  0.7816164E-02  0.1184000E+00
        -11   -1    0    0    0    0  0.00000000000E+00  0.00000000000E+00  0.45593999997E+02  0.45594000000E+02  0.51100000000E-03 0.  1.
         11   -1    0    0    0    0 -0.00000000000E+00 -0.00000000000E+00 -0.45593999997E+02  0.45594000000E+02  0.51100000000E-03 0. -1.
         23    2    1    2    0    0  0.00000000000E+00  0.00000000000E+00  0.17763568394E-14  0.91188000000E+02  0.91188000000E+02 0.  0.
    9900012    2    3    3    0    0 -0.22034164138E+02 -0.34562106824E+02  0.14268137726E+02  0.47787269919E+02  0.19999994870E+02 0.  0.
         12    1    3    3    0    0  0.22034164138E+02  0.34562106824E+02 -0.14268137726E+02  0.43400730081E+02  0.00000000000E+00 0. -1.
         11    1    4    4    0    0 -0.11684115114E+02 -0.43275550458E+01  0.17213701569E+01  0.12578131584E+02  0.51100000000E-03 0. -1.
        -11    1    4    4    0    0 -0.21362296320E+01 -0.17585314554E+02  0.53994915275E+01  0.18519213645E+02  0.51100000000E-03 0.  1.
        -12    1    4    4    0    0 -0.82138193927E+01 -0.12649237224E+02  0.71472760417E+01  0.16689924691E+02  0.00000000000E+00 0.  1.
</event>
<event>
 8    1  0.6239251E-010  0.9118800E+02  0.7816164E-02  0.1184000E+00
        -11   -1    0    0    0    0  0.00000000000E+00  0.00000000000E+00  0.45593999997E+02  0.45594000000E+02  0.51100000000E-03 0. -1.
         11   -1    0    0    0    0 -0.00000000000E+00 -0.00000000000E+00 -0.45593999997E+02  0.45594000000E+02  0.51100000000E-03 0.  1.
         23    2    1    2    0    0  0.00000000000E+00  0.00000000000E+00  0.00000000000E+00  0.91188000000E+02  0.91188000000E+02 0.  0.
    9900012    2    3    3    0    0  0.24113656011E+02 -0.13460615290E+02  0.33480844019E+02  0.47787268596E+02  0.19999988835E+02 0.  0.
        -12    1    3    3    0    0 -0.24113656011E+02  0.13460615290E+02 -0.33480844019E+02  0.43400731404E+02  0.00000000000E+00 0.  1.
         11    1    4    4    0    0  0.79698938906E+01  0.16901499273E+01  0.13001777974E+02  0.15343469169E+02  0.51100000000E-03 0. -1.
        -11    1    4    4    0    0  0.18029959802E+02 -0.13168944280E+02  0.19088923101E+02  0.29374947308E+02  0.51100000000E-03 0.  1.
        -12    1    4    4    0    0 -0.18861976816E+01 -0.19818209370E+01  0.13901429438E+01  0.30688521184E+01  0.00000000000E+00 0.  1.
</event>
<event>
 8    1  0.6239251E-010  0.9118800E+02  0.7816164E-02  0.1184000E+00
        -11   -1    0    0    0    0  0.00000000000E+00  0.00000000000E+00  0.45593999997E+02  0.45594000000E+02  0.51100000000E-03 0. -1.
         11   -1    0    0    0    0 -0.00000000000E+00 -0.00000000000E+00 -0.45593999997E+02  0.45594000000E+02  0.51100000000E-03 0.  1.
         23    2    1    2    0    0 -0.17763568394E-14  0.00000000000E+00  0.00000000000E+00  0.91188000000E+02  0.91188000000E+02 0.  0.
    9900012    2    3    3    0    0  0.90512288557E+01 -0.24425922227E+02 -0.34714158973E+02  0.47787271277E+02  0.20000001061E+02 0.  0.
         12    1    3    3    0    0 -0.90512288557E+01  0.24425922227E+02  0.34714158973E+02  0.43400728723E+02  0.00000000000E+00 0. -1.
         11    1    4    4    0    0  0.10600822438E+02 -0.14929925422E+02 -0.13065968240E+02  0.22494435662E+02  0.51100000000E-03 0. -1.
        -11    1    4    4    0    0  0.34026706303E+01 -0.54373664092E+01 -0.83115979542E+01  0.10498846684E+02  0.51100000000E-03 0.  1.
         12    1    4    4    0    0 -0.49522642125E+01 -0.40586303962E+01 -0.13336592779E+02  0.14793988930E+02  0.00000000000E+00 0. -1.
</event>
<event>
 8    1  0.6239251E-010  0.9118800E+02  0.7816164E-02  0.1184000E+00
        -11   -1    0    0    0    0  0.00000000000E+00  0.00000000000E+00  0.45593999997E+02  0.45594000000E+02  0.51100000000E-03 0. -1.
         11   -1    0    0    0    0 -0.00000000000E+00 -0.00000000000E+00 -0.45593999997E+02  0.45594000000E+02  0.51100000000E-03 0.  1.
         23    2    1    2    0    0  0.00000000000E+00  0.00000000000E+00  0.00000000000E+00  0.91188000000E+02  0.91188000000E+02 0.  0.
    9900012    2    3    3    0    0  0.75153422366E+01  0.32026077354E+02 -0.28310305023E+02  0.47787269935E+02  0.19999994944E+02 0.  0.
         12    1    3    3    0    0 -0.75153422366E+01 -0.32026077354E+02  0.28310305023E+02  0.43400730065E+02  0.00000000000E+00 0. -1.
         11    1    4    4    0    0  0.34299168106E+01  0.20062975301E+02 -0.80728098210E+01  0.21896519494E+02  0.51100000000E-03 0. -1.
        -11    1    4    4    0    0  0.69370736555E+01  0.10939058964E+02 -0.17730818188E+02  0.21958322245E+02  0.51100000000E-03 0.  1.
         12    1    4    4    0    0 -0.28516482296E+01  0.10240430894E+01 -0.25066770138E+01  0.39324281972E+01  0.00000000000E+00 0. -1.
</event>
<event>
 8    1  0.6239251E-010  0.9118800E+02  0.7816164E-02  0.1184000E+00
        -11   -1    0    0    0    0  0.00000000000E+00  0.00000000000E+00  0.45593999997E+02  0.45594000000E+02  0.51100000000E-03 0. -1.
         11   -1    0    0    0    0 -0.00000000000E+00 -0.00000000000E+00 -0.45593999997E+02  0.45594000000E+02  0.51100000000E-03 0.  1.
         23    2    1    2    0    0  0.00000000000E+00  0.88817841970E-15  0.00000000000E+00  0.91188000000E+02  0.91188000000E+02 0.  0.
    9900012    2    3    3    0    0  0.23616371875E+02 -0.58904097598E+01  0.35933220418E+02  0.47787236444E+02  0.19999842241E+02 0.  0.
        -12    1    3    3    0    0 -0.23616371875E+02  0.58904097598E+01 -0.35933220418E+02  0.43400763556E+02  0.00000000000E+00 0.  1.
         11    1    4    4    0    0  0.64399972780E+01  0.68232590163E+00  0.59144882367E+01  0.87704221643E+01  0.51100000000E-03 0. -1.
        -11    1    4    4    0    0  0.13764904176E+02 -0.12152397278E+02  0.21401521111E+02  0.28198908715E+02  0.51100000000E-03 0.  1.
        -12    1    4    4    0    0  0.34114704211E+01  0.55796616161E+01  0.86172110699E+01  0.10817905565E+02  0.00000000000E+00 0.  1.
</event>
<event>
 8    1  0.6239251E-010  0.9118800E+02  0.7816164E-02  0.1184000E+00
        -11   -1    0    0    0    0  0.00000000000E+00  0.00000000000E+00  0.45593999997E+02  0.45594000000E+02  0.51100000000E-03 0. -1.
         11   -1    0    0    0    0 -0.00000000000E+00 -0.00000000000E+00 -0.45593999997E+02  0.45594000000E+02  0.51100000000E-03 0.  1.
         23    2    1    2    0    0  0.00000000000E+00  0.00000000000E+00  0.00000000000E+00  0.91188000000E+02  0.91188000000E+02 0.  0.
    9900012    2    3    3    0    0  0.19267308207E+02  0.27785313356E+02  0.27209736113E+02  0.47787279463E+02  0.20000038384E+02 0.  0.
        -12    1    3    3    0    0 -0.19267308207E+02 -0.27785313356E+02 -0.27209736113E+02  0.43400720537E+02  0.00000000000E+00 0.  1.
         11    1    4    4    0    0  0.11889757231E+02  0.17049485859E+02  0.57654962780E+01  0.21570633803E+02  0.51100000000E-03 0. -1.
        -11    1    4    4    0    0  0.97419847922E+00  0.61935291547E+01  0.14249057814E+02  0.15567418377E+02  0.51100000000E-03 0.  1.
         12    1    4    4    0    0  0.64033524968E+01  0.45422983421E+01  0.71951820202E+01  0.10649227283E+02  0.00000000000E+00 0. -1.
</event>
<event>
 8    1  0.6239251E-010  0.9118800E+02  0.7816164E-02  0.1184000E+00
        -11   -1    0    0    0    0  0.00000000000E+00  0.00000000000E+00  0.45593999997E+02  0.45594000000E+02  0.51100000000E-03 0. -1.
         11   -1    0    0    0    0 -0.00000000000E+00 -0.00000000000E+00 -0.45593999997E+02  0.45594000000E+02  0.51100000000E-03 0.  1.
         23    2    1    2    0    0  0.00000000000E+00  0.00000000000E+00  0.71054273576E-14  0.91188000000E+02  0.91188000000E+02 0.  0.
    9900012    2    3    3    0    0  0.11776495852E+02  0.22238699583E+02  0.35360680294E+02  0.47787270461E+02  0.19999997340E+02 0.  0.
        -12    1    3    3    0    0 -0.11776495852E+02 -0.22238699583E+02 -0.35360680294E+02  0.43400729539E+02  0.00000000000E+00 0.  1.
         11    1    4    4    0    0  0.69370063464E+01  0.20774091262E+02  0.20601374563E+02  0.30068281610E+02  0.51100000000E-03 0. -1.
        -11    1    4    4    0    0  0.27144638941E+01 -0.30865150504E+01  0.35321565012E+01  0.54195035934E+01  0.51100000000E-03 0.  1.
         12    1    4    4    0    0  0.21250256116E+01  0.45511233706E+01  0.11227149230E+02  0.12299485258E+02  0.00000000000E+00 0. -1.
</event>
<event>
 8    1  0.6239251E-010  0.9118800E+02  0.7816164E-02  0.1184000E+00
        -11   -1    0    0    0    0  0.00000000000E+00  0.00000000000E+00  0.45593999997E+02  0.45594000000E+02  0.51100000000E-03 0. -1.
         11   -1    0    0    0    0 -0.00000000000E+00 -0.00000000000E+00 -0.45593999997E+02  0.45594000000E+02  0.51100000000E-03 0.  1.
         23    2    1    2    0    0 -0.17763568394E-14  0.00000000000E+00 -0.71054273576E-14  0.91188000000E+02  0.91188000000E+02 0.  0.
    9900012    2    3    3    0    0  0.12015997370E+02  0.11507722928E+02  0.40085051363E+02  0.47787271636E+02  0.20000002697E+02 0.  0.
        -12    1    3    3    0    0 -0.12015997370E+02 -0.11507722928E+02 -0.40085051363E+02  0.43400728364E+02  0.00000000000E+00 0.  1.
         11    1    4    4    0    0  0.79006875076E+01 -0.35426179720E+00  0.14575032029E+02  0.16582458304E+02  0.51100000000E-03 0. -1.
        -11    1    4    4    0    0 -0.32983544219E+01  0.47207472948E+01  0.16668472571E+02  0.17635265096E+02  0.51100000000E-03 0.  1.
        -12    1    4    4    0    0  0.74136642838E+01  0.71412374302E+01  0.88415467631E+01  0.13569548235E+02  0.00000000000E+00 0.  1.
</event>
<event>
 8    1  0.6239251E-010  0.9118800E+02  0.7816164E-02  0.1184000E+00
        -11   -1    0    0    0    0  0.00000000000E+00  0.00000000000E+00  0.45593999997E+02  0.45594000000E+02  0.51100000000E-03 0. -1.
         11   -1    0    0    0    0 -0.00000000000E+00 -0.00000000000E+00 -0.45593999997E+02  0.45594000000E+02  0.51100000000E-03 0.  1.
         23    2    1    2    0    0  0.22204460493E-15  0.00000000000E+00  0.00000000000E+00  0.91188000000E+02  0.91188000000E+02 0.  0.
    9900012    2    3    3    0    0  0.12572869093E+01 -0.89880606509E+01  0.42441217044E+02  0.47787275250E+02  0.20000019176E+02 0.  0.
        -12    1    3    3    0    0 -0.12572869093E+01  0.89880606509E+01 -0.42441217044E+02  0.43400724750E+02  0.00000000000E+00 0.  1.
         11    1    4    4    0    0 -0.62545316806E+00 -0.61370999413E+01  0.78101654764E+01  0.99525811920E+01  0.51100000000E-03 0. -1.
        -11    1    4    4    0    0  0.32319323832E+01  0.44769749108E+00  0.34071205602E+02  0.34227078044E+02  0.51100000000E-03 0.  1.
        -12    1    4    4    0    0 -0.13491923058E+01 -0.32986582007E+01  0.55984596518E+00  0.36076160144E+01  0.00000000000E+00 0.  1.
</event>
<event>
 8    1  0.6239251E-010  0.9118800E+02  0.7816164E-02  0.1184000E+00
        -11   -1    0    0    0    0  0.00000000000E+00  0.00000000000E+00  0.45593999997E+02  0.45594000000E+02  0.51100000000E-03 0. -1.
         11   -1    0    0    0    0 -0.00000000000E+00 -0.00000000000E+00 -0.45593999997E+02  0.45594000000E+02  0.51100000000E-03 0.  1.
         23    2    1    2    0    0 -0.88817841970E-15  0.00000000000E+00  0.71054273576E-14  0.91188000000E+02  0.91188000000E+02 0.  0.
    9900012    2    3    3    0    0 -0.45296680632E+01 -0.11353132215E+02  0.41643868649E+02  0.47787270745E+02  0.19999998634E+02 0.  0.
        -12    1    3    3    0    0  0.45296680632E+01  0.11353132215E+02 -0.41643868649E+02  0.43400729255E+02  0.00000000000E+00 0.  1.
         11    1    4    4    0    0 -0.12105083157E+01  0.26203587973E+01  0.14401574709E+02  0.14687987098E+02  0.51100000000E-03 0. -1.
        -11    1    4    4    0    0 -0.48916023968E+01 -0.40140384944E+00  0.96316957912E+01  0.10810109303E+02  0.51100000000E-03 0.  1.
         12    1    4    4    0    0  0.15724426493E+01 -0.13572087163E+02  0.17610598148E+02  0.22289174345E+02  0.00000000000E+00 0. -1.
</event>
<event>
 8    1  0.6239251E-010  0.9118800E+02  0.7816164E-02  0.1184000E+00
        -11   -1    0    0    0    0  0.00000000000E+00  0.00000000000E+00  0.45593999997E+02  0.45594000000E+02  0.51100000000E-03 0. -1.
         11   -1    0    0    0    0 -0.00000000000E+00 -0.00000000000E+00 -0.45593999997E+02  0.45594000000E+02  0.51100000000E-03 0.  1.
         23    2    1    2    0    0  0.00000000000E+00  0.00000000000E+00  0.00000000000E+00  0.91188000000E+02  0.91188000000E+02 0.  0.
    9900012    2    3    3    0    0 -0.73829777556E+01 -0.35976977123E+02 -0.23125138390E+02  0.47787271100E+02  0.20000000255E+02 0.  0.
         12    1    3    3    0    0  0.73829777556E+01  0.35976977123E+02  0.23125138390E+02  0.43400728900E+02  0.00000000000E+00 0. -1.
         11    1    4    4    0    0  0.56997230153E+01 -0.92100728999E+01 -0.93864624930E+01  0.14332409556E+02  0.51100000000E-03 0. -1.
        -11    1    4    4    0    0 -0.79785515546E+01 -0.11506192180E+02 -0.36772026275E+01  0.14476586711E+02  0.51100000000E-03 0.  1.
         12    1    4    4    0    0 -0.51041492163E+01 -0.15260712044E+02 -0.10061473269E+02  0.18978274834E+02  0.00000000000E+00 0. -1.
</event>
<event>
 8    1  0.6239251E-010  0.9118800E+02  0.7816164E-02  0.1184000E+00
        -11   -1    0    0    0    0  0.00000000000E+00  0.00000000000E+00  0.45593999997E+02  0.45594000000E+02  0.51100000000E-03 0. -1.
         11   -1    0    0    0    0 -0.00000000000E+00 -0.00000000000E+00 -0.45593999997E+02  0.45594000000E+02  0.51100000000E-03 0.  1.
         23    2    1    2    0    0  0.00000000000E+00  0.17763568394E-14  0.35527136788E-14  0.91188000000E+02  0.91188000000E+02 0.  0.
    9900012    2    3    3    0    0  0.32427089014E+02  0.11638463579E+02  0.26394190816E+02  0.47787271375E+02  0.20000001507E+02 0.  0.
        -12    1    3    3    0    0 -0.32427089014E+02 -0.11638463579E+02 -0.26394190816E+02  0.43400728625E+02  0.00000000000E+00 0.  1.
         11    1    4    4    0    0  0.43700615303E+01 -0.14732473954E+01  0.12053748874E+02  0.12905842004E+02  0.51100000000E-03 0. -1.
        -11    1    4    4    0    0  0.17833303617E+02  0.11507079065E+02  0.76596576339E+01  0.22563464757E+02  0.51100000000E-03 0.  1.
         12    1    4    4    0    0  0.10223723866E+02  0.16046319090E+01  0.66807843078E+01  0.12317964614E+02  0.00000000000E+00 0. -1.
</event>
<event>
 8    1  0.6239251E-010  0.9118800E+02  0.7816164E-02  0.1184000E+00
        -11   -1    0    0    0    0  0.00000000000E+00  0.00000000000E+00  0.45593999997E+02  0.45594000000E+02  0.51100000000E-03 0. -1.
         11   -1    0    0    0    0 -0.00000000000E+00 -0.00000000000E+00 -0.45593999997E+02  0.45594000000E+02  0.51100000000E-03 0.  1.
         23    2    1    2    0    0  0.00000000000E+00 -0.71054273576E-14  0.00000000000E+00  0.91188000000E+02  0.91188000000E+02 0.  0.
    9900012    2    3    3    0    0 -0.16851801480E+02  0.35680167516E+02 -0.18071135247E+02  0.47787268483E+02  0.19999988322E+02 0.  0.
         12    1    3    3    0    0  0.16851801480E+02 -0.35680167516E+02  0.18071135247E+02  0.43400731517E+02  0.00000000000E+00 0. -1.
         11    1    4    4    0    0 -0.34163199992E+01  0.54078969551E+00  0.17400338822E+01  0.38718747402E+01  0.51100000000E-03 0. -1.
        -11    1    4    4    0    0 -0.23104058252E+01  0.16192018244E+02 -0.13057390177E+02  0.20928804753E+02  0.51100000000E-03 0.  1.
        -12    1    4    4    0    0 -0.11125075656E+02  0.18947359577E+02 -0.67537789518E+01  0.22986588990E+02  0.00000000000E+00 0.  1.
</event>
<event>
 8    1  0.6239251E-010  0.9118800E+02  0.7816164E-02  0.1184000E+00
        -11   -1    0    0    0    0  0.00000000000E+00  0.00000000000E+00  0.45593999997E+02  0.45594000000E+02  0.51100000000E-03 0. -1.
         11   -1    0    0    0    0 -0.00000000000E+00 -0.00000000000E+00 -0.45593999997E+02  0.45594000000E+02  0.51100000000E-03 0.  1.
         23    2    1    2    0    0  0.71054273576E-14  0.11102230246E-15 -0.17763568394E-14  0.91188000000E+02  0.91188000000E+02 0.  0.
    9900012    2    3    3    0    0  0.42036596533E+02 -0.50233788908E+00 -0.10784042510E+02  0.47787270003E+02  0.19999995250E+02 0.  0.
         12    1    3    3    0    0 -0.42036596533E+02  0.50233788908E+00  0.10784042510E+02  0.43400729997E+02  0.00000000000E+00 0. -1.
         11    1    4    4    0    0 -0.17438755860E+00 -0.24680153898E+01  0.13414564063E+01  0.28144300552E+01  0.51100000000E-03 0. -1.
        -11    1    4    4    0    0  0.25937835449E+02  0.43667251831E+01 -0.39295450659E+01  0.26594753642E+02  0.51100000000E-03 0.  1.
         12    1    4    4    0    0  0.16273148643E+02 -0.24010476824E+01 -0.81959538502E+01  0.18378086305E+02  0.00000000000E+00 0. -1.
</event>
<event>
 8    1  0.6239251E-010  0.9118800E+02  0.7816164E-02  0.1184000E+00
        -11   -1    0    0    0    0  0.00000000000E+00  0.00000000000E+00  0.45593999997E+02  0.45594000000E+02  0.51100000000E-03 0. -1.
         11   -1    0    0    0    0 -0.00000000000E+00 -0.00000000000E+00 -0.45593999997E+02  0.45594000000E+02  0.51100000000E-03 0.  1.
         23    2    1    2    0    0  0.17763568394E-14  0.00000000000E+00  0.00000000000E+00  0.91188000000E+02  0.91188000000E+02 0.  0.
    9900012    2    3    3    0    0 -0.13155300242E+02  0.37271596107E+02  0.17927336790E+02  0.47787271835E+02  0.20000003607E+02 0.  0.
        -12    1    3    3    0    0  0.13155300242E+02 -0.37271596107E+02 -0.17927336790E+02  0.43400728165E+02  0.00000000000E+00 0.  1.
         11    1    4    4    0    0 -0.86731242204E+01  0.27002200817E+02  0.17406044470E+02  0.33276302635E+02  0.51100000000E-03 0. -1.
        -11    1    4    4    0    0 -0.17102213439E+00  0.27209648449E+01 -0.38999536076E+01  0.47584174533E+01  0.51100000000E-03 0.  1.
        -12    1    4    4    0    0 -0.43111538877E+01  0.75484304449E+01  0.44212459280E+01  0.97525517471E+01  0.00000000000E+00 0.  1.
</event>
<event>
 8    1  0.6262581E-010  0.9118800E+02  0.7816164E-02  0.1184000E+00
        -11   -1    0    0    0    0  0.00000000000E+00  0.00000000000E+00  0.45593999997E+02  0.45594000000E+02  0.51100000000E-03 0. -1.
         11   -1    0    0    0    0 -0.00000000000E+00 -0.00000000000E+00 -0.45593999997E+02  0.45594000000E+02  0.51100000000E-03 0.  1.
         23    2    1    2    0    0  0.00000000000E+00  0.88817841970E-15  0.00000000000E+00  0.91188000000E+02  0.91188000000E+02 0.  0.
    9900012    2    3    3    0    0  0.80501251284E+01 -0.52269026611E+01  0.42326090287E+02  0.47787274833E+02  0.20000017274E+02 0.  0.
        -12    1    3    3    0    0 -0.80501251284E+01  0.52269026611E+01 -0.42326090287E+02  0.43400725167E+02  0.00000000000E+00 0.  1.
         11    1    4    4    0    0 -0.34378351172E+01 -0.29727466954E+01  0.16176478858E+02  0.16802809340E+02  0.51100000000E-03 0. -1.
        -11    1    4    4    0    0  0.53740563496E+01 -0.10744094854E+01  0.16756883301E+01  0.57308611074E+01  0.51100000000E-03 0.  1.
        -12    1    4    4    0    0  0.61139038960E+01 -0.11797464803E+01  0.24473923099E+02  0.25253604386E+02  0.00000000000E+00 0.  1.
</event>
<event>
 8    1  0.6239251E-010  0.9118800E+02  0.7816164E-02  0.1184000E+00
        -11   -1    0    0    0    0  0.00000000000E+00  0.00000000000E+00  0.45593999997E+02  0.45594000000E+02  0.51100000000E-03 0. -1.
         11   -1    0    0    0    0 -0.00000000000E+00 -0.00000000000E+00 -0.45593999997E+02  0.45594000000E+02  0.51100000000E-03 0.  1.
         23    2    1    2    0    0  0.44408920985E-15  0.71054273576E-14 -0.35527136788E-14  0.91188000000E+02  0.91188000000E+02 0.  0.
    9900012    2    3    3    0    0 -0.32761268439E+01  0.39188586858E+02 -0.18361514290E+02  0.47787267817E+02  0.19999985283E+02 0.  0.
         12    1    3    3    0    0  0.32761268439E+01 -0.39188586858E+02  0.18361514290E+02  0.43400732183E+02  0.00000000000E+00 0. -1.
         11    1    4    4    0    0 -0.73312598738E+01  0.28734136894E+02 -0.46163480654E+01  0.30011808744E+02  0.51100000000E-03 0. -1.
        -11    1    4    4    0    0  0.26593677785E+01  0.54360910358E+01 -0.70032670638E+01  0.92557588862E+01  0.51100000000E-03 0.  1.
         12    1    4    4    0    0  0.13957652514E+01  0.50183589282E+01 -0.67418991606E+01  0.85197001861E+01  0.00000000000E+00 0. -1.
</event>
<event>
 8    1  0.6239251E-010  0.9118800E+02  0.7816164E-02  0.1184000E+00
        -11   -1    0    0    0    0  0.00000000000E+00  0.00000000000E+00  0.45593999997E+02  0.45594000000E+02  0.51100000000E-03 0. -1.
         11   -1    0    0    0    0 -0.00000000000E+00 -0.00000000000E+00 -0.45593999997E+02  0.45594000000E+02  0.51100000000E-03 0.  1.
         23    2    1    2    0    0  0.00000000000E+00  0.00000000000E+00  0.00000000000E+00  0.91188000000E+02  0.91188000000E+02 0.  0.
    9900012    2    3    3    0    0 -0.88789895707E+01  0.35677786855E+02  0.23062570091E+02  0.47787273395E+02  0.20000010716E+02 0.  0.
        -12    1    3    3    0    0  0.88789895707E+01 -0.35677786855E+02 -0.23062570091E+02  0.43400726605E+02  0.00000000000E+00 0.  1.
         11    1    4    4    0    0  0.52191538202E+01  0.82716800582E+01  0.24575321364E+01  0.10084628007E+02  0.51100000000E-03 0. -1.
        -11    1    4    4    0    0 -0.10356840927E+02  0.12774489709E+02  0.11508715906E+02  0.20072425947E+02  0.51100000000E-03 0.  1.
         12    1    4    4    0    0 -0.37413024635E+01  0.14631617087E+02  0.90963220488E+01  0.17630219441E+02  0.00000000000E+00 0. -1.
</event>
<event>
 8    1  0.6951840E-010  0.9118800E+02  0.7816164E-02  0.1184000E+00
        -11   -1    0    0    0    0  0.00000000000E+00  0.00000000000E+00  0.45593999997E+02  0.45594000000E+02  0.51100000000E-03 0. -1.
         11   -1    0    0    0    0 -0.00000000000E+00 -0.00000000000E+00 -0.45593999997E+02  0.45594000000E+02  0.51100000000E-03 0.  1.
         23    2    1    2    0    0  0.55511151231E-15 -0.88817841970E-15  0.00000000000E+00  0.91188000000E+02  0.91188000000E+02 0.  0.
    9900012    2    3    3    0    0  0.80897910099E+00  0.30957980856E+01  0.43282614813E+02  0.47787272380E+02  0.20000006088E+02 0.  0.
        -12    1    3    3    0    0 -0.80897910099E+00 -0.30957980856E+01 -0.43282614813E+02  0.43400727620E+02  0.00000000000E+00 0.  1.
         11    1    4    4    0    0 -0.27087566545E+01  0.35662075755E+01  0.16864280041E+02  0.17448757567E+02  0.51100000000E-03 0. -1.
        -11    1    4    4    0    0  0.53025118454E+01 -0.31729182761E+01  0.26385767080E+02  0.27099681676E+02  0.51100000000E-03 0.  1.
        -12    1    4    4    0    0 -0.17847760899E+01  0.27025087862E+01  0.32567691290E-01  0.32388331363E+01  0.00000000000E+00 0.  1.
</event>
<event>
 8    1  0.6239251E-010  0.9118800E+02  0.7816164E-02  0.1184000E+00
        -11   -1    0    0    0    0  0.00000000000E+00  0.00000000000E+00  0.45593999997E+02  0.45594000000E+02  0.51100000000E-03 0.  1.
         11   -1    0    0    0    0 -0.00000000000E+00 -0.00000000000E+00 -0.45593999997E+02  0.45594000000E+02  0.51100000000E-03 0. -1.
         23    2    1    2    0    0  0.00000000000E+00  0.00000000000E+00  0.35527136788E-14  0.91188000000E+02  0.91188000000E+02 0.  0.
    9900012    2    3    3    0    0  0.12510918223E+02  0.29048834888E+02 -0.29719777100E+02  0.47787273808E+02  0.20000012599E+02 0.  0.
         12    1    3    3    0    0 -0.12510918223E+02 -0.29048834888E+02  0.29719777100E+02  0.43400726192E+02  0.00000000000E+00 0. -1.
         11    1    4    4    0    0  0.20179037212E+00  0.32675216497E+01 -0.83795283825E+01  0.89963277652E+01  0.51100000000E-03 0. -1.
        -11    1    4    4    0    0  0.55054265199E+01  0.20531507558E+02 -0.75804319897E+01  0.22568018814E+02  0.51100000000E-03 0.  1.
        -12    1    4    4    0    0  0.68037013305E+01  0.52498056802E+01 -0.13759816728E+02  0.16222927229E+02  0.00000000000E+00 0.  1.
</event>
<event>
 8    1  0.6239251E-010  0.9118800E+02  0.7816164E-02  0.1184000E+00
        -11   -1    0    0    0    0  0.00000000000E+00  0.00000000000E+00  0.45593999997E+02  0.45594000000E+02  0.51100000000E-03 0. -1.
         11   -1    0    0    0    0 -0.00000000000E+00 -0.00000000000E+00 -0.45593999997E+02  0.45594000000E+02  0.51100000000E-03 0.  1.
         23    2    1    2    0    0  0.17763568394E-14  0.00000000000E+00  0.00000000000E+00  0.91188000000E+02  0.91188000000E+02 0.  0.
    9900012    2    3    3    0    0  0.12437152174E+02  0.41113321186E+02  0.62157526436E+01  0.47787268278E+02  0.19999987385E+02 0.  0.
         12    1    3    3    0    0 -0.12437152174E+02 -0.41113321186E+02 -0.62157526436E+01  0.43400731722E+02  0.00000000000E+00 0. -1.
         11    1    4    4    0    0  0.13633309463E+01  0.17711098009E+02 -0.42701591895E+01  0.18269535400E+02  0.51100000000E-03 0. -1.
        -11    1    4    4    0    0  0.10044025232E+02  0.15538387352E+02  0.11077592103E+02  0.21564715890E+02  0.51100000000E-03 0.  1.
         12    1    4    4    0    0  0.10297959957E+01  0.78638358242E+01 -0.59168026961E+00  0.79530169875E+01  0.00000000000E+00 0. -1.
</event>
<event>
 8    1  0.6239251E-010  0.9118800E+02  0.7816164E-02  0.1184000E+00
        -11   -1    0    0    0    0  0.00000000000E+00  0.00000000000E+00  0.45593999997E+02  0.45594000000E+02  0.51100000000E-03 0. -1.
         11   -1    0    0    0    0 -0.00000000000E+00 -0.00000000000E+00 -0.45593999997E+02  0.45594000000E+02  0.51100000000E-03 0.  1.
         23    2    1    2    0    0  0.00000000000E+00  0.88817841970E-15  0.00000000000E+00  0.91188000000E+02  0.91188000000E+02 0.  0.
    9900012    2    3    3    0    0 -0.20071770396E+01  0.37863976611E+01 -0.43188617972E+02  0.47787282388E+02  0.20000051720E+02 0.  0.
         12    1    3    3    0    0  0.20071770396E+01 -0.37863976611E+01  0.43188617972E+02  0.43400717612E+02  0.00000000000E+00 0. -1.
         11    1    4    4    0    0  0.11067444781E+01  0.11275941510E+01 -0.16207433319E+02  0.16284263783E+02  0.51100000000E-03 0. -1.
        -11    1    4    4    0    0 -0.49815470859E+01 -0.53086347744E+01 -0.17646318728E+02  0.19089001531E+02  0.51100000000E-03 0.  1.
        -12    1    4    4    0    0  0.18676255681E+01  0.79674382845E+01 -0.93348659256E+01  0.12414017075E+02  0.00000000000E+00 0.  1.
</event>
<event>
 8    1  0.6239251E-010  0.9118800E+02  0.7816164E-02  0.1184000E+00
        -11   -1    0    0    0    0  0.00000000000E+00  0.00000000000E+00  0.45593999997E+02  0.45594000000E+02  0.51100000000E-03 0. -1.
         11   -1    0    0    0    0 -0.00000000000E+00 -0.00000000000E+00 -0.45593999997E+02  0.45594000000E+02  0.51100000000E-03 0.  1.
         23    2    1    2    0    0 -0.44408920985E-15  0.00000000000E+00  0.00000000000E+00  0.91188000000E+02  0.91188000000E+02 0.  0.
    9900012    2    3    3    0    0  0.31424233694E+01  0.33702309387E+02 -0.27164366967E+02  0.47787270566E+02  0.19999997820E+02 0.  0.
         12    1    3    3    0    0 -0.31424233694E+01 -0.33702309387E+02  0.27164366967E+02  0.43400729434E+02  0.00000000000E+00 0. -1.
         11    1    4    4    0    0 -0.44501325046E+01  0.96071159911E+01 -0.45915427908E+01  0.11540477565E+02  0.51100000000E-03 0. -1.
        -11    1    4    4    0    0  0.10442072310E+02  0.12223733777E+02 -0.11517648768E+02  0.19776571366E+02  0.51100000000E-03 0.  1.
        -12    1    4    4    0    0 -0.28495164364E+01  0.11871459619E+02 -0.11055175408E+02  0.16470221635E+02  0.00000000000E+00 0.  1.
</event>
<event>
 8    1  0.6239251E-010  0.9118800E+02  0.7816164E-02  0.1184000E+00
        -11   -1    0    0    0    0  0.00000000000E+00  0.00000000000E+00  0.45593999997E+02  0.45594000000E+02  0.51100000000E-03 0. -1.
         11   -1    0    0    0    0 -0.00000000000E+00 -0.00000000000E+00 -0.45593999997E+02  0.45594000000E+02  0.51100000000E-03 0.  1.
         23    2    1    2    0    0  0.00000000000E+00  0.00000000000E+00  0.17763568394E-14  0.91188000000E+02  0.91188000000E+02 0.  0.
    9900012    2    3    3    0    0  0.41411047740E+02  0.49562236730E+01  0.12007713917E+02  0.47787260127E+02  0.19999950224E+02 0.  0.
        -12    1    3    3    0    0 -0.41411047740E+02 -0.49562236730E+01 -0.12007713917E+02  0.43400739873E+02  0.00000000000E+00 0.  1.
         11    1    4    4    0    0  0.35659381356E+02  0.20602755720E+01  0.15034859244E+02  0.38754137933E+02  0.51100000000E-03 0. -1.
        -11    1    4    4    0    0  0.24710433592E+01 -0.15046806147E+01 -0.31347579568E+00  0.29100492042E+01  0.51100000000E-03 0.  1.
         12    1    4    4    0    0  0.32806230240E+01  0.44006287157E+01 -0.27136695315E+01  0.61230729904E+01  0.00000000000E+00 0. -1.
</event>
<event>
 8    1  0.6239251E-010  0.9118800E+02  0.7816164E-02  0.1184000E+00
        -11   -1    0    0    0    0  0.00000000000E+00  0.00000000000E+00  0.45593999997E+02  0.45594000000E+02  0.51100000000E-03 0.  1.
         11   -1    0    0    0    0 -0.00000000000E+00 -0.00000000000E+00 -0.45593999997E+02  0.45594000000E+02  0.51100000000E-03 0. -1.
         23    2    1    2    0    0  0.00000000000E+00  0.00000000000E+00 -0.17763568394E-14  0.91188000000E+02  0.91188000000E+02 0.  0.
    9900012    2    3    3    0    0  0.34472152777E+02  0.22054963393E+02  0.14452419029E+02  0.47787272551E+02  0.20000006868E+02 0.  0.
        -12    1    3    3    0    0 -0.34472152777E+02 -0.22054963393E+02 -0.14452419029E+02  0.43400727449E+02  0.00000000000E+00 0.  1.
         11    1    4    4    0    0  0.15329489053E+02  0.80590163699E+01  0.14971193360E+02  0.22892741434E+02  0.51100000000E-03 0. -1.
        -11    1    4    4    0    0  0.86819673390E+01  0.36170817169E+01 -0.31636807162E+01  0.99231402771E+01  0.51100000000E-03 0.  1.
        -12    1    4    4    0    0  0.10460696384E+02  0.10378865306E+02  0.26449063856E+01  0.14971390840E+02  0.00000000000E+00 0.  1.
</event>
<event>
 8    1  0.6239251E-010  0.9118800E+02  0.7816164E-02  0.1184000E+00
        -11   -1    0    0    0    0  0.00000000000E+00  0.00000000000E+00  0.45593999997E+02  0.45594000000E+02  0.51100000000E-03 0. -1.
         11   -1    0    0    0    0 -0.00000000000E+00 -0.00000000000E+00 -0.45593999997E+02  0.45594000000E+02  0.51100000000E-03 0.  1.
         23    2    1    2    0    0 -0.69388939039E-16 -0.35527136788E-14  0.00000000000E+00  0.91188000000E+02  0.91188000000E+02 0.  0.
    9900012    2    3    3    0    0 -0.11884936163E+00  0.17462462525E+02 -0.39732484346E+02  0.47787285318E+02  0.20000065077E+02 0.  0.
         12    1    3    3    0    0  0.11884936163E+00 -0.17462462525E+02  0.39732484346E+02  0.43400714682E+02  0.00000000000E+00 0. -1.
         11    1    4    4    0    0  0.87257380890E+01  0.10780165437E+02 -0.23877366484E+02  0.27613024147E+02  0.51100000000E-03 0. -1.
        -11    1    4    4    0    0 -0.56868976585E+01  0.69363246751E+01 -0.94528224904E+01  0.13031088146E+02  0.51100000000E-03 0.  1.
        -12    1    4    4    0    0 -0.31576897922E+01 -0.25402758667E+00 -0.64022953716E+01  0.71431730249E+01  0.00000000000E+00 0.  1.
</event>
<event>
 8    1  0.6239251E-010  0.9118800E+02  0.7816164E-02  0.1184000E+00
        -11   -1    0    0    0    0  0.00000000000E+00  0.00000000000E+00  0.45593999997E+02  0.45594000000E+02  0.51100000000E-03 0.  1.
         11   -1    0    0    0    0 -0.00000000000E+00 -0.00000000000E+00 -0.45593999997E+02  0.45594000000E+02  0.51100000000E-03 0. -1.
         23    2    1    2    0    0  0.00000000000E+00  0.00000000000E+00  0.44408920985E-15  0.91188000000E+02  0.91188000000E+02 0.  0.
    9900012    2    3    3    0    0  0.42307775938E+02  0.95587258801E+01  0.15185789993E+01  0.47787271579E+02  0.20000002437E+02 0.  0.
        -12    1    3    3    0    0 -0.42307775938E+02 -0.95587258801E+01 -0.15185789993E+01  0.43400728421E+02  0.00000000000E+00 0.  1.
         11    1    4    4    0    0  0.21636999525E+02  0.33420861751E+01 -0.79547585419E+01  0.23293936382E+02  0.51100000000E-03 0. -1.
        -11    1    4    4    0    0  0.15566412477E+02  0.16101245270E+01  0.74073809908E+01  0.17314011430E+02  0.51100000000E-03 0.  1.
         12    1    4    4    0    0  0.51043639359E+01  0.46065151780E+01  0.20659565504E+01  0.71793237664E+01  0.00000000000E+00 0. -1.
</event>
<event>
 8    1  0.9898220E-010  0.9118800E+02  0.7816164E-02  0.1184000E+00
        -11   -1    0    0    0    0  0.00000000000E+00  0.00000000000E+00  0.45593999997E+02  0.45594000000E+02  0.51100000000E-03 0. -1.
         11   -1    0    0    0    0 -0.00000000000E+00 -0.00000000000E+00 -0.45593999997E+02  0.45594000000E+02  0.51100000000E-03 0.  1.
         23    2    1    2    0    0  0.00000000000E+00  0.00000000000E+00 -0.71054273576E-14  0.91188000000E+02  0.91188000000E+02 0.  0.
    9900012    2    3    3    0    0  0.14343889287E+02  0.91800233208E+01  0.39919958121E+02  0.47787273687E+02  0.20000012051E+02 0.  0.
        -12    1    3    3    0    0 -0.14343889287E+02 -0.91800233208E+01 -0.39919958121E+02  0.43400726313E+02  0.00000000000E+00 0.  1.
         11    1    4    4    0    0  0.59896239095E+01  0.15021623395E+01  0.12976288395E+02  0.14370669680E+02  0.51100000000E-03 0. -1.
        -11    1    4    4    0    0  0.11267731279E+02 -0.28479917959E+00  0.14706446588E+02  0.18528962471E+02  0.51100000000E-03 0.  1.
        -12    1    4    4    0    0 -0.29134659012E+01  0.79626601609E+01  0.12237223138E+02  0.14887641537E+02  0.00000000000E+00 0.  1.
</event>
<event>
 8    1  0.6239251E-010  0.9118800E+02  0.7816164E-02  0.1184000E+00
        -11   -1    0    0    0    0  0.00000000000E+00  0.00000000000E+00  0.45593999997E+02  0.45594000000E+02  0.51100000000E-03 0. -1.
         11   -1    0    0    0    0 -0.00000000000E+00 -0.00000000000E+00 -0.45593999997E+02  0.45594000000E+02  0.51100000000E-03 0.  1.
         23    2    1    2    0    0  0.00000000000E+00  0.00000000000E+00  0.71054273576E-14  0.91188000000E+02  0.91188000000E+02 0.  0.
    9900012    2    3    3    0    0  0.92999942687E+01 -0.18024487371E+02 -0.38369928939E+02  0.47787268610E+02  0.19999988902E+02 0.  0.
         12    1    3    3    0    0 -0.92999942687E+01  0.18024487371E+02  0.38369928939E+02  0.43400731390E+02  0.00000000000E+00 0. -1.
         11    1    4    4    0    0 -0.11220482704E+01  0.99883812993E+00 -0.15138148543E+01  0.21326756915E+01  0.51100000000E-03 0. -1.
        -11    1    4    4    0    0  0.41175940020E+01 -0.48666285822E+01 -0.25907122396E+02  0.26679910893E+02  0.51100000000E-03 0.  1.
        -12    1    4    4    0    0  0.63044485371E+01 -0.14156696919E+02 -0.10948991688E+02  0.18974682026E+02  0.00000000000E+00 0.  1.
</event>
<event>
 8    1  0.6239251E-010  0.9118800E+02  0.7816164E-02  0.1184000E+00
        -11   -1    0    0    0    0  0.00000000000E+00  0.00000000000E+00  0.45593999997E+02  0.45594000000E+02  0.51100000000E-03 0. -1.
         11   -1    0    0    0    0 -0.00000000000E+00 -0.00000000000E+00 -0.45593999997E+02  0.45594000000E+02  0.51100000000E-03 0.  1.
         23    2    1    2    0    0  0.00000000000E+00  0.00000000000E+00  0.00000000000E+00  0.91188000000E+02  0.91188000000E+02 0.  0.
    9900012    2    3    3    0    0 -0.50268019469E+01  0.13159826589E+02 -0.41050863063E+02  0.47787272680E+02  0.20000007457E+02 0.  0.
         12    1    3    3    0    0  0.50268019469E+01 -0.13159826589E+02  0.41050863063E+02  0.43400727320E+02  0.00000000000E+00 0. -1.
         11    1    4    4    0    0 -0.26652292152E+01  0.10871019225E+02 -0.72911770834E+01  0.13358284669E+02  0.51100000000E-03 0. -1.
        -11    1    4    4    0    0 -0.58621308592E+00 -0.19584805603E+01 -0.13423995520E+02  0.13578768275E+02  0.51100000000E-03 0.  1.
        -12    1    4    4    0    0 -0.17753596457E+01  0.42472879243E+01 -0.20335690460E+02  0.20850219736E+02  0.00000000000E+00 0.  1.
</event>
<event>
 8    1  0.6239251E-010  0.9118800E+02  0.7816164E-02  0.1184000E+00
        -11   -1    0    0    0    0  0.00000000000E+00  0.00000000000E+00  0.45593999997E+02  0.45594000000E+02  0.51100000000E-03 0. -1.
         11   -1    0    0    0    0 -0.00000000000E+00 -0.00000000000E+00 -0.45593999997E+02  0.45594000000E+02  0.51100000000E-03 0.  1.
         23    2    1    2    0    0  0.88817841970E-15  0.00000000000E+00  0.00000000000E+00  0.91188000000E+02  0.91188000000E+02 0.  0.
    9900012    2    3    3    0    0  0.73974038615E+01  0.34187311044E+02  0.25692982614E+02  0.47787272173E+02  0.20000005147E+02 0.  0.
        -12    1    3    3    0    0 -0.73974038615E+01 -0.34187311044E+02 -0.25692982614E+02  0.43400727827E+02  0.00000000000E+00 0.  1.
         11    1    4    4    0    0  0.75010760080E+01  0.18784441274E+02  0.13270969145E+02  0.24191734075E+02  0.51100000000E-03 0. -1.
        -11    1    4    4    0    0 -0.46985671359E+01  0.11337189061E+02  0.12419698479E+02  0.17460163216E+02  0.51100000000E-03 0.  1.
        -12    1    4    4    0    0  0.45948949894E+01  0.40656807078E+01  0.23149895640E-02  0.61353748818E+01  0.00000000000E+00 0.  1.
</event>
<event>
 8    1  0.6239251E-010  0.9118800E+02  0.7816164E-02  0.1184000E+00
        -11   -1    0    0    0    0  0.00000000000E+00  0.00000000000E+00  0.45593999997E+02  0.45594000000E+02  0.51100000000E-03 0. -1.
         11   -1    0    0    0    0 -0.00000000000E+00 -0.00000000000E+00 -0.45593999997E+02  0.45594000000E+02  0.51100000000E-03 0.  1.
         23    2    1    2    0    0  0.00000000000E+00  0.71054273576E-14  0.00000000000E+00  0.91188000000E+02  0.91188000000E+02 0.  0.
    9900012    2    3    3    0    0  0.22036786088E+02  0.35016387292E+02 -0.13109367939E+02  0.47787275953E+02  0.20000022378E+02 0.  0.
         12    1    3    3    0    0 -0.22036786088E+02 -0.35016387292E+02  0.13109367939E+02  0.43400724047E+02  0.00000000000E+00 0. -1.
         11    1    4    4    0    0  0.44364251204E+01  0.22282476470E+02 -0.80537254298E+01  0.24105043436E+02  0.51100000000E-03 0. -1.
        -11    1    4    4    0    0  0.16234923847E+02  0.13767270053E+02 -0.53410325037E+01  0.21946232148E+02  0.51100000000E-03 0.  1.
         12    1    4    4    0    0  0.13654371208E+01 -0.10333592310E+01  0.28538999420E+00  0.17360003687E+01  0.00000000000E+00 0. -1.
</event>
<event>
 8    1  0.6239251E-010  0.9118800E+02  0.7816164E-02  0.1184000E+00
        -11   -1    0    0    0    0  0.00000000000E+00  0.00000000000E+00  0.45593999997E+02  0.45594000000E+02  0.51100000000E-03 0. -1.
         11   -1    0    0    0    0 -0.00000000000E+00 -0.00000000000E+00 -0.45593999997E+02  0.45594000000E+02  0.51100000000E-03 0.  1.
         23    2    1    2    0    0  0.15820678101E-14  0.00000000000E+00 -0.71054273576E-14  0.91188000000E+02  0.91188000000E+02 0.  0.
    9900012    2    3    3    0    0 -0.17239566261E+00  0.18439531389E+02 -0.39288386176E+02  0.47787270439E+02  0.19999997240E+02 0.  0.
         12    1    3    3    0    0  0.17239566261E+00 -0.18439531389E+02  0.39288386176E+02  0.43400729561E+02  0.00000000000E+00 0. -1.
         11    1    4    4    0    0 -0.51648645466E+01  0.13247291573E+01 -0.16394722192E+02  0.17240001425E+02  0.51100000000E-03 0. -1.
        -11    1    4    4    0    0  0.71072412027E+01  0.14320639750E+02 -0.21461404050E+02  0.26761641662E+02  0.51100000000E-03 0.  1.
        -12    1    4    4    0    0 -0.21147723187E+01  0.27941624817E+01 -0.14322599340E+01  0.37856273526E+01  0.00000000000E+00 0.  1.
</event>
<event>
 8    1  0.6239251E-010  0.9118800E+02  0.7816164E-02  0.1184000E+00
        -11   -1    0    0    0    0  0.00000000000E+00  0.00000000000E+00  0.45593999997E+02  0.45594000000E+02  0.51100000000E-03 0. -1.
         11   -1    0    0    0    0 -0.00000000000E+00 -0.00000000000E+00 -0.45593999997E+02  0.45594000000E+02  0.51100000000E-03 0.  1.
         23    2    1    2    0    0  0.00000000000E+00  0.00000000000E+00  0.71054273576E-14  0.91188000000E+02  0.91188000000E+02 0.  0.
    9900012    2    3    3    0    0 -0.12650824445E+02 -0.83746298188E+01 -0.40662586990E+02  0.47787265393E+02  0.19999974231E+02 0.  0.
         12    1    3    3    0    0  0.12650824445E+02  0.83746298188E+01  0.40662586990E+02  0.43400734607E+02  0.00000000000E+00 0. -1.
         11    1    4    4    0    0  0.12606442916E+01 -0.99182475681E+01 -0.16332629744E+02  0.19149821239E+02  0.51100000000E-03 0. -1.
        -11    1    4    4    0    0 -0.12267887543E+02  0.48175410535E+00 -0.23496195589E+02  0.26510457544E+02  0.51100000000E-03 0.  1.
         12    1    4    4    0    0 -0.16435811934E+01  0.10618636439E+01 -0.83376165720E+00  0.21269866099E+01  0.00000000000E+00 0. -1.
</event>
<event>
 8    1  0.6239251E-010  0.9118800E+02  0.7816164E-02  0.1184000E+00
        -11   -1    0    0    0    0  0.00000000000E+00  0.00000000000E+00  0.45593999997E+02  0.45594000000E+02  0.51100000000E-03 0. -1.
         11   -1    0    0    0    0 -0.00000000000E+00 -0.00000000000E+00 -0.45593999997E+02  0.45594000000E+02  0.51100000000E-03 0.  1.
         23    2    1    2    0    0 -0.88817841970E-15  0.88817841970E-15  0.00000000000E+00  0.91188000000E+02  0.91188000000E+02 0.  0.
    9900012    2    3    3    0    0  0.47052752629E+01  0.68870795588E+01 -0.42591684032E+02  0.47787273868E+02  0.20000012872E+02 0.  0.
         12    1    3    3    0    0 -0.47052752629E+01 -0.68870795588E+01  0.42591684032E+02  0.43400726132E+02  0.00000000000E+00 0. -1.
         11    1    4    4    0    0 -0.34054464782E+01 -0.21236483604E+01 -0.16941440039E+01  0.43562681553E+01  0.51100000000E-03 0. -1.
        -11    1    4    4    0    0  0.88065094705E+01  0.78267145664E+01 -0.26909668869E+02  0.29375880392E+02  0.51100000000E-03 0.  1.
        -12    1    4    4    0    0 -0.69578772943E+00  0.11840133528E+01 -0.13987871159E+02  0.14055125320E+02  0.00000000000E+00 0.  1.
</event>
<event>
 8    1  0.6239251E-010  0.9118800E+02  0.7816164E-02  0.1184000E+00
        -11   -1    0    0    0    0  0.00000000000E+00  0.00000000000E+00  0.45593999997E+02  0.45594000000E+02  0.51100000000E-03 0. -1.
         11   -1    0    0    0    0 -0.00000000000E+00 -0.00000000000E+00 -0.45593999997E+02  0.45594000000E+02  0.51100000000E-03 0.  1.
         23    2    1    2    0    0  0.00000000000E+00  0.00000000000E+00  0.00000000000E+00  0.91188000000E+02  0.91188000000E+02 0.  0.
    9900012    2    3    3    0    0  0.42096701182E+01 -0.23417823576E+02 -0.36297489558E+02  0.47787268074E+02  0.19999986455E+02 0.  0.
         12    1    3    3    0    0 -0.42096701182E+01  0.23417823576E+02  0.36297489558E+02  0.43400731926E+02  0.00000000000E+00 0. -1.
         11    1    4    4    0    0  0.41293814204E+01 -0.51163159294E+01 -0.35474024385E+01  0.74707793387E+01  0.51100000000E-03 0. -1.
        -11    1    4    4    0    0 -0.23136176780E+01 -0.18892239417E+02 -0.21133362987E+02  0.28440966375E+02  0.51100000000E-03 0.  1.
        -12    1    4    4    0    0  0.23939063758E+01  0.59073176972E+00 -0.11616724132E+02  0.11875522360E+02  0.00000000000E+00 0.  1.
</event>
<event>
 8    1  0.6239251E-010  0.9118800E+02  0.7816164E-02  0.1184000E+00
        -11   -1    0    0    0    0  0.00000000000E+00  0.00000000000E+00  0.45593999997E+02  0.45594000000E+02  0.51100000000E-03 0. -1.
         11   -1    0    0    0    0 -0.00000000000E+00 -0.00000000000E+00 -0.45593999997E+02  0.45594000000E+02  0.51100000000E-03 0.  1.
         23    2    1    2    0    0  0.00000000000E+00 -0.17763568394E-14  0.00000000000E+00  0.91188000000E+02  0.91188000000E+02 0.  0.
    9900012    2    3    3    0    0 -0.16751592739E+02  0.13144742818E+02  0.37818291873E+02  0.47787270476E+02  0.19999997408E+02 0.  0.
        -12    1    3    3    0    0  0.16751592739E+02 -0.13144742818E+02 -0.37818291873E+02  0.43400729524E+02  0.00000000000E+00 0.  1.
         11    1    4    4    0    0 -0.24663287725E+01  0.12748201828E+02  0.10580618304E+02  0.16749594365E+02  0.51100000000E-03 0. -1.
        -11    1    4    4    0    0 -0.34539403117E+01 -0.12860577169E+01  0.94576503720E+01  0.10150408807E+02  0.51100000000E-03 0.  1.
         12    1    4    4    0    0 -0.10831323655E+02  0.16825987072E+01  0.17780023197E+02  0.20887267303E+02  0.00000000000E+00 0. -1.
</event>
<event>
 8    1  0.6239251E-010  0.9118800E+02  0.7816164E-02  0.1184000E+00
        -11   -1    0    0    0    0  0.00000000000E+00  0.00000000000E+00  0.45593999997E+02  0.45594000000E+02  0.51100000000E-03 0.  1.
         11   -1    0    0    0    0 -0.00000000000E+00 -0.00000000000E+00 -0.45593999997E+02  0.45594000000E+02  0.51100000000E-03 0. -1.
         23    2    1    2    0    0  0.00000000000E+00  0.00000000000E+00  0.00000000000E+00  0.91188000000E+02  0.91188000000E+02 0.  0.
    9900012    2    3    3    0    0  0.15213905658E+02 -0.25595873151E+02 -0.31575486787E+02  0.47787274043E+02  0.20000013674E+02 0.  0.
         12    1    3    3    0    0 -0.15213905658E+02  0.25595873151E+02  0.31575486787E+02  0.43400725957E+02  0.00000000000E+00 0. -1.
         11    1    4    4    0    0  0.80328030775E+01 -0.43324028210E+01 -0.15576077181E+02  0.18052972611E+02  0.51100000000E-03 0. -1.
        -11    1    4    4    0    0  0.64504662210E+01 -0.15496772492E+02 -0.53776951641E+01  0.17626062455E+02  0.51100000000E-03 0.  1.
        -12    1    4    4    0    0  0.73063635949E+00 -0.57666978377E+01 -0.10621714441E+02  0.12108238977E+02  0.00000000000E+00 0.  1.
</event>
<event>
 8    1  0.6239251E-010  0.9118800E+02  0.7816164E-02  0.1184000E+00
        -11   -1    0    0    0    0  0.00000000000E+00  0.00000000000E+00  0.45593999997E+02  0.45594000000E+02  0.51100000000E-03 0. -1.
         11   -1    0    0    0    0 -0.00000000000E+00 -0.00000000000E+00 -0.45593999997E+02  0.45594000000E+02  0.51100000000E-03 0.  1.
         23    2    1    2    0    0  0.00000000000E+00 -0.17763568394E-14  0.00000000000E+00  0.91188000000E+02  0.91188000000E+02 0.  0.
    9900012    2    3    3    0    0 -0.89684872663E+01 -0.11049212944E+02  0.41001272706E+02  0.47787271503E+02  0.20000002091E+02 0.  0.
        -12    1    3    3    0    0  0.89684872663E+01  0.11049212944E+02 -0.41001272706E+02  0.43400728497E+02  0.00000000000E+00 0.  1.
         11    1    4    4    0    0 -0.30751934958E+01 -0.60139831067E+01  0.10503818208E+02  0.12488194628E+02  0.51100000000E-03 0. -1.
        -11    1    4    4    0    0 -0.43497123215E+01  0.56880299379E-01  0.93043441907E-02  0.43500941921E+01  0.51100000000E-03 0.  1.
        -12    1    4    4    0    0 -0.15435814490E+01 -0.50921101368E+01  0.30488150154E+02  0.30948982683E+02  0.00000000000E+00 0.  1.
</event>
<event>
 8    1  0.6239251E-010  0.9118800E+02  0.7816164E-02  0.1184000E+00
        -11   -1    0    0    0    0  0.00000000000E+00  0.00000000000E+00  0.45593999997E+02  0.45594000000E+02  0.51100000000E-03 0. -1.
         11   -1    0    0    0    0 -0.00000000000E+00 -0.00000000000E+00 -0.45593999997E+02  0.45594000000E+02  0.51100000000E-03 0.  1.
         23    2    1    2    0    0  0.00000000000E+00 -0.88817841970E-15  0.00000000000E+00  0.91188000000E+02  0.91188000000E+02 0.  0.
    9900012    2    3    3    0    0  0.10481525461E+02 -0.52924556767E+01 -0.41782181482E+02  0.47787272443E+02  0.20000006377E+02 0.  0.
         12    1    3    3    0    0 -0.10481525461E+02  0.52924556767E+01  0.41782181482E+02  0.43400727557E+02  0.00000000000E+00 0. -1.
         11    1    4    4    0    0  0.31563627742E+01 -0.15145818679E+01 -0.44243665193E+00  0.35287865689E+01  0.51100000000E-03 0. -1.
        -11    1    4    4    0    0  0.49577549896E+01 -0.88094273426E+00 -0.39952142096E+02  0.40268213928E+02  0.51100000000E-03 0.  1.
        -12    1    4    4    0    0  0.23674076970E+01 -0.28969310746E+01 -0.13876027337E+01  0.39902719458E+01  0.00000000000E+00 0.  1.
</event>
<event>
 8    1  0.6239251E-010  0.9118800E+02  0.7816164E-02  0.1184000E+00
        -11   -1    0    0    0    0  0.00000000000E+00  0.00000000000E+00  0.45593999997E+02  0.45594000000E+02  0.51100000000E-03 0. -1.
         11   -1    0    0    0    0 -0.00000000000E+00 -0.00000000000E+00 -0.45593999997E+02  0.45594000000E+02  0.51100000000E-03 0.  1.
         23    2    1    2    0    0  0.00000000000E+00  0.35527136788E-14  0.00000000000E+00  0.91188000000E+02  0.91188000000E+02 0.  0.
    9900012    2    3    3    0    0  0.27670634269E+02  0.30546395854E+02 -0.13596983440E+02  0.47787259694E+02  0.19999948247E+02 0.  0.
         12    1    3    3    0    0 -0.27670634269E+02 -0.30546395854E+02  0.13596983440E+02  0.43400740306E+02  0.00000000000E+00 0. -1.
         11    1    4    4    0    0  0.56877676286E+01  0.13059604998E+01 -0.79996912228E+01  0.99020853029E+01  0.51100000000E-03 0. -1.
        -11    1    4    4    0    0  0.13398335240E+02  0.13242372914E+02  0.15870970272E+00  0.18838816753E+02  0.51100000000E-03 0.  1.
        -12    1    4    4    0    0  0.85845314002E+01  0.15998062439E+02 -0.57560019200E+01  0.19046357638E+02  0.00000000000E+00 0.  1.
</event>
<event>
 8    1  0.6239251E-010  0.9118800E+02  0.7816164E-02  0.1184000E+00
        -11   -1    0    0    0    0  0.00000000000E+00  0.00000000000E+00  0.45593999997E+02  0.45594000000E+02  0.51100000000E-03 0. -1.
         11   -1    0    0    0    0 -0.00000000000E+00 -0.00000000000E+00 -0.45593999997E+02  0.45594000000E+02  0.51100000000E-03 0.  1.
         23    2    1    2    0    0 -0.17763568394E-14 -0.44408920985E-15 -0.71054273576E-14  0.91188000000E+02  0.91188000000E+02 0.  0.
    9900012    2    3    3    0    0 -0.11077648484E+02  0.11455171907E+01 -0.41947548369E+02  0.47787270516E+02  0.19999997590E+02 0.  0.
         12    1    3    3    0    0  0.11077648484E+02 -0.11455171907E+01  0.41947548369E+02  0.43400729484E+02  0.00000000000E+00 0. -1.
         11    1    4    4    0    0 -0.10421557007E+02 -0.16513083505E+01 -0.26062971966E+02  0.28117862253E+02  0.51100000000E-03 0. -1.
        -11    1    4    4    0    0  0.30584967182E+01  0.51886983483E+01 -0.13175472396E+02  0.14486892898E+02  0.51100000000E-03 0.  1.
        -12    1    4    4    0    0 -0.37145881947E+01 -0.23918728071E+01 -0.27091040073E+01  0.51825153646E+01  0.00000000000E+00 0.  1.
</event>
<event>
 8    1  0.6239251E-010  0.9118800E+02  0.7816164E-02  0.1184000E+00
        -11   -1    0    0    0    0  0.00000000000E+00  0.00000000000E+00  0.45593999997E+02  0.45594000000E+02  0.51100000000E-03 0. -1.
         11   -1    0    0    0    0 -0.00000000000E+00 -0.00000000000E+00 -0.45593999997E+02  0.45594000000E+02  0.51100000000E-03 0.  1.
         23    2    1    2    0    0  0.35527136788E-14  0.00000000000E+00  0.71054273576E-14  0.91188000000E+02  0.91188000000E+02 0.  0.
    9900012    2    3    3    0    0  0.23537817691E+02 -0.14766580586E+02  0.33339801707E+02  0.47787272567E+02  0.20000006942E+02 0.  0.
        -12    1    3    3    0    0 -0.23537817691E+02  0.14766580586E+02 -0.33339801707E+02  0.43400727433E+02  0.00000000000E+00 0.  1.
         11    1    4    4    0    0  0.23326410175E+02 -0.93833395359E+01  0.24523221240E+02  0.35122028027E+02  0.51100000000E-03 0. -1.
        -11    1    4    4    0    0  0.48731687880E+00 -0.71829988939E+01  0.63523939324E+01  0.96013467692E+01  0.51100000000E-03 0.  1.
         12    1    4    4    0    0 -0.27590936326E+00  0.17997578433E+01  0.24641865349E+01  0.30638977708E+01  0.00000000000E+00 0. -1.
</event>
<event>
 8    1  0.6239251E-010  0.9118800E+02  0.7816164E-02  0.1184000E+00
        -11   -1    0    0    0    0  0.00000000000E+00  0.00000000000E+00  0.45593999997E+02  0.45594000000E+02  0.51100000000E-03 0. -1.
         11   -1    0    0    0    0 -0.00000000000E+00 -0.00000000000E+00 -0.45593999997E+02  0.45594000000E+02  0.51100000000E-03 0.  1.
         23    2    1    2    0    0  0.00000000000E+00  0.00000000000E+00  0.00000000000E+00  0.91188000000E+02  0.91188000000E+02 0.  0.
    9900012    2    3    3    0    0 -0.19036812319E+02  0.13144029268E+02  0.36721353041E+02  0.47787268464E+02  0.19999988237E+02 0.  0.
        -12    1    3    3    0    0  0.19036812319E+02 -0.13144029268E+02 -0.36721353041E+02  0.43400731536E+02  0.00000000000E+00 0.  1.
         11    1    4    4    0    0 -0.10307072387E+02  0.83285409754E+01  0.30206885840E+02  0.32985698240E+02  0.51100000000E-03 0. -1.
        -11    1    4    4    0    0 -0.31401726807E+01  0.64053028029E+01  0.52422721921E+01  0.88526835738E+01  0.51100000000E-03 0.  1.
         12    1    4    4    0    0 -0.55895672521E+01 -0.15898145107E+01  0.12721950089E+01  0.59488866508E+01  0.00000000000E+00 0. -1.
</event>
<event>
 8    1  0.6239251E-010  0.9118800E+02  0.7816164E-02  0.1184000E+00
        -11   -1    0    0    0    0  0.00000000000E+00  0.00000000000E+00  0.45593999997E+02  0.45594000000E+02  0.51100000000E-03 0. -1.
         11   -1    0    0    0    0 -0.00000000000E+00 -0.00000000000E+00 -0.45593999997E+02  0.45594000000E+02  0.51100000000E-03 0.  1.
         23    2    1    2    0    0  0.22204460493E-15  0.71054273576E-14  0.00000000000E+00  0.91188000000E+02  0.91188000000E+02 0.  0.
    9900012    2    3    3    0    0  0.93472466374E+00  0.40627375967E+02  0.15236986646E+02  0.47787272470E+02  0.20000006498E+02 0.  0.
        -12    1    3    3    0    0 -0.93472466374E+00 -0.40627375967E+02 -0.15236986646E+02  0.43400727530E+02  0.00000000000E+00 0.  1.
         11    1    4    4    0    0  0.24044838492E+01  0.11221644825E+01  0.24303467585E+01  0.35982469807E+01  0.51100000000E-03 0. -1.
        -11    1    4    4    0    0 -0.23459741687E+01  0.37249265415E+02  0.71026873290E+01  0.37992887970E+02  0.51100000000E-03 0.  1.
        -12    1    4    4    0    0  0.87621498319E+00  0.22559460695E+01  0.57039525585E+01  0.61961375191E+01  0.00000000000E+00 0.  1.
</event>
<event>
 8    1  0.6239251E-010  0.9118800E+02  0.7816164E-02  0.1184000E+00
        -11   -1    0    0    0    0  0.00000000000E+00  0.00000000000E+00  0.45593999997E+02  0.45594000000E+02  0.51100000000E-03 0. -1.
         11   -1    0    0    0    0 -0.00000000000E+00 -0.00000000000E+00 -0.45593999997E+02  0.45594000000E+02  0.51100000000E-03 0.  1.
         23    2    1    2    0    0  0.00000000000E+00  0.00000000000E+00 -0.35527136788E-14  0.91188000000E+02  0.91188000000E+02 0.  0.
    9900012    2    3    3    0    0 -0.30695155134E+02  0.15073383721E+02 -0.26724973083E+02  0.47787266921E+02  0.19999981199E+02 0.  0.
         12    1    3    3    0    0  0.30695155134E+02 -0.15073383721E+02  0.26724973083E+02  0.43400733079E+02  0.00000000000E+00 0. -1.
         11    1    4    4    0    0 -0.71495315552E+00  0.30025107386E+01 -0.14509436800E+00  0.30898675355E+01  0.51100000000E-03 0. -1.
        -11    1    4    4    0    0 -0.19524619763E+02  0.91637563345E+01 -0.26067065057E+02  0.33833076833E+02  0.51100000000E-03 0.  1.
        -12    1    4    4    0    0 -0.10455582216E+02  0.29071166479E+01 -0.51281365808E+00  0.10864322553E+02  0.00000000000E+00 0.  1.
</event>
<event>
 8    1  0.6239251E-010  0.9118800E+02  0.7816164E-02  0.1184000E+00
        -11   -1    0    0    0    0  0.00000000000E+00  0.00000000000E+00  0.45593999997E+02  0.45594000000E+02  0.51100000000E-03 0. -1.
         11   -1    0    0    0    0 -0.00000000000E+00 -0.00000000000E+00 -0.45593999997E+02  0.45594000000E+02  0.51100000000E-03 0.  1.
         23    2    1    2    0    0  0.17763568394E-14  0.00000000000E+00  0.00000000000E+00  0.91188000000E+02  0.91188000000E+02 0.  0.
    9900012    2    3    3    0    0  0.12035438520E+02  0.35327730900E+02 -0.22152263905E+02  0.47787272506E+02  0.20000006663E+02 0.  0.
         12    1    3    3    0    0 -0.12035438520E+02 -0.35327730900E+02  0.22152263905E+02  0.43400727494E+02  0.00000000000E+00 0. -1.
         11    1    4    4    0    0  0.80429501493E+00 -0.33664909010E+00  0.16848991882E+01  0.18971316814E+01  0.51100000000E-03 0. -1.
        -11    1    4    4    0    0  0.12968266956E+02  0.23108105457E+02 -0.15154844018E+02  0.30525887098E+02  0.51100000000E-03 0.  1.
        -12    1    4    4    0    0 -0.17371234517E+01  0.12556274533E+02 -0.86823190757E+01  0.15364253726E+02  0.00000000000E+00 0.  1.
</event>
<event>
 8    1  0.6239251E-010  0.9118800E+02  0.7816164E-02  0.1184000E+00
        -11   -1    0    0    0    0  0.00000000000E+00  0.00000000000E+00  0.45593999997E+02  0.45594000000E+02  0.51100000000E-03 0. -1.
         11   -1    0    0    0    0 -0.00000000000E+00 -0.00000000000E+00 -0.45593999997E+02  0.45594000000E+02  0.51100000000E-03 0.  1.
         23    2    1    2    0    0  0.00000000000E+00  0.00000000000E+00  0.00000000000E+00  0.91188000000E+02  0.91188000000E+02 0.  0.
    9900012    2    3    3    0    0 -0.18710677224E+02  0.19276942909E+02  0.34087140603E+02  0.47787272765E+02  0.20000007843E+02 0.  0.
        -12    1    3    3    0    0  0.18710677224E+02 -0.19276942909E+02 -0.34087140603E+02  0.43400727235E+02  0.00000000000E+00 0.  1.
         11    1    4    4    0    0 -0.10902930757E+02 -0.84605750613E-01  0.76981997056E+01  0.13347034735E+02  0.51100000000E-03 0. -1.
        -11    1    4    4    0    0 -0.10794580023E+00  0.74302510348E+01  0.57869425082E+01  0.94185448234E+01  0.51100000000E-03 0.  1.
         12    1    4    4    0    0 -0.76998006661E+01  0.11931297625E+02  0.20601998389E+02  0.25021693207E+02  0.00000000000E+00 0. -1.
</event>
<event>
 8    1  0.6239251E-010  0.9118800E+02  0.7816164E-02  0.1184000E+00
        -11   -1    0    0    0    0  0.00000000000E+00  0.00000000000E+00  0.45593999997E+02  0.45594000000E+02  0.51100000000E-03 0. -1.
         11   -1    0    0    0    0 -0.00000000000E+00 -0.00000000000E+00 -0.45593999997E+02  0.45594000000E+02  0.51100000000E-03 0.  1.
         23    2    1    2    0    0 -0.35527136788E-14  0.00000000000E+00  0.00000000000E+00  0.91188000000E+02  0.91188000000E+02 0.  0.
    9900012    2    3    3    0    0 -0.23251265016E+02  0.32069577073E+02 -0.17735374987E+02  0.47787278526E+02  0.20000034113E+02 0.  0.
         12    1    3    3    0    0  0.23251265016E+02 -0.32069577073E+02  0.17735374987E+02  0.43400721474E+02  0.00000000000E+00 0. -1.
         11    1    4    4    0    0 -0.55679445835E+01  0.94728670804E+00 -0.66812743756E+01  0.87486448399E+01  0.51100000000E-03 0. -1.
        -11    1    4    4    0    0 -0.11939564990E+02  0.24262803858E+02 -0.33804780465E+01  0.27251871409E+02  0.51100000000E-03 0.  1.
        -12    1    4    4    0    0 -0.57437554418E+01  0.68594865074E+01 -0.76736225646E+01  0.11786762277E+02  0.00000000000E+00 0.  1.
</event>
<event>
 8    1  0.6239251E-010  0.9118800E+02  0.7816164E-02  0.1184000E+00
        -11   -1    0    0    0    0  0.00000000000E+00  0.00000000000E+00  0.45593999997E+02  0.45594000000E+02  0.51100000000E-03 0. -1.
         11   -1    0    0    0    0 -0.00000000000E+00 -0.00000000000E+00 -0.45593999997E+02  0.45594000000E+02  0.51100000000E-03 0.  1.
         23    2    1    2    0    0  0.00000000000E+00  0.35527136788E-14  0.17763568394E-14  0.91188000000E+02  0.91188000000E+02 0.  0.
    9900012    2    3    3    0    0 -0.33337308951E+02 -0.23218905030E+02  0.15268555889E+02  0.47787279754E+02  0.20000039713E+02 0.  0.
        -12    1    3    3    0    0  0.33337308951E+02  0.23218905030E+02 -0.15268555889E+02  0.43400720246E+02  0.00000000000E+00 0.  1.
         11    1    4    4    0    0 -0.19450544729E+02 -0.10233588984E+02  0.10081676338E+02  0.24180368727E+02  0.51100000000E-03 0. -1.
        -11    1    4    4    0    0 -0.81367075194E+01 -0.58023974963E+01 -0.38506220776E+01  0.10709860718E+02  0.51100000000E-03 0.  1.
        -12    1    4    4    0    0 -0.57500567029E+01 -0.71829185493E+01  0.90375016291E+01  0.12897050309E+02  0.00000000000E+00 0.  1.
</event>
<event>
 8    1  0.6239251E-010  0.9118800E+02  0.7816164E-02  0.1184000E+00
        -11   -1    0    0    0    0  0.00000000000E+00  0.00000000000E+00  0.45593999997E+02  0.45594000000E+02  0.51100000000E-03 0.  1.
         11   -1    0    0    0    0 -0.00000000000E+00 -0.00000000000E+00 -0.45593999997E+02  0.45594000000E+02  0.51100000000E-03 0. -1.
         23    2    1    2    0    0  0.00000000000E+00  0.71054273576E-14  0.00000000000E+00  0.91188000000E+02  0.91188000000E+02 0.  0.
    9900012    2    3    3    0    0 -0.27642250982E+02 -0.32010257799E+02  0.97402491422E+01  0.47787273081E+02  0.20000009284E+02 0.  0.
        -12    1    3    3    0    0  0.27642250982E+02  0.32010257799E+02 -0.97402491422E+01  0.43400726919E+02  0.00000000000E+00 0.  1.
         11    1    4    4    0    0 -0.12114919443E+02 -0.44510683463E+01 -0.24616985325E+01  0.13139377553E+02  0.51100000000E-03 0. -1.
        -11    1    4    4    0    0 -0.55387065361E+00 -0.32562477635E+00  0.17415033220E+01  0.18562430546E+01  0.51100000000E-03 0.  1.
         12    1    4    4    0    0 -0.14973460885E+02 -0.27233564677E+02  0.10460444353E+02  0.32791652474E+02  0.00000000000E+00 0. -1.
</event>
<event>
 8    1  0.6239251E-010  0.9118800E+02  0.7816164E-02  0.1184000E+00
        -11   -1    0    0    0    0  0.00000000000E+00  0.00000000000E+00  0.45593999997E+02  0.45594000000E+02  0.51100000000E-03 0. -1.
         11   -1    0    0    0    0 -0.00000000000E+00 -0.00000000000E+00 -0.45593999997E+02  0.45594000000E+02  0.51100000000E-03 0.  1.
         23    2    1    2    0    0 -0.35527136788E-14  0.00000000000E+00 -0.35527136788E-14  0.91188000000E+02  0.91188000000E+02 0.  0.
    9900012    2    3    3    0    0 -0.30864946162E+02 -0.15961285210E+02 -0.26004142308E+02  0.47787274841E+02  0.20000017312E+02 0.  0.
         12    1    3    3    0    0  0.30864946162E+02  0.15961285210E+02  0.26004142308E+02  0.43400725159E+02  0.00000000000E+00 0. -1.
         11    1    4    4    0    0 -0.22089900529E+01  0.24190250530E+01  0.11531133605E+01  0.34728935981E+01  0.51100000000E-03 0. -1.
        -11    1    4    4    0    0 -0.29126131252E+02 -0.18343583715E+02 -0.27154549439E+02  0.43842766116E+02  0.51100000000E-03 0.  1.
        -12    1    4    4    0    0  0.47017514312E+00 -0.36726548028E-01 -0.27062293867E-02  0.47161512721E+00  0.00000000000E+00 0.  1.
</event>
<event>
 8    1  0.6239251E-010  0.9118800E+02  0.7816164E-02  0.1184000E+00
        -11   -1    0    0    0    0  0.00000000000E+00  0.00000000000E+00  0.45593999997E+02  0.45594000000E+02  0.51100000000E-03 0. -1.
         11   -1    0    0    0    0 -0.00000000000E+00 -0.00000000000E+00 -0.45593999997E+02  0.45594000000E+02  0.51100000000E-03 0.  1.
         23    2    1    2    0    0  0.33306690739E-15  0.44408920985E-15  0.00000000000E+00  0.91188000000E+02  0.91188000000E+02 0.  0.
    9900012    2    3    3    0    0  0.23421195556E+00  0.25834151479E+01 -0.43323149135E+02  0.47787261066E+02  0.19999954503E+02 0.  0.
         12    1    3    3    0    0 -0.23421195556E+00 -0.25834151479E+01  0.43323149135E+02  0.43400738934E+02  0.00000000000E+00 0. -1.
         11    1    4    4    0    0 -0.48498647571E+01 -0.34606587610E+01 -0.54708507289E+01  0.80887301340E+01  0.51100000000E-03 0. -1.
        -11    1    4    4    0    0  0.76879182461E+01  0.45809198827E+01 -0.29544211316E+02  0.30869877494E+02  0.51100000000E-03 0.  1.
        -12    1    4    4    0    0 -0.26038415334E+01  0.14631540262E+01 -0.83080870895E+01  0.88286534376E+01  0.00000000000E+00 0.  1.
</event>
<event>
 8    1  0.6239251E-010  0.9118800E+02  0.7816164E-02  0.1184000E+00
        -11   -1    0    0    0    0  0.00000000000E+00  0.00000000000E+00  0.45593999997E+02  0.45594000000E+02  0.51100000000E-03 0. -1.
         11   -1    0    0    0    0 -0.00000000000E+00 -0.00000000000E+00 -0.45593999997E+02  0.45594000000E+02  0.51100000000E-03 0.  1.
         23    2    1    2    0    0 -0.44408920985E-15 -0.17763568394E-14  0.00000000000E+00  0.91188000000E+02  0.91188000000E+02 0.  0.
    9900012    2    3    3    0    0 -0.43733597453E+00 -0.96855743726E+01 -0.42303921202E+02  0.47787270021E+02  0.19999995333E+02 0.  0.
         12    1    3    3    0    0  0.43733597453E+00  0.96855743726E+01  0.42303921202E+02  0.43400729979E+02  0.00000000000E+00 0. -1.
         11    1    4    4    0    0 -0.53963425532E+01  0.79675499306E+00 -0.27535353875E+02  0.28070465702E+02  0.51100000000E-03 0. -1.
        -11    1    4    4    0    0  0.51576292435E+01 -0.48612078107E+01 -0.59337201766E+01  0.92434580211E+01  0.51100000000E-03 0.  1.
         12    1    4    4    0    0 -0.19862266488E+00 -0.56211215550E+01 -0.88348471503E+01  0.10473346298E+02  0.00000000000E+00 0. -1.
</event>
<event>
 8    1  0.6239251E-010  0.9118800E+02  0.7816164E-02  0.1184000E+00
        -11   -1    0    0    0    0  0.00000000000E+00  0.00000000000E+00  0.45593999997E+02  0.45594000000E+02  0.51100000000E-03 0. -1.
         11   -1    0    0    0    0 -0.00000000000E+00 -0.00000000000E+00 -0.45593999997E+02  0.45594000000E+02  0.51100000000E-03 0.  1.
         23    2    1    2    0    0  0.00000000000E+00  0.00000000000E+00  0.00000000000E+00  0.91188000000E+02  0.91188000000E+02 0.  0.
    9900012    2    3    3    0    0 -0.12397823092E+02 -0.40295047046E+02  0.10306628682E+02  0.47787269261E+02  0.19999991870E+02 0.  0.
        -12    1    3    3    0    0  0.12397823092E+02  0.40295047046E+02 -0.10306628682E+02  0.43400730739E+02  0.00000000000E+00 0.  1.
         11    1    4    4    0    0 -0.15741492861E+02 -0.38807340302E+02  0.98081973660E+01  0.43011684397E+02  0.51100000000E-03 0. -1.
        -11    1    4    4    0    0  0.15879180600E+01  0.29214611602E+00 -0.96272734105E+00  0.18798077861E+01  0.51100000000E-03 0.  1.
         12    1    4    4    0    0  0.17557517088E+01 -0.17798528599E+01  0.14611586570E+01  0.28957770783E+01  0.00000000000E+00 0. -1.
</event>
<event>
 8    1  0.6239251E-010  0.9118800E+02  0.7816164E-02  0.1184000E+00
        -11   -1    0    0    0    0  0.00000000000E+00  0.00000000000E+00  0.45593999997E+02  0.45594000000E+02  0.51100000000E-03 0. -1.
         11   -1    0    0    0    0 -0.00000000000E+00 -0.00000000000E+00 -0.45593999997E+02  0.45594000000E+02  0.51100000000E-03 0.  1.
         23    2    1    2    0    0  0.00000000000E+00  0.00000000000E+00  0.00000000000E+00  0.91188000000E+02  0.91188000000E+02 0.  0.
    9900012    2    3    3    0    0  0.23880871938E+02  0.44928516715E+01  0.35960276829E+02  0.47787271086E+02  0.20000000191E+02 0.  0.
        -12    1    3    3    0    0 -0.23880871938E+02 -0.44928516715E+01 -0.35960276829E+02  0.43400728914E+02  0.00000000000E+00 0.  1.
         11    1    4    4    0    0  0.22986271020E+02  0.42536663769E+01  0.31095865746E+02  0.38902637440E+02  0.51100000000E-03 0. -1.
        -11    1    4    4    0    0 -0.30196315310E+01  0.55478306229E+00  0.36599116873E+01  0.47771238888E+01  0.51100000000E-03 0.  1.
        -12    1    4    4    0    0  0.39142324487E+01 -0.31559776764E+00  0.12044993954E+01  0.41075097573E+01  0.00000000000E+00 0.  1.
</event>
<event>
 8    1  0.6239251E-010  0.9118800E+02  0.7816164E-02  0.1184000E+00
        -11   -1    0    0    0    0  0.00000000000E+00  0.00000000000E+00  0.45593999997E+02  0.45594000000E+02  0.51100000000E-03 0. -1.
         11   -1    0    0    0    0 -0.00000000000E+00 -0.00000000000E+00 -0.45593999997E+02  0.45594000000E+02  0.51100000000E-03 0.  1.
         23    2    1    2    0    0  0.00000000000E+00  0.35527136788E-14 -0.35527136788E-14  0.91188000000E+02  0.91188000000E+02 0.  0.
    9900012    2    3    3    0    0 -0.20484649834E+02  0.31047213785E+02 -0.22362304061E+02  0.47787274136E+02  0.20000014095E+02 0.  0.
         12    1    3    3    0    0  0.20484649834E+02 -0.31047213785E+02  0.22362304061E+02  0.43400725864E+02  0.00000000000E+00 0. -1.
         11    1    4    4    0    0 -0.10546620500E+02  0.69844641283E+01 -0.11049967561E+02  0.16796300977E+02  0.51100000000E-03 0.  1.
        -11    1    4    4    0    0  0.21464515313E+01  0.52208841791E+01  0.52556543720E+00  0.56693125754E+01  0.51100000000E-03 0. -1.
        -12    1    4    4    0    0 -0.12084480865E+02  0.18841865477E+02 -0.11837901937E+02  0.25321660584E+02  0.00000000000E+00 0.  1.
</event>
<event>
 8    1  0.6239251E-010  0.9118800E+02  0.7816164E-02  0.1184000E+00
        -11   -1    0    0    0    0  0.00000000000E+00  0.00000000000E+00  0.45593999997E+02  0.45594000000E+02  0.51100000000E-03 0. -1.
         11   -1    0    0    0    0 -0.00000000000E+00 -0.00000000000E+00 -0.45593999997E+02  0.45594000000E+02  0.51100000000E-03 0.  1.
         23    2    1    2    0    0  0.00000000000E+00  0.00000000000E+00 -0.71054273576E-14  0.91188000000E+02  0.91188000000E+02 0.  0.
    9900012    2    3    3    0    0  0.16447437132E+02  0.76684762679E+01  0.39424608598E+02  0.47787268675E+02  0.19999989196E+02 0.  0.
        -12    1    3    3    0    0 -0.16447437132E+02 -0.76684762679E+01 -0.39424608598E+02  0.43400731325E+02  0.00000000000E+00 0.  1.
         11    1    4    4    0    0  0.54038522749E+01 -0.24570119300E+01  0.25497978157E+02  0.26179866641E+02  0.51100000000E-03 0. -1.
        -11    1    4    4    0    0  0.67365335894E+01  0.90930067005E+01  0.67577922902E+01  0.13180721246E+02  0.51100000000E-03 0.  1.
        -12    1    4    4    0    0  0.43070512673E+01  0.10324814973E+01  0.71688381511E+01  0.84266807877E+01  0.00000000000E+00 0.  1.
</event>
<event>
 8    1  0.6239251E-010  0.9118800E+02  0.7816164E-02  0.1184000E+00
        -11   -1    0    0    0    0  0.00000000000E+00  0.00000000000E+00  0.45593999997E+02  0.45594000000E+02  0.51100000000E-03 0. -1.
         11   -1    0    0    0    0 -0.00000000000E+00 -0.00000000000E+00 -0.45593999997E+02  0.45594000000E+02  0.51100000000E-03 0.  1.
         23    2    1    2    0    0  0.00000000000E+00 -0.11102230246E-15  0.00000000000E+00  0.91188000000E+02  0.91188000000E+02 0.  0.
    9900012    2    3    3    0    0 -0.14276420433E+02 -0.82234433563E+00 -0.40977199011E+02  0.47787271096E+02  0.20000000235E+02 0.  0.
         12    1    3    3    0    0  0.14276420433E+02  0.82234433563E+00  0.40977199011E+02  0.43400728904E+02  0.00000000000E+00 0. -1.
         11    1    4    4    0    0  0.30276038497E+01 -0.16797483887E+01 -0.18034838441E+01  0.39039075242E+01  0.51100000000E-03 0. -1.
        -11    1    4    4    0    0 -0.13088881831E+02 -0.35424988569E+01 -0.29215785394E+02  0.32209163947E+02  0.51100000000E-03 0.  1.
        -12    1    4    4    0    0 -0.42151424525E+01  0.43999029100E+01 -0.99579297730E+01  0.11674199625E+02  0.00000000000E+00 0.  1.
</event>
<event>
 8    1  0.6239251E-010  0.9118800E+02  0.7816164E-02  0.1184000E+00
        -11   -1    0    0    0    0  0.00000000000E+00  0.00000000000E+00  0.45593999997E+02  0.45594000000E+02  0.51100000000E-03 0. -1.
         11   -1    0    0    0    0 -0.00000000000E+00 -0.00000000000E+00 -0.45593999997E+02  0.45594000000E+02  0.51100000000E-03 0.  1.
         23    2    1    2    0    0  0.17763568394E-14  0.35527136788E-14  0.00000000000E+00  0.91188000000E+02  0.91188000000E+02 0.  0.
    9900012    2    3    3    0    0  0.45370042973E+01  0.15927391666E+02 -0.40116793715E+02  0.47787270153E+02  0.19999995937E+02 0.  0.
         12    1    3    3    0    0 -0.45370042973E+01 -0.15927391666E+02  0.40116793715E+02  0.43400729847E+02  0.00000000000E+00 0. -1.
         11    1    4    4    0    0  0.31018786025E+01  0.47721812762E+01 -0.53990179917E+01  0.78450468790E+01  0.51100000000E-03 0. -1.
        -11    1    4    4    0    0  0.78724324873E+00  0.15222312297E+02 -0.30202251179E+02  0.33830674249E+02  0.51100000000E-03 0.  1.
        -12    1    4    4    0    0  0.64788244605E+00 -0.40671019068E+01 -0.45155245439E+01  0.61115490254E+01  0.00000000000E+00 0.  1.
</event>
<event>
 8    1  0.6239251E-010  0.9118800E+02  0.7816164E-02  0.1184000E+00
        -11   -1    0    0    0    0  0.00000000000E+00  0.00000000000E+00  0.45593999997E+02  0.45594000000E+02  0.51100000000E-03 0. -1.
         11   -1    0    0    0    0 -0.00000000000E+00 -0.00000000000E+00 -0.45593999997E+02  0.45594000000E+02  0.51100000000E-03 0.  1.
         23    2    1    2    0    0  0.00000000000E+00  0.00000000000E+00  0.00000000000E+00  0.91188000000E+02  0.91188000000E+02 0.  0.
    9900012    2    3    3    0    0 -0.32438118510E+02  0.77494134051E+01 -0.27772982507E+02  0.47787268463E+02  0.19999988230E+02 0.  0.
         12    1    3    3    0    0  0.32438118510E+02 -0.77494134051E+01  0.27772982507E+02  0.43400731537E+02  0.00000000000E+00 0. -1.
         11    1    4    4    0    0 -0.66200475064E+01 -0.24758186285E+01 -0.50971416348E+01  0.87141012143E+01  0.51100000000E-03 0. -1.
        -11    1    4    4    0    0 -0.23602797443E+02  0.45726784243E+01 -0.22607671035E+02  0.33001639733E+02  0.51100000000E-03 0.  1.
        -12    1    4    4    0    0 -0.22152735603E+01  0.56525536092E+01 -0.68169837113E-01  0.60715275160E+01  0.00000000000E+00 0.  1.
</event>
<event>
 8    1  0.6239251E-010  0.9118800E+02  0.7816164E-02  0.1184000E+00
        -11   -1    0    0    0    0  0.00000000000E+00  0.00000000000E+00  0.45593999997E+02  0.45594000000E+02  0.51100000000E-03 0.  1.
         11   -1    0    0    0    0 -0.00000000000E+00 -0.00000000000E+00 -0.45593999997E+02  0.45594000000E+02  0.51100000000E-03 0. -1.
         23    2    1    2    0    0  0.00000000000E+00  0.00000000000E+00  0.00000000000E+00  0.91188000000E+02  0.91188000000E+02 0.  0.
    9900012    2    3    3    0    0  0.36964988781E+02  0.22600115837E+02  0.25391857273E+01  0.47787273099E+02  0.20000009367E+02 0.  0.
        -12    1    3    3    0    0 -0.36964988781E+02 -0.22600115837E+02 -0.25391857273E+01  0.43400726901E+02  0.00000000000E+00 0.  1.
         11    1    4    4    0    0  0.26494629068E+02  0.10045686984E+02 -0.51677495386E+01  0.28802549054E+02  0.51100000000E-03 0. -1.
        -11    1    4    4    0    0  0.10078065268E+02  0.84925093046E+01  0.66860894108E+01  0.14778156370E+02  0.51100000000E-03 0.  1.
         12    1    4    4    0    0  0.39229444479E+00  0.40619195475E+01  0.10208458552E+01  0.42065676747E+01  0.00000000000E+00 0. -1.
</event>
<event>
 8    1  0.6239251E-010  0.9118800E+02  0.7816164E-02  0.1184000E+00
        -11   -1    0    0    0    0  0.00000000000E+00  0.00000000000E+00  0.45593999997E+02  0.45594000000E+02  0.51100000000E-03 0.  1.
         11   -1    0    0    0    0 -0.00000000000E+00 -0.00000000000E+00 -0.45593999997E+02  0.45594000000E+02  0.51100000000E-03 0. -1.
         23    2    1    2    0    0  0.00000000000E+00  0.00000000000E+00  0.00000000000E+00  0.91188000000E+02  0.91188000000E+02 0.  0.
    9900012    2    3    3    0    0 -0.41629325692E+02  0.11425980814E+02  0.44798788407E+01  0.47787272938E+02  0.20000008632E+02 0.  0.
        -12    1    3    3    0    0  0.41629325692E+02 -0.11425980814E+02 -0.44798788407E+01  0.43400727062E+02  0.00000000000E+00 0.  1.
         11    1    4    4    0    0 -0.31936078107E+02  0.11862982143E+02  0.46582837686E+01  0.34385215400E+02  0.51100000000E-03 0. -1.
        -11    1    4    4    0    0 -0.97614134697E+01 -0.34158811265E+01 -0.74645694539E+00  0.10368733531E+02  0.51100000000E-03 0.  1.
         12    1    4    4    0    0  0.68165884970E-01  0.29788797977E+01  0.56805201744E+00  0.30333240070E+01  0.00000000000E+00 0. -1.
</event>
<event>
 8    1  0.6239251E-010  0.9118800E+02  0.7816164E-02  0.1184000E+00
        -11   -1    0    0    0    0  0.00000000000E+00  0.00000000000E+00  0.45593999997E+02  0.45594000000E+02  0.51100000000E-03 0. -1.
         11   -1    0    0    0    0 -0.00000000000E+00 -0.00000000000E+00 -0.45593999997E+02  0.45594000000E+02  0.51100000000E-03 0.  1.
         23    2    1    2    0    0  0.35527136788E-14  0.00000000000E+00  0.00000000000E+00  0.91188000000E+02  0.91188000000E+02 0.  0.
    9900012    2    3    3    0    0  0.26491649366E+02  0.63881174514E+01  0.33778802690E+02  0.47787273717E+02  0.20000012185E+02 0.  0.
        -12    1    3    3    0    0 -0.26491649366E+02 -0.63881174514E+01 -0.33778802690E+02  0.43400726283E+02  0.00000000000E+00 0.  1.
         11    1    4    4    0    0  0.52285386147E+01  0.78662194991E+01  0.95641946622E+01  0.13442055090E+02  0.51100000000E-03 0. -1.
        -11    1    4    4    0    0  0.77761038044E+01 -0.45662081821E+01  0.15681586735E+02  0.18089505530E+02  0.51100000000E-03 0.  1.
        -12    1    4    4    0    0  0.13487006947E+02  0.30881061344E+01  0.85330212929E+01  0.16255713096E+02  0.00000000000E+00 0.  1.
</event>
<event>
 8    1  0.6239251E-010  0.9118800E+02  0.7816164E-02  0.1184000E+00
        -11   -1    0    0    0    0  0.00000000000E+00  0.00000000000E+00  0.45593999997E+02  0.45594000000E+02  0.51100000000E-03 0. -1.
         11   -1    0    0    0    0 -0.00000000000E+00 -0.00000000000E+00 -0.45593999997E+02  0.45594000000E+02  0.51100000000E-03 0.  1.
         23    2    1    2    0    0  0.35527136788E-14  0.17763568394E-14  0.00000000000E+00  0.91188000000E+02  0.91188000000E+02 0.  0.
    9900012    2    3    3    0    0  0.18417240362E+02 -0.13899355785E+02 -0.36759179063E+02  0.47787261767E+02  0.19999957699E+02 0.  0.
         12    1    3    3    0    0 -0.18417240362E+02  0.13899355785E+02  0.36759179063E+02  0.43400738233E+02  0.00000000000E+00 0. -1.
         11    1    4    4    0    0 -0.26952207763E+01 -0.74832935461E+01 -0.11153095305E+02  0.13698738353E+02  0.51100000000E-03 0. -1.
        -11    1    4    4    0    0  0.20238745722E+02 -0.50144886509E+01 -0.23708603083E+02  0.31572928044E+02  0.51100000000E-03 0.  1.
         12    1    4    4    0    0  0.87371541557E+00 -0.14015735882E+01 -0.18974806748E+01  0.25155953693E+01  0.00000000000E+00 0. -1.
</event>
<event>
 8    1  0.6239251E-010  0.9118800E+02  0.7816164E-02  0.1184000E+00
        -11   -1    0    0    0    0  0.00000000000E+00  0.00000000000E+00  0.45593999997E+02  0.45594000000E+02  0.51100000000E-03 0. -1.
         11   -1    0    0    0    0 -0.00000000000E+00 -0.00000000000E+00 -0.45593999997E+02  0.45594000000E+02  0.51100000000E-03 0.  1.
         23    2    1    2    0    0  0.00000000000E+00  0.00000000000E+00  0.00000000000E+00  0.91188000000E+02  0.91188000000E+02 0.  0.
    9900012    2    3    3    0    0 -0.76599885817E+01 -0.31388570663E+02  0.28977673066E+02  0.47787270402E+02  0.19999997069E+02 0.  0.
        -12    1    3    3    0    0  0.76599885817E+01  0.31388570663E+02 -0.28977673066E+02  0.43400729598E+02  0.00000000000E+00 0.  1.
         11    1    4    4    0    0 -0.10245962664E+02 -0.12658962402E+02  0.90971144671E+01  0.18654398192E+02  0.51100000000E-03 0. -1.
        -11    1    4    4    0    0  0.42694285164E+00 -0.18765453081E+02  0.19242632624E+02  0.26881283825E+02  0.51100000000E-03 0.  1.
        -12    1    4    4    0    0  0.21590312305E+01  0.35844819955E-01  0.63792597559E+00  0.22515883851E+01  0.00000000000E+00 0.  1.
</event>
<event>
 8    1  0.6239251E-010  0.9118800E+02  0.7816164E-02  0.1184000E+00
        -11   -1    0    0    0    0  0.00000000000E+00  0.00000000000E+00  0.45593999997E+02  0.45594000000E+02  0.51100000000E-03 0.  1.
         11   -1    0    0    0    0 -0.00000000000E+00 -0.00000000000E+00 -0.45593999997E+02  0.45594000000E+02  0.51100000000E-03 0. -1.
         23    2    1    2    0    0  0.00000000000E+00 -0.35527136788E-14  0.00000000000E+00  0.91188000000E+02  0.91188000000E+02 0.  0.
    9900012    2    3    3    0    0  0.36092243713E+02 -0.23949158019E+02  0.27223788187E+01  0.47787267605E+02  0.19999984317E+02 0.  0.
        -12    1    3    3    0    0 -0.36092243713E+02  0.23949158019E+02 -0.27223788187E+01  0.43400732395E+02  0.00000000000E+00 0.  1.
         11    1    4    4    0    0  0.30107073961E+02 -0.11787994651E+02  0.27036272189E+01  0.32445374413E+02  0.51100000000E-03 0. -1.
        -11    1    4    4    0    0 -0.84742943960E+00 -0.43110476365E+01 -0.18520185269E+01  0.47679388906E+01  0.51100000000E-03 0.  1.
         12    1    4    4    0    0  0.68325991911E+01 -0.78501157310E+01  0.18707701266E+01  0.10573954301E+02  0.00000000000E+00 0. -1.
</event>
<event>
 8    1  0.6239251E-010  0.9118800E+02  0.7816164E-02  0.1184000E+00
        -11   -1    0    0    0    0  0.00000000000E+00  0.00000000000E+00  0.45593999997E+02  0.45594000000E+02  0.51100000000E-03 0. -1.
         11   -1    0    0    0    0 -0.00000000000E+00 -0.00000000000E+00 -0.45593999997E+02  0.45594000000E+02  0.51100000000E-03 0.  1.
         23    2    1    2    0    0  0.17763568394E-14  0.00000000000E+00  0.35527136788E-14  0.91188000000E+02  0.91188000000E+02 0.  0.
    9900012    2    3    3    0    0 -0.75889725708E+01  0.31270820329E+02 -0.29123300112E+02  0.47787270534E+02  0.19999997674E+02 0.  0.
         12    1    3    3    0    0  0.75889725708E+01 -0.31270820329E+02  0.29123300112E+02  0.43400729466E+02  0.00000000000E+00 0. -1.
         11    1    4    4    0    0 -0.69056554760E+01  0.11562208212E+02 -0.16732623767E+02  0.21479139524E+02  0.51100000000E-03 0. -1.
        -11    1    4    4    0    0  0.42105575372E+01  0.17073087185E+02 -0.10234871914E+02  0.20346294605E+02  0.51100000000E-03 0.  1.
        -12    1    4    4    0    0 -0.48938746319E+01  0.26355249322E+01 -0.21558044312E+01  0.59618364056E+01  0.00000000000E+00 0.  1.
</event>
<event>
 8    1  0.6239251E-010  0.9118800E+02  0.7816164E-02  0.1184000E+00
        -11   -1    0    0    0    0  0.00000000000E+00  0.00000000000E+00  0.45593999997E+02  0.45594000000E+02  0.51100000000E-03 0.  1.
         11   -1    0    0    0    0 -0.00000000000E+00 -0.00000000000E+00 -0.45593999997E+02  0.45594000000E+02  0.51100000000E-03 0. -1.
         23    2    1    2    0    0  0.00000000000E+00 -0.17763568394E-14 -0.17763568394E-14  0.91188000000E+02  0.91188000000E+02 0.  0.
    9900012    2    3    3    0    0  0.39993260115E+02 -0.14486497145E+02  0.86199389576E+01  0.47787276484E+02  0.20000024799E+02 0.  0.
         12    1    3    3    0    0 -0.39993260115E+02  0.14486497145E+02 -0.86199389576E+01  0.43400723516E+02  0.00000000000E+00 0. -1.
         11    1    4    4    0    0  0.48543346197E+01 -0.57943996937E+00  0.75166100646E+01  0.89665903443E+01  0.51100000000E-03 0. -1.
        -11    1    4    4    0    0  0.22427098415E+02 -0.55950118803E+01 -0.23846248922E+01  0.23237154245E+02  0.51100000000E-03 0.  1.
        -12    1    4    4    0    0  0.12711827080E+02 -0.83120452954E+01  0.34879537852E+01  0.15583531895E+02  0.00000000000E+00 0.  1.
</event>
<event>
 8    1  0.6239251E-010  0.9118800E+02  0.7816164E-02  0.1184000E+00
        -11   -1    0    0    0    0  0.00000000000E+00  0.00000000000E+00  0.45593999997E+02  0.45594000000E+02  0.51100000000E-03 0. -1.
         11   -1    0    0    0    0 -0.00000000000E+00 -0.00000000000E+00 -0.45593999997E+02  0.45594000000E+02  0.51100000000E-03 0.  1.
         23    2    1    2    0    0  0.33306690739E-15  0.88817841970E-15  0.00000000000E+00  0.91188000000E+02  0.91188000000E+02 0.  0.
    9900012    2    3    3    0    0 -0.51570984984E+00  0.73029841695E+01  0.42778760843E+02  0.47787286714E+02  0.20000071445E+02 0.  0.
        -12    1    3    3    0    0  0.51570984984E+00 -0.73029841695E+01 -0.42778760843E+02  0.43400713286E+02  0.00000000000E+00 0.  1.
         11    1    4    4    0    0  0.13132387470E+01 -0.45005835333E+01  0.22042019479E+02  0.22535094211E+02  0.51100000000E-03 0. -1.
        -11    1    4    4    0    0 -0.11389020804E+01  0.27842995657E+01  0.45203437673E+00  0.30419989084E+01  0.51100000000E-03 0.  1.
         12    1    4    4    0    0 -0.69004651642E+00  0.90192681372E+01  0.20284706988E+02  0.22210193595E+02  0.00000000000E+00 0. -1.
</event>
<event>
 8    1  0.6239251E-010  0.9118800E+02  0.7816164E-02  0.1184000E+00
        -11   -1    0    0    0    0  0.00000000000E+00  0.00000000000E+00  0.45593999997E+02  0.45594000000E+02  0.51100000000E-03 0. -1.
         11   -1    0    0    0    0 -0.00000000000E+00 -0.00000000000E+00 -0.45593999997E+02  0.45594000000E+02  0.51100000000E-03 0.  1.
         23    2    1    2    0    0  0.00000000000E+00  0.44408920985E-15  0.00000000000E+00  0.91188000000E+02  0.91188000000E+02 0.  0.
    9900012    2    3    3    0    0 -0.19629441648E+02 -0.11866119984E+01 -0.38689804974E+02  0.47787262260E+02  0.19999959950E+02 0.  0.
         12    1    3    3    0    0  0.19629441648E+02  0.11866119984E+01  0.38689804974E+02  0.43400737740E+02  0.00000000000E+00 0. -1.
         11    1    4    4    0    0 -0.14170710769E+02  0.23109465964E+01 -0.15754539046E+02  0.21315605051E+02  0.51100000000E-03 0. -1.
        -11    1    4    4    0    0 -0.43142738481E+01  0.19582233092E+01 -0.19164753238E+02  0.19741716347E+02  0.51100000000E-03 0.  1.
         12    1    4    4    0    0 -0.11444570311E+01 -0.54557819040E+01 -0.37705126892E+01  0.67299408630E+01  0.00000000000E+00 0. -1.
</event>
<event>
 8    1  0.6239251E-010  0.9118800E+02  0.7816164E-02  0.1184000E+00
        -11   -1    0    0    0    0  0.00000000000E+00  0.00000000000E+00  0.45593999997E+02  0.45594000000E+02  0.51100000000E-03 0.  1.
         11   -1    0    0    0    0 -0.00000000000E+00 -0.00000000000E+00 -0.45593999997E+02  0.45594000000E+02  0.51100000000E-03 0. -1.
         23    2    1    2    0    0 -0.71054273576E-14 -0.17763568394E-14 -0.44408920985E-15  0.91188000000E+02  0.91188000000E+02 0.  0.
    9900012    2    3    3    0    0 -0.42835010101E+02  0.67092524866E+01  0.19419791609E+01  0.47787269103E+02  0.19999991150E+02 0.  0.
         12    1    3    3    0    0  0.42835010101E+02 -0.67092524866E+01 -0.19419791609E+01  0.43400730897E+02  0.00000000000E+00 0. -1.
         11    1    4    4    0    0 -0.77763681136E+01  0.84907972374E+01  0.14864416663E+01  0.11609265604E+02  0.51100000000E-03 0. -1.
        -11    1    4    4    0    0 -0.24567461829E+02 -0.13348408979E+01  0.43367752324E+01  0.24982986223E+02  0.51100000000E-03 0.  1.
        -12    1    4    4    0    0 -0.10491180159E+02 -0.44670385286E+00 -0.38812377377E+01  0.11195017277E+02  0.00000000000E+00 0.  1.
</event>
<event>
 8    1  0.8441837E-010  0.9118800E+02  0.7816164E-02  0.1184000E+00
        -11   -1    0    0    0    0  0.00000000000E+00  0.00000000000E+00  0.45593999997E+02  0.45594000000E+02  0.51100000000E-03 0. -1.
         11   -1    0    0    0    0 -0.00000000000E+00 -0.00000000000E+00 -0.45593999997E+02  0.45594000000E+02  0.51100000000E-03 0.  1.
         23    2    1    2    0    0  0.17763568394E-14 -0.35527136788E-14 -0.71054273576E-14  0.91188000000E+02  0.91188000000E+02 0.  0.
    9900012    2    3    3    0    0 -0.14339007308E+02  0.29469250567E+02  0.28453111013E+02  0.47787269755E+02  0.19999994119E+02 0.  0.
        -12    1    3    3    0    0  0.14339007308E+02 -0.29469250567E+02 -0.28453111013E+02  0.43400730245E+02  0.00000000000E+00 0.  1.
         11    1    4    4    0    0 -0.66551834364E+01  0.14735273816E+02  0.18657495959E+02  0.24688497660E+02  0.51100000000E-03 0. -1.
        -11    1    4    4    0    0 -0.68275458539E+01  0.10739032621E+02  0.26398077916E+00  0.12728389141E+02  0.51100000000E-03 0.  1.
        -12    1    4    4    0    0 -0.85627801744E+00  0.39949441297E+01  0.95316342749E+01  0.10370382953E+02  0.00000000000E+00 0.  1.
</event>
<event>
 8    1  0.6239251E-010  0.9118800E+02  0.7816164E-02  0.1184000E+00
        -11   -1    0    0    0    0  0.00000000000E+00  0.00000000000E+00  0.45593999997E+02  0.45594000000E+02  0.51100000000E-03 0.  1.
         11   -1    0    0    0    0 -0.00000000000E+00 -0.00000000000E+00 -0.45593999997E+02  0.45594000000E+02  0.51100000000E-03 0. -1.
         23    2    1    2    0    0 -0.17763568394E-14 -0.71054273576E-14  0.00000000000E+00  0.91188000000E+02  0.91188000000E+02 0.  0.
    9900012    2    3    3    0    0 -0.10839492386E+02 -0.36637347334E+02 -0.20587209803E+02  0.47787273942E+02  0.20000013212E+02 0.  0.
         12    1    3    3    0    0  0.10839492386E+02  0.36637347334E+02  0.20587209803E+02  0.43400726058E+02  0.00000000000E+00 0. -1.
         11    1    4    4    0    0 -0.12369237981E+02 -0.10926650948E+02 -0.12481413169E+02  0.20692400155E+02  0.51100000000E-03 0. -1.
        -11    1    4    4    0    0  0.10695041513E+00 -0.10706404449E+02 -0.23513530040E+01  0.10962089027E+02  0.51100000000E-03 0.  1.
         12    1    4    4    0    0  0.14227951807E+01 -0.15004291936E+02 -0.57544436296E+01  0.16132784760E+02  0.00000000000E+00 0. -1.
</event>
<event>
 8    1  0.6239251E-010  0.9118800E+02  0.7816164E-02  0.1184000E+00
        -11   -1    0    0    0    0  0.00000000000E+00  0.00000000000E+00  0.45593999997E+02  0.45594000000E+02  0.51100000000E-03 0. -1.
         11   -1    0    0    0    0 -0.00000000000E+00 -0.00000000000E+00 -0.45593999997E+02  0.45594000000E+02  0.51100000000E-03 0.  1.
         23    2    1    2    0    0  0.00000000000E+00  0.00000000000E+00  0.00000000000E+00  0.91188000000E+02  0.91188000000E+02 0.  0.
    9900012    2    3    3    0    0 -0.60120244716E+01 -0.42824122278E+02  0.36841426572E+01  0.47787276570E+02  0.20000025195E+02 0.  0.
         12    1    3    3    0    0  0.60120244716E+01  0.42824122278E+02 -0.36841426572E+01  0.43400723430E+02  0.00000000000E+00 0. -1.
         11    1    4    4    0    0 -0.76338914331E+01 -0.29457853246E+02 -0.44538864808E+01  0.30755138129E+02  0.51100000000E-03 0.  1.
        -11    1    4    4    0    0  0.22934878565E+01 -0.13260835767E+01  0.27682935136E+01  0.38317141645E+01  0.51100000000E-03 0. -1.
        -12    1    4    4    0    0 -0.67162089499E+00 -0.12040185455E+02  0.53697356244E+01  0.13200424277E+02  0.00000000000E+00 0.  1.
</event>
<event>
 8    1  0.6239251E-010  0.9118800E+02  0.7816164E-02  0.1184000E+00
        -11   -1    0    0    0    0  0.00000000000E+00  0.00000000000E+00  0.45593999997E+02  0.45594000000E+02  0.51100000000E-03 0. -1.
         11   -1    0    0    0    0 -0.00000000000E+00 -0.00000000000E+00 -0.45593999997E+02  0.45594000000E+02  0.51100000000E-03 0.  1.
         23    2    1    2    0    0  0.00000000000E+00  0.35527136788E-14 -0.35527136788E-14  0.91188000000E+02  0.91188000000E+02 0.  0.
    9900012    2    3    3    0    0  0.97484915480E+01  0.31693156043E+02 -0.28002397427E+02  0.47787268565E+02  0.19999988696E+02 0.  0.
         12    1    3    3    0    0 -0.97484915480E+01 -0.31693156043E+02  0.28002397427E+02  0.43400731435E+02  0.00000000000E+00 0. -1.
         11    1    4    4    0    0 -0.24347126457E+01 -0.16294708776E+01 -0.17748627179E+01  0.34253669784E+01  0.51100000000E-03 0. -1.
        -11    1    4    4    0    0  0.82996800625E+01  0.22427394133E+02 -0.14920867518E+02  0.28186964797E+02  0.51100000000E-03 0.  1.
         12    1    4    4    0    0  0.38835241312E+01  0.10895232788E+02 -0.11306667191E+02  0.16174936790E+02  0.00000000000E+00 0. -1.
</event>
<event>
 8    1  0.6239251E-010  0.9118800E+02  0.7816164E-02  0.1184000E+00
        -11   -1    0    0    0    0  0.00000000000E+00  0.00000000000E+00  0.45593999997E+02  0.45594000000E+02  0.51100000000E-03 0. -1.
         11   -1    0    0    0    0 -0.00000000000E+00 -0.00000000000E+00 -0.45593999997E+02  0.45594000000E+02  0.51100000000E-03 0.  1.
         23    2    1    2    0    0  0.88817841970E-15  0.00000000000E+00  0.00000000000E+00  0.91188000000E+02  0.91188000000E+02 0.  0.
    9900012    2    3    3    0    0  0.64221420313E+01 -0.20759575565E+02 -0.37568864110E+02  0.47787269172E+02  0.19999991462E+02 0.  0.
         12    1    3    3    0    0 -0.64221420313E+01  0.20759575565E+02  0.37568864110E+02  0.43400730828E+02  0.00000000000E+00 0. -1.
         11    1    4    4    0    0 -0.39358121978E+01 -0.10125326751E+02 -0.93816829596E+01  0.14353704570E+02  0.51100000000E-03 0.  1.
        -11    1    4    4    0    0  0.85630231776E+01 -0.84520375533E+01 -0.11969160858E+02  0.16971243815E+02  0.51100000000E-03 0. -1.
         12    1    4    4    0    0  0.17949310515E+01 -0.21822112612E+01 -0.16218020293E+02  0.16462320787E+02  0.00000000000E+00 0. -1.
</event>
<event>
 8    1  0.6239251E-010  0.9118800E+02  0.7816164E-02  0.1184000E+00
        -11   -1    0    0    0    0  0.00000000000E+00  0.00000000000E+00  0.45593999997E+02  0.45594000000E+02  0.51100000000E-03 0. -1.
         11   -1    0    0    0    0 -0.00000000000E+00 -0.00000000000E+00 -0.45593999997E+02  0.45594000000E+02  0.51100000000E-03 0.  1.
         23    2    1    2    0    0 -0.17763568394E-14  0.00000000000E+00  0.00000000000E+00  0.91188000000E+02  0.91188000000E+02 0.  0.
    9900012    2    3    3    0    0 -0.10843074739E+02  0.31355949674E+02  0.27979550676E+02  0.47787272981E+02  0.20000008830E+02 0.  0.
        -12    1    3    3    0    0  0.10843074739E+02 -0.31355949674E+02 -0.27979550676E+02  0.43400727019E+02  0.00000000000E+00 0.  1.
         11    1    4    4    0    0 -0.10627202474E+02  0.98175719053E+01  0.81729800678E+01  0.16616851506E+02  0.51100000000E-03 0. -1.
        -11    1    4    4    0    0  0.69871876918E+00  0.19306012427E+02  0.11415273136E+02  0.22439224247E+02  0.51100000000E-03 0.  1.
        -12    1    4    4    0    0 -0.91459103487E+00  0.22323653413E+01  0.83912974716E+01  0.87311972280E+01  0.00000000000E+00 0.  1.
</event>
<event>
 8    1  0.6239251E-010  0.9118800E+02  0.7816164E-02  0.1184000E+00
        -11   -1    0    0    0    0  0.00000000000E+00  0.00000000000E+00  0.45593999997E+02  0.45594000000E+02  0.51100000000E-03 0.  1.
         11   -1    0    0    0    0 -0.00000000000E+00 -0.00000000000E+00 -0.45593999997E+02  0.45594000000E+02  0.51100000000E-03 0. -1.
         23    2    1    2    0    0 -0.35527136788E-14  0.71054273576E-14  0.00000000000E+00  0.91188000000E+02  0.91188000000E+02 0.  0.
    9900012    2    3    3    0    0  0.26774184779E+02 -0.29405575268E+02  0.17380396438E+02  0.47787274110E+02  0.20000013978E+02 0.  0.
        -12    1    3    3    0    0 -0.26774184779E+02  0.29405575268E+02 -0.17380396438E+02  0.43400725890E+02  0.00000000000E+00 0.  1.
         11    1    4    4    0    0  0.89508326690E+01 -0.66230640177E+01  0.58032224633E+01  0.12556264320E+02  0.51100000000E-03 0. -1.
        -11    1    4    4    0    0  0.13261544140E+02 -0.87733660896E+01 -0.89710644760E+00  0.15926245815E+02  0.51100000000E-03 0.  1.
        -12    1    4    4    0    0  0.45618079698E+01 -0.14009145161E+02  0.12474280422E+02  0.19304763975E+02  0.00000000000E+00 0.  1.
</event>
<event>
 8    1  0.6239251E-010  0.9118800E+02  0.7816164E-02  0.1184000E+00
        -11   -1    0    0    0    0  0.00000000000E+00  0.00000000000E+00  0.45593999997E+02  0.45594000000E+02  0.51100000000E-03 0. -1.
         11   -1    0    0    0    0 -0.00000000000E+00 -0.00000000000E+00 -0.45593999997E+02  0.45594000000E+02  0.51100000000E-03 0.  1.
         23    2    1    2    0    0  0.00000000000E+00  0.00000000000E+00  0.00000000000E+00  0.91188000000E+02  0.91188000000E+02 0.  0.
    9900012    2    3    3    0    0 -0.13894513056E+02 -0.34280649604E+02  0.22702518809E+02  0.47787253571E+02  0.19999920332E+02 0.  0.
        -12    1    3    3    0    0  0.13894513056E+02  0.34280649604E+02 -0.22702518809E+02  0.43400746429E+02  0.00000000000E+00 0.  1.
         11    1    4    4    0    0 -0.67930135667E+01 -0.17621020605E+02  0.45963209652E+01  0.19436346549E+02  0.51100000000E-03 0.  1.
        -11    1    4    4    0    0 -0.53677373645E+01 -0.10550570627E+02  0.33750063237E+01  0.12309257204E+02  0.51100000000E-03 0. -1.
         12    1    4    4    0    0 -0.17337621253E+01 -0.61090583712E+01  0.14731191520E+02  0.16041649818E+02  0.00000000000E+00 0. -1.
</event>
<event>
 8    1  0.6239251E-010  0.9118800E+02  0.7816164E-02  0.1184000E+00
        -11   -1    0    0    0    0  0.00000000000E+00  0.00000000000E+00  0.45593999997E+02  0.45594000000E+02  0.51100000000E-03 0. -1.
         11   -1    0    0    0    0 -0.00000000000E+00 -0.00000000000E+00 -0.45593999997E+02  0.45594000000E+02  0.51100000000E-03 0.  1.
         23    2    1    2    0    0  0.00000000000E+00  0.00000000000E+00  0.00000000000E+00  0.91188000000E+02  0.91188000000E+02 0.  0.
    9900012    2    3    3    0    0  0.11511230688E+02  0.32056344783E+02  0.26898062672E+02  0.47787269035E+02  0.19999990836E+02 0.  0.
        -12    1    3    3    0    0 -0.11511230688E+02 -0.32056344783E+02 -0.26898062672E+02  0.43400730965E+02  0.00000000000E+00 0.  1.
         11    1    4    4    0    0  0.72360668622E+01  0.18165036450E+02  0.14707084764E+02  0.24466866481E+02  0.51100000000E-03 0. -1.
        -11    1    4    4    0    0  0.46048946580E+01  0.14489541077E+02  0.48656329171E+01  0.15963277839E+02  0.51100000000E-03 0.  1.
         12    1    4    4    0    0 -0.32973083205E+00 -0.59823274324E+00  0.73253449908E+01  0.73571247149E+01  0.00000000000E+00 0. -1.
</event>
<event>
 8    1  0.6239251E-010  0.9118800E+02  0.7816164E-02  0.1184000E+00
        -11   -1    0    0    0    0  0.00000000000E+00  0.00000000000E+00  0.45593999997E+02  0.45594000000E+02  0.51100000000E-03 0. -1.
         11   -1    0    0    0    0 -0.00000000000E+00 -0.00000000000E+00 -0.45593999997E+02  0.45594000000E+02  0.51100000000E-03 0.  1.
         23    2    1    2    0    0  0.00000000000E+00  0.00000000000E+00  0.00000000000E+00  0.91188000000E+02  0.91188000000E+02 0.  0.
    9900012    2    3    3    0    0  0.19158760447E+02 -0.27267434117E+02  0.27803818783E+02  0.47787269544E+02  0.19999993159E+02 0.  0.
        -12    1    3    3    0    0 -0.19158760447E+02  0.27267434117E+02 -0.27803818783E+02  0.43400730456E+02  0.00000000000E+00 0.  1.
         11    1    4    4    0    0  0.16539705542E+02 -0.13839962913E+02  0.19635481046E+02  0.29166051310E+02  0.51100000000E-03 0.  1.
        -11    1    4    4    0    0 -0.19141659402E+01 -0.10083507730E+02  0.23630175946E+01  0.10532094369E+02  0.51100000000E-03 0. -1.
         12    1    4    4    0    0  0.45332208448E+01 -0.33439634748E+01  0.58053201426E+01  0.80891238652E+01  0.00000000000E+00 0. -1.
</event>
<event>
 8    1  0.1017454E-009  0.9118800E+02  0.7816164E-02  0.1184000E+00
        -11   -1    0    0    0    0  0.00000000000E+00  0.00000000000E+00  0.45593999997E+02  0.45594000000E+02  0.51100000000E-03 0. -1.
         11   -1    0    0    0    0 -0.00000000000E+00 -0.00000000000E+00 -0.45593999997E+02  0.45594000000E+02  0.51100000000E-03 0.  1.
         23    2    1    2    0    0  0.00000000000E+00  0.00000000000E+00  0.00000000000E+00  0.91188000000E+02  0.91188000000E+02 0.  0.
    9900012    2    3    3    0    0  0.78619033234E+01 -0.25339411269E+02  0.34347170253E+02  0.47787269687E+02  0.19999993809E+02 0.  0.
        -12    1    3    3    0    0 -0.78619033234E+01  0.25339411269E+02 -0.34347170253E+02  0.43400730313E+02  0.00000000000E+00 0.  1.
         11    1    4    4    0    0  0.13091332564E+01 -0.75594498922E+01  0.96138828849E+01  0.12299831582E+02  0.51100000000E-03 0. -1.
        -11    1    4    4    0    0  0.56633531559E+01 -0.16370253320E+02  0.27356426788E+02  0.32379512807E+02  0.51100000000E-03 0.  1.
        -12    1    4    4    0    0  0.88941691112E+00 -0.14097080565E+01 -0.26231394194E+01  0.31079252983E+01  0.00000000000E+00 0.  1.
</event>
<event>
 8    1  0.6239251E-010  0.9118800E+02  0.7816164E-02  0.1184000E+00
        -11   -1    0    0    0    0  0.00000000000E+00  0.00000000000E+00  0.45593999997E+02  0.45594000000E+02  0.51100000000E-03 0.  1.
         11   -1    0    0    0    0 -0.00000000000E+00 -0.00000000000E+00 -0.45593999997E+02  0.45594000000E+02  0.51100000000E-03 0. -1.
         23    2    1    2    0    0  0.00000000000E+00  0.00000000000E+00  0.35527136788E-14  0.91188000000E+02  0.91188000000E+02 0.  0.
    9900012    2    3    3    0    0 -0.32947709830E+02 -0.92538555774E+01  0.26691536483E+02  0.47787267910E+02  0.19999985710E+02 0.  0.
        -12    1    3    3    0    0  0.32947709830E+02  0.92538555774E+01 -0.26691536483E+02  0.43400732090E+02  0.00000000000E+00 0.  1.
         11    1    4    4    0    0 -0.38582793022E+01 -0.12838667264E+01  0.59387401644E+00  0.41094183960E+01  0.51100000000E-03 0. -1.
        -11    1    4    4    0    0 -0.15830572673E+02 -0.13311090180E+02  0.16531448084E+02  0.26477932868E+02  0.51100000000E-03 0.  1.
        -12    1    4    4    0    0 -0.13258857855E+02  0.53411013294E+01  0.95662143825E+01  0.17199916646E+02  0.00000000000E+00 0.  1.
</event>
<event>
 8    1  0.6239251E-010  0.9118800E+02  0.7816164E-02  0.1184000E+00
        -11   -1    0    0    0    0  0.00000000000E+00  0.00000000000E+00  0.45593999997E+02  0.45594000000E+02  0.51100000000E-03 0. -1.
         11   -1    0    0    0    0 -0.00000000000E+00 -0.00000000000E+00 -0.45593999997E+02  0.45594000000E+02  0.51100000000E-03 0.  1.
         23    2    1    2    0    0  0.00000000000E+00 -0.35527136788E-14  0.00000000000E+00  0.91188000000E+02  0.91188000000E+02 0.  0.
    9900012    2    3    3    0    0 -0.32771638585E+02 -0.20215364381E+02 -0.20024536974E+02  0.47787270356E+02  0.19999996860E+02 0.  0.
         12    1    3    3    0    0  0.32771638585E+02  0.20215364381E+02  0.20024536974E+02  0.43400729644E+02  0.00000000000E+00 0. -1.
         11    1    4    4    0    0  0.19743915645E-01 -0.63367335763E-01  0.47634420771E-02  0.66544668818E-01  0.51100000000E-03 0. -1.
        -11    1    4    4    0    0 -0.29959964641E+02 -0.10817970348E+02 -0.92192246130E+01  0.33160549852E+02  0.51100000000E-03 0.  1.
        -12    1    4    4    0    0 -0.28314178600E+01 -0.93340266966E+01 -0.10810075803E+02  0.14560175835E+02  0.00000000000E+00 0.  1.
</event>
<event>
 8    1  0.6239251E-010  0.9118800E+02  0.7816164E-02  0.1184000E+00
        -11   -1    0    0    0    0  0.00000000000E+00  0.00000000000E+00  0.45593999997E+02  0.45594000000E+02  0.51100000000E-03 0. -1.
         11   -1    0    0    0    0 -0.00000000000E+00 -0.00000000000E+00 -0.45593999997E+02  0.45594000000E+02  0.51100000000E-03 0.  1.
         23    2    1    2    0    0  0.44408920985E-15  0.00000000000E+00  0.00000000000E+00  0.91188000000E+02  0.91188000000E+02 0.  0.
    9900012    2    3    3    0    0  0.25550851662E+01 -0.43291233765E+02 -0.17215248323E+01  0.47787273868E+02  0.20000012872E+02 0.  0.
        -12    1    3    3    0    0 -0.25550851662E+01  0.43291233765E+02  0.17215248323E+01  0.43400726132E+02  0.00000000000E+00 0.  1.
         11    1    4    4    0    0 -0.33901321204E+01 -0.14778223038E+02  0.75865699199E+01  0.16954200523E+02  0.51100000000E-03 0. -1.
        -11    1    4    4    0    0  0.33791728806E+00 -0.30204002902E-01 -0.25586936471E+00  0.42493501653E+00  0.51100000000E-03 0.  1.
         12    1    4    4    0    0  0.56072999985E+01 -0.28482806724E+02 -0.90522253875E+01  0.30408138328E+02  0.00000000000E+00 0. -1.
</event>
<event>
 8    1  0.6239251E-010  0.9118800E+02  0.7816164E-02  0.1184000E+00
        -11   -1    0    0    0    0  0.00000000000E+00  0.00000000000E+00  0.45593999997E+02  0.45594000000E+02  0.51100000000E-03 0.  1.
         11   -1    0    0    0    0 -0.00000000000E+00 -0.00000000000E+00 -0.45593999997E+02  0.45594000000E+02  0.51100000000E-03 0. -1.
         23    2    1    2    0    0 -0.35527136788E-14  0.00000000000E+00  0.00000000000E+00  0.91188000000E+02  0.91188000000E+02 0.  0.
    9900012    2    3    3    0    0 -0.24495648861E+02  0.32132059106E+02  0.15846670531E+02  0.47787274171E+02  0.20000014256E+02 0.  0.
        -12    1    3    3    0    0  0.24495648861E+02 -0.32132059106E+02 -0.15846670531E+02  0.43400725829E+02  0.00000000000E+00 0.  1.
         11    1    4    4    0    0 -0.16068522894E+02  0.26760571044E+02  0.55964185432E+01  0.31711914029E+02  0.51100000000E-03 0. -1.
        -11    1    4    4    0    0 -0.25521958686E+01 -0.17259408872E+01  0.34407660392E+01  0.46185979361E+01  0.51100000000E-03 0.  1.
         12    1    4    4    0    0 -0.58749300988E+01  0.70974289491E+01  0.68094859490E+01  0.11456762206E+02  0.00000000000E+00 0. -1.
</event>
<event>
 8    1  0.6239251E-010  0.9118800E+02  0.7816164E-02  0.1184000E+00
        -11   -1    0    0    0    0  0.00000000000E+00  0.00000000000E+00  0.45593999997E+02  0.45594000000E+02  0.51100000000E-03 0. -1.
         11   -1    0    0    0    0 -0.00000000000E+00 -0.00000000000E+00 -0.45593999997E+02  0.45594000000E+02  0.51100000000E-03 0.  1.
         23    2    1    2    0    0  0.00000000000E+00 -0.35527136788E-14  0.00000000000E+00  0.91188000000E+02  0.91188000000E+02 0.  0.
    9900012    2    3    3    0    0  0.30597193987E+02  0.25568299664E+02  0.17137581370E+02  0.47787275089E+02  0.20000018441E+02 0.  0.
        -12    1    3    3    0    0 -0.30597193987E+02 -0.25568299664E+02 -0.17137581370E+02  0.43400724911E+02  0.00000000000E+00 0.  1.
         11    1    4    4    0    0  0.48303125360E+01  0.16640986060E+01 -0.34593161744E+01  0.61699280402E+01  0.51100000000E-03 0. -1.
        -11    1    4    4    0    0  0.19607318047E+01  0.20005936199E+00  0.32682551085E+01  0.38165409304E+01  0.51100000000E-03 0.  1.
         12    1    4    4    0    0  0.23806149647E+02  0.23704141696E+02  0.17328642436E+02  0.37800806118E+02  0.00000000000E+00 0. -1.
</event>
<event>
 8    1  0.6239251E-010  0.9118800E+02  0.7816164E-02  0.1184000E+00
        -11   -1    0    0    0    0  0.00000000000E+00  0.00000000000E+00  0.45593999997E+02  0.45594000000E+02  0.51100000000E-03 0. -1.
         11   -1    0    0    0    0 -0.00000000000E+00 -0.00000000000E+00 -0.45593999997E+02  0.45594000000E+02  0.51100000000E-03 0.  1.
         23    2    1    2    0    0  0.00000000000E+00  0.00000000000E+00  0.00000000000E+00  0.91188000000E+02  0.91188000000E+02 0.  0.
    9900012    2    3    3    0    0 -0.20839732928E+02 -0.20951533541E+02 -0.31786172126E+02  0.47787286127E+02  0.20000068767E+02 0.  0.
         12    1    3    3    0    0  0.20839732928E+02  0.20951533541E+02  0.31786172126E+02  0.43400713873E+02  0.00000000000E+00 0. -1.
         11    1    4    4    0    0  0.16904891319E-02 -0.30219414310E+01 -0.75236617258E+01  0.81078738825E+01  0.51100000000E-03 0. -1.
        -11    1    4    4    0    0 -0.23233039326E+02 -0.15187645407E+02 -0.21304784710E+02  0.34990463574E+02  0.51100000000E-03 0.  1.
        -12    1    4    4    0    0  0.23916159082E+01 -0.27419467029E+01 -0.29577256909E+01  0.46889486707E+01  0.00000000000E+00 0.  1.
</event>
<event>
 8    1  0.6577834E-010  0.9118800E+02  0.7816164E-02  0.1184000E+00
        -11   -1    0    0    0    0  0.00000000000E+00  0.00000000000E+00  0.45593999997E+02  0.45594000000E+02  0.51100000000E-03 0. -1.
         11   -1    0    0    0    0 -0.00000000000E+00 -0.00000000000E+00 -0.45593999997E+02  0.45594000000E+02  0.51100000000E-03 0.  1.
         23    2    1    2    0    0 -0.35527136788E-14  0.00000000000E+00  0.00000000000E+00  0.91188000000E+02  0.91188000000E+02 0.  0.
    9900012    2    3    3    0    0  0.19661723333E+02  0.13668223841E+02  0.36196954417E+02  0.47787271705E+02  0.20000003014E+02 0.  0.
        -12    1    3    3    0    0 -0.19661723333E+02 -0.13668223841E+02 -0.36196954417E+02  0.43400728295E+02  0.00000000000E+00 0.  1.
         11    1    4    4    0    0  0.14177590083E+02  0.44100833901E+01  0.15843513470E+02  0.21713355692E+02  0.51100000000E-03 0. -1.
        -11    1    4    4    0    0 -0.16566255228E+01  0.56976704421E+01  0.23509788984E+01  0.63823944277E+01  0.51100000000E-03 0.  1.
        -12    1    4    4    0    0  0.71407587727E+01  0.35604700093E+01  0.18002462049E+02  0.19691521586E+02  0.00000000000E+00 0.  1.
</event>
<event>
 8    1  0.6239251E-010  0.9118800E+02  0.7816164E-02  0.1184000E+00
        -11   -1    0    0    0    0  0.00000000000E+00  0.00000000000E+00  0.45593999997E+02  0.45594000000E+02  0.51100000000E-03 0. -1.
         11   -1    0    0    0    0 -0.00000000000E+00 -0.00000000000E+00 -0.45593999997E+02  0.45594000000E+02  0.51100000000E-03 0.  1.
         23    2    1    2    0    0  0.00000000000E+00  0.00000000000E+00  0.00000000000E+00  0.91188000000E+02  0.91188000000E+02 0.  0.
    9900012    2    3    3    0    0 -0.20740923802E+02  0.18235185567E+02  0.33480058399E+02  0.47787283149E+02  0.20000055188E+02 0.  0.
        -12    1    3    3    0    0  0.20740923802E+02 -0.18235185567E+02 -0.33480058399E+02  0.43400716851E+02  0.00000000000E+00 0.  1.
         11    1    4    4    0    0 -0.20500472362E+02  0.87068601022E+01  0.30107050433E+02  0.37450143738E+02  0.51100000000E-03 0. -1.
        -11    1    4    4    0    0 -0.46199516100E+00  0.82119365275E+01  0.20915114402E+01  0.84866814142E+01  0.51100000000E-03 0.  1.
         12    1    4    4    0    0  0.22154372127E+00  0.13163889370E+01  0.12814965251E+01  0.18504579968E+01  0.00000000000E+00 0. -1.
</event>
<event>
 8    1  0.6239251E-010  0.9118800E+02  0.7816164E-02  0.1184000E+00
        -11   -1    0    0    0    0  0.00000000000E+00  0.00000000000E+00  0.45593999997E+02  0.45594000000E+02  0.51100000000E-03 0. -1.
         11   -1    0    0    0    0 -0.00000000000E+00 -0.00000000000E+00 -0.45593999997E+02  0.45594000000E+02  0.51100000000E-03 0.  1.
         23    2    1    2    0    0  0.00000000000E+00 -0.35527136788E-14  0.00000000000E+00  0.91188000000E+02  0.91188000000E+02 0.  0.
    9900012    2    3    3    0    0 -0.11753658345E+02 -0.16680812738E+02 -0.38304377308E+02  0.47787270524E+02  0.19999997629E+02 0.  0.
         12    1    3    3    0    0  0.11753658345E+02  0.16680812738E+02  0.38304377308E+02  0.43400729476E+02  0.00000000000E+00 0. -1.
         11    1    4    4    0    0  0.10243795364E+01  0.33234145326E+01 -0.64864221857E+01  0.73598988188E+01  0.51100000000E-03 0. -1.
        -11    1    4    4    0    0 -0.10393059208E+02 -0.19892572629E+02 -0.27529392590E+02  0.35518974959E+02  0.51100000000E-03 0.  1.
         12    1    4    4    0    0 -0.23849786731E+01 -0.11165464092E+00 -0.42885625325E+01  0.49083967469E+01  0.00000000000E+00 0. -1.
</event>
<event>
 8    1  0.6239251E-010  0.9118800E+02  0.7816164E-02  0.1184000E+00
        -11   -1    0    0    0    0  0.00000000000E+00  0.00000000000E+00  0.45593999997E+02  0.45594000000E+02  0.51100000000E-03 0. -1.
         11   -1    0    0    0    0 -0.00000000000E+00 -0.00000000000E+00 -0.45593999997E+02  0.45594000000E+02  0.51100000000E-03 0.  1.
         23    2    1    2    0    0 -0.53290705182E-14  0.00000000000E+00  0.00000000000E+00  0.91188000000E+02  0.91188000000E+02 0.  0.
    9900012    2    3    3    0    0 -0.15141254535E+02  0.77328715235E+01  0.39932047060E+02  0.47787271051E+02  0.20000000032E+02 0.  0.
        -12    1    3    3    0    0  0.15141254535E+02 -0.77328715235E+01 -0.39932047060E+02  0.43400728949E+02  0.00000000000E+00 0.  1.
         11    1    4    4    0    0 -0.17024636172E+02  0.19690364290E+01  0.31292128972E+02  0.35677901804E+02  0.51100000000E-03 0. -1.
        -11    1    4    4    0    0  0.22948211314E+01  0.66692063410E+01  0.59026693394E+01  0.91970659906E+01  0.51100000000E-03 0.  1.
        -12    1    4    4    0    0 -0.41143949406E+00 -0.90537124649E+00  0.27372487485E+01  0.29123032573E+01  0.00000000000E+00 0.  1.
</event>
<event>
 8    1  0.6239251E-010  0.9118800E+02  0.7816164E-02  0.1184000E+00
        -11   -1    0    0    0    0  0.00000000000E+00  0.00000000000E+00  0.45593999997E+02  0.45594000000E+02  0.51100000000E-03 0. -1.
         11   -1    0    0    0    0 -0.00000000000E+00 -0.00000000000E+00 -0.45593999997E+02  0.45594000000E+02  0.51100000000E-03 0.  1.
         23    2    1    2    0    0  0.44408920985E-15  0.00000000000E+00  0.00000000000E+00  0.91188000000E+02  0.91188000000E+02 0.  0.
    9900012    2    3    3    0    0 -0.36606700023E+01 -0.14465171242E+02 -0.40755141489E+02  0.47787271415E+02  0.20000001689E+02 0.  0.
         12    1    3    3    0    0  0.36606700023E+01  0.14465171242E+02  0.40755141489E+02  0.43400728585E+02  0.00000000000E+00 0. -1.
         11    1    4    4    0    0 -0.53721329705E+01 -0.10929546268E+02 -0.19996441029E+02  0.23413082846E+02  0.51100000000E-03 0.  1.
        -11    1    4    4    0    0  0.17494285513E+01  0.44431782374E+01 -0.71200750852E+01  0.85730859430E+01  0.51100000000E-03 0. -1.
         12    1    4    4    0    0 -0.37965583058E-01 -0.79788032105E+01 -0.13638625375E+02  0.15801102626E+02  0.00000000000E+00 0. -1.
</event>
<event>
 8    1  0.6239251E-010  0.9118800E+02  0.7816164E-02  0.1184000E+00
        -11   -1    0    0    0    0  0.00000000000E+00  0.00000000000E+00  0.45593999997E+02  0.45594000000E+02  0.51100000000E-03 0. -1.
         11   -1    0    0    0    0 -0.00000000000E+00 -0.00000000000E+00 -0.45593999997E+02  0.45594000000E+02  0.51100000000E-03 0.  1.
         23    2    1    2    0    0  0.00000000000E+00  0.00000000000E+00 -0.35527136788E-14  0.91188000000E+02  0.91188000000E+02 0.  0.
    9900012    2    3    3    0    0 -0.30951213344E+02 -0.16783771858E+02  0.25376186571E+02  0.47787269014E+02  0.19999990743E+02 0.  0.
        -12    1    3    3    0    0  0.30951213344E+02  0.16783771858E+02 -0.25376186571E+02  0.43400730986E+02  0.00000000000E+00 0.  1.
         11    1    4    4    0    0 -0.19418442445E+02 -0.11621907879E+02  0.11601235011E+02  0.25430951688E+02  0.51100000000E-03 0. -1.
        -11    1    4    4    0    0 -0.23461300098E+01 -0.67168270002E+01  0.10069026526E+02  0.12329046452E+02  0.51100000000E-03 0.  1.
        -12    1    4    4    0    0 -0.91866408893E+01  0.15549630207E+01  0.37059250336E+01  0.10027270874E+02  0.00000000000E+00 0.  1.
</event>
<event>
 8    1  0.6239251E-010  0.9118800E+02  0.7816164E-02  0.1184000E+00
        -11   -1    0    0    0    0  0.00000000000E+00  0.00000000000E+00  0.45593999997E+02  0.45594000000E+02  0.51100000000E-03 0.  1.
         11   -1    0    0    0    0 -0.00000000000E+00 -0.00000000000E+00 -0.45593999997E+02  0.45594000000E+02  0.51100000000E-03 0. -1.
         23    2    1    2    0    0 -0.71054273576E-14  0.35527136788E-14  0.71054273576E-14  0.91188000000E+02  0.91188000000E+02 0.  0.
    9900012    2    3    3    0    0 -0.27461942948E+02  0.26404183553E+02  0.20791435715E+02  0.47787273984E+02  0.20000013403E+02 0.  0.
        -12    1    3    3    0    0  0.27461942948E+02 -0.26404183553E+02 -0.20791435715E+02  0.43400726016E+02  0.00000000000E+00 0.  1.
         11    1    4    4    0    0 -0.81759487743E+01  0.20378448010E+02  0.78253724968E+01  0.23310163806E+02  0.51100000000E-03 0.  1.
        -11    1    4    4    0    0 -0.11722643403E+02  0.37879308747E+01  0.50867290892E+01  0.13328300783E+02  0.51100000000E-03 0. -1.
        -12    1    4    4    0    0 -0.75633507708E+01  0.22378046681E+01  0.78793341294E+01  0.11148809395E+02  0.00000000000E+00 0.  1.
</event>
<event>
 8    1  0.6239251E-010  0.9118800E+02  0.7816164E-02  0.1184000E+00
        -11   -1    0    0    0    0  0.00000000000E+00  0.00000000000E+00  0.45593999997E+02  0.45594000000E+02  0.51100000000E-03 0. -1.
         11   -1    0    0    0    0 -0.00000000000E+00 -0.00000000000E+00 -0.45593999997E+02  0.45594000000E+02  0.51100000000E-03 0.  1.
         23    2    1    2    0    0  0.00000000000E+00 -0.17763568394E-14  0.00000000000E+00  0.91188000000E+02  0.91188000000E+02 0.  0.
    9900012    2    3    3    0    0 -0.23080919713E+02 -0.13587151517E+02 -0.34150896939E+02  0.47787270710E+02  0.19999998477E+02 0.  0.
         12    1    3    3    0    0  0.23080919713E+02  0.13587151517E+02  0.34150896939E+02  0.43400729290E+02  0.00000000000E+00 0. -1.
         11    1    4    4    0    0 -0.14256224083E+02 -0.16047854255E+02 -0.15490455336E+02  0.26471262873E+02  0.51100000000E-03 0. -1.
        -11    1    4    4    0    0 -0.75915491931E+01  0.45958040227E-01 -0.13675063126E+02  0.15641006459E+02  0.51100000000E-03 0.  1.
         12    1    4    4    0    0 -0.12331464362E+01  0.24147446973E+01 -0.49853784774E+01  0.56750013788E+01  0.00000000000E+00 0. -1.
</event>
<event>
 8    1  0.6239251E-010  0.9118800E+02  0.7816164E-02  0.1184000E+00
        -11   -1    0    0    0    0  0.00000000000E+00  0.00000000000E+00  0.45593999997E+02  0.45594000000E+02  0.51100000000E-03 0. -1.
         11   -1    0    0    0    0 -0.00000000000E+00 -0.00000000000E+00 -0.45593999997E+02  0.45594000000E+02  0.51100000000E-03 0.  1.
         23    2    1    2    0    0  0.00000000000E+00 -0.35527136788E-14  0.00000000000E+00  0.91188000000E+02  0.91188000000E+02 0.  0.
    9900012    2    3    3    0    0 -0.12640559396E+02 -0.30539760532E+02  0.28127607010E+02  0.47787274300E+02  0.20000014843E+02 0.  0.
        -12    1    3    3    0    0  0.12640559396E+02  0.30539760532E+02 -0.28127607010E+02  0.43400725700E+02  0.00000000000E+00 0.  1.
         11    1    4    4    0    0  0.10593255421E+01 -0.15597234528E+02  0.17393582717E+02  0.23386590507E+02  0.51100000000E-03 0. -1.
        -11    1    4    4    0    0 -0.14155373540E+02 -0.11231951825E+02  0.97597843674E+01  0.20537398399E+02  0.51100000000E-03 0.  1.
        -12    1    4    4    0    0  0.45548860208E+00 -0.37105741786E+01  0.97423992580E+00  0.38632853939E+01  0.00000000000E+00 0.  1.
</event>
<event>
 8    1  0.6239251E-010  0.9118800E+02  0.7816164E-02  0.1184000E+00
        -11   -1    0    0    0    0  0.00000000000E+00  0.00000000000E+00  0.45593999997E+02  0.45594000000E+02  0.51100000000E-03 0. -1.
         11   -1    0    0    0    0 -0.00000000000E+00 -0.00000000000E+00 -0.45593999997E+02  0.45594000000E+02  0.51100000000E-03 0.  1.
         23    2    1    2    0    0 -0.35527136788E-14  0.71054273576E-14 -0.35527136788E-14  0.91188000000E+02  0.91188000000E+02 0.  0.
    9900012    2    3    3    0    0  0.18035769095E+02 -0.26224968821E+02  0.29505679138E+02  0.47787273532E+02  0.20000011342E+02 0.  0.
        -12    1    3    3    0    0 -0.18035769095E+02  0.26224968821E+02 -0.29505679138E+02  0.43400726468E+02  0.00000000000E+00 0.  1.
         11    1    4    4    0    0  0.56203900291E+01 -0.20414211612E+02  0.13189560839E+02  0.24945807968E+02  0.51100000000E-03 0. -1.
        -11    1    4    4    0    0  0.94864562127E+01 -0.24336445949E-01  0.92371196320E+01  0.13240763690E+02  0.51100000000E-03 0.  1.
        -12    1    4    4    0    0  0.29289228528E+01 -0.57864207636E+01  0.70789986678E+01  0.96007018738E+01  0.00000000000E+00 0.  1.
</event>
<event>
 8    1  0.6239251E-010  0.9118800E+02  0.7816164E-02  0.1184000E+00
        -11   -1    0    0    0    0  0.00000000000E+00  0.00000000000E+00  0.45593999997E+02  0.45594000000E+02  0.51100000000E-03 0. -1.
         11   -1    0    0    0    0 -0.00000000000E+00 -0.00000000000E+00 -0.45593999997E+02  0.45594000000E+02  0.51100000000E-03 0.  1.
         23    2    1    2    0    0  0.00000000000E+00  0.00000000000E+00  0.71054273576E-14  0.91188000000E+02  0.91188000000E+02 0.  0.
    9900012    2    3    3    0    0  0.88859227931E+01  0.25895329578E+02  0.33676336442E+02  0.47787270122E+02  0.19999995792E+02 0.  0.
        -12    1    3    3    0    0 -0.88859227931E+01 -0.25895329578E+02 -0.33676336442E+02  0.43400729878E+02  0.00000000000E+00 0.  1.
         11    1    4    4    0    0  0.60587867598E+01  0.15009395925E+01  0.14837619691E+02  0.16097101448E+02  0.51100000000E-03 0. -1.
        -11    1    4    4    0    0 -0.13922336823E+01  0.15797969520E+02  0.12674077077E+02  0.20301388761E+02  0.51100000000E-03 0.  1.
         12    1    4    4    0    0  0.42193697155E+01  0.85964204649E+01  0.61646396737E+01  0.11388779913E+02  0.00000000000E+00 0. -1.
</event>
<event>
 8    1  0.6239251E-010  0.9118800E+02  0.7816164E-02  0.1184000E+00
        -11   -1    0    0    0    0  0.00000000000E+00  0.00000000000E+00  0.45593999997E+02  0.45594000000E+02  0.51100000000E-03 0. -1.
         11   -1    0    0    0    0 -0.00000000000E+00 -0.00000000000E+00 -0.45593999997E+02  0.45594000000E+02  0.51100000000E-03 0.  1.
         23    2    1    2    0    0  0.00000000000E+00  0.00000000000E+00  0.00000000000E+00  0.91188000000E+02  0.91188000000E+02 0.  0.
    9900012    2    3    3    0    0  0.81884635161E+01 -0.35854403162E+02  0.23044221635E+02  0.47787247569E+02  0.19999892965E+02 0.  0.
        -12    1    3    3    0    0 -0.81884635161E+01  0.35854403162E+02 -0.23044221635E+02  0.43400752431E+02  0.00000000000E+00 0.  1.
         11    1    4    4    0    0  0.50467391650E+01 -0.17268467816E+01  0.66984300977E+01  0.85627415027E+01  0.51100000000E-03 0. -1.
        -11    1    4    4    0    0  0.52111013486E+01 -0.89458978175E+01  0.39486089305E+01  0.11080441226E+02  0.51100000000E-03 0.  1.
         12    1    4    4    0    0 -0.20693769975E+01 -0.25181658563E+02  0.12397182606E+02  0.28144064840E+02  0.00000000000E+00 0. -1.
</event>
<event>
 8    1  0.6239251E-010  0.9118800E+02  0.7816164E-02  0.1184000E+00
        -11   -1    0    0    0    0  0.00000000000E+00  0.00000000000E+00  0.45593999997E+02  0.45594000000E+02  0.51100000000E-03 0. -1.
         11   -1    0    0    0    0 -0.00000000000E+00 -0.00000000000E+00 -0.45593999997E+02  0.45594000000E+02  0.51100000000E-03 0.  1.
         23    2    1    2    0    0  0.71054273576E-14 -0.35527136788E-14  0.00000000000E+00  0.91188000000E+02  0.91188000000E+02 0.  0.
    9900012    2    3    3    0    0  0.32829036558E+02  0.23282807275E+02  0.16241564864E+02  0.47787272066E+02  0.20000004659E+02 0.  0.
         12    1    3    3    0    0 -0.32829036558E+02 -0.23282807275E+02 -0.16241564864E+02  0.43400727934E+02  0.00000000000E+00 0. -1.
         11    1    4    4    0    0 -0.88035381317E+00 -0.35645669185E+00  0.49860731055E+01  0.50757274833E+01  0.51100000000E-03 0. -1.
        -11    1    4    4    0    0  0.22308123354E+02  0.14731310196E+02  0.73214028628E+01  0.27717626302E+02  0.51100000000E-03 0.  1.
         12    1    4    4    0    0  0.11401267017E+02  0.89079537709E+01  0.39340888959E+01  0.14993918281E+02  0.00000000000E+00 0. -1.
</event>
<event>
 8    1  0.6239251E-010  0.9118800E+02  0.7816164E-02  0.1184000E+00
        -11   -1    0    0    0    0  0.00000000000E+00  0.00000000000E+00  0.45593999997E+02  0.45594000000E+02  0.51100000000E-03 0.  1.
         11   -1    0    0    0    0 -0.00000000000E+00 -0.00000000000E+00 -0.45593999997E+02  0.45594000000E+02  0.51100000000E-03 0. -1.
         23    2    1    2    0    0  0.71054273576E-14 -0.88817841970E-15 -0.71054273576E-14  0.91188000000E+02  0.91188000000E+02 0.  0.
    9900012    2    3    3    0    0 -0.35925258621E+02  0.70634032791E+01  0.23304664656E+02  0.47787271117E+02  0.20000000330E+02 0.  0.
        -12    1    3    3    0    0  0.35925258621E+02 -0.70634032791E+01 -0.23304664656E+02  0.43400728883E+02  0.00000000000E+00 0.  1.
         11    1    4    4    0    0 -0.12491597560E+02  0.25419165117E+01 -0.17443013342E+01  0.12866387859E+02  0.51100000000E-03 0. -1.
        -11    1    4    4    0    0 -0.11748874008E+02  0.46754323459E+01  0.13142645504E+02  0.18238005351E+02  0.51100000000E-03 0.  1.
         12    1    4    4    0    0 -0.11684787054E+02 -0.15394557847E+00  0.11906320486E+02  0.16682877907E+02  0.00000000000E+00 0. -1.
</event>
<event>
 8    1  0.6239251E-010  0.9118800E+02  0.7816164E-02  0.1184000E+00
        -11   -1    0    0    0    0  0.00000000000E+00  0.00000000000E+00  0.45593999997E+02  0.45594000000E+02  0.51100000000E-03 0. -1.
         11   -1    0    0    0    0 -0.00000000000E+00 -0.00000000000E+00 -0.45593999997E+02  0.45594000000E+02  0.51100000000E-03 0.  1.
         23    2    1    2    0    0  0.00000000000E+00  0.00000000000E+00  0.00000000000E+00  0.91188000000E+02  0.91188000000E+02 0.  0.
    9900012    2    3    3    0    0  0.26593968109E+02 -0.13253323024E+02 -0.31634374013E+02  0.47787270396E+02  0.19999997045E+02 0.  0.
         12    1    3    3    0    0 -0.26593968109E+02  0.13253323024E+02  0.31634374013E+02  0.43400729604E+02  0.00000000000E+00 0. -1.
         11    1    4    4    0    0  0.10979917096E+02 -0.14484048852E+02 -0.14771164315E+02  0.23420793028E+02  0.51100000000E-03 0. -1.
        -11    1    4    4    0    0  0.73859492664E-01 -0.17486488329E+01 -0.19941645604E+01  0.26532848548E+01  0.51100000000E-03 0.  1.
         12    1    4    4    0    0  0.15540191520E+02  0.29793746604E+01 -0.14869045137E+02  0.21713192514E+02  0.00000000000E+00 0. -1.
</event>
<event>
 8    1  0.6239251E-010  0.9118800E+02  0.7816164E-02  0.1184000E+00
        -11   -1    0    0    0    0  0.00000000000E+00  0.00000000000E+00  0.45593999997E+02  0.45594000000E+02  0.51100000000E-03 0. -1.
         11   -1    0    0    0    0 -0.00000000000E+00 -0.00000000000E+00 -0.45593999997E+02  0.45594000000E+02  0.51100000000E-03 0.  1.
         23    2    1    2    0    0  0.00000000000E+00  0.35527136788E-14  0.00000000000E+00  0.91188000000E+02  0.91188000000E+02 0.  0.
    9900012    2    3    3    0    0 -0.23286255070E+02  0.28679674629E+02 -0.22778275174E+02  0.47787271528E+02  0.20000002203E+02 0.  0.
         12    1    3    3    0    0  0.23286255070E+02 -0.28679674629E+02  0.22778275174E+02  0.43400728472E+02  0.00000000000E+00 0. -1.
         11    1    4    4    0    0  0.88059706748E+00  0.31176970316E+01 -0.64446221473E+00  0.33031527036E+01  0.51100000000E-03 0. -1.
        -11    1    4    4    0    0 -0.94100969807E+01  0.68261779915E+01 -0.16143963057E+02  0.19894073857E+02  0.51100000000E-03 0.  1.
        -12    1    4    4    0    0 -0.14756755157E+02  0.18735799606E+02 -0.59898499017E+01  0.24590044967E+02  0.00000000000E+00 0.  1.
</event>
<event>
 8    1  0.6239251E-010  0.9118800E+02  0.7816164E-02  0.1184000E+00
        -11   -1    0    0    0    0  0.00000000000E+00  0.00000000000E+00  0.45593999997E+02  0.45594000000E+02  0.51100000000E-03 0. -1.
         11   -1    0    0    0    0 -0.00000000000E+00 -0.00000000000E+00 -0.45593999997E+02  0.45594000000E+02  0.51100000000E-03 0.  1.
         23    2    1    2    0    0 -0.71054273576E-14  0.00000000000E+00  0.00000000000E+00  0.91188000000E+02  0.91188000000E+02 0.  0.
    9900012    2    3    3    0    0 -0.34767424723E+02  0.15653469598E+02 -0.20732061767E+02  0.47787270543E+02  0.19999997713E+02 0.  0.
         12    1    3    3    0    0  0.34767424723E+02 -0.15653469598E+02  0.20732061767E+02  0.43400729457E+02  0.00000000000E+00 0. -1.
         11    1    4    4    0    0 -0.18853276470E+02  0.11639358833E+02 -0.23141385264E+01  0.22277251740E+02  0.51100000000E-03 0. -1.
        -11    1    4    4    0    0 -0.15231438924E+02  0.33511460195E+01 -0.18849675215E+02  0.24465019258E+02  0.51100000000E-03 0.  1.
        -12    1    4    4    0    0 -0.68270932833E+00  0.66296474611E+00  0.43175197423E+00  0.10449995449E+01  0.00000000000E+00 0.  1.
</event>
<event>
 8    1  0.6239251E-010  0.9118800E+02  0.7816164E-02  0.1184000E+00
        -11   -1    0    0    0    0  0.00000000000E+00  0.00000000000E+00  0.45593999997E+02  0.45594000000E+02  0.51100000000E-03 0.  1.
         11   -1    0    0    0    0 -0.00000000000E+00 -0.00000000000E+00 -0.45593999997E+02  0.45594000000E+02  0.51100000000E-03 0. -1.
         23    2    1    2    0    0 -0.71054273576E-14  0.00000000000E+00  0.00000000000E+00  0.91188000000E+02  0.91188000000E+02 0.  0.
    9900012    2    3    3    0    0  0.38503396006E+02  0.14546847789E+02 -0.13765937792E+02  0.47787270422E+02  0.19999997164E+02 0.  0.
         12    1    3    3    0    0 -0.38503396006E+02 -0.14546847789E+02  0.13765937792E+02  0.43400729578E+02  0.00000000000E+00 0. -1.
         11    1    4    4    0    0  0.14215871380E+00  0.63661744314E+00  0.24242177886E+01  0.25104427930E+01  0.51100000000E-03 0. -1.
        -11    1    4    4    0    0  0.17224764425E+02  0.79205791692E+01 -0.13209728537E+02  0.23106817439E+02  0.51100000000E-03 0.  1.
        -12    1    4    4    0    0  0.21136472868E+02  0.59896511763E+01 -0.29804270439E+01  0.22170010191E+02  0.00000000000E+00 0.  1.
</event>
<event>
 8    1  0.6239251E-010  0.9118800E+02  0.7816164E-02  0.1184000E+00
        -11   -1    0    0    0    0  0.00000000000E+00  0.00000000000E+00  0.45593999997E+02  0.45594000000E+02  0.51100000000E-03 0. -1.
         11   -1    0    0    0    0 -0.00000000000E+00 -0.00000000000E+00 -0.45593999997E+02  0.45594000000E+02  0.51100000000E-03 0.  1.
         23    2    1    2    0    0  0.66613381478E-15  0.00000000000E+00 -0.71054273576E-14  0.91188000000E+02  0.91188000000E+02 0.  0.
    9900012    2    3    3    0    0 -0.13431066940E+01 -0.14190684232E+02  0.40993214675E+02  0.47787273002E+02  0.20000008926E+02 0.  0.
        -12    1    3    3    0    0  0.13431066940E+01  0.14190684232E+02 -0.40993214675E+02  0.43400726998E+02  0.00000000000E+00 0.  1.
         11    1    4    4    0    0  0.22316603841E+01  0.27719502975E+00  0.26407657362E+02  0.26503235892E+02  0.51100000000E-03 0. -1.
        -11    1    4    4    0    0 -0.36181164189E+01 -0.13658564857E+02  0.11881829098E+02  0.18461446946E+02  0.51100000000E-03 0.  1.
        -12    1    4    4    0    0  0.43349340760E-01 -0.80931440482E+00  0.27037282147E+01  0.28225901633E+01  0.00000000000E+00 0.  1.
</event>
<event>
 8    1  0.6239251E-010  0.9118800E+02  0.7816164E-02  0.1184000E+00
        -11   -1    0    0    0    0  0.00000000000E+00  0.00000000000E+00  0.45593999997E+02  0.45594000000E+02  0.51100000000E-03 0. -1.
         11   -1    0    0    0    0 -0.00000000000E+00 -0.00000000000E+00 -0.45593999997E+02  0.45594000000E+02  0.51100000000E-03 0.  1.
         23    2    1    2    0    0  0.00000000000E+00  0.00000000000E+00 -0.35527136788E-14  0.91188000000E+02  0.91188000000E+02 0.  0.
    9900012    2    3    3    0    0 -0.82611032078E+01  0.28358857699E+02  0.31798620357E+02  0.47787275435E+02  0.20000020017E+02 0.  0.
        -12    1    3    3    0    0  0.82611032078E+01 -0.28358857699E+02 -0.31798620357E+02  0.43400724565E+02  0.00000000000E+00 0.  1.
         11    1    4    4    0    0 -0.49876666579E+01  0.21739866564E+02  0.21083483111E+02  0.30692211997E+02  0.51100000000E-03 0. -1.
        -11    1    4    4    0    0 -0.32322176949E+01  0.25867106057E+01 -0.13654580118E+01  0.43592176853E+01  0.51100000000E-03 0.  1.
         12    1    4    4    0    0 -0.41218855005E-01  0.40322805297E+01  0.12080595257E+02  0.12735845752E+02  0.00000000000E+00 0. -1.
</event>
<event>
 8    1  0.6239251E-010  0.9118800E+02  0.7816164E-02  0.1184000E+00
        -11   -1    0    0    0    0  0.00000000000E+00  0.00000000000E+00  0.45593999997E+02  0.45594000000E+02  0.51100000000E-03 0. -1.
         11   -1    0    0    0    0 -0.00000000000E+00 -0.00000000000E+00 -0.45593999997E+02  0.45594000000E+02  0.51100000000E-03 0.  1.
         23    2    1    2    0    0  0.00000000000E+00  0.00000000000E+00  0.00000000000E+00  0.91188000000E+02  0.91188000000E+02 0.  0.
    9900012    2    3    3    0    0 -0.16314042038E+02  0.45715198907E+01 -0.39957183528E+02  0.47787271006E+02  0.19999999827E+02 0.  0.
         12    1    3    3    0    0  0.16314042038E+02 -0.45715198907E+01  0.39957183528E+02  0.43400728994E+02  0.00000000000E+00 0. -1.
         11    1    4    4    0    0 -0.16930626821E+02  0.33114677689E+01 -0.20592552052E+02  0.26863825930E+02  0.51100000000E-03 0. -1.
        -11    1    4    4    0    0  0.39232912027E+01  0.95467624288E+00 -0.14363189189E+02  0.14919947202E+02  0.51100000000E-03 0.  1.
         12    1    4    4    0    0 -0.33067064199E+01  0.30537587892E+00 -0.50014422871E+01  0.60034978742E+01  0.00000000000E+00 0. -1.
</event>
<event>
 8    1  0.6239251E-010  0.9118800E+02  0.7816164E-02  0.1184000E+00
        -11   -1    0    0    0    0  0.00000000000E+00  0.00000000000E+00  0.45593999997E+02  0.45594000000E+02  0.51100000000E-03 0. -1.
         11   -1    0    0    0    0 -0.00000000000E+00 -0.00000000000E+00 -0.45593999997E+02  0.45594000000E+02  0.51100000000E-03 0.  1.
         23    2    1    2    0    0  0.00000000000E+00  0.00000000000E+00  0.00000000000E+00  0.91188000000E+02  0.91188000000E+02 0.  0.
    9900012    2    3    3    0    0 -0.22970951605E+02 -0.31706189071E+02 -0.18726356151E+02  0.47787268926E+02  0.19999990342E+02 0.  0.
         12    1    3    3    0    0  0.22970951605E+02  0.31706189071E+02  0.18726356151E+02  0.43400731074E+02  0.00000000000E+00 0. -1.
         11    1    4    4    0    0 -0.89987582892E+01 -0.29795548887E+01 -0.51359469025E+01  0.10781157124E+02  0.51100000000E-03 0. -1.
        -11    1    4    4    0    0 -0.12711174970E+02 -0.11841952222E+02 -0.83994750085E+01  0.19296553636E+02  0.51100000000E-03 0.  1.
         12    1    4    4    0    0 -0.12610183463E+01 -0.16884681961E+02 -0.51909342396E+01  0.17709558167E+02  0.00000000000E+00 0. -1.
</event>
<event>
 8    1  0.6239251E-010  0.9118800E+02  0.7816164E-02  0.1184000E+00
        -11   -1    0    0    0    0  0.00000000000E+00  0.00000000000E+00  0.45593999997E+02  0.45594000000E+02  0.51100000000E-03 0. -1.
         11   -1    0    0    0    0 -0.00000000000E+00 -0.00000000000E+00 -0.45593999997E+02  0.45594000000E+02  0.51100000000E-03 0.  1.
         23    2    1    2    0    0  0.00000000000E+00  0.00000000000E+00  0.00000000000E+00  0.91188000000E+02  0.91188000000E+02 0.  0.
    9900012    2    3    3    0    0  0.16760540644E+02 -0.24474919874E+02  0.31680997820E+02  0.47787273642E+02  0.20000011843E+02 0.  0.
        -12    1    3    3    0    0 -0.16760540644E+02  0.24474919874E+02 -0.31680997820E+02  0.43400726358E+02  0.00000000000E+00 0.  1.
         11    1    4    4    0    0  0.58650043632E+01 -0.10659566013E+02  0.24429364978E+02  0.27291363053E+02  0.51100000000E-03 0. -1.
        -11    1    4    4    0    0  0.10967422750E+02 -0.10189808388E+02  0.77126360285E+01  0.16840466488E+02  0.51100000000E-03 0.  1.
         12    1    4    4    0    0 -0.71886469177E-01 -0.36255454726E+01 -0.46100318638E+00  0.36554441011E+01  0.00000000000E+00 0. -1.
</event>
<event>
 8    1  0.6239251E-010  0.9118800E+02  0.7816164E-02  0.1184000E+00
        -11   -1    0    0    0    0  0.00000000000E+00  0.00000000000E+00  0.45593999997E+02  0.45594000000E+02  0.51100000000E-03 0. -1.
         11   -1    0    0    0    0 -0.00000000000E+00 -0.00000000000E+00 -0.45593999997E+02  0.45594000000E+02  0.51100000000E-03 0.  1.
         23    2    1    2    0    0  0.11102230246E-15  0.00000000000E+00  0.71054273576E-14  0.91188000000E+02  0.91188000000E+02 0.  0.
    9900012    2    3    3    0    0  0.90325183904E+00 -0.18345745788E+02  0.39322272597E+02  0.47787269884E+02  0.19999994709E+02 0.  0.
        -12    1    3    3    0    0 -0.90325183904E+00  0.18345745788E+02 -0.39322272597E+02  0.43400730116E+02  0.00000000000E+00 0.  1.
         11    1    4    4    0    0  0.12320288321E+01 -0.19559555745E+02  0.24108781572E+02  0.31069719424E+02  0.51100000000E-03 0. -1.
        -11    1    4    4    0    0 -0.13136337006E+01 -0.21590327948E+01  0.26084743137E+01  0.36319684215E+01  0.51100000000E-03 0.  1.
         12    1    4    4    0    0  0.98485670756E+00  0.33728427519E+01  0.12605016712E+02  0.13085582038E+02  0.00000000000E+00 0. -1.
</event>
<event>
 8    1  0.6239251E-010  0.9118800E+02  0.7816164E-02  0.1184000E+00
        -11   -1    0    0    0    0  0.00000000000E+00  0.00000000000E+00  0.45593999997E+02  0.45594000000E+02  0.51100000000E-03 0. -1.
         11   -1    0    0    0    0 -0.00000000000E+00 -0.00000000000E+00 -0.45593999997E+02  0.45594000000E+02  0.51100000000E-03 0.  1.
         23    2    1    2    0    0  0.00000000000E+00  0.00000000000E+00 -0.35527136788E-14  0.91188000000E+02  0.91188000000E+02 0.  0.
    9900012    2    3    3    0    0  0.25553475370E+02 -0.27431571879E+02 -0.21866679694E+02  0.47787275120E+02  0.20000018584E+02 0.  0.
         12    1    3    3    0    0 -0.25553475370E+02  0.27431571879E+02  0.21866679694E+02  0.43400724880E+02  0.00000000000E+00 0. -1.
         11    1    4    4    0    0 -0.26895272896E+01 -0.18262200469E+01 -0.32194910986E+01  0.45753425988E+01  0.51100000000E-03 0. -1.
        -11    1    4    4    0    0  0.16553143876E+02 -0.13160840864E+02 -0.60562954759E+01  0.21997568492E+02  0.51100000000E-03 0.  1.
         12    1    4    4    0    0  0.11689858784E+02 -0.12444510968E+02 -0.12590893120E+02  0.21214364029E+02  0.00000000000E+00 0. -1.
</event>
<event>
 8    1  0.6239251E-010  0.9118800E+02  0.7816164E-02  0.1184000E+00
        -11   -1    0    0    0    0  0.00000000000E+00  0.00000000000E+00  0.45593999997E+02  0.45594000000E+02  0.51100000000E-03 0.  1.
         11   -1    0    0    0    0 -0.00000000000E+00 -0.00000000000E+00 -0.45593999997E+02  0.45594000000E+02  0.51100000000E-03 0. -1.
         23    2    1    2    0    0  0.00000000000E+00  0.00000000000E+00  0.00000000000E+00  0.91188000000E+02  0.91188000000E+02 0.  0.
    9900012    2    3    3    0    0 -0.32253222918E+02  0.13112259508E+02 -0.25911800386E+02  0.47787272618E+02  0.20000007176E+02 0.  0.
         12    1    3    3    0    0  0.32253222918E+02 -0.13112259508E+02  0.25911800386E+02  0.43400727382E+02  0.00000000000E+00 0. -1.
         11    1    4    4    0    0 -0.11239282983E+02  0.41200263196E+01 -0.10870734282E+02  0.16170001946E+02  0.51100000000E-03 0. -1.
        -11    1    4    4    0    0 -0.19017376070E+02  0.30184387789E+01 -0.16259322178E+02  0.25201926974E+02  0.51100000000E-03 0.  1.
        -12    1    4    4    0    0 -0.19965638650E+01  0.59737944092E+01  0.12182560731E+01  0.64153436985E+01  0.00000000000E+00 0.  1.
</event>
<event>
 8    1  0.6239251E-010  0.9118800E+02  0.7816164E-02  0.1184000E+00
        -11   -1    0    0    0    0  0.00000000000E+00  0.00000000000E+00  0.45593999997E+02  0.45594000000E+02  0.51100000000E-03 0. -1.
         11   -1    0    0    0    0 -0.00000000000E+00 -0.00000000000E+00 -0.45593999997E+02  0.45594000000E+02  0.51100000000E-03 0.  1.
         23    2    1    2    0    0  0.00000000000E+00  0.00000000000E+00  0.00000000000E+00  0.91188000000E+02  0.91188000000E+02 0.  0.
    9900012    2    3    3    0    0  0.68133384861E+01 -0.37636913305E+02  0.20510100994E+02  0.47787273425E+02  0.20000010855E+02 0.  0.
        -12    1    3    3    0    0 -0.68133384861E+01  0.37636913305E+02 -0.20510100994E+02  0.43400726575E+02  0.00000000000E+00 0.  1.
         11    1    4    4    0    0 -0.17866076479E+01 -0.31840550356E+02  0.13620940414E+02  0.34677696462E+02  0.51100000000E-03 0. -1.
        -11    1    4    4    0    0  0.54728285945E+01 -0.28085585537E+01  0.17557502654E+01  0.63970706757E+01  0.51100000000E-03 0.  1.
         12    1    4    4    0    0  0.31271175395E+01 -0.29878043950E+01  0.51334103143E+01  0.67125062878E+01  0.00000000000E+00 0. -1.
</event>
<event>
 8    1  0.6239251E-010  0.9118800E+02  0.7816164E-02  0.1184000E+00
        -11   -1    0    0    0    0  0.00000000000E+00  0.00000000000E+00  0.45593999997E+02  0.45594000000E+02  0.51100000000E-03 0. -1.
         11   -1    0    0    0    0 -0.00000000000E+00 -0.00000000000E+00 -0.45593999997E+02  0.45594000000E+02  0.51100000000E-03 0.  1.
         23    2    1    2    0    0  0.00000000000E+00  0.00000000000E+00  0.00000000000E+00  0.91188000000E+02  0.91188000000E+02 0.  0.
    9900012    2    3    3    0    0  0.32281258019E+01  0.22694054991E+02 -0.36853526335E+02  0.47787270381E+02  0.19999996975E+02 0.  0.
         12    1    3    3    0    0 -0.32281258019E+01 -0.22694054991E+02  0.36853526335E+02  0.43400729619E+02  0.00000000000E+00 0. -1.
         11    1    4    4    0    0 -0.77597581883E+00  0.99253690062E+01 -0.37282586040E+01  0.10630851370E+02  0.51100000000E-03 0. -1.
        -11    1    4    4    0    0  0.25523779364E+01  0.90754974673E+01 -0.31478661606E+02  0.32860088621E+02  0.51100000000E-03 0.  1.
        -12    1    4    4    0    0  0.14517236844E+01  0.36931885176E+01 -0.16466061248E+01  0.42963303891E+01  0.00000000000E+00 0.  1.
</event>
<event>
 8    1  0.6239251E-010  0.9118800E+02  0.7816164E-02  0.1184000E+00
        -11   -1    0    0    0    0  0.00000000000E+00  0.00000000000E+00  0.45593999997E+02  0.45594000000E+02  0.51100000000E-03 0. -1.
         11   -1    0    0    0    0 -0.00000000000E+00 -0.00000000000E+00 -0.45593999997E+02  0.45594000000E+02  0.51100000000E-03 0.  1.
         23    2    1    2    0    0 -0.35527136788E-14 -0.35527136788E-14  0.00000000000E+00  0.91188000000E+02  0.91188000000E+02 0.  0.
    9900012    2    3    3    0    0 -0.17415823671E+02 -0.31534745824E+02 -0.24204789967E+02  0.47787274595E+02  0.20000016189E+02 0.  0.
         12    1    3    3    0    0  0.17415823671E+02  0.31534745824E+02  0.24204789967E+02  0.43400725405E+02  0.00000000000E+00 0. -1.
         11    1    4    4    0    0  0.74149309810E+00 -0.12246678025E+01 -0.23328609894E+01  0.27371269423E+01  0.51100000000E-03 0. -1.
        -11    1    4    4    0    0 -0.27941752859E+01 -0.12312276958E+02 -0.16515131321E+02  0.20788197185E+02  0.51100000000E-03 0.  1.
        -12    1    4    4    0    0 -0.15363141483E+02 -0.17997801064E+02 -0.53567976566E+01  0.24261950467E+02  0.00000000000E+00 0.  1.
</event>
<event>
 8    1  0.6239251E-010  0.9118800E+02  0.7816164E-02  0.1184000E+00
        -11   -1    0    0    0    0  0.00000000000E+00  0.00000000000E+00  0.45593999997E+02  0.45594000000E+02  0.51100000000E-03 0.  1.
         11   -1    0    0    0    0 -0.00000000000E+00 -0.00000000000E+00 -0.45593999997E+02  0.45594000000E+02  0.51100000000E-03 0. -1.
         23    2    1    2    0    0  0.00000000000E+00  0.00000000000E+00  0.88817841970E-15  0.91188000000E+02  0.91188000000E+02 0.  0.
    9900012    2    3    3    0    0 -0.36680179776E+02  0.22623814710E+02  0.51333089047E+01  0.47787269122E+02  0.19999991233E+02 0.  0.
         12    1    3    3    0    0  0.36680179776E+02 -0.22623814710E+02 -0.51333089047E+01  0.43400730878E+02  0.00000000000E+00 0. -1.
         11    1    4    4    0    0 -0.10877690522E+02  0.37322088707E+01 -0.36896909020E+01  0.12077555769E+02  0.51100000000E-03 0. -1.
        -11    1    4    4    0    0 -0.23387823047E+02  0.11241623368E+02  0.95591982321E+01  0.27653980435E+02  0.51100000000E-03 0.  1.
        -12    1    4    4    0    0 -0.24146662078E+01  0.76499824717E+01 -0.73619842533E+00  0.80557329173E+01  0.00000000000E+00 0.  1.
</event>
<event>
 8    1  0.6239251E-010  0.9118800E+02  0.7816164E-02  0.1184000E+00
        -11   -1    0    0    0    0  0.00000000000E+00  0.00000000000E+00  0.45593999997E+02  0.45594000000E+02  0.51100000000E-03 0. -1.
         11   -1    0    0    0    0 -0.00000000000E+00 -0.00000000000E+00 -0.45593999997E+02  0.45594000000E+02  0.51100000000E-03 0.  1.
         23    2    1    2    0    0  0.17763568394E-14  0.00000000000E+00  0.71054273576E-14  0.91188000000E+02  0.91188000000E+02 0.  0.
    9900012    2    3    3    0    0 -0.91839252234E+01 -0.58160571055E+01 -0.42017287316E+02  0.47787269175E+02  0.19999991477E+02 0.  0.
         12    1    3    3    0    0  0.91839252234E+01  0.58160571055E+01  0.42017287316E+02  0.43400730825E+02  0.00000000000E+00 0. -1.
         11    1    4    4    0    0 -0.13381232582E+01 -0.22443053345E+01 -0.94633517524E+00  0.27790341512E+01  0.51100000000E-03 0. -1.
        -11    1    4    4    0    0  0.46694863558E+01 -0.14889313073E+01 -0.62149990773E+01  0.79150005089E+01  0.51100000000E-03 0.  1.
        -12    1    4    4    0    0 -0.12515288321E+02 -0.20828204638E+01 -0.34855953063E+02  0.37093234515E+02  0.00000000000E+00 0.  1.
</event>
<event>
 8    1  0.6239251E-010  0.9118800E+02  0.7816164E-02  0.1184000E+00
        -11   -1    0    0    0    0  0.00000000000E+00  0.00000000000E+00  0.45593999997E+02  0.45594000000E+02  0.51100000000E-03 0. -1.
         11   -1    0    0    0    0 -0.00000000000E+00 -0.00000000000E+00 -0.45593999997E+02  0.45594000000E+02  0.51100000000E-03 0.  1.
         23    2    1    2    0    0 -0.13322676296E-14  0.00000000000E+00  0.00000000000E+00  0.91188000000E+02  0.91188000000E+02 0.  0.
    9900012    2    3    3    0    0  0.23363872585E+01  0.10785922633E+02 -0.41974143189E+02  0.47787268106E+02  0.19999986604E+02 0.  0.
         12    1    3    3    0    0 -0.23363872585E+01 -0.10785922633E+02  0.41974143189E+02  0.43400731894E+02  0.00000000000E+00 0. -1.
         11    1    4    4    0    0  0.70828073848E+01  0.22902206947E+01 -0.45896837536E+01  0.87450825325E+01  0.51100000000E-03 0. -1.
        -11    1    4    4    0    0 -0.10881865082E+01  0.45045430321E+01 -0.26311811005E+02  0.26716782299E+02  0.51100000000E-03 0.  1.
         12    1    4    4    0    0 -0.36582336181E+01  0.39911589062E+01 -0.11072648431E+02  0.12325403275E+02  0.00000000000E+00 0. -1.
</event>
<event>
 8    1  0.6239251E-010  0.9118800E+02  0.7816164E-02  0.1184000E+00
        -11   -1    0    0    0    0  0.00000000000E+00  0.00000000000E+00  0.45593999997E+02  0.45594000000E+02  0.51100000000E-03 0. -1.
         11   -1    0    0    0    0 -0.00000000000E+00 -0.00000000000E+00 -0.45593999997E+02  0.45594000000E+02  0.51100000000E-03 0.  1.
         23    2    1    2    0    0  0.00000000000E+00  0.00000000000E+00  0.35527136788E-14  0.91188000000E+02  0.91188000000E+02 0.  0.
    9900012    2    3    3    0    0  0.36214350028E+02 -0.17861328685E+02 -0.15909652333E+02  0.47787271346E+02  0.20000001374E+02 0.  0.
         12    1    3    3    0    0 -0.36214350028E+02  0.17861328685E+02  0.15909652333E+02  0.43400728654E+02  0.00000000000E+00 0. -1.
         11    1    4    4    0    0 -0.10854980719E+01  0.11026724035E+01  0.19587381841E+00  0.15596664090E+01  0.51100000000E-03 0. -1.
        -11    1    4    4    0    0  0.22706751037E+02 -0.14548115215E+02 -0.15195322458E+02  0.30953869287E+02  0.51100000000E-03 0.  1.
         12    1    4    4    0    0  0.14593097063E+02 -0.44158858738E+01 -0.91020369345E+00  0.15273735650E+02  0.00000000000E+00 0. -1.
</event>
<event>
 8    1  0.6239251E-010  0.9118800E+02  0.7816164E-02  0.1184000E+00
        -11   -1    0    0    0    0  0.00000000000E+00  0.00000000000E+00  0.45593999997E+02  0.45594000000E+02  0.51100000000E-03 0. -1.
         11   -1    0    0    0    0 -0.00000000000E+00 -0.00000000000E+00 -0.45593999997E+02  0.45594000000E+02  0.51100000000E-03 0.  1.
         23    2    1    2    0    0  0.00000000000E+00  0.88817841970E-15  0.00000000000E+00  0.91188000000E+02  0.91188000000E+02 0.  0.
    9900012    2    3    3    0    0 -0.21375296908E+02 -0.75667115611E+01  0.37006271366E+02  0.47787279244E+02  0.20000037383E+02 0.  0.
        -12    1    3    3    0    0  0.21375296908E+02  0.75667115611E+01 -0.37006271366E+02  0.43400720756E+02  0.00000000000E+00 0.  1.
         11    1    4    4    0    0 -0.15664006261E+02 -0.19469669555E+01  0.29033625641E+02  0.33046984592E+02  0.51100000000E-03 0. -1.
        -11    1    4    4    0    0 -0.59974894732E-01 -0.66169118570E+01  0.48747018603E+01  0.82188708469E+01  0.51100000000E-03 0.  1.
         12    1    4    4    0    0 -0.56513157515E+01  0.99716725132E+00  0.30979438646E+01  0.65214238046E+01  0.00000000000E+00 0. -1.
</event>
<event>
 8    1  0.6239251E-010  0.9118800E+02  0.7816164E-02  0.1184000E+00
        -11   -1    0    0    0    0  0.00000000000E+00  0.00000000000E+00  0.45593999997E+02  0.45594000000E+02  0.51100000000E-03 0. -1.
         11   -1    0    0    0    0 -0.00000000000E+00 -0.00000000000E+00 -0.45593999997E+02  0.45594000000E+02  0.51100000000E-03 0.  1.
         23    2    1    2    0    0  0.00000000000E+00 -0.35527136788E-14  0.00000000000E+00  0.91188000000E+02  0.91188000000E+02 0.  0.
    9900012    2    3    3    0    0 -0.13543446024E+02 -0.22101709087E+02  0.34809643874E+02  0.47787288238E+02  0.20000078393E+02 0.  0.
        -12    1    3    3    0    0  0.13543446024E+02  0.22101709087E+02 -0.34809643874E+02  0.43400711762E+02  0.00000000000E+00 0.  1.
         11    1    4    4    0    0 -0.44780808842E+01 -0.11560121136E+02  0.47573092352E+01  0.13278614405E+02  0.51100000000E-03 0. -1.
        -11    1    4    4    0    0 -0.30151368196E+01 -0.19725216404E+01  0.11823711355E+01  0.37920829930E+01  0.51100000000E-03 0.  1.
         12    1    4    4    0    0 -0.60502283200E+01 -0.85690663103E+01  0.28869963504E+02  0.30716590840E+02  0.00000000000E+00 0. -1.
</event>
<event>
 8    1  0.6239251E-010  0.9118800E+02  0.7816164E-02  0.1184000E+00
        -11   -1    0    0    0    0  0.00000000000E+00  0.00000000000E+00  0.45593999997E+02  0.45594000000E+02  0.51100000000E-03 0.  1.
         11   -1    0    0    0    0 -0.00000000000E+00 -0.00000000000E+00 -0.45593999997E+02  0.45594000000E+02  0.51100000000E-03 0. -1.
         23    2    1    2    0    0  0.00000000000E+00 -0.35527136788E-14  0.00000000000E+00  0.91188000000E+02  0.91188000000E+02 0.  0.
    9900012    2    3    3    0    0  0.27916449682E+02 -0.27152122624E+02 -0.19158738787E+02  0.47787271922E+02  0.20000004000E+02 0.  0.
         12    1    3    3    0    0 -0.27916449682E+02  0.27152122624E+02  0.19158738787E+02  0.43400728078E+02  0.00000000000E+00 0. -1.
         11    1    4    4    0    0 -0.24162505660E+01 -0.12519862644E+01 -0.26784583732E+00  0.27344977707E+01  0.51100000000E-03 0. -1.
        -11    1    4    4    0    0  0.12007052819E+02 -0.99216915630E+01 -0.26134016831E+01  0.15793642692E+02  0.51100000000E-03 0.  1.
         12    1    4    4    0    0  0.18325647429E+02 -0.15978444797E+02 -0.16277491266E+02  0.29259131459E+02  0.00000000000E+00 0. -1.
</event>
<event>
 8    1  0.6239251E-010  0.9118800E+02  0.7816164E-02  0.1184000E+00
        -11   -1    0    0    0    0  0.00000000000E+00  0.00000000000E+00  0.45593999997E+02  0.45594000000E+02  0.51100000000E-03 0. -1.
         11   -1    0    0    0    0 -0.00000000000E+00 -0.00000000000E+00 -0.45593999997E+02  0.45594000000E+02  0.51100000000E-03 0.  1.
         23    2    1    2    0    0 -0.35527136788E-14  0.35527136788E-14  0.00000000000E+00  0.91188000000E+02  0.91188000000E+02 0.  0.
    9900012    2    3    3    0    0 -0.21947270246E+02 -0.20999752145E+02 -0.30999210714E+02  0.47787270440E+02  0.19999997246E+02 0.  0.
         12    1    3    3    0    0  0.21947270246E+02  0.20999752145E+02  0.30999210714E+02  0.43400729560E+02  0.00000000000E+00 0. -1.
         11    1    4    4    0    0 -0.71501565034E+01  0.13073707543E+01 -0.20148253954E+01  0.75427765410E+01  0.51100000000E-03 0. -1.
        -11    1    4    4    0    0 -0.69960060960E+01 -0.94208062136E+01 -0.72269698548E+01  0.13781320131E+02  0.51100000000E-03 0.  1.
         12    1    4    4    0    0 -0.78011076469E+01 -0.12886316685E+02 -0.21757415464E+02  0.26463173768E+02  0.00000000000E+00 0. -1.
</event>
<event>
 8    1  0.6239251E-010  0.9118800E+02  0.7816164E-02  0.1184000E+00
        -11   -1    0    0    0    0  0.00000000000E+00  0.00000000000E+00  0.45593999997E+02  0.45594000000E+02  0.51100000000E-03 0.  1.
         11   -1    0    0    0    0 -0.00000000000E+00 -0.00000000000E+00 -0.45593999997E+02  0.45594000000E+02  0.51100000000E-03 0. -1.
         23    2    1    2    0    0  0.00000000000E+00  0.00000000000E+00  0.00000000000E+00  0.91188000000E+02  0.91188000000E+02 0.  0.
    9900012    2    3    3    0    0  0.94518536662E+01 -0.39098339696E+02 -0.16297405409E+02  0.47787272727E+02  0.20000007673E+02 0.  0.
         12    1    3    3    0    0 -0.94518536662E+01  0.39098339696E+02  0.16297405409E+02  0.43400727273E+02  0.00000000000E+00 0. -1.
         11    1    4    4    0    0 -0.42505319693E+01 -0.14488431094E+02 -0.98889897551E+01  0.18049204310E+02  0.51100000000E-03 0. -1.
        -11    1    4    4    0    0  0.10334912359E+02 -0.14014750458E+02 -0.65915375367E+01  0.18619130249E+02  0.51100000000E-03 0.  1.
         12    1    4    4    0    0  0.33674732770E+01 -0.10595158144E+02  0.18312188260E+00  0.11118938168E+02  0.00000000000E+00 0. -1.
</event>
<event>
 8    1  0.6239251E-010  0.9118800E+02  0.7816164E-02  0.1184000E+00
        -11   -1    0    0    0    0  0.00000000000E+00  0.00000000000E+00  0.45593999997E+02  0.45594000000E+02  0.51100000000E-03 0. -1.
         11   -1    0    0    0    0 -0.00000000000E+00 -0.00000000000E+00 -0.45593999997E+02  0.45594000000E+02  0.51100000000E-03 0.  1.
         23    2    1    2    0    0  0.00000000000E+00  0.00000000000E+00 -0.71054273576E-14  0.91188000000E+02  0.91188000000E+02 0.  0.
    9900012    2    3    3    0    0  0.18359920867E+02  0.10714573488E+02  0.37838266031E+02  0.47787272408E+02  0.20000006218E+02 0.  0.
        -12    1    3    3    0    0 -0.18359920867E+02 -0.10714573488E+02 -0.37838266031E+02  0.43400727592E+02  0.00000000000E+00 0.  1.
         11    1    4    4    0    0  0.15753536084E+02  0.43549939816E+01  0.28565493334E+02  0.32910899128E+02  0.51100000000E-03 0. -1.
        -11    1    4    4    0    0 -0.34896190032E+01  0.15098466462E+01  0.36370033674E+01  0.52616415155E+01  0.51100000000E-03 0.  1.
         12    1    4    4    0    0  0.60960037853E+01  0.48497328602E+01  0.56357693295E+01  0.96147317644E+01  0.00000000000E+00 0. -1.
</event>
<event>
 8    1  0.6239251E-010  0.9118800E+02  0.7816164E-02  0.1184000E+00
        -11   -1    0    0    0    0  0.00000000000E+00  0.00000000000E+00  0.45593999997E+02  0.45594000000E+02  0.51100000000E-03 0. -1.
         11   -1    0    0    0    0 -0.00000000000E+00 -0.00000000000E+00 -0.45593999997E+02  0.45594000000E+02  0.51100000000E-03 0.  1.
         23    2    1    2    0    0 -0.11102230246E-15  0.00000000000E+00 -0.71054273576E-14  0.91188000000E+02  0.91188000000E+02 0.  0.
    9900012    2    3    3    0    0 -0.21720089666E+00  0.46722012810E+01  0.43147964567E+02  0.47787268586E+02  0.19999988790E+02 0.  0.
        -12    1    3    3    0    0  0.21720089666E+00 -0.46722012810E+01 -0.43147964567E+02  0.43400731414E+02  0.00000000000E+00 0.  1.
         11    1    4    4    0    0  0.49158690653E+01  0.10475857148E+02  0.26701214622E+02  0.29100931501E+02  0.51100000000E-03 0. -1.
        -11    1    4    4    0    0 -0.20486300458E+01 -0.20956323379E+01  0.22562045604E+01  0.36985158158E+01  0.51100000000E-03 0.  1.
         12    1    4    4    0    0 -0.30844399162E+01 -0.37080235294E+01  0.14190545385E+02  0.14987821269E+02  0.00000000000E+00 0. -1.
</event>
<event>
 8    1  0.6239251E-010  0.9118800E+02  0.7816164E-02  0.1184000E+00
        -11   -1    0    0    0    0  0.00000000000E+00  0.00000000000E+00  0.45593999997E+02  0.45594000000E+02  0.51100000000E-03 0. -1.
         11   -1    0    0    0    0 -0.00000000000E+00 -0.00000000000E+00 -0.45593999997E+02  0.45594000000E+02  0.51100000000E-03 0.  1.
         23    2    1    2    0    0  0.00000000000E+00  0.35527136788E-14  0.00000000000E+00  0.91188000000E+02  0.91188000000E+02 0.  0.
    9900012    2    3    3    0    0 -0.19666584711E+02 -0.20161094989E+02  0.33020887903E+02  0.47787270245E+02  0.19999996356E+02 0.  0.
        -12    1    3    3    0    0  0.19666584711E+02  0.20161094989E+02 -0.33020887903E+02  0.43400729755E+02  0.00000000000E+00 0.  1.
         11    1    4    4    0    0 -0.13673542561E+02 -0.17165081725E+02  0.31899287392E+02  0.38719121027E+02  0.51100000000E-03 0. -1.
        -11    1    4    4    0    0 -0.46714014477E+01 -0.42643034731E+01 -0.84427580184E+00  0.63811501696E+01  0.51100000000E-03 0.  1.
         12    1    4    4    0    0 -0.13216407025E+01  0.12682902099E+01  0.19658763138E+01  0.26869990480E+01  0.00000000000E+00 0. -1.
</event>
<event>
 8    1  0.6239251E-010  0.9118800E+02  0.7816164E-02  0.1184000E+00
        -11   -1    0    0    0    0  0.00000000000E+00  0.00000000000E+00  0.45593999997E+02  0.45594000000E+02  0.51100000000E-03 0. -1.
         11   -1    0    0    0    0 -0.00000000000E+00 -0.00000000000E+00 -0.45593999997E+02  0.45594000000E+02  0.51100000000E-03 0.  1.
         23    2    1    2    0    0  0.17763568394E-14  0.00000000000E+00  0.00000000000E+00  0.91188000000E+02  0.91188000000E+02 0.  0.
    9900012    2    3    3    0    0  0.81631639962E+01 -0.24715167229E+01 -0.42554406586E+02  0.47787272343E+02  0.20000005919E+02 0.  0.
         12    1    3    3    0    0 -0.81631639962E+01  0.24715167229E+01  0.42554406586E+02  0.43400727657E+02  0.00000000000E+00 0. -1.
         11    1    4    4    0    0 -0.12551144381E+01 -0.42269275065E+01 -0.80331809157E+01  0.91637451014E+01  0.51100000000E-03 0. -1.
        -11    1    4    4    0    0  0.97695195439E+01 -0.23873252665E+01 -0.32461479219E+02  0.33983679427E+02  0.51100000000E-03 0.  1.
        -12    1    4    4    0    0 -0.35124110951E+00  0.41427360501E+01 -0.20597464509E+01  0.46398478143E+01  0.00000000000E+00 0.  1.
</event>
<event>
 8    1  0.6239251E-010  0.9118800E+02  0.7816164E-02  0.1184000E+00
        -11   -1    0    0    0    0  0.00000000000E+00  0.00000000000E+00  0.45593999997E+02  0.45594000000E+02  0.51100000000E-03 0. -1.
         11   -1    0    0    0    0 -0.00000000000E+00 -0.00000000000E+00 -0.45593999997E+02  0.45594000000E+02  0.51100000000E-03 0.  1.
         23    2    1    2    0    0 -0.88817841970E-15  0.17763568394E-14 -0.71054273576E-14  0.91188000000E+02  0.91188000000E+02 0.  0.
    9900012    2    3    3    0    0 -0.41301741542E+01  0.11317383656E+02 -0.41695104861E+02  0.47787270966E+02  0.19999999641E+02 0.  0.
         12    1    3    3    0    0  0.41301741542E+01 -0.11317383656E+02  0.41695104861E+02  0.43400729034E+02  0.00000000000E+00 0. -1.
         11    1    4    4    0    0  0.49715601533E+01  0.53652674165E+00 -0.37310404228E+01  0.62389850297E+01  0.51100000000E-03 0. -1.
        -11    1    4    4    0    0 -0.82680515120E+01  0.11236330276E+02 -0.38113708384E+02  0.40586581045E+02  0.51100000000E-03 0.  1.
        -12    1    4    4    0    0 -0.83368279555E+00 -0.45547336235E+00  0.14964394556E+00  0.96170489124E+00  0.00000000000E+00 0.  1.
</event>
<event>
 8    1  0.6261442E-010  0.9118800E+02  0.7816164E-02  0.1184000E+00
        -11   -1    0    0    0    0  0.00000000000E+00  0.00000000000E+00  0.45593999997E+02  0.45594000000E+02  0.51100000000E-03 0. -1.
         11   -1    0    0    0    0 -0.00000000000E+00 -0.00000000000E+00 -0.45593999997E+02  0.45594000000E+02  0.51100000000E-03 0.  1.
         23    2    1    2    0    0  0.17763568394E-14  0.00000000000E+00  0.00000000000E+00  0.91188000000E+02  0.91188000000E+02 0.  0.
    9900012    2    3    3    0    0 -0.10410811995E+02 -0.45778446859E+01  0.41884127480E+02  0.47787287988E+02  0.20000077254E+02 0.  0.
        -12    1    3    3    0    0  0.10410811995E+02  0.45778446859E+01 -0.41884127480E+02  0.43400712012E+02  0.00000000000E+00 0.  1.
         11    1    4    4    0    0 -0.74537170951E+01 -0.96636660984E+01  0.27245065275E+02  0.29853608209E+02  0.51100000000E-03 0. -1.
        -11    1    4    4    0    0 -0.43083260494E+01  0.62988504272E+01  0.80221311736E+01  0.11072117181E+02  0.51100000000E-03 0.  1.
        -12    1    4    4    0    0  0.13512311497E+01 -0.12130290147E+01  0.66169310313E+01  0.68615625978E+01  0.00000000000E+00 0.  1.
</event>
<event>
 8    1  0.6383479E-010  0.9118800E+02  0.7816164E-02  0.1184000E+00
        -11   -1    0    0    0    0  0.00000000000E+00  0.00000000000E+00  0.45593999997E+02  0.45594000000E+02  0.51100000000E-03 0. -1.
         11   -1    0    0    0    0 -0.00000000000E+00 -0.00000000000E+00 -0.45593999997E+02  0.45594000000E+02  0.51100000000E-03 0.  1.
         23    2    1    2    0    0  0.00000000000E+00  0.00000000000E+00  0.00000000000E+00  0.91188000000E+02  0.91188000000E+02 0.  0.
    9900012    2    3    3    0    0  0.41851695140E+01 -0.27219294976E+02  0.33544266293E+02  0.47787268854E+02  0.19999990014E+02 0.  0.
        -12    1    3    3    0    0 -0.41851695140E+01  0.27219294976E+02 -0.33544266293E+02  0.43400731146E+02  0.00000000000E+00 0.  1.
         11    1    4    4    0    0  0.18748001920E+01 -0.11025521433E+02  0.14046604905E+02  0.17955058013E+02  0.51100000000E-03 0. -1.
        -11    1    4    4    0    0  0.75463903076E+00 -0.16637573280E+02  0.84666782435E+01  0.18683226848E+02  0.51100000000E-03 0.  1.
        -12    1    4    4    0    0  0.15557302913E+01  0.44379973686E+00  0.11030983145E+02  0.11148983994E+02  0.00000000000E+00 0.  1.
</event>
<event>
 8    1  0.6239251E-010  0.9118800E+02  0.7816164E-02  0.1184000E+00
        -11   -1    0    0    0    0  0.00000000000E+00  0.00000000000E+00  0.45593999997E+02  0.45594000000E+02  0.51100000000E-03 0. -1.
         11   -1    0    0    0    0 -0.00000000000E+00 -0.00000000000E+00 -0.45593999997E+02  0.45594000000E+02  0.51100000000E-03 0.  1.
         23    2    1    2    0    0 -0.35527136788E-14  0.35527136788E-14  0.00000000000E+00  0.91188000000E+02  0.91188000000E+02 0.  0.
    9900012    2    3    3    0    0 -0.18345130045E+02  0.21864282913E+02  0.32696060196E+02  0.47787274015E+02  0.20000013545E+02 0.  0.
        -12    1    3    3    0    0  0.18345130045E+02 -0.21864282913E+02 -0.32696060196E+02  0.43400725985E+02  0.00000000000E+00 0.  1.
         11    1    4    4    0    0 -0.76322162643E+01  0.59442071178E+01  0.38942232440E+01  0.10428293163E+02  0.51100000000E-03 0. -1.
        -11    1    4    4    0    0  0.14795953686E+01 -0.15722310391E+01  0.47440254097E+01  0.52121867047E+01  0.51100000000E-03 0.  1.
        -12    1    4    4    0    0 -0.12192509149E+02  0.17492306835E+02  0.24057811542E+02  0.32146794147E+02  0.00000000000E+00 0.  1.
</event>
<event>
 8    1  0.6239251E-010  0.9118800E+02  0.7816164E-02  0.1184000E+00
        -11   -1    0    0    0    0  0.00000000000E+00  0.00000000000E+00  0.45593999997E+02  0.45594000000E+02  0.51100000000E-03 0. -1.
         11   -1    0    0    0    0 -0.00000000000E+00 -0.00000000000E+00 -0.45593999997E+02  0.45594000000E+02  0.51100000000E-03 0.  1.
         23    2    1    2    0    0  0.00000000000E+00  0.00000000000E+00  0.00000000000E+00  0.91188000000E+02  0.91188000000E+02 0.  0.
    9900012    2    3    3    0    0 -0.15418474090E+02  0.18721019159E+02  0.35991905710E+02  0.47787272146E+02  0.20000005024E+02 0.  0.
        -12    1    3    3    0    0  0.15418474090E+02 -0.18721019159E+02 -0.35991905710E+02  0.43400727854E+02  0.00000000000E+00 0.  1.
         11    1    4    4    0    0 -0.16042630456E+02  0.79987120616E+01  0.12411496762E+02  0.21803454743E+02  0.51100000000E-03 0. -1.
        -11    1    4    4    0    0 -0.10248407721E+00  0.91842885259E+01  0.20536002921E+02  0.22496423604E+02  0.51100000000E-03 0.  1.
         12    1    4    4    0    0  0.72664044336E+00  0.15380185719E+01  0.30444060260E+01  0.34873937995E+01  0.00000000000E+00 0. -1.
</event>
<event>
 8    1  0.6239251E-010  0.9118800E+02  0.7816164E-02  0.1184000E+00
        -11   -1    0    0    0    0  0.00000000000E+00  0.00000000000E+00  0.45593999997E+02  0.45594000000E+02  0.51100000000E-03 0. -1.
         11   -1    0    0    0    0 -0.00000000000E+00 -0.00000000000E+00 -0.45593999997E+02  0.45594000000E+02  0.51100000000E-03 0.  1.
         23    2    1    2    0    0 -0.17763568394E-14 -0.17763568394E-14  0.00000000000E+00  0.91188000000E+02  0.91188000000E+02 0.  0.
    9900012    2    3    3    0    0  0.81655749667E+01  0.85009601848E+01 -0.41769381685E+02  0.47787260548E+02  0.19999952144E+02 0.  0.
         12    1    3    3    0    0 -0.81655749667E+01 -0.85009601848E+01  0.41769381685E+02  0.43400739452E+02  0.00000000000E+00 0. -1.
         11    1    4    4    0    0 -0.50648537142E+00  0.95990853043E+01 -0.18693354129E+02  0.21020001307E+02  0.51100000000E-03 0. -1.
        -11    1    4    4    0    0  0.10007939096E+02 -0.36534975170E+01 -0.17448348146E+02  0.20443868087E+02  0.51100000000E-03 0.  1.
        -12    1    4    4    0    0 -0.13358787580E+01  0.25553723975E+01 -0.56276794106E+01  0.63233911546E+01  0.00000000000E+00 0.  1.
</event>
<event>
 8    1  0.6239251E-010  0.9118800E+02  0.7816164E-02  0.1184000E+00
        -11   -1    0    0    0    0  0.00000000000E+00  0.00000000000E+00  0.45593999997E+02  0.45594000000E+02  0.51100000000E-03 0. -1.
         11   -1    0    0    0    0 -0.00000000000E+00 -0.00000000000E+00 -0.45593999997E+02  0.45594000000E+02  0.51100000000E-03 0.  1.
         23    2    1    2    0    0  0.00000000000E+00  0.00000000000E+00 -0.35527136788E-14  0.91188000000E+02  0.91188000000E+02 0.  0.
    9900012    2    3    3    0    0 -0.11627463392E+02  0.26986351980E+02  0.31939909602E+02  0.47787321163E+02  0.20000228511E+02 0.  0.
        -12    1    3    3    0    0  0.11627463392E+02 -0.26986351980E+02 -0.31939909602E+02  0.43400678837E+02  0.00000000000E+00 0.  1.
         11    1    4    4    0    0 -0.34065807916E+01  0.31897474428E+01  0.14425837292E+02  0.15161928086E+02  0.51100000000E-03 0. -1.
        -11    1    4    4    0    0 -0.48097856611E+01  0.23334772881E+02  0.16679271395E+02  0.29083393166E+02  0.51100000000E-03 0.  1.
        -12    1    4    4    0    0 -0.34110969389E+01  0.46183165551E+00  0.83480091479E+00  0.35419999114E+01  0.00000000000E+00 0.  1.
</event>
<event>
 8    1  0.6239251E-010  0.9118800E+02  0.7816164E-02  0.1184000E+00
        -11   -1    0    0    0    0  0.00000000000E+00  0.00000000000E+00  0.45593999997E+02  0.45594000000E+02  0.51100000000E-03 0. -1.
         11   -1    0    0    0    0 -0.00000000000E+00 -0.00000000000E+00 -0.45593999997E+02  0.45594000000E+02  0.51100000000E-03 0.  1.
         23    2    1    2    0    0  0.00000000000E+00  0.00000000000E+00  0.00000000000E+00  0.91188000000E+02  0.91188000000E+02 0.  0.
    9900012    2    3    3    0    0  0.19729346896E+02 -0.14436618285E+02  0.35860264868E+02  0.47787289489E+02  0.20000084098E+02 0.  0.
        -12    1    3    3    0    0 -0.19729346896E+02  0.14436618285E+02 -0.35860264868E+02  0.43400710511E+02  0.00000000000E+00 0.  1.
         11    1    4    4    0    0  0.49795704243E+01 -0.73275510121E+01  0.17607295905E+02  0.19710555416E+02  0.51100000000E-03 0. -1.
        -11    1    4    4    0    0  0.13702469748E+02  0.16936066220E+00  0.13960123252E+02  0.19561988695E+02  0.51100000000E-03 0.  1.
        -12    1    4    4    0    0  0.10473067237E+01 -0.72784279347E+01  0.42928457106E+01  0.85147453790E+01  0.00000000000E+00 0.  1.
</event>
<event>
 8    1  0.6239251E-010  0.9118800E+02  0.7816164E-02  0.1184000E+00
        -11   -1    0    0    0    0  0.00000000000E+00  0.00000000000E+00  0.45593999997E+02  0.45594000000E+02  0.51100000000E-03 0. -1.
         11   -1    0    0    0    0 -0.00000000000E+00 -0.00000000000E+00 -0.45593999997E+02  0.45594000000E+02  0.51100000000E-03 0.  1.
         23    2    1    2    0    0 -0.35527136788E-14 -0.71054273576E-14 -0.35527136788E-14  0.91188000000E+02  0.91188000000E+02 0.  0.
    9900012    2    3    3    0    0  0.30219677828E+02  0.17883577101E+02 -0.25506310218E+02  0.47787272830E+02  0.20000008139E+02 0.  0.
         12    1    3    3    0    0 -0.30219677828E+02 -0.17883577101E+02  0.25506310218E+02  0.43400727170E+02  0.00000000000E+00 0. -1.
         11    1    4    4    0    0  0.20408906434E+01 -0.23471832028E+01 -0.59634095106E+01  0.67258275965E+01  0.51100000000E-03 0. -1.
        -11    1    4    4    0    0  0.27593588185E+02  0.16497429635E+02 -0.18690990087E+02  0.37187691568E+02  0.51100000000E-03 0.  1.
         12    1    4    4    0    0  0.58519899968E+00  0.37333306685E+01 -0.85191062107E+00  0.38737536648E+01  0.00000000000E+00 0. -1.
</event>
<event>
 8    1  0.6239251E-010  0.9118800E+02  0.7816164E-02  0.1184000E+00
        -11   -1    0    0    0    0  0.00000000000E+00  0.00000000000E+00  0.45593999997E+02  0.45594000000E+02  0.51100000000E-03 0. -1.
         11   -1    0    0    0    0 -0.00000000000E+00 -0.00000000000E+00 -0.45593999997E+02  0.45594000000E+02  0.51100000000E-03 0.  1.
         23    2    1    2    0    0  0.17763568394E-14 -0.35527136788E-14  0.00000000000E+00  0.91188000000E+02  0.91188000000E+02 0.  0.
    9900012    2    3    3    0    0 -0.12202132255E+02  0.31284940346E+02 -0.27495151320E+02  0.47787275696E+02  0.20000021210E+02 0.  0.
         12    1    3    3    0    0  0.12202132255E+02 -0.31284940346E+02  0.27495151320E+02  0.43400724304E+02  0.00000000000E+00 0. -1.
         11    1    4    4    0    0  0.21305802456E+00  0.13318370712E+01  0.14906336147E+01  0.20102667834E+01  0.51100000000E-03 0. -1.
        -11    1    4    4    0    0 -0.15127022449E+02  0.27965940701E+02 -0.27728734691E+02  0.42187715929E+02  0.51100000000E-03 0.  1.
        -12    1    4    4    0    0  0.27118321696E+01  0.19871625732E+01 -0.12570502429E+01  0.35892929835E+01  0.00000000000E+00 0.  1.
</event>
<event>
 8    1  0.6239251E-010  0.9118800E+02  0.7816164E-02  0.1184000E+00
        -11   -1    0    0    0    0  0.00000000000E+00  0.00000000000E+00  0.45593999997E+02  0.45594000000E+02  0.51100000000E-03 0. -1.
         11   -1    0    0    0    0 -0.00000000000E+00 -0.00000000000E+00 -0.45593999997E+02  0.45594000000E+02  0.51100000000E-03 0.  1.
         23    2    1    2    0    0  0.00000000000E+00  0.00000000000E+00  0.00000000000E+00  0.91188000000E+02  0.91188000000E+02 0.  0.
    9900012    2    3    3    0    0  0.25883158894E+02  0.24802302633E+02 -0.24464895751E+02  0.47787271270E+02  0.20000001026E+02 0.  0.
         12    1    3    3    0    0 -0.25883158894E+02 -0.24802302633E+02  0.24464895751E+02  0.43400728730E+02  0.00000000000E+00 0. -1.
         11    1    4    4    0    0  0.35857727531E+00  0.10225850373E+02 -0.11220764434E+02  0.15185590152E+02  0.51100000000E-03 0. -1.
        -11    1    4    4    0    0  0.17077060917E+02  0.11665531392E+02 -0.76004200579E+01  0.22033543009E+02  0.51100000000E-03 0.  1.
         12    1    4    4    0    0  0.84475207016E+01  0.29109208675E+01 -0.56437112598E+01  0.10568138109E+02  0.00000000000E+00 0. -1.
</event>
<event>
 8    1  0.6239251E-010  0.9118800E+02  0.7816164E-02  0.1184000E+00
        -11   -1    0    0    0    0  0.00000000000E+00  0.00000000000E+00  0.45593999997E+02  0.45594000000E+02  0.51100000000E-03 0. -1.
         11   -1    0    0    0    0 -0.00000000000E+00 -0.00000000000E+00 -0.45593999997E+02  0.45594000000E+02  0.51100000000E-03 0.  1.
         23    2    1    2    0    0 -0.44408920985E-15  0.00000000000E+00  0.00000000000E+00  0.91188000000E+02  0.91188000000E+02 0.  0.
    9900012    2    3    3    0    0  0.11604055820E+01 -0.22775729773E+02  0.36926178998E+02  0.47787273011E+02  0.20000008964E+02 0.  0.
        -12    1    3    3    0    0 -0.11604055820E+01  0.22775729773E+02 -0.36926178998E+02  0.43400726989E+02  0.00000000000E+00 0.  1.
         11    1    4    4    0    0 -0.20932196963E+01  0.25864933455E+01  0.32992411787E+01  0.46857773250E+01  0.51100000000E-03 0.  1.
        -11    1    4    4    0    0  0.30117778904E+01 -0.20593820870E+01  0.49566359633E+01  0.61546812245E+01  0.51100000000E-03 0. -1.
         12    1    4    4    0    0  0.24184738781E+00 -0.23302841031E+02  0.28670301856E+02  0.36946814461E+02  0.00000000000E+00 0. -1.
</event>
<event>
 8    1  0.6239251E-010  0.9118800E+02  0.7816164E-02  0.1184000E+00
        -11   -1    0    0    0    0  0.00000000000E+00  0.00000000000E+00  0.45593999997E+02  0.45594000000E+02  0.51100000000E-03 0. -1.
         11   -1    0    0    0    0 -0.00000000000E+00 -0.00000000000E+00 -0.45593999997E+02  0.45594000000E+02  0.51100000000E-03 0.  1.
         23    2    1    2    0    0  0.00000000000E+00 -0.35527136788E-14  0.00000000000E+00  0.91188000000E+02  0.91188000000E+02 0.  0.
    9900012    2    3    3    0    0  0.22594249818E+02 -0.27262402448E+02 -0.25097496744E+02  0.47787273568E+02  0.20000011504E+02 0.  0.
         12    1    3    3    0    0 -0.22594249818E+02  0.27262402448E+02  0.25097496744E+02  0.43400726432E+02  0.00000000000E+00 0. -1.
         11    1    4    4    0    0 -0.13952437184E+01 -0.41578836288E+01 -0.41335961652E+01  0.60267170849E+01  0.51100000000E-03 0. -1.
        -11    1    4    4    0    0  0.13204125634E+02 -0.10808646850E+02 -0.27555643941E+01  0.17284933204E+02  0.51100000000E-03 0.  1.
        -12    1    4    4    0    0  0.10785367902E+02 -0.12295871969E+02 -0.18208336184E+02  0.24475623278E+02  0.00000000000E+00 0.  1.
</event>
<event>
 8    1  0.6239251E-010  0.9118800E+02  0.7816164E-02  0.1184000E+00
        -11   -1    0    0    0    0  0.00000000000E+00  0.00000000000E+00  0.45593999997E+02  0.45594000000E+02  0.51100000000E-03 0. -1.
         11   -1    0    0    0    0 -0.00000000000E+00 -0.00000000000E+00 -0.45593999997E+02  0.45594000000E+02  0.51100000000E-03 0.  1.
         23    2    1    2    0    0  0.17763568394E-14  0.00000000000E+00 -0.71054273576E-14  0.91188000000E+02  0.91188000000E+02 0.  0.
    9900012    2    3    3    0    0  0.12655942205E+02 -0.17480975080E+02 -0.37654561667E+02  0.47787269855E+02  0.19999994576E+02 0.  0.
         12    1    3    3    0    0 -0.12655942205E+02  0.17480975080E+02  0.37654561667E+02  0.43400730145E+02  0.00000000000E+00 0. -1.
         11    1    4    4    0    0  0.53446323222E+01  0.19740628775E+01 -0.79954764273E+01  0.98178237133E+01  0.51100000000E-03 0. -1.
        -11    1    4    4    0    0  0.78521156690E+01 -0.14914240037E+02 -0.14826877738E+02  0.22448309070E+02  0.51100000000E-03 0.  1.
        -12    1    4    4    0    0 -0.54080578639E+00 -0.45407979205E+01 -0.14832207501E+02  0.15521137072E+02  0.00000000000E+00 0.  1.
</event>
<event>
 8    1  0.6239251E-010  0.9118800E+02  0.7816164E-02  0.1184000E+00
        -11   -1    0    0    0    0  0.00000000000E+00  0.00000000000E+00  0.45593999997E+02  0.45594000000E+02  0.51100000000E-03 0. -1.
         11   -1    0    0    0    0 -0.00000000000E+00 -0.00000000000E+00 -0.45593999997E+02  0.45594000000E+02  0.51100000000E-03 0.  1.
         23    2    1    2    0    0  0.00000000000E+00 -0.35527136788E-14  0.00000000000E+00  0.91188000000E+02  0.91188000000E+02 0.  0.
    9900012    2    3    3    0    0  0.19886740674E+02 -0.18596112676E+02 -0.33798306357E+02  0.47787269893E+02  0.19999994748E+02 0.  0.
         12    1    3    3    0    0 -0.19886740674E+02  0.18596112676E+02  0.33798306357E+02  0.43400730107E+02  0.00000000000E+00 0. -1.
         11    1    4    4    0    0  0.12634870348E+02 -0.23593090873E+01 -0.11999027488E+02  0.17583598864E+02  0.51100000000E-03 0. -1.
        -11    1    4    4    0    0  0.35707602830E+01 -0.14116144495E+02 -0.21471155435E+02  0.25942751982E+02  0.51100000000E-03 0.  1.
        -12    1    4    4    0    0  0.36811100425E+01 -0.21206590931E+01 -0.32812343329E+00  0.42609190466E+01  0.00000000000E+00 0.  1.
</event>
<event>
 8    1  0.6239251E-010  0.9118800E+02  0.7816164E-02  0.1184000E+00
        -11   -1    0    0    0    0  0.00000000000E+00  0.00000000000E+00  0.45593999997E+02  0.45594000000E+02  0.51100000000E-03 0.  1.
         11   -1    0    0    0    0 -0.00000000000E+00 -0.00000000000E+00 -0.45593999997E+02  0.45594000000E+02  0.51100000000E-03 0. -1.
         23    2    1    2    0    0  0.00000000000E+00  0.00000000000E+00  0.00000000000E+00  0.91188000000E+02  0.91188000000E+02 0.  0.
    9900012    2    3    3    0    0  0.16699976443E+02  0.39930206747E+02 -0.32113484291E+01  0.47787269790E+02  0.19999994281E+02 0.  0.
        -12    1    3    3    0    0 -0.16699976443E+02 -0.39930206747E+02  0.32113484291E+01  0.43400730210E+02  0.00000000000E+00 0.  1.
         11    1    4    4    0    0  0.15830595192E+02  0.24569632951E+02 -0.43311519295E+01  0.29547140044E+02  0.51100000000E-03 0. -1.
        -11    1    4    4    0    0 -0.19648618380E+01  0.14964826235E+02 -0.18632024670E+00  0.15094416908E+02  0.51100000000E-03 0.  1.
        -12    1    4    4    0    0  0.28342430889E+01  0.39574756015E+00  0.13061237472E+01  0.31457128383E+01  0.00000000000E+00 0.  1.
</event>
<event>
 8    1  0.6239251E-010  0.9118800E+02  0.7816164E-02  0.1184000E+00
        -11   -1    0    0    0    0  0.00000000000E+00  0.00000000000E+00  0.45593999997E+02  0.45594000000E+02  0.51100000000E-03 0. -1.
         11   -1    0    0    0    0 -0.00000000000E+00 -0.00000000000E+00 -0.45593999997E+02  0.45594000000E+02  0.51100000000E-03 0.  1.
         23    2    1    2    0    0  0.88817841970E-15  0.00000000000E+00  0.00000000000E+00  0.91188000000E+02  0.91188000000E+02 0.  0.
    9900012    2    3    3    0    0  0.51498790285E+01 -0.15437072977E+02 -0.40234288357E+02  0.47787280700E+02  0.20000044025E+02 0.  0.
         12    1    3    3    0    0 -0.51498790285E+01  0.15437072977E+02  0.40234288357E+02  0.43400719300E+02  0.00000000000E+00 0. -1.
         11    1    4    4    0    0  0.75704427668E+00 -0.11051832273E+02 -0.97993819889E+01  0.14789996628E+02  0.51100000000E-03 0. -1.
        -11    1    4    4    0    0  0.18044944976E+01  0.36120488740E+01 -0.13501971810E+02  0.14092776181E+02  0.51100000000E-03 0.  1.
        -12    1    4    4    0    0  0.25883402542E+01 -0.79972895775E+01 -0.16932934558E+02  0.18904507891E+02  0.00000000000E+00 0.  1.
</event>
<event>
 8    1  0.6239251E-010  0.9118800E+02  0.7816164E-02  0.1184000E+00
        -11   -1    0    0    0    0  0.00000000000E+00  0.00000000000E+00  0.45593999997E+02  0.45594000000E+02  0.51100000000E-03 0. -1.
         11   -1    0    0    0    0 -0.00000000000E+00 -0.00000000000E+00 -0.45593999997E+02  0.45594000000E+02  0.51100000000E-03 0.  1.
         23    2    1    2    0    0 -0.26645352591E-14  0.00000000000E+00 -0.71054273576E-14  0.91188000000E+02  0.91188000000E+02 0.  0.
    9900012    2    3    3    0    0 -0.69873462821E+01  0.18610867914E+02 -0.38580252449E+02  0.47787270840E+02  0.19999999068E+02 0.  0.
         12    1    3    3    0    0  0.69873462821E+01 -0.18610867914E+02  0.38580252449E+02  0.43400729160E+02  0.00000000000E+00 0. -1.
         11    1    4    4    0    0 -0.35142807490E+00  0.54435487819E+00  0.37879019762E-01  0.64904468759E+00  0.51100000000E-03 0. -1.
        -11    1    4    4    0    0  0.33589639161E+01 -0.47217925146E+00 -0.28964912533E+00  0.34043338133E+01  0.51100000000E-03 0.  1.
        -12    1    4    4    0    0 -0.99948821233E+01  0.18538692287E+02 -0.38328482344E+02  0.43733892339E+02  0.00000000000E+00 0.  1.
</event>
<event>
 8    1  0.6239251E-010  0.9118800E+02  0.7816164E-02  0.1184000E+00
        -11   -1    0    0    0    0  0.00000000000E+00  0.00000000000E+00  0.45593999997E+02  0.45594000000E+02  0.51100000000E-03 0. -1.
         11   -1    0    0    0    0 -0.00000000000E+00 -0.00000000000E+00 -0.45593999997E+02  0.45594000000E+02  0.51100000000E-03 0.  1.
         23    2    1    2    0    0  0.00000000000E+00 -0.71054273576E-14  0.35527136788E-14  0.91188000000E+02  0.91188000000E+02 0.  0.
    9900012    2    3    3    0    0  0.11546837151E+02 -0.33470643907E+02  0.25099996698E+02  0.47787270905E+02  0.19999999364E+02 0.  0.
        -12    1    3    3    0    0 -0.11546837151E+02  0.33470643907E+02 -0.25099996698E+02  0.43400729095E+02  0.00000000000E+00 0.  1.
         11    1    4    4    0    0 -0.18629920728E+00 -0.19102424746E+02  0.11451084816E+02  0.22272509564E+02  0.51100000000E-03 0. -1.
        -11    1    4    4    0    0  0.10378884863E+02 -0.11980571023E+02  0.52801877910E+01  0.16707355159E+02  0.51100000000E-03 0.  1.
        -12    1    4    4    0    0  0.13542514951E+01 -0.23876481383E+01  0.83687240910E+01  0.88074061821E+01  0.00000000000E+00 0.  1.
</event>
<event>
 8    1  0.6239251E-010  0.9118800E+02  0.7816164E-02  0.1184000E+00
        -11   -1    0    0    0    0  0.00000000000E+00  0.00000000000E+00  0.45593999997E+02  0.45594000000E+02  0.51100000000E-03 0. -1.
         11   -1    0    0    0    0 -0.00000000000E+00 -0.00000000000E+00 -0.45593999997E+02  0.45594000000E+02  0.51100000000E-03 0.  1.
         23    2    1    2    0    0  0.00000000000E+00  0.17763568394E-14  0.00000000000E+00  0.91188000000E+02  0.91188000000E+02 0.  0.
    9900012    2    3    3    0    0 -0.15792557866E+02 -0.15911465642E+02  0.37162395024E+02  0.47787271588E+02  0.20000002476E+02 0.  0.
        -12    1    3    3    0    0  0.15792557866E+02  0.15911465642E+02 -0.37162395024E+02  0.43400728412E+02  0.00000000000E+00 0.  1.
         11    1    4    4    0    0 -0.16327153842E+02 -0.49052219908E+01  0.16071229188E+02  0.23429075168E+02  0.51100000000E-03 0. -1.
        -11    1    4    4    0    0  0.45915642376E+00 -0.49922858986E+01  0.14925184500E+02  0.15744677695E+02  0.51100000000E-03 0.  1.
         12    1    4    4    0    0  0.75439552338E-01 -0.60139577526E+01  0.61659813361E+01  0.86135187242E+01  0.00000000000E+00 0. -1.
</event>
<event>
 8    1  0.6239251E-010  0.9118800E+02  0.7816164E-02  0.1184000E+00
        -11   -1    0    0    0    0  0.00000000000E+00  0.00000000000E+00  0.45593999997E+02  0.45594000000E+02  0.51100000000E-03 0. -1.
         11   -1    0    0    0    0 -0.00000000000E+00 -0.00000000000E+00 -0.45593999997E+02  0.45594000000E+02  0.51100000000E-03 0.  1.
         23    2    1    2    0    0  0.00000000000E+00  0.00000000000E+00  0.00000000000E+00  0.91188000000E+02  0.91188000000E+02 0.  0.
    9900012    2    3    3    0    0 -0.52389771641E+01  0.71832658057E+01  0.42480312176E+02  0.47787272910E+02  0.20000008507E+02 0.  0.
        -12    1    3    3    0    0  0.52389771641E+01 -0.71832658057E+01 -0.42480312176E+02  0.43400727090E+02  0.00000000000E+00 0.  1.
         11    1    4    4    0    0  0.28234339672E+01 -0.14694039382E+01  0.27383060621E+02  0.27567425279E+02  0.51100000000E-03 0. -1.
        -11    1    4    4    0    0 -0.17531701671E+01  0.22630003244E+01  0.25680295825E+00  0.28741475472E+01  0.51100000000E-03 0.  1.
         12    1    4    4    0    0 -0.63092409643E+01  0.63896694195E+01  0.14840448597E+02  0.17345700084E+02  0.00000000000E+00 0. -1.
</event>
<event>
 8    1  0.6239251E-010  0.9118800E+02  0.7816164E-02  0.1184000E+00
        -11   -1    0    0    0    0  0.00000000000E+00  0.00000000000E+00  0.45593999997E+02  0.45594000000E+02  0.51100000000E-03 0. -1.
         11   -1    0    0    0    0 -0.00000000000E+00 -0.00000000000E+00 -0.45593999997E+02  0.45594000000E+02  0.51100000000E-03 0.  1.
         23    2    1    2    0    0  0.00000000000E+00 -0.35527136788E-14  0.00000000000E+00  0.91188000000E+02  0.91188000000E+02 0.  0.
    9900012    2    3    3    0    0 -0.15517318160E+02  0.17125864492E+02 -0.36736097459E+02  0.47787271274E+02  0.20000001045E+02 0.  0.
         12    1    3    3    0    0  0.15517318160E+02 -0.17125864492E+02  0.36736097459E+02  0.43400728726E+02  0.00000000000E+00 0. -1.
         11    1    4    4    0    0 -0.14637884243E+02  0.77263676927E+01 -0.13671259793E+02  0.21467830757E+02  0.51100000000E-03 0. -1.
        -11    1    4    4    0    0  0.32431947278E+01  0.27129159383E+01 -0.12202747204E+02  0.12914536945E+02  0.51100000000E-03 0.  1.
         12    1    4    4    0    0 -0.41226286455E+01  0.66865808611E+01 -0.10862090461E+02  0.13404903571E+02  0.00000000000E+00 0. -1.
</event>
<event>
 8    1  0.6239251E-010  0.9118800E+02  0.7816164E-02  0.1184000E+00
        -11   -1    0    0    0    0  0.00000000000E+00  0.00000000000E+00  0.45593999997E+02  0.45594000000E+02  0.51100000000E-03 0. -1.
         11   -1    0    0    0    0 -0.00000000000E+00 -0.00000000000E+00 -0.45593999997E+02  0.45594000000E+02  0.51100000000E-03 0.  1.
         23    2    1    2    0    0  0.88817841970E-15  0.71054273576E-14 -0.71054273576E-14  0.91188000000E+02  0.91188000000E+02 0.  0.
    9900012    2    3    3    0    0 -0.44580272771E+01 -0.31553893474E+02  0.29463555000E+02  0.47787271045E+02  0.20000000002E+02 0.  0.
        -12    1    3    3    0    0  0.44580272771E+01  0.31553893474E+02 -0.29463555000E+02  0.43400728955E+02  0.00000000000E+00 0.  1.
         11    1    4    4    0    0 -0.63639828203E+01 -0.70395772927E+01  0.13615990992E+02  0.16596720663E+02  0.51100000000E-03 0. -1.
        -11    1    4    4    0    0 -0.45040286260E+00 -0.23516973177E+02  0.16266051464E+02  0.28597820208E+02  0.51100000000E-03 0.  1.
         12    1    4    4    0    0  0.23563584058E+01 -0.99734300435E+00 -0.41848745601E+00  0.25927301741E+01  0.00000000000E+00 0. -1.
</event>
<event>
 8    1  0.6239251E-010  0.9118800E+02  0.7816164E-02  0.1184000E+00
        -11   -1    0    0    0    0  0.00000000000E+00  0.00000000000E+00  0.45593999997E+02  0.45594000000E+02  0.51100000000E-03 0. -1.
         11   -1    0    0    0    0 -0.00000000000E+00 -0.00000000000E+00 -0.45593999997E+02  0.45594000000E+02  0.51100000000E-03 0.  1.
         23    2    1    2    0    0 -0.35527136788E-14 -0.13322676296E-14  0.00000000000E+00  0.91188000000E+02  0.91188000000E+02 0.  0.
    9900012    2    3    3    0    0 -0.30045856624E+02 -0.39456700418E+01 -0.31069301785E+02  0.47787270447E+02  0.19999997275E+02 0.  0.
         12    1    3    3    0    0  0.30045856624E+02  0.39456700418E+01  0.31069301785E+02  0.43400729553E+02  0.00000000000E+00 0. -1.
         11    1    4    4    0    0 -0.77228669363E+01 -0.38275150955E+01 -0.21088580565E+01  0.88735465337E+01  0.51100000000E-03 0. -1.
        -11    1    4    4    0    0 -0.21051275017E+02  0.40325670266E+01 -0.25811568515E+02  0.33550780112E+02  0.51100000000E-03 0.  1.
        -12    1    4    4    0    0 -0.12717146704E+01 -0.41507219729E+01 -0.31488752139E+01  0.53629438010E+01  0.00000000000E+00 0.  1.
</event>
<event>
 8    1  0.6239251E-010  0.9118800E+02  0.7816164E-02  0.1184000E+00
        -11   -1    0    0    0    0  0.00000000000E+00  0.00000000000E+00  0.45593999997E+02  0.45594000000E+02  0.51100000000E-03 0. -1.
         11   -1    0    0    0    0 -0.00000000000E+00 -0.00000000000E+00 -0.45593999997E+02  0.45594000000E+02  0.51100000000E-03 0.  1.
         23    2    1    2    0    0  0.00000000000E+00  0.00000000000E+00  0.00000000000E+00  0.91188000000E+02  0.91188000000E+02 0.  0.
    9900012    2    3    3    0    0 -0.18320734741E+02 -0.20411862826E+02  0.33635245603E+02  0.47787271754E+02  0.20000003235E+02 0.  0.
        -12    1    3    3    0    0  0.18320734741E+02  0.20411862826E+02 -0.33635245603E+02  0.43400728246E+02  0.00000000000E+00 0.  1.
         11    1    4    4    0    0 -0.66340654177E+01 -0.42710804067E+01  0.12279043080E+02  0.14595473649E+02  0.51100000000E-03 0. -1.
        -11    1    4    4    0    0 -0.14448897266E+02 -0.79724452308E+01  0.16303494974E+02  0.23197725401E+02  0.51100000000E-03 0.  1.
        -12    1    4    4    0    0  0.27622279421E+01 -0.81683371890E+01  0.50527075484E+01  0.99940727037E+01  0.00000000000E+00 0.  1.
</event>
<event>
 8    1  0.6239251E-010  0.9118800E+02  0.7816164E-02  0.1184000E+00
        -11   -1    0    0    0    0  0.00000000000E+00  0.00000000000E+00  0.45593999997E+02  0.45594000000E+02  0.51100000000E-03 0. -1.
         11   -1    0    0    0    0 -0.00000000000E+00 -0.00000000000E+00 -0.45593999997E+02  0.45594000000E+02  0.51100000000E-03 0.  1.
         23    2    1    2    0    0 -0.17763568394E-14 -0.71054273576E-14 -0.22204460493E-15  0.91188000000E+02  0.91188000000E+02 0.  0.
    9900012    2    3    3    0    0  0.13918969611E+02  0.41105163797E+02 -0.50065245518E+00  0.47787275828E+02  0.20000021809E+02 0.  0.
        -12    1    3    3    0    0 -0.13918969611E+02 -0.41105163797E+02  0.50065245518E+00  0.43400724172E+02  0.00000000000E+00 0.  1.
         11    1    4    4    0    0  0.40401721749E+01  0.26051268888E+02 -0.16176282900E+01  0.26412275999E+02  0.51100000000E-03 0. -1.
        -11    1    4    4    0    0  0.98589397833E+01  0.60707877565E+01  0.34734616377E+01  0.12087931736E+02  0.51100000000E-03 0.  1.
        -12    1    4    4    0    0  0.19857652855E-01  0.89831071519E+01 -0.23564858029E+01  0.92870680932E+01  0.00000000000E+00 0.  1.
</event>
<event>
 8    1  0.6239251E-010  0.9118800E+02  0.7816164E-02  0.1184000E+00
        -11   -1    0    0    0    0  0.00000000000E+00  0.00000000000E+00  0.45593999997E+02  0.45594000000E+02  0.51100000000E-03 0. -1.
         11   -1    0    0    0    0 -0.00000000000E+00 -0.00000000000E+00 -0.45593999997E+02  0.45594000000E+02  0.51100000000E-03 0.  1.
         23    2    1    2    0    0  0.00000000000E+00  0.00000000000E+00  0.35527136788E-14  0.91188000000E+02  0.91188000000E+02 0.  0.
    9900012    2    3    3    0    0 -0.41796985319E+01 -0.36907866357E+02 -0.22449113257E+02  0.47787272300E+02  0.20000005724E+02 0.  0.
         12    1    3    3    0    0  0.41796985319E+01  0.36907866357E+02  0.22449113257E+02  0.43400727700E+02  0.00000000000E+00 0. -1.
         11    1    4    4    0    0  0.19083696036E+01 -0.18036664419E+02 -0.27331469721E+01  0.18342116305E+02  0.51100000000E-03 0. -1.
        -11    1    4    4    0    0 -0.65912292099E+01 -0.18500352421E+02 -0.20535121896E+02  0.28414759786E+02  0.51100000000E-03 0.  1.
         12    1    4    4    0    0  0.50316107435E+00 -0.37084951755E+00  0.81915561096E+00  0.10303962084E+01  0.00000000000E+00 0. -1.
</event>
<event>
 8    1  0.6239251E-010  0.9118800E+02  0.7816164E-02  0.1184000E+00
        -11   -1    0    0    0    0  0.00000000000E+00  0.00000000000E+00  0.45593999997E+02  0.45594000000E+02  0.51100000000E-03 0. -1.
         11   -1    0    0    0    0 -0.00000000000E+00 -0.00000000000E+00 -0.45593999997E+02  0.45594000000E+02  0.51100000000E-03 0.  1.
         23    2    1    2    0    0  0.00000000000E+00 -0.22204460493E-15  0.00000000000E+00  0.91188000000E+02  0.91188000000E+02 0.  0.
    9900012    2    3    3    0    0  0.23607731171E+02  0.76631443763E+00  0.36410315156E+02  0.47787271221E+02  0.20000000804E+02 0.  0.
        -12    1    3    3    0    0 -0.23607731171E+02 -0.76631443763E+00 -0.36410315156E+02  0.43400728779E+02  0.00000000000E+00 0.  1.
         11    1    4    4    0    0 -0.13031392753E+01  0.32989433573E+01  0.10637383339E+01  0.37030715290E+01  0.51100000000E-03 0. -1.
        -11    1    4    4    0    0  0.14976569184E+02  0.24147678844E+01  0.18738563076E+02  0.24109385618E+02  0.51100000000E-03 0.  1.
         12    1    4    4    0    0  0.99343012615E+01 -0.49473968040E+01  0.16608013746E+02  0.19974814074E+02  0.00000000000E+00 0. -1.
</event>
<event>
 8    1  0.6239251E-010  0.9118800E+02  0.7816164E-02  0.1184000E+00
        -11   -1    0    0    0    0  0.00000000000E+00  0.00000000000E+00  0.45593999997E+02  0.45594000000E+02  0.51100000000E-03 0. -1.
         11   -1    0    0    0    0 -0.00000000000E+00 -0.00000000000E+00 -0.45593999997E+02  0.45594000000E+02  0.51100000000E-03 0.  1.
         23    2    1    2    0    0  0.00000000000E+00  0.00000000000E+00  0.71054273576E-14  0.91188000000E+02  0.91188000000E+02 0.  0.
    9900012    2    3    3    0    0 -0.13227104338E+02  0.42505189028E+01 -0.41116906471E+02  0.47787271920E+02  0.20000003992E+02 0.  0.
         12    1    3    3    0    0  0.13227104338E+02 -0.42505189028E+01  0.41116906471E+02  0.43400728080E+02  0.00000000000E+00 0. -1.
         11    1    4    4    0    0 -0.18832499154E+00 -0.18302493434E+01  0.40739222073E+00  0.18844754294E+01  0.51100000000E-03 0. -1.
        -11    1    4    4    0    0  0.21869052184E+01 -0.10671076008E+01 -0.29725919900E+01  0.38415591192E+01  0.51100000000E-03 0.  1.
        -12    1    4    4    0    0 -0.15225684565E+02  0.71478758470E+01 -0.38551706702E+02  0.42061237371E+02  0.00000000000E+00 0.  1.
</event>
<event>
 8    1  0.6239251E-010  0.9118800E+02  0.7816164E-02  0.1184000E+00
        -11   -1    0    0    0    0  0.00000000000E+00  0.00000000000E+00  0.45593999997E+02  0.45594000000E+02  0.51100000000E-03 0. -1.
         11   -1    0    0    0    0 -0.00000000000E+00 -0.00000000000E+00 -0.45593999997E+02  0.45594000000E+02  0.51100000000E-03 0.  1.
         23    2    1    2    0    0  0.00000000000E+00  0.00000000000E+00  0.00000000000E+00  0.91188000000E+02  0.91188000000E+02 0.  0.
    9900012    2    3    3    0    0  0.87917572894E+01  0.19945385817E+02  0.37530120339E+02  0.47787270233E+02  0.19999996299E+02 0.  0.
        -12    1    3    3    0    0 -0.87917572894E+01 -0.19945385817E+02 -0.37530120339E+02  0.43400729767E+02  0.00000000000E+00 0.  1.
         11    1    4    4    0    0 -0.40489886790E+00  0.14886976137E+02  0.17148921459E+02  0.22712804958E+02  0.51100000000E-03 0. -1.
        -11    1    4    4    0    0  0.21735464357E+01 -0.22756690771E+01  0.11937926902E+01  0.33657265344E+01  0.51100000000E-03 0.  1.
         12    1    4    4    0    0  0.70231097216E+01  0.73340787574E+01  0.19187406191E+02  0.21708738741E+02  0.00000000000E+00 0. -1.
</event>
<event>
 8    1  0.6239251E-010  0.9118800E+02  0.7816164E-02  0.1184000E+00
        -11   -1    0    0    0    0  0.00000000000E+00  0.00000000000E+00  0.45593999997E+02  0.45594000000E+02  0.51100000000E-03 0. -1.
         11   -1    0    0    0    0 -0.00000000000E+00 -0.00000000000E+00 -0.45593999997E+02  0.45594000000E+02  0.51100000000E-03 0.  1.
         23    2    1    2    0    0 -0.35527136788E-14  0.00000000000E+00 -0.35527136788E-14  0.91188000000E+02  0.91188000000E+02 0.  0.
    9900012    2    3    3    0    0 -0.26842235702E+02  0.15967223203E+02 -0.30135779492E+02  0.47787273740E+02  0.20000012290E+02 0.  0.
         12    1    3    3    0    0  0.26842235702E+02 -0.15967223203E+02  0.30135779492E+02  0.43400726260E+02  0.00000000000E+00 0. -1.
         11    1    4    4    0    0 -0.13128248509E+02  0.30555989771E+01 -0.68395171893E+01  0.15115111302E+02  0.51100000000E-03 0. -1.
        -11    1    4    4    0    0 -0.12121766656E+02  0.15378816899E+02 -0.17907606349E+02  0.26535402795E+02  0.51100000000E-03 0.  1.
        -12    1    4    4    0    0 -0.15922205367E+01 -0.24671926735E+01 -0.53886559538E+01  0.61367596428E+01  0.00000000000E+00 0.  1.
</event>
<event>
 8    1  0.6239251E-010  0.9118800E+02  0.7816164E-02  0.1184000E+00
        -11   -1    0    0    0    0  0.00000000000E+00  0.00000000000E+00  0.45593999997E+02  0.45594000000E+02  0.51100000000E-03 0. -1.
         11   -1    0    0    0    0 -0.00000000000E+00 -0.00000000000E+00 -0.45593999997E+02  0.45594000000E+02  0.51100000000E-03 0.  1.
         23    2    1    2    0    0  0.35527136788E-14  0.00000000000E+00  0.00000000000E+00  0.91188000000E+02  0.91188000000E+02 0.  0.
    9900012    2    3    3    0    0 -0.27324193826E+02  0.32866036668E+02  0.75389723657E+01  0.47787262232E+02  0.19999959819E+02 0.  0.
        -12    1    3    3    0    0  0.27324193826E+02 -0.32866036668E+02 -0.75389723657E+01  0.43400737768E+02  0.00000000000E+00 0.  1.
         11    1    4    4    0    0 -0.14372899805E+02  0.15532559792E+02  0.12448683916E+02  0.24552197335E+02  0.51100000000E-03 0. -1.
        -11    1    4    4    0    0 -0.37368720034E+01  0.10739969945E+02 -0.21429085948E+01  0.11571656074E+02  0.51100000000E-03 0.  1.
         12    1    4    4    0    0 -0.92144220173E+01  0.65935069318E+01 -0.27668029552E+01  0.11663408823E+02  0.00000000000E+00 0. -1.
</event>
<event>
 8    1  0.7643046E-010  0.9118800E+02  0.7816164E-02  0.1184000E+00
        -11   -1    0    0    0    0  0.00000000000E+00  0.00000000000E+00  0.45593999997E+02  0.45594000000E+02  0.51100000000E-03 0. -1.
         11   -1    0    0    0    0 -0.00000000000E+00 -0.00000000000E+00 -0.45593999997E+02  0.45594000000E+02  0.51100000000E-03 0.  1.
         23    2    1    2    0    0  0.00000000000E+00  0.00000000000E+00  0.00000000000E+00  0.91188000000E+02  0.91188000000E+02 0.  0.
    9900012    2    3    3    0    0 -0.10682646413E+02 -0.13341415041E+02  0.39893753236E+02  0.47787264558E+02  0.19999970426E+02 0.  0.
        -12    1    3    3    0    0  0.10682646413E+02  0.13341415041E+02 -0.39893753236E+02  0.43400735442E+02  0.00000000000E+00 0.  1.
         11    1    4    4    0    0 -0.73760654210E+01 -0.10980271624E+02  0.23852449405E+02  0.27274751125E+02  0.51100000000E-03 0. -1.
        -11    1    4    4    0    0 -0.24605474227E+01  0.48421966038E+01  0.81541934314E+01  0.97975523651E+01  0.51100000000E-03 0.  1.
        -12    1    4    4    0    0 -0.84603356933E+00 -0.72033400203E+01  0.78871103990E+01  0.10714961068E+02  0.00000000000E+00 0.  1.
</event>
<event>
 8    1  0.6239251E-010  0.9118800E+02  0.7816164E-02  0.1184000E+00
        -11   -1    0    0    0    0  0.00000000000E+00  0.00000000000E+00  0.45593999997E+02  0.45594000000E+02  0.51100000000E-03 0. -1.
         11   -1    0    0    0    0 -0.00000000000E+00 -0.00000000000E+00 -0.45593999997E+02  0.45594000000E+02  0.51100000000E-03 0.  1.
         23    2    1    2    0    0  0.00000000000E+00  0.35527136788E-14  0.00000000000E+00  0.91188000000E+02  0.91188000000E+02 0.  0.
    9900012    2    3    3    0    0 -0.27151695292E+02 -0.21666977018E+02 -0.26018280365E+02  0.47787270012E+02  0.19999995292E+02 0.  0.
         12    1    3    3    0    0  0.27151695292E+02  0.21666977018E+02  0.26018280365E+02  0.43400729988E+02  0.00000000000E+00 0. -1.
         11    1    4    4    0    0 -0.21415767727E+02 -0.76507249173E+01 -0.16245566837E+02  0.27947936260E+02  0.51100000000E-03 0.  1.
        -11    1    4    4    0    0  0.66958706401E+00 -0.52780317681E+01 -0.10929736335E+00  0.53214577285E+01  0.51100000000E-03 0. -1.
        -12    1    4    4    0    0 -0.64055146294E+01 -0.87382203325E+01 -0.96634161647E+01  0.14517876023E+02  0.00000000000E+00 0.  1.
</event>
<event>
 8    1  0.6239251E-010  0.9118800E+02  0.7816164E-02  0.1184000E+00
        -11   -1    0    0    0    0  0.00000000000E+00  0.00000000000E+00  0.45593999997E+02  0.45594000000E+02  0.51100000000E-03 0. -1.
         11   -1    0    0    0    0 -0.00000000000E+00 -0.00000000000E+00 -0.45593999997E+02  0.45594000000E+02  0.51100000000E-03 0.  1.
         23    2    1    2    0    0  0.00000000000E+00  0.00000000000E+00 -0.35527136788E-14  0.91188000000E+02  0.91188000000E+02 0.  0.
    9900012    2    3    3    0    0  0.86099789961E+01 -0.33643859150E+02 -0.26030413985E+02  0.47787269026E+02  0.19999990798E+02 0.  0.
         12    1    3    3    0    0 -0.86099789961E+01  0.33643859150E+02  0.26030413985E+02  0.43400730974E+02  0.00000000000E+00 0. -1.
         11    1    4    4    0    0  0.84406825144E+00 -0.28271838526E+02 -0.17492572660E+02  0.33256569326E+02  0.51100000000E-03 0. -1.
        -11    1    4    4    0    0  0.76277483576E+01 -0.52663770321E+01 -0.96643012526E+01  0.13390892092E+02  0.51100000000E-03 0.  1.
         12    1    4    4    0    0  0.13816238702E+00 -0.10564359259E+00  0.11264599279E+01  0.11398076079E+01  0.00000000000E+00 0. -1.
</event>
<event>
 8    1  0.6239251E-010  0.9118800E+02  0.7816164E-02  0.1184000E+00
        -11   -1    0    0    0    0  0.00000000000E+00  0.00000000000E+00  0.45593999997E+02  0.45594000000E+02  0.51100000000E-03 0. -1.
         11   -1    0    0    0    0 -0.00000000000E+00 -0.00000000000E+00 -0.45593999997E+02  0.45594000000E+02  0.51100000000E-03 0.  1.
         23    2    1    2    0    0  0.00000000000E+00  0.00000000000E+00  0.00000000000E+00  0.91188000000E+02  0.91188000000E+02 0.  0.
    9900012    2    3    3    0    0  0.16212596004E+02  0.39461028221E+02  0.79751060440E+01  0.47787270353E+02  0.19999996849E+02 0.  0.
        -12    1    3    3    0    0 -0.16212596004E+02 -0.39461028221E+02 -0.79751060440E+01  0.43400729647E+02  0.00000000000E+00 0.  1.
         11    1    4    4    0    0  0.10698407315E+02  0.17193515943E+02  0.10609803795E+02  0.22861339558E+02  0.51100000000E-03 0. -1.
        -11    1    4    4    0    0 -0.85162463427E+00  0.15223660578E+02 -0.23499144301E+01  0.15427482102E+02  0.51100000000E-03 0.  1.
         12    1    4    4    0    0  0.63658133229E+01  0.70438517002E+01 -0.28478332130E+00  0.94984486932E+01  0.00000000000E+00 0. -1.
</event>
<event>
 8    1  0.6239251E-010  0.9118800E+02  0.7816164E-02  0.1184000E+00
        -11   -1    0    0    0    0  0.00000000000E+00  0.00000000000E+00  0.45593999997E+02  0.45594000000E+02  0.51100000000E-03 0. -1.
         11   -1    0    0    0    0 -0.00000000000E+00 -0.00000000000E+00 -0.45593999997E+02  0.45594000000E+02  0.51100000000E-03 0.  1.
         23    2    1    2    0    0  0.00000000000E+00  0.00000000000E+00  0.00000000000E+00  0.91188000000E+02  0.91188000000E+02 0.  0.
    9900012    2    3    3    0    0  0.43970000221E+01  0.23607181285E+02 -0.36152344931E+02  0.47787255059E+02  0.19999927116E+02 0.  0.
         12    1    3    3    0    0 -0.43970000221E+01 -0.23607181285E+02  0.36152344931E+02  0.43400744941E+02  0.00000000000E+00 0. -1.
         11    1    4    4    0    0  0.65664286084E+01  0.16247182625E+02 -0.31029519697E+02  0.35635937210E+02  0.51100000000E-03 0. -1.
        -11    1    4    4    0    0  0.10883231699E+01  0.34642231260E+01 -0.59848726644E+01  0.70002850127E+01  0.51100000000E-03 0.  1.
         12    1    4    4    0    0 -0.32577517562E+01  0.38957755334E+01  0.86204743025E+00  0.51510328366E+01  0.00000000000E+00 0. -1.
</event>
<event>
 8    1  0.6239251E-010  0.9118800E+02  0.7816164E-02  0.1184000E+00
        -11   -1    0    0    0    0  0.00000000000E+00  0.00000000000E+00  0.45593999997E+02  0.45594000000E+02  0.51100000000E-03 0. -1.
         11   -1    0    0    0    0 -0.00000000000E+00 -0.00000000000E+00 -0.45593999997E+02  0.45594000000E+02  0.51100000000E-03 0.  1.
         23    2    1    2    0    0  0.00000000000E+00  0.00000000000E+00  0.00000000000E+00  0.91188000000E+02  0.91188000000E+02 0.  0.
    9900012    2    3    3    0    0  0.17904599562E+02  0.15398419044E+02  0.36413418640E+02  0.47787273605E+02  0.20000011675E+02 0.  0.
        -12    1    3    3    0    0 -0.17904599562E+02 -0.15398419044E+02 -0.36413418640E+02  0.43400726395E+02  0.00000000000E+00 0.  1.
         11    1    4    4    0    0  0.14926146074E+02  0.12714277464E+02  0.23907752486E+02  0.30919626732E+02  0.51100000000E-03 0. -1.
        -11    1    4    4    0    0 -0.35582344975E+01 -0.11361160860E+01  0.37577400114E+01  0.52983396224E+01  0.51100000000E-03 0.  1.
        -12    1    4    4    0    0  0.65366879853E+01  0.38202576665E+01  0.87479261430E+01  0.11569307251E+02  0.00000000000E+00 0.  1.
</event>
<event>
 8    1  0.6239251E-010  0.9118800E+02  0.7816164E-02  0.1184000E+00
        -11   -1    0    0    0    0  0.00000000000E+00  0.00000000000E+00  0.45593999997E+02  0.45594000000E+02  0.51100000000E-03 0.  1.
         11   -1    0    0    0    0 -0.00000000000E+00 -0.00000000000E+00 -0.45593999997E+02  0.45594000000E+02  0.51100000000E-03 0. -1.
         23    2    1    2    0    0 -0.71054273576E-14  0.00000000000E+00  0.00000000000E+00  0.91188000000E+02  0.91188000000E+02 0.  0.
    9900012    2    3    3    0    0 -0.37253087617E+02 -0.15782456944E+02  0.15708066034E+02  0.47787287763E+02  0.20000076225E+02 0.  0.
        -12    1    3    3    0    0  0.37253087617E+02  0.15782456944E+02 -0.15708066034E+02  0.43400712237E+02  0.00000000000E+00 0.  1.
         11    1    4    4    0    0 -0.24562837371E+02 -0.58821985553E+01  0.15153625572E+02  0.29454466687E+02  0.51100000000E-03 0. -1.
        -11    1    4    4    0    0  0.12226444249E+01 -0.54947308161E+00 -0.71935426936E+00  0.15212662104E+01  0.51100000000E-03 0.  1.
         12    1    4    4    0    0 -0.13912894671E+02 -0.93507853070E+01  0.12737947311E+01  0.16811554865E+02  0.00000000000E+00 0. -1.
</event>
<event>
 8    1  0.6239251E-010  0.9118800E+02  0.7816164E-02  0.1184000E+00
        -11   -1    0    0    0    0  0.00000000000E+00  0.00000000000E+00  0.45593999997E+02  0.45594000000E+02  0.51100000000E-03 0. -1.
         11   -1    0    0    0    0 -0.00000000000E+00 -0.00000000000E+00 -0.45593999997E+02  0.45594000000E+02  0.51100000000E-03 0.  1.
         23    2    1    2    0    0  0.71054273576E-14  0.35527136788E-14  0.00000000000E+00  0.91188000000E+02  0.91188000000E+02 0.  0.
    9900012    2    3    3    0    0 -0.29726365546E+02 -0.26834953172E+02  0.16728776897E+02  0.47787268476E+02  0.19999988290E+02 0.  0.
        -12    1    3    3    0    0  0.29726365546E+02  0.26834953172E+02 -0.16728776897E+02  0.43400731524E+02  0.00000000000E+00 0.  1.
         11    1    4    4    0    0 -0.28716557988E+01 -0.31580233069E+01  0.22683448714E+01  0.48337259904E+01  0.51100000000E-03 0. -1.
        -11    1    4    4    0    0 -0.88733031456E+01 -0.20562083078E+01 -0.33066995477E+01  0.96900858344E+01  0.51100000000E-03 0.  1.
        -12    1    4    4    0    0 -0.17981406602E+02 -0.21620721558E+02  0.17767131573E+02  0.33263456651E+02  0.00000000000E+00 0.  1.
</event>
<event>
 8    1  0.6239251E-010  0.9118800E+02  0.7816164E-02  0.1184000E+00
        -11   -1    0    0    0    0  0.00000000000E+00  0.00000000000E+00  0.45593999997E+02  0.45594000000E+02  0.51100000000E-03 0. -1.
         11   -1    0    0    0    0 -0.00000000000E+00 -0.00000000000E+00 -0.45593999997E+02  0.45594000000E+02  0.51100000000E-03 0.  1.
         23    2    1    2    0    0  0.00000000000E+00  0.13322676296E-14  0.00000000000E+00  0.91188000000E+02  0.91188000000E+02 0.  0.
    9900012    2    3    3    0    0 -0.16155019047E+02 -0.19447276646E+01  0.40235014694E+02  0.47787274044E+02  0.20000013674E+02 0.  0.
        -12    1    3    3    0    0  0.16155019047E+02  0.19447276646E+01 -0.40235014694E+02  0.43400725956E+02  0.00000000000E+00 0.  1.
         11    1    4    4    0    0 -0.29582217233E+01  0.42052322848E+01  0.21677492065E+02  0.22278885000E+02  0.51100000000E-03 0. -1.
        -11    1    4    4    0    0 -0.12301659157E+01  0.44639648125E+00 -0.10023116699E+01  0.16483952631E+01  0.51100000000E-03 0.  1.
         12    1    4    4    0    0 -0.11966631408E+02 -0.65963564306E+01  0.19559834299E+02  0.23859993781E+02  0.00000000000E+00 0. -1.
</event>
<event>
 8    1  0.6239251E-010  0.9118800E+02  0.7816164E-02  0.1184000E+00
        -11   -1    0    0    0    0  0.00000000000E+00  0.00000000000E+00  0.45593999997E+02  0.45594000000E+02  0.51100000000E-03 0. -1.
         11   -1    0    0    0    0 -0.00000000000E+00 -0.00000000000E+00 -0.45593999997E+02  0.45594000000E+02  0.51100000000E-03 0.  1.
         23    2    1    2    0    0  0.00000000000E+00  0.00000000000E+00  0.35527136788E-14  0.91188000000E+02  0.91188000000E+02 0.  0.
    9900012    2    3    3    0    0  0.20337654066E+02  0.27590151592E+02 -0.26623053659E+02  0.47787267012E+02  0.19999981615E+02 0.  0.
         12    1    3    3    0    0 -0.20337654066E+02 -0.27590151592E+02  0.26623053659E+02  0.43400732988E+02  0.00000000000E+00 0. -1.
         11    1    4    4    0    0  0.13633529420E+02  0.20775082453E+02 -0.14918204921E+02  0.28983271273E+02  0.51100000000E-03 0. -1.
        -11    1    4    4    0    0  0.77696878693E+01  0.10330553883E+01 -0.99538219386E+01  0.12669405056E+02  0.51100000000E-03 0.  1.
        -12    1    4    4    0    0 -0.10655632232E+01  0.57820137507E+01 -0.17510267988E+01  0.61345906829E+01  0.00000000000E+00 0.  1.
</event>
<event>
 8    1  0.6239251E-010  0.9118800E+02  0.7816164E-02  0.1184000E+00
        -11   -1    0    0    0    0  0.00000000000E+00  0.00000000000E+00  0.45593999997E+02  0.45594000000E+02  0.51100000000E-03 0. -1.
         11   -1    0    0    0    0 -0.00000000000E+00 -0.00000000000E+00 -0.45593999997E+02  0.45594000000E+02  0.51100000000E-03 0.  1.
         23    2    1    2    0    0  0.00000000000E+00 -0.35527136788E-14  0.71054273576E-14  0.91188000000E+02  0.91188000000E+02 0.  0.
    9900012    2    3    3    0    0 -0.21769316219E+01 -0.20874300027E+02  0.37988750399E+02  0.47787301967E+02  0.20000140986E+02 0.  0.
        -12    1    3    3    0    0  0.21769316219E+01  0.20874300027E+02 -0.37988750399E+02  0.43400698033E+02  0.00000000000E+00 0.  1.
         11    1    4    4    0    0  0.27893237870E+01 -0.53108567378E+01  0.38868917742E+01  0.71479685508E+01  0.51100000000E-03 0. -1.
        -11    1    4    4    0    0 -0.21732006687E+01  0.25756495569E+01  0.29282761874E+01  0.44644790824E+01  0.51100000000E-03 0.  1.
        -12    1    4    4    0    0 -0.27930547401E+01 -0.18139092846E+02  0.31173582438E+02  0.36174854333E+02  0.00000000000E+00 0.  1.
</event>
<event>
 8    1  0.6239251E-010  0.9118800E+02  0.7816164E-02  0.1184000E+00
        -11   -1    0    0    0    0  0.00000000000E+00  0.00000000000E+00  0.45593999997E+02  0.45594000000E+02  0.51100000000E-03 0. -1.
         11   -1    0    0    0    0 -0.00000000000E+00 -0.00000000000E+00 -0.45593999997E+02  0.45594000000E+02  0.51100000000E-03 0.  1.
         23    2    1    2    0    0  0.00000000000E+00  0.00000000000E+00  0.00000000000E+00  0.91188000000E+02  0.91188000000E+02 0.  0.
    9900012    2    3    3    0    0  0.89038782238E+01  0.21113677489E+02  0.36858603092E+02  0.47787273665E+02  0.20000011947E+02 0.  0.
        -12    1    3    3    0    0 -0.89038782238E+01 -0.21113677489E+02 -0.36858603092E+02  0.43400726335E+02  0.00000000000E+00 0.  1.
         11    1    4    4    0    0 -0.23337122662E+01 -0.25504515410E+01  0.54897285074E+01  0.64875369248E+01  0.51100000000E-03 0. -1.
        -11    1    4    4    0    0  0.69518771155E+01  0.13672877626E+02  0.13765377894E+02  0.20609750286E+02  0.51100000000E-03 0.  1.
        -12    1    4    4    0    0  0.42857133745E+01  0.99912514035E+01  0.17603496691E+02  0.20689986454E+02  0.00000000000E+00 0.  1.
</event>
<event>
 8    1  0.6239251E-010  0.9118800E+02  0.7816164E-02  0.1184000E+00
        -11   -1    0    0    0    0  0.00000000000E+00  0.00000000000E+00  0.45593999997E+02  0.45594000000E+02  0.51100000000E-03 0. -1.
         11   -1    0    0    0    0 -0.00000000000E+00 -0.00000000000E+00 -0.45593999997E+02  0.45594000000E+02  0.51100000000E-03 0.  1.
         23    2    1    2    0    0  0.00000000000E+00  0.66613381478E-15  0.35527136788E-14  0.91188000000E+02  0.91188000000E+02 0.  0.
    9900012    2    3    3    0    0 -0.33340404707E+02  0.19926355252E+01 -0.27714081782E+02  0.47787268309E+02  0.19999987526E+02 0.  0.
         12    1    3    3    0    0  0.33340404707E+02 -0.19926355252E+01  0.27714081782E+02  0.43400731691E+02  0.00000000000E+00 0. -1.
         11    1    4    4    0    0 -0.44735261558E+01 -0.36137472377E+01 -0.47861766699E+01  0.74819177182E+01  0.51100000000E-03 0. -1.
        -11    1    4    4    0    0 -0.24788338824E+02  0.98628539985E+01 -0.15614974244E+02  0.30912215248E+02  0.51100000000E-03 0.  1.
        -12    1    4    4    0    0 -0.40785397273E+01 -0.42564712356E+01 -0.73129308677E+01  0.93931353425E+01  0.00000000000E+00 0.  1.
</event>
<event>
 8    1  0.6239251E-010  0.9118800E+02  0.7816164E-02  0.1184000E+00
        -11   -1    0    0    0    0  0.00000000000E+00  0.00000000000E+00  0.45593999997E+02  0.45594000000E+02  0.51100000000E-03 0.  1.
         11   -1    0    0    0    0 -0.00000000000E+00 -0.00000000000E+00 -0.45593999997E+02  0.45594000000E+02  0.51100000000E-03 0. -1.
         23    2    1    2    0    0 -0.71054273576E-14  0.00000000000E+00  0.00000000000E+00  0.91188000000E+02  0.91188000000E+02 0.  0.
    9900012    2    3    3    0    0 -0.28745385971E+02 -0.31817381688E+02 -0.67067739946E+01  0.47787264874E+02  0.19999971865E+02 0.  0.
        -12    1    3    3    0    0  0.28745385971E+02  0.31817381688E+02  0.67067739946E+01  0.43400735126E+02  0.00000000000E+00 0.  1.
         11    1    4    4    0    0 -0.11271297351E+02 -0.11268741687E+02 -0.86622723757E+01  0.18140056399E+02  0.51100000000E-03 0. -1.
        -11    1    4    4    0    0 -0.27707507444E+01 -0.12186295591E+02  0.24032546346E+01  0.12726291408E+02  0.51100000000E-03 0.  1.
        -12    1    4    4    0    0 -0.14703337875E+02 -0.83623444107E+01 -0.44775625354E+00  0.16920917067E+02  0.00000000000E+00 0.  1.
</event>
<event>
 8    1  0.6239251E-010  0.9118800E+02  0.7816164E-02  0.1184000E+00
        -11   -1    0    0    0    0  0.00000000000E+00  0.00000000000E+00  0.45593999997E+02  0.45594000000E+02  0.51100000000E-03 0. -1.
         11   -1    0    0    0    0 -0.00000000000E+00 -0.00000000000E+00 -0.45593999997E+02  0.45594000000E+02  0.51100000000E-03 0.  1.
         23    2    1    2    0    0  0.17763568394E-14 -0.35527136788E-14  0.00000000000E+00  0.91188000000E+02  0.91188000000E+02 0.  0.
    9900012    2    3    3    0    0 -0.13677653341E+02  0.24753580635E+02 -0.32921167815E+02  0.47787294413E+02  0.20000106545E+02 0.  0.
         12    1    3    3    0    0  0.13677653341E+02 -0.24753580635E+02  0.32921167815E+02  0.43400705587E+02  0.00000000000E+00 0. -1.
         11    1    4    4    0    0 -0.72557679548E+01  0.58230206647E+01 -0.68754043735E+01  0.11568272293E+02  0.51100000000E-03 0. -1.
        -11    1    4    4    0    0 -0.19778671461E+01  0.70498294903E+01 -0.82159472923E-01  0.73224862396E+01  0.51100000000E-03 0.  1.
        -12    1    4    4    0    0 -0.44440182401E+01  0.11880730480E+02 -0.25963603968E+02  0.28896535881E+02  0.00000000000E+00 0.  1.
</event>
<event>
 8    1  0.6239251E-010  0.9118800E+02  0.7816164E-02  0.1184000E+00
        -11   -1    0    0    0    0  0.00000000000E+00  0.00000000000E+00  0.45593999997E+02  0.45594000000E+02  0.51100000000E-03 0. -1.
         11   -1    0    0    0    0 -0.00000000000E+00 -0.00000000000E+00 -0.45593999997E+02  0.45594000000E+02  0.51100000000E-03 0.  1.
         23    2    1    2    0    0 -0.35527136788E-14  0.44408920985E-15  0.00000000000E+00  0.91188000000E+02  0.91188000000E+02 0.  0.
    9900012    2    3    3    0    0 -0.31672737817E+02 -0.35880712336E+01  0.29454824786E+02  0.47787270983E+02  0.19999999721E+02 0.  0.
        -12    1    3    3    0    0  0.31672737817E+02  0.35880712336E+01 -0.29454824786E+02  0.43400729017E+02  0.00000000000E+00 0.  1.
         11    1    4    4    0    0 -0.89854538944E+01 -0.46326773516E+01  0.17437410629E+02  0.20155976058E+02  0.51100000000E-03 0. -1.
        -11    1    4    4    0    0 -0.61710679030E+00 -0.24468487745E+01  0.95441011114E+00  0.26979230229E+01  0.51100000000E-03 0.  1.
         12    1    4    4    0    0 -0.22070177132E+02  0.34914548926E+01  0.11063004046E+02  0.24933371902E+02  0.00000000000E+00 0. -1.
</event>
<event>
 8    1  0.6239251E-010  0.9118800E+02  0.7816164E-02  0.1184000E+00
        -11   -1    0    0    0    0  0.00000000000E+00  0.00000000000E+00  0.45593999997E+02  0.45594000000E+02  0.51100000000E-03 0. -1.
         11   -1    0    0    0    0 -0.00000000000E+00 -0.00000000000E+00 -0.45593999997E+02  0.45594000000E+02  0.51100000000E-03 0.  1.
         23    2    1    2    0    0  0.00000000000E+00  0.00000000000E+00  0.00000000000E+00  0.91188000000E+02  0.91188000000E+02 0.  0.
    9900012    2    3    3    0    0 -0.28284692817E+02 -0.42958090728E+01  0.32636566464E+02  0.47787270813E+02  0.19999998947E+02 0.  0.
        -12    1    3    3    0    0  0.28284692817E+02  0.42958090728E+01 -0.32636566464E+02  0.43400729187E+02  0.00000000000E+00 0.  1.
         11    1    4    4    0    0 -0.15448796492E+02 -0.83363785860E+01  0.92867898048E+01  0.19859632074E+02  0.51100000000E-03 0. -1.
        -11    1    4    4    0    0 -0.10054901881E+02  0.53292612228E+01  0.13738811497E+02  0.17839759489E+02  0.51100000000E-03 0.  1.
         12    1    4    4    0    0 -0.27809944445E+01 -0.12886917095E+01  0.96109651620E+01  0.10087879250E+02  0.00000000000E+00 0. -1.
</event>
<event>
 8    1  0.6239251E-010  0.9118800E+02  0.7816164E-02  0.1184000E+00
        -11   -1    0    0    0    0  0.00000000000E+00  0.00000000000E+00  0.45593999997E+02  0.45594000000E+02  0.51100000000E-03 0.  1.
         11   -1    0    0    0    0 -0.00000000000E+00 -0.00000000000E+00 -0.45593999997E+02  0.45594000000E+02  0.51100000000E-03 0. -1.
         23    2    1    2    0    0 -0.71054273576E-14  0.35527136788E-14 -0.35527136788E-14  0.91188000000E+02  0.91188000000E+02 0.  0.
    9900012    2    3    3    0    0  0.34548712956E+02 -0.20423762180E+02  0.16519062535E+02  0.47787273560E+02  0.20000011470E+02 0.  0.
        -12    1    3    3    0    0 -0.34548712956E+02  0.20423762180E+02 -0.16519062535E+02  0.43400726440E+02  0.00000000000E+00 0.  1.
         11    1    4    4    0    0  0.14939203114E+02 -0.88134693515E+01  0.38210045337E+01  0.17761112229E+02  0.51100000000E-03 0. -1.
        -11    1    4    4    0    0  0.13232049072E+01  0.31736553048E+00  0.74480165816E+01  0.75712973372E+01  0.51100000000E-03 0.  1.
        -12    1    4    4    0    0  0.18286304935E+02 -0.11927658359E+02  0.52500414193E+01  0.22454863994E+02  0.00000000000E+00 0.  1.
</event>
<event>
 8    1  0.6239251E-010  0.9118800E+02  0.7816164E-02  0.1184000E+00
        -11   -1    0    0    0    0  0.00000000000E+00  0.00000000000E+00  0.45593999997E+02  0.45594000000E+02  0.51100000000E-03 0.  1.
         11   -1    0    0    0    0 -0.00000000000E+00 -0.00000000000E+00 -0.45593999997E+02  0.45594000000E+02  0.51100000000E-03 0. -1.
         23    2    1    2    0    0  0.00000000000E+00  0.00000000000E+00 -0.35527136788E-14  0.91188000000E+02  0.91188000000E+02 0.  0.
    9900012    2    3    3    0    0 -0.82721913398E+01  0.38827262478E+02 -0.17539609726E+02  0.47787269932E+02  0.19999994929E+02 0.  0.
         12    1    3    3    0    0  0.82721913398E+01 -0.38827262478E+02  0.17539609726E+02  0.43400730068E+02  0.00000000000E+00 0. -1.
         11    1    4    4    0    0 -0.32369839879E+00 -0.94996457983E+00 -0.24302051193E+01  0.26292794715E+01  0.51100000000E-03 0. -1.
        -11    1    4    4    0    0 -0.35129596218E+01  0.26044977786E+02 -0.32533855035E+01  0.26481432564E+02  0.51100000000E-03 0.  1.
        -12    1    4    4    0    0 -0.44355333192E+01  0.13732249272E+02 -0.11856019103E+02  0.18676557897E+02  0.00000000000E+00 0.  1.
</event>
<event>
 8    1  0.6239251E-010  0.9118800E+02  0.7816164E-02  0.1184000E+00
        -11   -1    0    0    0    0  0.00000000000E+00  0.00000000000E+00  0.45593999997E+02  0.45594000000E+02  0.51100000000E-03 0. -1.
         11   -1    0    0    0    0 -0.00000000000E+00 -0.00000000000E+00 -0.45593999997E+02  0.45594000000E+02  0.51100000000E-03 0.  1.
         23    2    1    2    0    0 -0.71054273576E-14  0.13322676296E-14  0.00000000000E+00  0.91188000000E+02  0.91188000000E+02 0.  0.
    9900012    2    3    3    0    0  0.29476770599E+02 -0.27794515628E+01 -0.31733548856E+02  0.47787268682E+02  0.19999989229E+02 0.  0.
         12    1    3    3    0    0 -0.29476770599E+02  0.27794515628E+01  0.31733548856E+02  0.43400731318E+02  0.00000000000E+00 0. -1.
         11    1    4    4    0    0  0.50258076746E+01  0.25499710849E+01  0.88349213948E+00  0.57045292477E+01  0.51100000000E-03 0. -1.
        -11    1    4    4    0    0  0.49591843049E+01  0.11551172254E+01 -0.11726877319E+02  0.12784657081E+02  0.51100000000E-03 0.  1.
         12    1    4    4    0    0  0.19491778619E+02 -0.64845398731E+01 -0.20890163677E+02  0.29298082353E+02  0.00000000000E+00 0. -1.
</event>
<event>
 8    1  0.6239251E-010  0.9118800E+02  0.7816164E-02  0.1184000E+00
        -11   -1    0    0    0    0  0.00000000000E+00  0.00000000000E+00  0.45593999997E+02  0.45594000000E+02  0.51100000000E-03 0. -1.
         11   -1    0    0    0    0 -0.00000000000E+00 -0.00000000000E+00 -0.45593999997E+02  0.45594000000E+02  0.51100000000E-03 0.  1.
         23    2    1    2    0    0  0.35527136788E-14  0.00000000000E+00 -0.17763568394E-14  0.91188000000E+02  0.91188000000E+02 0.  0.
    9900012    2    3    3    0    0  0.30487032446E+02  0.28175757970E+02 -0.12660577834E+02  0.47787277476E+02  0.20000029323E+02 0.  0.
         12    1    3    3    0    0 -0.30487032446E+02 -0.28175757970E+02  0.12660577834E+02  0.43400722524E+02  0.00000000000E+00 0. -1.
         11    1    4    4    0    0  0.16714699996E+02  0.13268066824E+02 -0.17521703853E+01  0.21412447187E+02  0.51100000000E-03 0.  1.
        -11    1    4    4    0    0 -0.68452267416E+00  0.53473479636E+01  0.81215909706E+00  0.54518165959E+01  0.51100000000E-03 0. -1.
        -12    1    4    4    0    0  0.14456855124E+02  0.95603431822E+01 -0.11720566546E+02  0.20923013693E+02  0.00000000000E+00 0.  1.
</event>
<event>
 8    1  0.6239251E-010  0.9118800E+02  0.7816164E-02  0.1184000E+00
        -11   -1    0    0    0    0  0.00000000000E+00  0.00000000000E+00  0.45593999997E+02  0.45594000000E+02  0.51100000000E-03 0. -1.
         11   -1    0    0    0    0 -0.00000000000E+00 -0.00000000000E+00 -0.45593999997E+02  0.45594000000E+02  0.51100000000E-03 0.  1.
         23    2    1    2    0    0  0.00000000000E+00  0.00000000000E+00  0.00000000000E+00  0.91188000000E+02  0.91188000000E+02 0.  0.
    9900012    2    3    3    0    0  0.50329615018E+01 -0.22928013218E+02  0.36504760981E+02  0.47787284961E+02  0.20000063453E+02 0.  0.
        -12    1    3    3    0    0 -0.50329615018E+01  0.22928013218E+02 -0.36504760981E+02  0.43400715039E+02  0.00000000000E+00 0.  1.
         11    1    4    4    0    0  0.44141291722E+01 -0.14905394423E+02  0.31854026483E+02  0.35444806710E+02  0.51100000000E-03 0. -1.
        -11    1    4    4    0    0  0.77590379123E+00 -0.89799754684E+01  0.16169135742E+01  0.91573137914E+01  0.51100000000E-03 0.  1.
         12    1    4    4    0    0 -0.15707146166E+00  0.95735667313E+00  0.30338209232E+01  0.31851644600E+01  0.00000000000E+00 0. -1.
</event>
<event>
 8    1  0.6239251E-010  0.9118800E+02  0.7816164E-02  0.1184000E+00
        -11   -1    0    0    0    0  0.00000000000E+00  0.00000000000E+00  0.45593999997E+02  0.45594000000E+02  0.51100000000E-03 0. -1.
         11   -1    0    0    0    0 -0.00000000000E+00 -0.00000000000E+00 -0.45593999997E+02  0.45594000000E+02  0.51100000000E-03 0.  1.
         23    2    1    2    0    0  0.44408920985E-15  0.00000000000E+00  0.00000000000E+00  0.91188000000E+02  0.91188000000E+02 0.  0.
    9900012    2    3    3    0    0  0.14142627185E+01 -0.61645775759E+01 -0.42937409431E+02  0.47787270923E+02  0.19999999448E+02 0.  0.
         12    1    3    3    0    0 -0.14142627185E+01  0.61645775759E+01  0.42937409431E+02  0.43400729077E+02  0.00000000000E+00 0. -1.
         11    1    4    4    0    0 -0.27774622517E+01 -0.31927640250E+00 -0.26705380517E+00  0.28084785876E+01  0.51100000000E-03 0. -1.
        -11    1    4    4    0    0  0.84810513551E+01 -0.30749877180E+01 -0.29686833102E+02  0.31027275765E+02  0.51100000000E-03 0.  1.
        -12    1    4    4    0    0 -0.42893263849E+01 -0.27703134554E+01 -0.12983522524E+02  0.13951516571E+02  0.00000000000E+00 0.  1.
</event>
<event>
 8    1  0.6239251E-010  0.9118800E+02  0.7816164E-02  0.1184000E+00
        -11   -1    0    0    0    0  0.00000000000E+00  0.00000000000E+00  0.45593999997E+02  0.45594000000E+02  0.51100000000E-03 0. -1.
         11   -1    0    0    0    0 -0.00000000000E+00 -0.00000000000E+00 -0.45593999997E+02  0.45594000000E+02  0.51100000000E-03 0.  1.
         23    2    1    2    0    0 -0.22204460493E-15  0.17763568394E-14 -0.71054273576E-14  0.91188000000E+02  0.91188000000E+02 0.  0.
    9900012    2    3    3    0    0  0.15503800286E+01  0.79562343042E+01 -0.42637032939E+02  0.47787286637E+02  0.20000071092E+02 0.  0.
         12    1    3    3    0    0 -0.15503800286E+01 -0.79562343042E+01  0.42637032939E+02  0.43400713363E+02  0.00000000000E+00 0. -1.
         11    1    4    4    0    0  0.57725885515E+01 -0.48489696917E+01 -0.19098782035E+02  0.20532870261E+02  0.51100000000E-03 0. -1.
        -11    1    4    4    0    0 -0.25975423307E+01  0.10960728099E+02 -0.18791617714E+02  0.21909123287E+02  0.51100000000E-03 0.  1.
         12    1    4    4    0    0 -0.16246661922E+01  0.18444758969E+01 -0.47466331899E+01  0.53452930892E+01  0.00000000000E+00 0. -1.
</event>
<event>
 8    1  0.6239251E-010  0.9118800E+02  0.7816164E-02  0.1184000E+00
        -11   -1    0    0    0    0  0.00000000000E+00  0.00000000000E+00  0.45593999997E+02  0.45594000000E+02  0.51100000000E-03 0. -1.
         11   -1    0    0    0    0 -0.00000000000E+00 -0.00000000000E+00 -0.45593999997E+02  0.45594000000E+02  0.51100000000E-03 0.  1.
         23    2    1    2    0    0  0.00000000000E+00  0.17763568394E-14  0.00000000000E+00  0.91188000000E+02  0.91188000000E+02 0.  0.
    9900012    2    3    3    0    0  0.13151949163E+02  0.91268306640E+01 -0.40340438745E+02  0.47787264950E+02  0.19999972214E+02 0.  0.
         12    1    3    3    0    0 -0.13151949163E+02 -0.91268306640E+01  0.40340438745E+02  0.43400735050E+02  0.00000000000E+00 0. -1.
         11    1    4    4    0    0  0.27043083307E+01 -0.45651963190E+01 -0.12992258952E+02  0.14033997788E+02  0.51100000000E-03 0. -1.
        -11    1    4    4    0    0  0.63533547821E+01  0.58989104690E+01 -0.21506493609E+02  0.23188176499E+02  0.51100000000E-03 0.  1.
         12    1    4    4    0    0  0.40942860503E+01  0.77931165140E+01 -0.58416861830E+01  0.10565090663E+02  0.00000000000E+00 0. -1.
</event>
<event>
 8    1  0.6239251E-010  0.9118800E+02  0.7816164E-02  0.1184000E+00
        -11   -1    0    0    0    0  0.00000000000E+00  0.00000000000E+00  0.45593999997E+02  0.45594000000E+02  0.51100000000E-03 0. -1.
         11   -1    0    0    0    0 -0.00000000000E+00 -0.00000000000E+00 -0.45593999997E+02  0.45594000000E+02  0.51100000000E-03 0.  1.
         23    2    1    2    0    0  0.00000000000E+00  0.00000000000E+00  0.00000000000E+00  0.91188000000E+02  0.91188000000E+02 0.  0.
    9900012    2    3    3    0    0  0.17769429506E+02  0.15363478661E+02 -0.36494303611E+02  0.47787270771E+02  0.19999998753E+02 0.  0.
         12    1    3    3    0    0 -0.17769429506E+02 -0.15363478661E+02  0.36494303611E+02  0.43400729229E+02  0.00000000000E+00 0. -1.
         11    1    4    4    0    0  0.11479159454E+02  0.13090665295E+02 -0.15279721636E+02  0.23164768792E+02  0.51100000000E-03 0. -1.
        -11    1    4    4    0    0  0.27728587370E+01  0.44229922830E+01 -0.31578088716E+01  0.61010952657E+01  0.51100000000E-03 0.  1.
         12    1    4    4    0    0  0.35174113160E+01 -0.21501789172E+01 -0.18056773103E+02  0.18521406713E+02  0.00000000000E+00 0. -1.
</event>
<event>
 8    1  0.6239251E-010  0.9118800E+02  0.7816164E-02  0.1184000E+00
        -11   -1    0    0    0    0  0.00000000000E+00  0.00000000000E+00  0.45593999997E+02  0.45594000000E+02  0.51100000000E-03 0. -1.
         11   -1    0    0    0    0 -0.00000000000E+00 -0.00000000000E+00 -0.45593999997E+02  0.45594000000E+02  0.51100000000E-03 0.  1.
         23    2    1    2    0    0 -0.35527136788E-14  0.00000000000E+00  0.00000000000E+00  0.91188000000E+02  0.91188000000E+02 0.  0.
    9900012    2    3    3    0    0 -0.22330533460E+02  0.93584447588E+01 -0.36019296215E+02  0.47787275205E+02  0.20000018971E+02 0.  0.
         12    1    3    3    0    0  0.22330533460E+02 -0.93584447588E+01  0.36019296215E+02  0.43400724795E+02  0.00000000000E+00 0. -1.
         11    1    4    4    0    0 -0.13830115691E+02 -0.26929504265E+01 -0.15783291807E+02  0.21157419090E+02  0.51100000000E-03 0. -1.
        -11    1    4    4    0    0 -0.84954799654E+01  0.52440063842E+01 -0.87363275089E+01  0.13266355996E+02  0.51100000000E-03 0.  1.
         12    1    4    4    0    0 -0.49378039141E-02  0.68073888011E+01 -0.11499676899E+02  0.13363500120E+02  0.00000000000E+00 0. -1.
</event>
<event>
 8    1  0.6239251E-010  0.9118800E+02  0.7816164E-02  0.1184000E+00
        -11   -1    0    0    0    0  0.00000000000E+00  0.00000000000E+00  0.45593999997E+02  0.45594000000E+02  0.51100000000E-03 0. -1.
         11   -1    0    0    0    0 -0.00000000000E+00 -0.00000000000E+00 -0.45593999997E+02  0.45594000000E+02  0.51100000000E-03 0.  1.
         23    2    1    2    0    0  0.17763568394E-14  0.00000000000E+00  0.00000000000E+00  0.91188000000E+02  0.91188000000E+02 0.  0.
    9900012    2    3    3    0    0 -0.12259442284E+02 -0.26229949222E+02  0.32331396417E+02  0.47787270103E+02  0.19999995709E+02 0.  0.
        -12    1    3    3    0    0  0.12259442284E+02  0.26229949222E+02 -0.32331396417E+02  0.43400729897E+02  0.00000000000E+00 0.  1.
         11    1    4    4    0    0 -0.15294893518E+02 -0.17879623991E+02  0.16719698031E+02  0.28864563470E+02  0.51100000000E-03 0. -1.
        -11    1    4    4    0    0  0.41287762460E+01 -0.31035135682E+01  0.59933857067E+01  0.79119695555E+01  0.51100000000E-03 0.  1.
        -12    1    4    4    0    0 -0.10933250119E+01 -0.52468116622E+01  0.96183126793E+01  0.11010737078E+02  0.00000000000E+00 0.  1.
</event>
<event>
 8    1  0.6239251E-010  0.9118800E+02  0.7816164E-02  0.1184000E+00
        -11   -1    0    0    0    0  0.00000000000E+00  0.00000000000E+00  0.45593999997E+02  0.45594000000E+02  0.51100000000E-03 0. -1.
         11   -1    0    0    0    0 -0.00000000000E+00 -0.00000000000E+00 -0.45593999997E+02  0.45594000000E+02  0.51100000000E-03 0.  1.
         23    2    1    2    0    0 -0.17763568394E-14  0.00000000000E+00  0.00000000000E+00  0.91188000000E+02  0.91188000000E+02 0.  0.
    9900012    2    3    3    0    0 -0.15680467979E+02 -0.26859096541E+02  0.30270988583E+02  0.47787298475E+02  0.20000125068E+02 0.  0.
        -12    1    3    3    0    0  0.15680467979E+02  0.26859096541E+02 -0.30270988583E+02  0.43400701525E+02  0.00000000000E+00 0.  1.
         11    1    4    4    0    0 -0.18010255473E+01  0.23957435494E+01  0.59104219855E+01  0.66269426197E+01  0.51100000000E-03 0.  1.
        -11    1    4    4    0    0 -0.14322940938E+02 -0.26973893425E+02  0.20958496097E+02  0.37040466014E+02  0.51100000000E-03 0. -1.
         12    1    4    4    0    0  0.44349850647E+00 -0.22809466660E+01  0.34020705007E+01  0.41198898420E+01  0.00000000000E+00 0. -1.
</event>
<event>
 8    1  0.6239251E-010  0.9118800E+02  0.7816164E-02  0.1184000E+00
        -11   -1    0    0    0    0  0.00000000000E+00  0.00000000000E+00  0.45593999997E+02  0.45594000000E+02  0.51100000000E-03 0. -1.
         11   -1    0    0    0    0 -0.00000000000E+00 -0.00000000000E+00 -0.45593999997E+02  0.45594000000E+02  0.51100000000E-03 0.  1.
         23    2    1    2    0    0  0.00000000000E+00  0.00000000000E+00 -0.35527136788E-14  0.91188000000E+02  0.91188000000E+02 0.  0.
    9900012    2    3    3    0    0  0.23818170755E+02  0.20984812420E+02  0.29596535138E+02  0.47787279930E+02  0.20000040513E+02 0.  0.
        -12    1    3    3    0    0 -0.23818170755E+02 -0.20984812420E+02 -0.29596535138E+02  0.43400720070E+02  0.00000000000E+00 0.  1.
         11    1    4    4    0    0  0.23119299258E+01  0.60847811614E+01  0.16124033259E+02  0.17388330299E+02  0.51100000000E-03 0. -1.
        -11    1    4    4    0    0  0.16589227652E+02  0.13906242624E+02  0.82725770606E+01  0.23173726275E+02  0.51100000000E-03 0.  1.
        -12    1    4    4    0    0  0.49170131766E+01  0.99378863513E+00  0.51999248181E+01  0.72252233559E+01  0.00000000000E+00 0.  1.
</event>
<event>
 8    1  0.6239251E-010  0.9118800E+02  0.7816164E-02  0.1184000E+00
        -11   -1    0    0    0    0  0.00000000000E+00  0.00000000000E+00  0.45593999997E+02  0.45594000000E+02  0.51100000000E-03 0. -1.
         11   -1    0    0    0    0 -0.00000000000E+00 -0.00000000000E+00 -0.45593999997E+02  0.45594000000E+02  0.51100000000E-03 0.  1.
         23    2    1    2    0    0  0.00000000000E+00  0.00000000000E+00  0.00000000000E+00  0.91188000000E+02  0.91188000000E+02 0.  0.
    9900012    2    3    3    0    0 -0.13642158488E+02  0.24706322120E+02  0.32971387284E+02  0.47787271661E+02  0.20000002810E+02 0.  0.
        -12    1    3    3    0    0  0.13642158488E+02 -0.24706322120E+02 -0.32971387284E+02  0.43400728339E+02  0.00000000000E+00 0.  1.
         11    1    4    4    0    0  0.73656932533E+00  0.27415319038E+01  0.52146592466E+01  0.59372723425E+01  0.51100000000E-03 0. -1.
        -11    1    4    4    0    0 -0.26340934124E+01  0.17848671699E+02  0.21010923986E+02  0.27694267576E+02  0.51100000000E-03 0.  1.
        -12    1    4    4    0    0 -0.11744634401E+02  0.41161185171E+01  0.67458040517E+01  0.14155731743E+02  0.00000000000E+00 0.  1.
</event>
<event>
 8    1  0.6239251E-010  0.9118800E+02  0.7816164E-02  0.1184000E+00
        -11   -1    0    0    0    0  0.00000000000E+00  0.00000000000E+00  0.45593999997E+02  0.45594000000E+02  0.51100000000E-03 0.  1.
         11   -1    0    0    0    0 -0.00000000000E+00 -0.00000000000E+00 -0.45593999997E+02  0.45594000000E+02  0.51100000000E-03 0. -1.
         23    2    1    2    0    0  0.00000000000E+00  0.00000000000E+00 -0.17763568394E-14  0.91188000000E+02  0.91188000000E+02 0.  0.
    9900012    2    3    3    0    0  0.38163418126E+02 -0.17082653865E+02 -0.11634423867E+02  0.47787269996E+02  0.19999995222E+02 0.  0.
         12    1    3    3    0    0 -0.38163418126E+02  0.17082653865E+02  0.11634423867E+02  0.43400730004E+02  0.00000000000E+00 0. -1.
         11    1    4    4    0    0 -0.78155656126E+00 -0.26189835280E+01 -0.22732266831E+01  0.35549212639E+01  0.51100000000E-03 0. -1.
        -11    1    4    4    0    0  0.37613333133E+02 -0.10518039007E+02 -0.81786508613E+01  0.39903412186E+02  0.51100000000E-03 0.  1.
        -12    1    4    4    0    0  0.13316415544E+01 -0.39456313299E+01 -0.11825463226E+01  0.43289365468E+01  0.00000000000E+00 0.  1.
</event>
<event>
 8    1  0.6239251E-010  0.9118800E+02  0.7816164E-02  0.1184000E+00
        -11   -1    0    0    0    0  0.00000000000E+00  0.00000000000E+00  0.45593999997E+02  0.45594000000E+02  0.51100000000E-03 0. -1.
         11   -1    0    0    0    0 -0.00000000000E+00 -0.00000000000E+00 -0.45593999997E+02  0.45594000000E+02  0.51100000000E-03 0.  1.
         23    2    1    2    0    0 -0.13322676296E-14 -0.35527136788E-14  0.00000000000E+00  0.91188000000E+02  0.91188000000E+02 0.  0.
    9900012    2    3    3    0    0 -0.25813323420E+01 -0.22152726857E+02  0.37231931577E+02  0.47787270596E+02  0.19999997957E+02 0.  0.
        -12    1    3    3    0    0  0.25813323420E+01  0.22152726857E+02 -0.37231931577E+02  0.43400729404E+02  0.00000000000E+00 0.  1.
         11    1    4    4    0    0  0.55911158707E+01 -0.16566675418E+02  0.16093289557E+02  0.23763612522E+02  0.51100000000E-03 0. -1.
        -11    1    4    4    0    0 -0.38220950207E+01 -0.47000718257E+01  0.16616886669E+02  0.17686718416E+02  0.51100000000E-03 0.  1.
         12    1    4    4    0    0 -0.43503531920E+01 -0.88597961243E+00  0.45217553510E+01  0.63369396575E+01  0.00000000000E+00 0. -1.
</event>
<event>
 8    1  0.6239251E-010  0.9118800E+02  0.7816164E-02  0.1184000E+00
        -11   -1    0    0    0    0  0.00000000000E+00  0.00000000000E+00  0.45593999997E+02  0.45594000000E+02  0.51100000000E-03 0. -1.
         11   -1    0    0    0    0 -0.00000000000E+00 -0.00000000000E+00 -0.45593999997E+02  0.45594000000E+02  0.51100000000E-03 0.  1.
         23    2    1    2    0    0  0.00000000000E+00  0.00000000000E+00 -0.71054273576E-14  0.91188000000E+02  0.91188000000E+02 0.  0.
    9900012    2    3    3    0    0  0.19300882384E+02 -0.16181479494E+02 -0.35344836912E+02  0.47787287612E+02  0.20000075540E+02 0.  0.
         12    1    3    3    0    0 -0.19300882384E+02  0.16181479494E+02  0.35344836912E+02  0.43400712388E+02  0.00000000000E+00 0. -1.
         11    1    4    4    0    0  0.90261914971E+01  0.52106821466E+00 -0.39661245336E+01  0.98728814995E+01  0.51100000000E-03 0. -1.
        -11    1    4    4    0    0  0.84711103230E+01 -0.91983599606E+01 -0.24795426835E+02  0.27770176958E+02  0.51100000000E-03 0.  1.
         12    1    4    4    0    0  0.18035805645E+01 -0.75041877482E+01 -0.65832855430E+01  0.10144229155E+02  0.00000000000E+00 0. -1.
</event>
<event>
 8    1  0.6239251E-010  0.9118800E+02  0.7816164E-02  0.1184000E+00
        -11   -1    0    0    0    0  0.00000000000E+00  0.00000000000E+00  0.45593999997E+02  0.45594000000E+02  0.51100000000E-03 0.  1.
         11   -1    0    0    0    0 -0.00000000000E+00 -0.00000000000E+00 -0.45593999997E+02  0.45594000000E+02  0.51100000000E-03 0. -1.
         23    2    1    2    0    0  0.00000000000E+00  0.00000000000E+00  0.35527136788E-14  0.91188000000E+02  0.91188000000E+02 0.  0.
    9900012    2    3    3    0    0  0.31907103053E+02 -0.13607415045E+02  0.26084443946E+02  0.47787272064E+02  0.20000004647E+02 0.  0.
        -12    1    3    3    0    0 -0.31907103053E+02  0.13607415045E+02 -0.26084443946E+02  0.43400727936E+02  0.00000000000E+00 0.  1.
         11    1    4    4    0    0  0.62145212134E+00 -0.66950032134E+01  0.54924688994E+01  0.86819632364E+01  0.51100000000E-03 0.  1.
        -11    1    4    4    0    0  0.78186329127E+01 -0.56891718473E+01  0.48196836544E+01  0.10804029235E+02  0.51100000000E-03 0. -1.
         12    1    4    4    0    0  0.23467018019E+02 -0.12232399838E+01  0.15772291392E+02  0.28301279592E+02  0.00000000000E+00 0. -1.
</event>
<event>
 8    1  0.6239251E-010  0.9118800E+02  0.7816164E-02  0.1184000E+00
        -11   -1    0    0    0    0  0.00000000000E+00  0.00000000000E+00  0.45593999997E+02  0.45594000000E+02  0.51100000000E-03 0. -1.
         11   -1    0    0    0    0 -0.00000000000E+00 -0.00000000000E+00 -0.45593999997E+02  0.45594000000E+02  0.51100000000E-03 0.  1.
         23    2    1    2    0    0 -0.35527136788E-14  0.00000000000E+00  0.35527136788E-14  0.91188000000E+02  0.91188000000E+02 0.  0.
    9900012    2    3    3    0    0  0.26529547026E+02 -0.14338127480E+02 -0.31212568743E+02  0.47787271751E+02  0.20000003220E+02 0.  0.
         12    1    3    3    0    0 -0.26529547026E+02  0.14338127480E+02  0.31212568743E+02  0.43400728249E+02  0.00000000000E+00 0. -1.
         11    1    4    4    0    0 -0.44897400367E+00 -0.21676612626E+01 -0.72717520563E+01  0.76012309026E+01  0.51100000000E-03 0. -1.
        -11    1    4    4    0    0  0.23468158810E+02 -0.13418777079E+02 -0.24419385652E+02  0.36429719353E+02  0.51100000000E-03 0.  1.
        -12    1    4    4    0    0  0.35103622200E+01  0.12483108616E+01  0.47856896575E+00  0.37563214955E+01  0.00000000000E+00 0.  1.
</event>
<event>
 8    1  0.6239251E-010  0.9118800E+02  0.7816164E-02  0.1184000E+00
        -11   -1    0    0    0    0  0.00000000000E+00  0.00000000000E+00  0.45593999997E+02  0.45594000000E+02  0.51100000000E-03 0. -1.
         11   -1    0    0    0    0 -0.00000000000E+00 -0.00000000000E+00 -0.45593999997E+02  0.45594000000E+02  0.51100000000E-03 0.  1.
         23    2    1    2    0    0  0.00000000000E+00 -0.35527136788E-14  0.17763568394E-14  0.91188000000E+02  0.91188000000E+02 0.  0.
    9900012    2    3    3    0    0 -0.31962999326E+02  0.26065426600E+02  0.13512344200E+02  0.47787271486E+02  0.20000002014E+02 0.  0.
        -12    1    3    3    0    0  0.31962999326E+02 -0.26065426600E+02 -0.13512344200E+02  0.43400728514E+02  0.00000000000E+00 0.  1.
         11    1    4    4    0    0 -0.26178929172E+02  0.19575131995E+02  0.32895767383E+01  0.32853362699E+02  0.51100000000E-03 0. -1.
        -11    1    4    4    0    0  0.12006298522E+01  0.24736241553E+01  0.18503835815E+01  0.33142492610E+01  0.51100000000E-03 0.  1.
         12    1    4    4    0    0 -0.69847000056E+01  0.40166704497E+01  0.83723838803E+01  0.11619659526E+02  0.00000000000E+00 0. -1.
</event>
<event>
 8    1  0.6239251E-010  0.9118800E+02  0.7816164E-02  0.1184000E+00
        -11   -1    0    0    0    0  0.00000000000E+00  0.00000000000E+00  0.45593999997E+02  0.45594000000E+02  0.51100000000E-03 0. -1.
         11   -1    0    0    0    0 -0.00000000000E+00 -0.00000000000E+00 -0.45593999997E+02  0.45594000000E+02  0.51100000000E-03 0.  1.
         23    2    1    2    0    0  0.00000000000E+00  0.00000000000E+00  0.00000000000E+00  0.91188000000E+02  0.91188000000E+02 0.  0.
    9900012    2    3    3    0    0 -0.14507311455E+02  0.19240008839E+02  0.36096852197E+02  0.47787276915E+02  0.20000026765E+02 0.  0.
        -12    1    3    3    0    0  0.14507311455E+02 -0.19240008839E+02 -0.36096852197E+02  0.43400723085E+02  0.00000000000E+00 0.  1.
         11    1    4    4    0    0 -0.89413987076E+01  0.12630659170E+02  0.14489966637E+02  0.21200030550E+02  0.51100000000E-03 0. -1.
        -11    1    4    4    0    0  0.31007990577E+01  0.34781517351E+01  0.13612038054E+02  0.14387497160E+02  0.51100000000E-03 0.  1.
        -12    1    4    4    0    0 -0.86667118050E+01  0.31311979341E+01  0.79948475067E+01  0.12199749205E+02  0.00000000000E+00 0.  1.
</event>
<event>
 8    1  0.6239251E-010  0.9118800E+02  0.7816164E-02  0.1184000E+00
        -11   -1    0    0    0    0  0.00000000000E+00  0.00000000000E+00  0.45593999997E+02  0.45594000000E+02  0.51100000000E-03 0. -1.
         11   -1    0    0    0    0 -0.00000000000E+00 -0.00000000000E+00 -0.45593999997E+02  0.45594000000E+02  0.51100000000E-03 0.  1.
         23    2    1    2    0    0 -0.22204460493E-15  0.17763568394E-14 -0.71054273576E-14  0.91188000000E+02  0.91188000000E+02 0.  0.
    9900012    2    3    3    0    0 -0.19464339111E+01  0.14846230910E+02 -0.40736029322E+02  0.47787271179E+02  0.20000000616E+02 0.  0.
         12    1    3    3    0    0  0.19464339111E+01 -0.14846230910E+02  0.40736029322E+02  0.43400728821E+02  0.00000000000E+00 0. -1.
         11    1    4    4    0    0  0.62562688847E+00 -0.41914052009E+00  0.66685882374E+00  0.10058770954E+01  0.51100000000E-03 0. -1.
        -11    1    4    4    0    0 -0.16484837867E+01  0.10911659106E+02 -0.94756239989E+01  0.14545420368E+02  0.51100000000E-03 0.  1.
        -12    1    4    4    0    0 -0.92357701277E+00  0.43537123231E+01 -0.31927264147E+02  0.32235973716E+02  0.00000000000E+00 0.  1.
</event>
<event>
 8    1  0.6239251E-010  0.9118800E+02  0.7816164E-02  0.1184000E+00
        -11   -1    0    0    0    0  0.00000000000E+00  0.00000000000E+00  0.45593999997E+02  0.45594000000E+02  0.51100000000E-03 0. -1.
         11   -1    0    0    0    0 -0.00000000000E+00 -0.00000000000E+00 -0.45593999997E+02  0.45594000000E+02  0.51100000000E-03 0.  1.
         23    2    1    2    0    0  0.35527136788E-14  0.00000000000E+00  0.00000000000E+00  0.91188000000E+02  0.91188000000E+02 0.  0.
    9900012    2    3    3    0    0  0.27151578797E+02  0.29459443745E+02 -0.16690002478E+02  0.47787271439E+02  0.20000001798E+02 0.  0.
         12    1    3    3    0    0 -0.27151578797E+02 -0.29459443745E+02  0.16690002478E+02  0.43400728561E+02  0.00000000000E+00 0. -1.
         11    1    4    4    0    0  0.59787653602E+00 -0.19665377886E+01 -0.16595748133E+00  0.20621031431E+01  0.51100000000E-03 0. -1.
        -11    1    4    4    0    0  0.25037111669E+02  0.25608386592E+02 -0.10757837836E+02  0.37394886011E+02  0.51100000000E-03 0.  1.
        -12    1    4    4    0    0  0.15165905918E+01  0.58175949418E+01 -0.57662071605E+01  0.83302822850E+01  0.00000000000E+00 0.  1.
</event>
<event>
 8    1  0.6239251E-010  0.9118800E+02  0.7816164E-02  0.1184000E+00
        -11   -1    0    0    0    0  0.00000000000E+00  0.00000000000E+00  0.45593999997E+02  0.45594000000E+02  0.51100000000E-03 0. -1.
         11   -1    0    0    0    0 -0.00000000000E+00 -0.00000000000E+00 -0.45593999997E+02  0.45594000000E+02  0.51100000000E-03 0.  1.
         23    2    1    2    0    0  0.00000000000E+00  0.00000000000E+00  0.00000000000E+00  0.91188000000E+02  0.91188000000E+02 0.  0.
    9900012    2    3    3    0    0  0.16864224569E+01 -0.28988549414E+02  0.32255902084E+02  0.47787271468E+02  0.20000001932E+02 0.  0.
        -12    1    3    3    0    0 -0.16864224569E+01  0.28988549414E+02 -0.32255902084E+02  0.43400728532E+02  0.00000000000E+00 0.  1.
         11    1    4    4    0    0  0.51956261353E+01 -0.19001408256E+02  0.24991361347E+02  0.31821630834E+02  0.51100000000E-03 0. -1.
        -11    1    4    4    0    0 -0.62751001249E+01 -0.66445599697E+01  0.71865023150E+01  0.11626386995E+02  0.51100000000E-03 0.  1.
         12    1    4    4    0    0  0.27658964466E+01 -0.33425811885E+01  0.78038421479E-01  0.43392536398E+01  0.00000000000E+00 0. -1.
</event>
<event>
 8    1  0.6239251E-010  0.9118800E+02  0.7816164E-02  0.1184000E+00
        -11   -1    0    0    0    0  0.00000000000E+00  0.00000000000E+00  0.45593999997E+02  0.45594000000E+02  0.51100000000E-03 0. -1.
         11   -1    0    0    0    0 -0.00000000000E+00 -0.00000000000E+00 -0.45593999997E+02  0.45594000000E+02  0.51100000000E-03 0.  1.
         23    2    1    2    0    0  0.00000000000E+00  0.00000000000E+00  0.44408920985E-15  0.91188000000E+02  0.91188000000E+02 0.  0.
    9900012    2    3    3    0    0  0.90662852780E+01 -0.42388150306E+02 -0.21610771533E+01  0.47787273398E+02  0.20000010732E+02 0.  0.
         12    1    3    3    0    0 -0.90662852780E+01  0.42388150306E+02  0.21610771533E+01  0.43400726602E+02  0.00000000000E+00 0. -1.
         11    1    4    4    0    0  0.39969747724E+01  0.56032757531E-01 -0.20233823591E+01  0.44802927843E+01  0.51100000000E-03 0. -1.
        -11    1    4    4    0    0  0.55774054216E+01 -0.42303774973E+02  0.21914258381E+00  0.42670421277E+02  0.51100000000E-03 0.  1.
        -12    1    4    4    0    0 -0.50809491596E+00 -0.14040809052E+00 -0.35683737802E+00  0.63655933726E+00  0.00000000000E+00 0.  1.
</event>
<event>
 8    1  0.6239251E-010  0.9118800E+02  0.7816164E-02  0.1184000E+00
        -11   -1    0    0    0    0  0.00000000000E+00  0.00000000000E+00  0.45593999997E+02  0.45594000000E+02  0.51100000000E-03 0. -1.
         11   -1    0    0    0    0 -0.00000000000E+00 -0.00000000000E+00 -0.45593999997E+02  0.45594000000E+02  0.51100000000E-03 0.  1.
         23    2    1    2    0    0  0.00000000000E+00  0.17763568394E-14 -0.71054273576E-14  0.91188000000E+02  0.91188000000E+02 0.  0.
    9900012    2    3    3    0    0 -0.77221727023E+00 -0.42095172647E+01  0.43189197154E+02  0.47787272980E+02  0.20000008824E+02 0.  0.
        -12    1    3    3    0    0  0.77221727023E+00  0.42095172647E+01 -0.43189197154E+02  0.43400727020E+02  0.00000000000E+00 0.  1.
         11    1    4    4    0    0  0.29152263469E+01  0.23782243764E+01  0.28489586410E+02  0.28736927983E+02  0.51100000000E-03 0. -1.
        -11    1    4    4    0    0  0.20705263065E+01  0.12249863721E+01  0.31751431449E+01  0.39836170812E+01  0.51100000000E-03 0.  1.
         12    1    4    4    0    0 -0.57579699236E+01 -0.78127280132E+01  0.11524467599E+02  0.15066727916E+02  0.00000000000E+00 0. -1.
</event>
<event>
 8    1  0.6239251E-010  0.9118800E+02  0.7816164E-02  0.1184000E+00
        -11   -1    0    0    0    0  0.00000000000E+00  0.00000000000E+00  0.45593999997E+02  0.45594000000E+02  0.51100000000E-03 0. -1.
         11   -1    0    0    0    0 -0.00000000000E+00 -0.00000000000E+00 -0.45593999997E+02  0.45594000000E+02  0.51100000000E-03 0.  1.
         23    2    1    2    0    0  0.00000000000E+00 -0.88817841970E-15  0.00000000000E+00  0.91188000000E+02  0.91188000000E+02 0.  0.
    9900012    2    3    3    0    0 -0.59495898917E+01 -0.69577041280E+01  0.42424238423E+02  0.47787271062E+02  0.20000000078E+02 0.  0.
        -12    1    3    3    0    0  0.59495898917E+01  0.69577041280E+01 -0.42424238423E+02  0.43400728938E+02  0.00000000000E+00 0.  1.
         11    1    4    4    0    0 -0.89600739419E+01  0.63641467219E+00  0.24880527609E+02  0.26452383693E+02  0.51100000000E-03 0. -1.
        -11    1    4    4    0    0  0.40727447577E+01  0.33870569412E+00  0.68710661402E+01  0.79945932712E+01  0.51100000000E-03 0.  1.
         12    1    4    4    0    0 -0.10622607075E+01 -0.79328244943E+01  0.10672644674E+02  0.13340294097E+02  0.00000000000E+00 0. -1.
</event>
<event>
 8    1  0.6239251E-010  0.9118800E+02  0.7816164E-02  0.1184000E+00
        -11   -1    0    0    0    0  0.00000000000E+00  0.00000000000E+00  0.45593999997E+02  0.45594000000E+02  0.51100000000E-03 0. -1.
         11   -1    0    0    0    0 -0.00000000000E+00 -0.00000000000E+00 -0.45593999997E+02  0.45594000000E+02  0.51100000000E-03 0.  1.
         23    2    1    2    0    0 -0.17763568394E-14  0.00000000000E+00 -0.35527136788E-14  0.91188000000E+02  0.91188000000E+02 0.  0.
    9900012    2    3    3    0    0 -0.11356666899E+02 -0.32103098847E+02 -0.26907998520E+02  0.47787271630E+02  0.20000002671E+02 0.  0.
         12    1    3    3    0    0  0.11356666899E+02  0.32103098847E+02  0.26907998520E+02  0.43400728370E+02  0.00000000000E+00 0. -1.
         11    1    4    4    0    0 -0.26151119815E+01 -0.53554748464E+01 -0.13267766878E+02  0.14544880876E+02  0.51100000000E-03 0. -1.
        -11    1    4    4    0    0 -0.58852117330E+01 -0.10834651360E+02 -0.11632126369E+02  0.16950862850E+02  0.51100000000E-03 0.  1.
         12    1    4    4    0    0 -0.28563431846E+01 -0.15912972641E+02 -0.20081052731E+01  0.16291527904E+02  0.00000000000E+00 0. -1.
</event>
<event>
 8    1  0.6239251E-010  0.9118800E+02  0.7816164E-02  0.1184000E+00
        -11   -1    0    0    0    0  0.00000000000E+00  0.00000000000E+00  0.45593999997E+02  0.45594000000E+02  0.51100000000E-03 0. -1.
         11   -1    0    0    0    0 -0.00000000000E+00 -0.00000000000E+00 -0.45593999997E+02  0.45594000000E+02  0.51100000000E-03 0.  1.
         23    2    1    2    0    0 -0.66613381478E-15  0.00000000000E+00  0.00000000000E+00  0.91188000000E+02  0.91188000000E+02 0.  0.
    9900012    2    3    3    0    0  0.16339285473E+01  0.24505260518E+02 -0.35783323092E+02  0.47787265824E+02  0.19999976196E+02 0.  0.
         12    1    3    3    0    0 -0.16339285473E+01 -0.24505260518E+02  0.35783323092E+02  0.43400734176E+02  0.00000000000E+00 0. -1.
         11    1    4    4    0    0  0.59603406867E+01  0.46559494284E+01 -0.90613080702E+01  0.11803000906E+02  0.51100000000E-03 0. -1.
        -11    1    4    4    0    0 -0.52905942319E+01  0.10910530650E+02 -0.62862355194E+01  0.13658214512E+02  0.51100000000E-03 0.  1.
        -12    1    4    4    0    0  0.96418209251E+00  0.89387804399E+01 -0.20435779502E+02  0.22326050406E+02  0.00000000000E+00 0.  1.
</event>
<event>
 8    1  0.6239251E-010  0.9118800E+02  0.7816164E-02  0.1184000E+00
        -11   -1    0    0    0    0  0.00000000000E+00  0.00000000000E+00  0.45593999997E+02  0.45594000000E+02  0.51100000000E-03 0. -1.
         11   -1    0    0    0    0 -0.00000000000E+00 -0.00000000000E+00 -0.45593999997E+02  0.45594000000E+02  0.51100000000E-03 0.  1.
         23    2    1    2    0    0  0.00000000000E+00  0.00000000000E+00  0.00000000000E+00  0.91188000000E+02  0.91188000000E+02 0.  0.
    9900012    2    3    3    0    0  0.21509442480E+02  0.30973685639E+02 -0.21484780045E+02  0.47787296187E+02  0.20000114636E+02 0.  0.
         12    1    3    3    0    0 -0.21509442480E+02 -0.30973685639E+02  0.21484780045E+02  0.43400703813E+02  0.00000000000E+00 0. -1.
         11    1    4    4    0    0  0.96300223095E+01  0.21349230992E+01 -0.63079252973E+01  0.11708336694E+02  0.51100000000E-03 0. -1.
        -11    1    4    4    0    0  0.13323630518E+02  0.25971358549E+02 -0.15108012035E+02  0.32867653140E+02  0.51100000000E-03 0.  1.
        -12    1    4    4    0    0 -0.14442103474E+01  0.28674039912E+01 -0.68842712803E-01  0.32113063534E+01  0.00000000000E+00 0.  1.
</event>
<event>
 8    1  0.1033906E-009  0.9118800E+02  0.7816164E-02  0.1184000E+00
        -11   -1    0    0    0    0  0.00000000000E+00  0.00000000000E+00  0.45593999997E+02  0.45594000000E+02  0.51100000000E-03 0. -1.
         11   -1    0    0    0    0 -0.00000000000E+00 -0.00000000000E+00 -0.45593999997E+02  0.45594000000E+02  0.51100000000E-03 0.  1.
         23    2    1    2    0    0 -0.17763568394E-14  0.00000000000E+00 -0.71054273576E-14  0.91188000000E+02  0.91188000000E+02 0.  0.
    9900012    2    3    3    0    0 -0.12841985500E+02 -0.16181691603E+02  0.38168853209E+02  0.47787250122E+02  0.19999904605E+02 0.  0.
        -12    1    3    3    0    0  0.12841985500E+02  0.16181691603E+02 -0.38168853209E+02  0.43400749878E+02  0.00000000000E+00 0.  1.
         11    1    4    4    0    0 -0.53793849664E+01 -0.65298313074E+01  0.18765298189E+02  0.20584287598E+02  0.51100000000E-03 0. -1.
        -11    1    4    4    0    0  0.42956441050E+01 -0.17639562805E+01  0.68780682365E+01  0.82989109505E+01  0.51100000000E-03 0.  1.
        -12    1    4    4    0    0 -0.11758244639E+02 -0.78879040147E+01  0.12525486783E+02  0.18904051573E+02  0.00000000000E+00 0.  1.
</event>
<event>
 8    1  0.6239251E-010  0.9118800E+02  0.7816164E-02  0.1184000E+00
        -11   -1    0    0    0    0  0.00000000000E+00  0.00000000000E+00  0.45593999997E+02  0.45594000000E+02  0.51100000000E-03 0. -1.
         11   -1    0    0    0    0 -0.00000000000E+00 -0.00000000000E+00 -0.45593999997E+02  0.45594000000E+02  0.51100000000E-03 0.  1.
         23    2    1    2    0    0  0.00000000000E+00  0.88817841970E-15  0.00000000000E+00  0.91188000000E+02  0.91188000000E+02 0.  0.
    9900012    2    3    3    0    0 -0.27292460648E+02  0.20132464168E+01  0.33685184212E+02  0.47787271841E+02  0.20000003632E+02 0.  0.
        -12    1    3    3    0    0  0.27292460648E+02 -0.20132464168E+01 -0.33685184212E+02  0.43400728159E+02  0.00000000000E+00 0.  1.
         11    1    4    4    0    0 -0.11656189985E+02 -0.48603559132E+01  0.24988214355E+02  0.27998226399E+02  0.51100000000E-03 0. -1.
        -11    1    4    4    0    0 -0.14144874985E+02  0.50218948950E+01  0.88178180762E+01  0.17408355252E+02  0.51100000000E-03 0.  1.
         12    1    4    4    0    0 -0.14913956773E+01  0.18517074350E+01 -0.12084821953E+00  0.23806901905E+01  0.00000000000E+00 0. -1.
</event>
<event>
 8    1  0.6239251E-010  0.9118800E+02  0.7816164E-02  0.1184000E+00
        -11   -1    0    0    0    0  0.00000000000E+00  0.00000000000E+00  0.45593999997E+02  0.45594000000E+02  0.51100000000E-03 0. -1.
         11   -1    0    0    0    0 -0.00000000000E+00 -0.00000000000E+00 -0.45593999997E+02  0.45594000000E+02  0.51100000000E-03 0.  1.
         23    2    1    2    0    0  0.00000000000E+00  0.00000000000E+00 -0.17763568394E-14  0.91188000000E+02  0.91188000000E+02 0.  0.
    9900012    2    3    3    0    0 -0.82724579644E+01 -0.39646993772E+02 -0.15598304636E+02  0.47787253653E+02  0.19999920708E+02 0.  0.
         12    1    3    3    0    0  0.82724579644E+01  0.39646993772E+02  0.15598304636E+02  0.43400746347E+02  0.00000000000E+00 0. -1.
         11    1    4    4    0    0 -0.47596014519E+01 -0.29057606936E+02 -0.10166567938E+02  0.31150560681E+02  0.51100000000E-03 0. -1.
        -11    1    4    4    0    0 -0.14141726625E+01 -0.12390676576E+02 -0.27218949479E+01  0.12764695950E+02  0.51100000000E-03 0.  1.
         12    1    4    4    0    0 -0.20986838500E+01  0.18012897403E+01 -0.27098417504E+01  0.38719970226E+01  0.00000000000E+00 0. -1.
</event>
<event>
 8    1  0.6239251E-010  0.9118800E+02  0.7816164E-02  0.1184000E+00
        -11   -1    0    0    0    0  0.00000000000E+00  0.00000000000E+00  0.45593999997E+02  0.45594000000E+02  0.51100000000E-03 0. -1.
         11   -1    0    0    0    0 -0.00000000000E+00 -0.00000000000E+00 -0.45593999997E+02  0.45594000000E+02  0.51100000000E-03 0.  1.
         23    2    1    2    0    0  0.35527136788E-14  0.44408920985E-15  0.00000000000E+00  0.91188000000E+02  0.91188000000E+02 0.  0.
    9900012    2    3    3    0    0  0.19346291797E+02 -0.21123761735E+01 -0.38792811164E+02  0.47787270313E+02  0.19999996664E+02 0.  0.
         12    1    3    3    0    0 -0.19346291797E+02  0.21123761735E+01  0.38792811164E+02  0.43400729687E+02  0.00000000000E+00 0. -1.
         11    1    4    4    0    0  0.12476214416E+02  0.41125286462E+01 -0.21521040254E+02  0.25213567615E+02  0.51100000000E-03 0.  1.
        -11    1    4    4    0    0  0.21561213399E+01 -0.36495736307E+01  0.25077642971E+00  0.42463085141E+01  0.51100000000E-03 0. -1.
         12    1    4    4    0    0  0.47139560416E+01 -0.25753311890E+01 -0.17522547339E+02  0.18327394183E+02  0.00000000000E+00 0. -1.
</event>
<event>
 8    1  0.6239251E-010  0.9118800E+02  0.7816164E-02  0.1184000E+00
        -11   -1    0    0    0    0  0.00000000000E+00  0.00000000000E+00  0.45593999997E+02  0.45594000000E+02  0.51100000000E-03 0.  1.
         11   -1    0    0    0    0 -0.00000000000E+00 -0.00000000000E+00 -0.45593999997E+02  0.45594000000E+02  0.51100000000E-03 0. -1.
         23    2    1    2    0    0  0.17763568394E-14  0.00000000000E+00  0.00000000000E+00  0.91188000000E+02  0.91188000000E+02 0.  0.
    9900012    2    3    3    0    0  0.14741886768E+02  0.38002106475E+02 -0.14904313124E+02  0.47787287198E+02  0.20000073649E+02 0.  0.
         12    1    3    3    0    0 -0.14741886768E+02 -0.38002106475E+02  0.14904313124E+02  0.43400712802E+02  0.00000000000E+00 0. -1.
         11    1    4    4    0    0 -0.23070110759E+01  0.60461930547E+01 -0.74873010448E+01  0.98963845800E+01  0.51100000000E-03 0. -1.
        -11    1    4    4    0    0  0.28510727887E+01  0.59117192274E+01  0.18416204508E+01  0.68167885706E+01  0.51100000000E-03 0.  1.
         12    1    4    4    0    0  0.14197825056E+02  0.26044194193E+02 -0.92586325300E+01  0.31074114047E+02  0.00000000000E+00 0. -1.
</event>
<event>
 8    1  0.6239251E-010  0.9118800E+02  0.7816164E-02  0.1184000E+00
        -11   -1    0    0    0    0  0.00000000000E+00  0.00000000000E+00  0.45593999997E+02  0.45594000000E+02  0.51100000000E-03 0. -1.
         11   -1    0    0    0    0 -0.00000000000E+00 -0.00000000000E+00 -0.45593999997E+02  0.45594000000E+02  0.51100000000E-03 0.  1.
         23    2    1    2    0    0  0.88817841970E-15  0.00000000000E+00  0.00000000000E+00  0.91188000000E+02  0.91188000000E+02 0.  0.
    9900012    2    3    3    0    0  0.68998820013E+01 -0.38710696789E+02 -0.18371084349E+02  0.47787272383E+02  0.20000006104E+02 0.  0.
         12    1    3    3    0    0 -0.68998820013E+01  0.38710696789E+02  0.18371084349E+02  0.43400727617E+02  0.00000000000E+00 0. -1.
         11    1    4    4    0    0 -0.35806828984E+01 -0.50341220528E+01 -0.18778487940E+01  0.64567787027E+01  0.51100000000E-03 0. -1.
        -11    1    4    4    0    0 -0.11154457222E+01 -0.19516281818E+02 -0.95388236811E+01  0.21751290367E+02  0.51100000000E-03 0.  1.
        -12    1    4    4    0    0  0.11596010622E+02 -0.14160292918E+02 -0.69544118743E+01  0.19579203313E+02  0.00000000000E+00 0.  1.
</event>
<event>
 8    1  0.6239251E-010  0.9118800E+02  0.7816164E-02  0.1184000E+00
        -11   -1    0    0    0    0  0.00000000000E+00  0.00000000000E+00  0.45593999997E+02  0.45594000000E+02  0.51100000000E-03 0. -1.
         11   -1    0    0    0    0 -0.00000000000E+00 -0.00000000000E+00 -0.45593999997E+02  0.45594000000E+02  0.51100000000E-03 0.  1.
         23    2    1    2    0    0  0.00000000000E+00  0.00000000000E+00  0.00000000000E+00  0.91188000000E+02  0.91188000000E+02 0.  0.
    9900012    2    3    3    0    0 -0.21308896636E+02  0.19846966056E+02 -0.32181544981E+02  0.47787274489E+02  0.20000015707E+02 0.  0.
         12    1    3    3    0    0  0.21308896636E+02 -0.19846966056E+02  0.32181544981E+02  0.43400725511E+02  0.00000000000E+00 0. -1.
         11    1    4    4    0    0 -0.12057859689E+02 -0.52242778162E-01 -0.76201199929E+01  0.14263973449E+02  0.51100000000E-03 0. -1.
        -11    1    4    4    0    0 -0.97336747195E+01  0.17698308807E+02 -0.23627304761E+02  0.31084145295E+02  0.51100000000E-03 0.  1.
         12    1    4    4    0    0  0.48263777240E+00  0.22009000278E+01 -0.93412022648E+00  0.24391557452E+01  0.00000000000E+00 0. -1.
</event>
<event>
 8    1  0.6239251E-010  0.9118800E+02  0.7816164E-02  0.1184000E+00
        -11   -1    0    0    0    0  0.00000000000E+00  0.00000000000E+00  0.45593999997E+02  0.45594000000E+02  0.51100000000E-03 0.  1.
         11   -1    0    0    0    0 -0.00000000000E+00 -0.00000000000E+00 -0.45593999997E+02  0.45594000000E+02  0.51100000000E-03 0. -1.
         23    2    1    2    0    0  0.71054273576E-14  0.00000000000E+00  0.00000000000E+00  0.91188000000E+02  0.91188000000E+02 0.  0.
    9900012    2    3    3    0    0 -0.38203341596E+02 -0.20388449858E+02 -0.29049981047E+01  0.47787271773E+02  0.20000003320E+02 0.  0.
        -12    1    3    3    0    0  0.38203341596E+02  0.20388449858E+02  0.29049981047E+01  0.43400728227E+02  0.00000000000E+00 0.  1.
         11    1    4    4    0    0 -0.50062207316E+01 -0.38890813957E+01 -0.18418133300E+00  0.63420125466E+01  0.51100000000E-03 0. -1.
        -11    1    4    4    0    0 -0.82020158350E+01 -0.11463391682E+02 -0.67553612228E+01  0.15630653158E+02  0.51100000000E-03 0.  1.
        -12    1    4    4    0    0 -0.24995105029E+02 -0.50359767793E+01  0.40345444511E+01  0.25814606068E+02  0.00000000000E+00 0.  1.
</event>
<event>
 8    1  0.6239251E-010  0.9118800E+02  0.7816164E-02  0.1184000E+00
        -11   -1    0    0    0    0  0.00000000000E+00  0.00000000000E+00  0.45593999997E+02  0.45594000000E+02  0.51100000000E-03 0. -1.
         11   -1    0    0    0    0 -0.00000000000E+00 -0.00000000000E+00 -0.45593999997E+02  0.45594000000E+02  0.51100000000E-03 0.  1.
         23    2    1    2    0    0  0.44408920985E-15  0.17763568394E-14  0.00000000000E+00  0.91188000000E+02  0.91188000000E+02 0.  0.
    9900012    2    3    3    0    0 -0.26474221422E+01 -0.10195669722E+02 -0.42103003054E+02  0.47787269692E+02  0.19999993833E+02 0.  0.
         12    1    3    3    0    0  0.26474221422E+01  0.10195669722E+02  0.42103003054E+02  0.43400730308E+02  0.00000000000E+00 0. -1.
         11    1    4    4    0    0  0.79957093434E-01 -0.94291742128E+01 -0.91674507398E+01  0.13151344905E+02  0.51100000000E-03 0. -1.
        -11    1    4    4    0    0 -0.53421594382E+01  0.59617587988E+00 -0.29990877457E+02  0.30468784420E+02  0.51100000000E-03 0.  1.
        -12    1    4    4    0    0  0.26147802026E+01 -0.13626713895E+01 -0.29446748575E+01  0.41671403672E+01  0.00000000000E+00 0.  1.
</event>
<event>
 8    1  0.6938270E-010  0.9118800E+02  0.7816164E-02  0.1184000E+00
        -11   -1    0    0    0    0  0.00000000000E+00  0.00000000000E+00  0.45593999997E+02  0.45594000000E+02  0.51100000000E-03 0. -1.
         11   -1    0    0    0    0 -0.00000000000E+00 -0.00000000000E+00 -0.45593999997E+02  0.45594000000E+02  0.51100000000E-03 0.  1.
         23    2    1    2    0    0  0.00000000000E+00  0.00000000000E+00  0.14210854715E-13  0.91188000000E+02  0.91188000000E+02 0.  0.
    9900012    2    3    3    0    0 -0.10544793725E+02 -0.45125777029E+01  0.41857710871E+02  0.47787262776E+02  0.19999962302E+02 0.  0.
        -12    1    3    3    0    0  0.10544793725E+02  0.45125777029E+01 -0.41857710871E+02  0.43400737224E+02  0.00000000000E+00 0.  1.
         11    1    4    4    0    0 -0.68186818074E+00 -0.37076783930E+01  0.33168661812E+02  0.33382210082E+02  0.51100000000E-03 0. -1.
        -11    1    4    4    0    0 -0.48941532677E+01 -0.23669972697E+01  0.17148165384E+01  0.57005270199E+01  0.51100000000E-03 0.  1.
        -12    1    4    4    0    0 -0.49687722770E+01  0.15620979597E+01  0.69742325202E+01  0.87045256747E+01  0.00000000000E+00 0.  1.
</event>
<event>
 8    1  0.6239251E-010  0.9118800E+02  0.7816164E-02  0.1184000E+00
        -11   -1    0    0    0    0  0.00000000000E+00  0.00000000000E+00  0.45593999997E+02  0.45594000000E+02  0.51100000000E-03 0. -1.
         11   -1    0    0    0    0 -0.00000000000E+00 -0.00000000000E+00 -0.45593999997E+02  0.45594000000E+02  0.51100000000E-03 0.  1.
         23    2    1    2    0    0  0.00000000000E+00  0.00000000000E+00  0.00000000000E+00  0.91188000000E+02  0.91188000000E+02 0.  0.
    9900012    2    3    3    0    0 -0.49816486682E+01 -0.40172828772E+02  0.15650895188E+02  0.47787268264E+02  0.19999987324E+02 0.  0.
        -12    1    3    3    0    0  0.49816486682E+01  0.40172828772E+02 -0.15650895188E+02  0.43400731736E+02  0.00000000000E+00 0.  1.
         11    1    4    4    0    0 -0.10193259321E+01 -0.53575050138E+01  0.77597233361E+01  0.94844710893E+01  0.51100000000E-03 0. -1.
        -11    1    4    4    0    0 -0.56272826623E+01 -0.32407411217E+02  0.35730161483E+01  0.33085843749E+02  0.51100000000E-03 0.  1.
        -12    1    4    4    0    0  0.16649599262E+01 -0.24079125414E+01  0.43181557039E+01  0.52169534257E+01  0.00000000000E+00 0.  1.
</event>
<event>
 8    1  0.6239251E-010  0.9118800E+02  0.7816164E-02  0.1184000E+00
        -11   -1    0    0    0    0  0.00000000000E+00  0.00000000000E+00  0.45593999997E+02  0.45594000000E+02  0.51100000000E-03 0. -1.
         11   -1    0    0    0    0 -0.00000000000E+00 -0.00000000000E+00 -0.45593999997E+02  0.45594000000E+02  0.51100000000E-03 0.  1.
         23    2    1    2    0    0  0.00000000000E+00  0.00000000000E+00  0.00000000000E+00  0.91188000000E+02  0.91188000000E+02 0.  0.
    9900012    2    3    3    0    0 -0.21974640712E+02  0.30204347831E+02 -0.22100589213E+02  0.47787268372E+02  0.19999987816E+02 0.  0.
         12    1    3    3    0    0  0.21974640712E+02 -0.30204347831E+02  0.22100589213E+02  0.43400731628E+02  0.00000000000E+00 0. -1.
         11    1    4    4    0    0 -0.15011441783E+02  0.15179768178E+02 -0.37738134759E+01  0.21679723586E+02  0.51100000000E-03 0. -1.
        -11    1    4    4    0    0 -0.87158685739E+01  0.13470820731E+02 -0.14527720069E+02  0.21644491836E+02  0.51100000000E-03 0.  1.
         12    1    4    4    0    0  0.17526696456E+01  0.15537589220E+01 -0.37990556677E+01  0.44630529506E+01  0.00000000000E+00 0. -1.
</event>
<event>
 8    1  0.6239251E-010  0.9118800E+02  0.7816164E-02  0.1184000E+00
        -11   -1    0    0    0    0  0.00000000000E+00  0.00000000000E+00  0.45593999997E+02  0.45594000000E+02  0.51100000000E-03 0. -1.
         11   -1    0    0    0    0 -0.00000000000E+00 -0.00000000000E+00 -0.45593999997E+02  0.45594000000E+02  0.51100000000E-03 0.  1.
         23    2    1    2    0    0  0.00000000000E+00  0.00000000000E+00  0.00000000000E+00  0.91188000000E+02  0.91188000000E+02 0.  0.
    9900012    2    3    3    0    0 -0.14244303615E+02  0.38017929248E+02  0.15341414832E+02  0.47787284120E+02  0.20000059619E+02 0.  0.
        -12    1    3    3    0    0  0.14244303615E+02 -0.38017929248E+02 -0.15341414832E+02  0.43400715880E+02  0.00000000000E+00 0.  1.
         11    1    4    4    0    0 -0.19223437158E+01  0.77182584471E+01  0.43538584477E+01  0.90676900290E+01  0.51100000000E-03 0. -1.
        -11    1    4    4    0    0 -0.50740703163E+01  0.17552954469E+02  0.14862429318E+02  0.23553008420E+02  0.51100000000E-03 0.  1.
        -12    1    4    4    0    0 -0.72478895832E+01  0.12746716333E+02 -0.38748729338E+01  0.15166585671E+02  0.00000000000E+00 0.  1.
</event>
<event>
 8    1  0.6239251E-010  0.9118800E+02  0.7816164E-02  0.1184000E+00
        -11   -1    0    0    0    0  0.00000000000E+00  0.00000000000E+00  0.45593999997E+02  0.45594000000E+02  0.51100000000E-03 0.  1.
         11   -1    0    0    0    0 -0.00000000000E+00 -0.00000000000E+00 -0.45593999997E+02  0.45594000000E+02  0.51100000000E-03 0. -1.
         23    2    1    2    0    0  0.00000000000E+00  0.00000000000E+00 -0.17763568394E-14  0.91188000000E+02  0.91188000000E+02 0.  0.
    9900012    2    3    3    0    0  0.39625122917E+01  0.42940722032E+02 -0.49006900313E+01  0.47787264118E+02  0.19999968419E+02 0.  0.
        -12    1    3    3    0    0 -0.39625122917E+01 -0.42940722032E+02  0.49006900313E+01  0.43400735882E+02  0.00000000000E+00 0.  1.
         11    1    4    4    0    0  0.10485081537E+01  0.75221212204E+00 -0.90724710624E+00  0.15774314558E+01  0.51100000000E-03 0. -1.
        -11    1    4    4    0    0  0.87467083609E+01  0.14620550687E+02  0.26941534706E+01  0.17248880333E+02  0.51100000000E-03 0.  1.
        -12    1    4    4    0    0 -0.58327042229E+01  0.27567959223E+02 -0.66875963957E+01  0.28960952330E+02  0.00000000000E+00 0.  1.
</event>
<event>
 8    1  0.6239251E-010  0.9118800E+02  0.7816164E-02  0.1184000E+00
        -11   -1    0    0    0    0  0.00000000000E+00  0.00000000000E+00  0.45593999997E+02  0.45594000000E+02  0.51100000000E-03 0. -1.
         11   -1    0    0    0    0 -0.00000000000E+00 -0.00000000000E+00 -0.45593999997E+02  0.45594000000E+02  0.51100000000E-03 0.  1.
         23    2    1    2    0    0  0.00000000000E+00  0.00000000000E+00 -0.35527136788E-14  0.91188000000E+02  0.91188000000E+02 0.  0.
    9900012    2    3    3    0    0 -0.18791105058E+02 -0.30866404549E+02  0.24037142028E+02  0.47787253970E+02  0.19999922150E+02 0.  0.
        -12    1    3    3    0    0  0.18791105058E+02  0.30866404549E+02 -0.24037142028E+02  0.43400746030E+02  0.00000000000E+00 0.  1.
         11    1    4    4    0    0 -0.72965691605E+00  0.24000472670E+00 -0.17562225894E+01  0.19168514624E+01  0.51100000000E-03 0.  1.
        -11    1    4    4    0    0 -0.72175667058E+01 -0.22129588445E+02  0.12109980281E+02  0.26238589455E+02  0.51100000000E-03 0. -1.
        -12    1    4    4    0    0 -0.10843881436E+02 -0.89768208307E+01  0.13683384337E+02  0.19631813053E+02  0.00000000000E+00 0.  1.
</event>
<event>
 8    1  0.6239251E-010  0.9118800E+02  0.7816164E-02  0.1184000E+00
        -11   -1    0    0    0    0  0.00000000000E+00  0.00000000000E+00  0.45593999997E+02  0.45594000000E+02  0.51100000000E-03 0. -1.
         11   -1    0    0    0    0 -0.00000000000E+00 -0.00000000000E+00 -0.45593999997E+02  0.45594000000E+02  0.51100000000E-03 0.  1.
         23    2    1    2    0    0  0.35527136788E-14  0.00000000000E+00  0.00000000000E+00  0.91188000000E+02  0.91188000000E+02 0.  0.
    9900012    2    3    3    0    0 -0.16221201701E+02 -0.10679891517E+02 -0.38812830690E+02  0.47787270817E+02  0.19999998964E+02 0.  0.
         12    1    3    3    0    0  0.16221201701E+02  0.10679891517E+02  0.38812830690E+02  0.43400729183E+02  0.00000000000E+00 0. -1.
         11    1    4    4    0    0  0.24728602492E+01  0.14779390981E+01 -0.26796192070E+01  0.39344251353E+01  0.51100000000E-03 0. -1.
        -11    1    4    4    0    0 -0.20178630284E+02 -0.11233026080E+02 -0.33353170140E+02  0.40568361486E+02  0.51100000000E-03 0.  1.
        -12    1    4    4    0    0  0.14845683334E+01 -0.92480453496E+00 -0.27800413429E+01  0.32844841958E+01  0.00000000000E+00 0.  1.
</event>
<event>
 8    1  0.6239251E-010  0.9118800E+02  0.7816164E-02  0.1184000E+00
        -11   -1    0    0    0    0  0.00000000000E+00  0.00000000000E+00  0.45593999997E+02  0.45594000000E+02  0.51100000000E-03 0.  1.
         11   -1    0    0    0    0 -0.00000000000E+00 -0.00000000000E+00 -0.45593999997E+02  0.45594000000E+02  0.51100000000E-03 0. -1.
         23    2    1    2    0    0  0.00000000000E+00  0.00000000000E+00  0.35527136788E-14  0.91188000000E+02  0.91188000000E+02 0.  0.
    9900012    2    3    3    0    0 -0.40682136879E+02  0.15185943057E+01 -0.15042635170E+02  0.47787271175E+02  0.20000000593E+02 0.  0.
         12    1    3    3    0    0  0.40682136879E+02 -0.15185943057E+01  0.15042635170E+02  0.43400728825E+02  0.00000000000E+00 0. -1.
         11    1    4    4    0    0 -0.20575507420E+02  0.38975755979E+01 -0.49960321641E+01  0.21529118392E+02  0.51100000000E-03 0. -1.
        -11    1    4    4    0    0 -0.53229607523E+01 -0.52949497347E+01 -0.81328866355E+01  0.11068615503E+02  0.51100000000E-03 0.  1.
        -12    1    4    4    0    0 -0.14783668707E+02  0.29159684424E+01 -0.19137163704E+01  0.15189537279E+02  0.00000000000E+00 0.  1.
</event>
<event>
 8    1  0.6592341E-010  0.9118800E+02  0.7816164E-02  0.1184000E+00
        -11   -1    0    0    0    0  0.00000000000E+00  0.00000000000E+00  0.45593999997E+02  0.45594000000E+02  0.51100000000E-03 0. -1.
         11   -1    0    0    0    0 -0.00000000000E+00 -0.00000000000E+00 -0.45593999997E+02  0.45594000000E+02  0.51100000000E-03 0.  1.
         23    2    1    2    0    0  0.00000000000E+00  0.00000000000E+00  0.00000000000E+00  0.91188000000E+02  0.91188000000E+02 0.  0.
    9900012    2    3    3    0    0  0.14851354376E+02  0.35789904639E+02  0.19548486096E+02  0.47787270633E+02  0.19999998126E+02 0.  0.
        -12    1    3    3    0    0 -0.14851354376E+02 -0.35789904639E+02 -0.19548486096E+02  0.43400729367E+02  0.00000000000E+00 0.  1.
         11    1    4    4    0    0  0.11511107549E+02  0.25012989985E+02  0.67324063509E+01  0.28345732669E+02  0.51100000000E-03 0. -1.
        -11    1    4    4    0    0 -0.21591152233E+01  0.80523204843E+01  0.87134490333E+01  0.12059263578E+02  0.51100000000E-03 0.  1.
        -12    1    4    4    0    0  0.54993620511E+01  0.27245941698E+01  0.41026307119E+01  0.73822743865E+01  0.00000000000E+00 0.  1.
</event>
<event>
 8    1  0.6239251E-010  0.9118800E+02  0.7816164E-02  0.1184000E+00
        -11   -1    0    0    0    0  0.00000000000E+00  0.00000000000E+00  0.45593999997E+02  0.45594000000E+02  0.51100000000E-03 0. -1.
         11   -1    0    0    0    0 -0.00000000000E+00 -0.00000000000E+00 -0.45593999997E+02  0.45594000000E+02  0.51100000000E-03 0.  1.
         23    2    1    2    0    0  0.00000000000E+00  0.00000000000E+00 -0.35527136788E-14  0.91188000000E+02  0.91188000000E+02 0.  0.
    9900012    2    3    3    0    0  0.31258885729E+02  0.12420167473E+02  0.27427085650E+02  0.47787268159E+02  0.19999986845E+02 0.  0.
        -12    1    3    3    0    0 -0.31258885729E+02 -0.12420167473E+02 -0.27427085650E+02  0.43400731841E+02  0.00000000000E+00 0.  1.
         11    1    4    4    0    0  0.11645197895E+02  0.52890464771E+01  0.56140713210E+01  0.13967907635E+02  0.51100000000E-03 0. -1.
        -11    1    4    4    0    0  0.14669930088E+01 -0.13500393944E+01 -0.19167611949E+01  0.27656190254E+01  0.51100000000E-03 0.  1.
        -12    1    4    4    0    0  0.18146694825E+02  0.84811603900E+01  0.23729775524E+02  0.31053741499E+02  0.00000000000E+00 0.  1.
</event>
<event>
 8    1  0.6239251E-010  0.9118800E+02  0.7816164E-02  0.1184000E+00
        -11   -1    0    0    0    0  0.00000000000E+00  0.00000000000E+00  0.45593999997E+02  0.45594000000E+02  0.51100000000E-03 0. -1.
         11   -1    0    0    0    0 -0.00000000000E+00 -0.00000000000E+00 -0.45593999997E+02  0.45594000000E+02  0.51100000000E-03 0.  1.
         23    2    1    2    0    0  0.00000000000E+00  0.35527136788E-14  0.00000000000E+00  0.91188000000E+02  0.91188000000E+02 0.  0.
    9900012    2    3    3    0    0 -0.25116819984E+02  0.31246936639E+02  0.16625208265E+02  0.47787271374E+02  0.20000001505E+02 0.  0.
        -12    1    3    3    0    0  0.25116819984E+02 -0.31246936639E+02 -0.16625208265E+02  0.43400728626E+02  0.00000000000E+00 0.  1.
         11    1    4    4    0    0 -0.62051806538E+01  0.10606940059E+02  0.54189990714E+01  0.13430450311E+02  0.51100000000E-03 0. -1.
        -11    1    4    4    0    0 -0.14907653562E+02  0.15546736988E+02  0.15542040826E+02  0.26561140769E+02  0.51100000000E-03 0.  1.
        -12    1    4    4    0    0 -0.40039857681E+01  0.50932595917E+01 -0.43358316324E+01  0.77956802939E+01  0.00000000000E+00 0.  1.
</event>
<event>
 8    1  0.6239251E-010  0.9118800E+02  0.7816164E-02  0.1184000E+00
        -11   -1    0    0    0    0  0.00000000000E+00  0.00000000000E+00  0.45593999997E+02  0.45594000000E+02  0.51100000000E-03 0. -1.
         11   -1    0    0    0    0 -0.00000000000E+00 -0.00000000000E+00 -0.45593999997E+02  0.45594000000E+02  0.51100000000E-03 0.  1.
         23    2    1    2    0    0  0.00000000000E+00 -0.17763568394E-14  0.00000000000E+00  0.91188000000E+02  0.91188000000E+02 0.  0.
    9900012    2    3    3    0    0  0.24791975769E+02 -0.13963169945E+02  0.32772105799E+02  0.47787273094E+02  0.20000009347E+02 0.  0.
        -12    1    3    3    0    0 -0.24791975769E+02  0.13963169945E+02 -0.32772105799E+02  0.43400726906E+02  0.00000000000E+00 0.  1.
         11    1    4    4    0    0  0.66766255365E+00 -0.22673763674E+01  0.62287266655E+01  0.66621171569E+01  0.51100000000E-03 0. -1.
        -11    1    4    4    0    0  0.15515813684E+02 -0.15043032451E+02  0.21974155582E+02  0.30820396061E+02  0.51100000000E-03 0.  1.
        -12    1    4    4    0    0  0.86084995306E+01  0.33472388727E+01  0.45692235518E+01  0.10304759876E+02  0.00000000000E+00 0.  1.
</event>
<event>
 8    1  0.6239251E-010  0.9118800E+02  0.7816164E-02  0.1184000E+00
        -11   -1    0    0    0    0  0.00000000000E+00  0.00000000000E+00  0.45593999997E+02  0.45594000000E+02  0.51100000000E-03 0. -1.
         11   -1    0    0    0    0 -0.00000000000E+00 -0.00000000000E+00 -0.45593999997E+02  0.45594000000E+02  0.51100000000E-03 0.  1.
         23    2    1    2    0    0  0.00000000000E+00  0.00000000000E+00  0.00000000000E+00  0.91188000000E+02  0.91188000000E+02 0.  0.
    9900012    2    3    3    0    0 -0.17704129522E+02  0.13701667134E+02  0.37181336051E+02  0.47787266885E+02  0.19999981036E+02 0.  0.
        -12    1    3    3    0    0  0.17704129522E+02 -0.13701667134E+02 -0.37181336051E+02  0.43400733115E+02  0.00000000000E+00 0.  1.
         11    1    4    4    0    0 -0.26978352130E+01  0.56463508145E+01  0.39519260487E-02  0.62577638367E+01  0.51100000000E-03 0. -1.
        -11    1    4    4    0    0 -0.89454847217E+01  0.15330639785E+01  0.13830597546E+02  0.16542593835E+02  0.51100000000E-03 0.  1.
         12    1    4    4    0    0 -0.60608095874E+01  0.65222523411E+01  0.23346786579E+02  0.24986909213E+02  0.00000000000E+00 0. -1.
</event>
<event>
 8    1  0.6239251E-010  0.9118800E+02  0.7816164E-02  0.1184000E+00
        -11   -1    0    0    0    0  0.00000000000E+00  0.00000000000E+00  0.45593999997E+02  0.45594000000E+02  0.51100000000E-03 0. -1.
         11   -1    0    0    0    0 -0.00000000000E+00 -0.00000000000E+00 -0.45593999997E+02  0.45594000000E+02  0.51100000000E-03 0.  1.
         23    2    1    2    0    0 -0.88817841970E-15  0.71054273576E-14  0.00000000000E+00  0.91188000000E+02  0.91188000000E+02 0.  0.
    9900012    2    3    3    0    0 -0.29950146074E+01 -0.34877599445E+02 -0.25655512870E+02  0.47787281156E+02  0.20000046102E+02 0.  0.
         12    1    3    3    0    0  0.29950146074E+01  0.34877599445E+02  0.25655512870E+02  0.43400718844E+02  0.00000000000E+00 0. -1.
         11    1    4    4    0    0  0.38919651452E+01 -0.22300325015E+01 -0.20969609576E+01  0.49515334158E+01  0.51100000000E-03 0. -1.
        -11    1    4    4    0    0 -0.90699473686E+01 -0.20624969723E+02 -0.19951998307E+02  0.30095440818E+02  0.51100000000E-03 0.  1.
        -12    1    4    4    0    0  0.21829676161E+01 -0.12022597221E+02 -0.36065536048E+01  0.12740306922E+02  0.00000000000E+00 0.  1.
</event>
<event>
 8    1  0.6239251E-010  0.9118800E+02  0.7816164E-02  0.1184000E+00
        -11   -1    0    0    0    0  0.00000000000E+00  0.00000000000E+00  0.45593999997E+02  0.45594000000E+02  0.51100000000E-03 0. -1.
         11   -1    0    0    0    0 -0.00000000000E+00 -0.00000000000E+00 -0.45593999997E+02  0.45594000000E+02  0.51100000000E-03 0.  1.
         23    2    1    2    0    0  0.35527136788E-14  0.35527136788E-14  0.00000000000E+00  0.91188000000E+02  0.91188000000E+02 0.  0.
    9900012    2    3    3    0    0  0.24760539916E+02  0.25735434969E+02 -0.24662245516E+02  0.47787270699E+02  0.19999998425E+02 0.  0.
         12    1    3    3    0    0 -0.24760539916E+02 -0.25735434969E+02  0.24662245516E+02  0.43400729301E+02  0.00000000000E+00 0. -1.
         11    1    4    4    0    0  0.11977283818E+02  0.66729280479E+01 -0.15646906118E+02  0.20804061327E+02  0.51100000000E-03 0. -1.
        -11    1    4    4    0    0  0.90075627508E+01  0.14490821035E+02 -0.11058244846E+01  0.17098038748E+02  0.51100000000E-03 0.  1.
        -12    1    4    4    0    0  0.37756933471E+01  0.45716858856E+01 -0.79095149138E+01  0.98851706237E+01  0.00000000000E+00 0.  1.
</event>
<event>
 8    1  0.6239251E-010  0.9118800E+02  0.7816164E-02  0.1184000E+00
        -11   -1    0    0    0    0  0.00000000000E+00  0.00000000000E+00  0.45593999997E+02  0.45594000000E+02  0.51100000000E-03 0. -1.
         11   -1    0    0    0    0 -0.00000000000E+00 -0.00000000000E+00 -0.45593999997E+02  0.45594000000E+02  0.51100000000E-03 0.  1.
         23    2    1    2    0    0 -0.88817841970E-15  0.00000000000E+00  0.00000000000E+00  0.91188000000E+02  0.91188000000E+02 0.  0.
    9900012    2    3    3    0    0 -0.78181080288E+01 -0.24782311698E+02 -0.34761115115E+02  0.47787298275E+02  0.20000124153E+02 0.  0.
         12    1    3    3    0    0  0.78181080288E+01  0.24782311698E+02  0.34761115115E+02  0.43400701725E+02  0.00000000000E+00 0. -1.
         11    1    4    4    0    0  0.63577624367E+00 -0.16893844855E+02 -0.11743634273E+02  0.20584439551E+02  0.51100000000E-03 0. -1.
        -11    1    4    4    0    0 -0.25392739151E+01 -0.10797041528E+01 -0.31831923450E+00  0.27775889670E+01  0.51100000000E-03 0.  1.
         12    1    4    4    0    0 -0.59146103574E+01 -0.68087626904E+01 -0.22699161607E+02  0.24425269757E+02  0.00000000000E+00 0. -1.
</event>
<event>
 8    1  0.6239251E-010  0.9118800E+02  0.7816164E-02  0.1184000E+00
        -11   -1    0    0    0    0  0.00000000000E+00  0.00000000000E+00  0.45593999997E+02  0.45594000000E+02  0.51100000000E-03 0.  1.
         11   -1    0    0    0    0 -0.00000000000E+00 -0.00000000000E+00 -0.45593999997E+02  0.45594000000E+02  0.51100000000E-03 0. -1.
         23    2    1    2    0    0  0.00000000000E+00  0.00000000000E+00  0.35527136788E-14  0.91188000000E+02  0.91188000000E+02 0.  0.
    9900012    2    3    3    0    0 -0.21075165871E+02 -0.22312793175E+02  0.30685512372E+02  0.47787262388E+02  0.19999960531E+02 0.  0.
        -12    1    3    3    0    0  0.21075165871E+02  0.22312793175E+02 -0.30685512372E+02  0.43400737612E+02  0.00000000000E+00 0.  1.
         11    1    4    4    0    0 -0.82260240992E+01 -0.10394689455E+02  0.10348041976E+02  0.16816629102E+02  0.51100000000E-03 0. -1.
        -11    1    4    4    0    0 -0.52839200855E+01  0.32207766578E+01  0.75320299583E+01  0.97480607970E+01  0.51100000000E-03 0.  1.
        -12    1    4    4    0    0 -0.75652216861E+01 -0.15138880377E+02  0.12805440438E+02  0.21222572489E+02  0.00000000000E+00 0.  1.
</event>
<event>
 8    1  0.6239251E-010  0.9118800E+02  0.7816164E-02  0.1184000E+00
        -11   -1    0    0    0    0  0.00000000000E+00  0.00000000000E+00  0.45593999997E+02  0.45594000000E+02  0.51100000000E-03 0.  1.
         11   -1    0    0    0    0 -0.00000000000E+00 -0.00000000000E+00 -0.45593999997E+02  0.45594000000E+02  0.51100000000E-03 0. -1.
         23    2    1    2    0    0  0.00000000000E+00  0.00000000000E+00  0.00000000000E+00  0.91188000000E+02  0.91188000000E+02 0.  0.
    9900012    2    3    3    0    0  0.27835996941E+02 -0.24041457115E+02 -0.23038855405E+02  0.47787271385E+02  0.20000001553E+02 0.  0.
        -12    1    3    3    0    0 -0.27835996941E+02  0.24041457115E+02  0.23038855405E+02  0.43400728615E+02  0.00000000000E+00 0.  1.
         11    1    4    4    0    0  0.28391073782E+02 -0.21885231007E+02 -0.15027773866E+02  0.38869659046E+02  0.51100000000E-03 0. -1.
        -11    1    4    4    0    0  0.66170498166E+00  0.74130199031E-01 -0.18736702947E+00  0.69170473037E+00  0.51100000000E-03 0.  1.
         12    1    4    4    0    0 -0.12167818221E+01 -0.22303563072E+01 -0.78237145096E+01  0.82259076088E+01  0.00000000000E+00 0. -1.
</event>
<event>
 8    1  0.6239251E-010  0.9118800E+02  0.7816164E-02  0.1184000E+00
        -11   -1    0    0    0    0  0.00000000000E+00  0.00000000000E+00  0.45593999997E+02  0.45594000000E+02  0.51100000000E-03 0. -1.
         11   -1    0    0    0    0 -0.00000000000E+00 -0.00000000000E+00 -0.45593999997E+02  0.45594000000E+02  0.51100000000E-03 0.  1.
         23    2    1    2    0    0  0.00000000000E+00 -0.71054273576E-14  0.00000000000E+00  0.91188000000E+02  0.91188000000E+02 0.  0.
    9900012    2    3    3    0    0 -0.81430646127E+01 -0.41456906441E+02 -0.99316907297E+01  0.47787273351E+02  0.20000010516E+02 0.  0.
         12    1    3    3    0    0  0.81430646127E+01  0.41456906441E+02  0.99316907297E+01  0.43400726649E+02  0.00000000000E+00 0. -1.
         11    1    4    4    0    0  0.16342164271E+00 -0.26516468521E+01 -0.74164331123E+01  0.78779069576E+01  0.51100000000E-03 0. -1.
        -11    1    4    4    0    0 -0.67442370196E+01 -0.25080531367E+02 -0.25460194623E+01  0.26095976740E+02  0.51100000000E-03 0.  1.
         12    1    4    4    0    0 -0.15622492358E+01 -0.13724728222E+02  0.30761844856E-01  0.13813389654E+02  0.00000000000E+00 0. -1.
</event>
<event>
 8    1  0.6239251E-010  0.9118800E+02  0.7816164E-02  0.1184000E+00
        -11   -1    0    0    0    0  0.00000000000E+00  0.00000000000E+00  0.45593999997E+02  0.45594000000E+02  0.51100000000E-03 0. -1.
         11   -1    0    0    0    0 -0.00000000000E+00 -0.00000000000E+00 -0.45593999997E+02  0.45594000000E+02  0.51100000000E-03 0.  1.
         23    2    1    2    0    0  0.00000000000E+00  0.71054273576E-14  0.00000000000E+00  0.91188000000E+02  0.91188000000E+02 0.  0.
    9900012    2    3    3    0    0  0.19047003077E+02 -0.37139683297E+02  0.11894499173E+02  0.47787268299E+02  0.19999987481E+02 0.  0.
        -12    1    3    3    0    0 -0.19047003077E+02  0.37139683297E+02 -0.11894499173E+02  0.43400731701E+02  0.00000000000E+00 0.  1.
         11    1    4    4    0    0  0.19537830667E+01 -0.25522074239E+01 -0.36113822269E+01  0.48345747337E+01  0.51100000000E-03 0. -1.
        -11    1    4    4    0    0  0.17378203481E+01  0.21242257108E+00 -0.27441011239E+00  0.17721298152E+01  0.51100000000E-03 0.  1.
         12    1    4    4    0    0  0.15355399662E+02 -0.34799898445E+02  0.15780291512E+02  0.41180563750E+02  0.00000000000E+00 0. -1.
</event>
<event>
 8    1  0.6239251E-010  0.9118800E+02  0.7816164E-02  0.1184000E+00
        -11   -1    0    0    0    0  0.00000000000E+00  0.00000000000E+00  0.45593999997E+02  0.45594000000E+02  0.51100000000E-03 0. -1.
         11   -1    0    0    0    0 -0.00000000000E+00 -0.00000000000E+00 -0.45593999997E+02  0.45594000000E+02  0.51100000000E-03 0.  1.
         23    2    1    2    0    0 -0.17763568394E-14  0.35527136788E-14  0.00000000000E+00  0.91188000000E+02  0.91188000000E+02 0.  0.
    9900012    2    3    3    0    0 -0.48865393956E+01  0.21020755274E+02  0.37654658802E+02  0.47787265570E+02  0.19999975039E+02 0.  0.
        -12    1    3    3    0    0  0.48865393956E+01 -0.21020755274E+02 -0.37654658802E+02  0.43400734430E+02  0.00000000000E+00 0.  1.
         11    1    4    4    0    0  0.44762402484E+01  0.74930790906E+01  0.19723083312E+02  0.21568100904E+02  0.51100000000E-03 0. -1.
        -11    1    4    4    0    0 -0.56472776039E+01  0.46438790058E+01  0.14046582920E+02  0.15835524890E+02  0.51100000000E-03 0.  1.
         12    1    4    4    0    0 -0.37155020401E+01  0.88837971780E+01  0.38849925697E+01  0.10383639775E+02  0.00000000000E+00 0. -1.
</event>
<event>
 8    1  0.6239251E-010  0.9118800E+02  0.7816164E-02  0.1184000E+00
        -11   -1    0    0    0    0  0.00000000000E+00  0.00000000000E+00  0.45593999997E+02  0.45594000000E+02  0.51100000000E-03 0. -1.
         11   -1    0    0    0    0 -0.00000000000E+00 -0.00000000000E+00 -0.45593999997E+02  0.45594000000E+02  0.51100000000E-03 0.  1.
         23    2    1    2    0    0  0.00000000000E+00  0.00000000000E+00  0.71054273576E-14  0.91188000000E+02  0.91188000000E+02 0.  0.
    9900012    2    3    3    0    0  0.20021602605E+02 -0.23165394345E+02  0.30759115992E+02  0.47787270944E+02  0.19999999541E+02 0.  0.
        -12    1    3    3    0    0 -0.20021602605E+02  0.23165394345E+02 -0.30759115992E+02  0.43400729056E+02  0.00000000000E+00 0.  1.
         11    1    4    4    0    0  0.14182229766E+01 -0.11027150376E+02  0.13358067024E+02  0.17379509679E+02  0.51100000000E-03 0. -1.
        -11    1    4    4    0    0  0.17855613836E+02 -0.13954118201E+02  0.14495934224E+02  0.26901161119E+02  0.51100000000E-03 0.  1.
        -12    1    4    4    0    0  0.74776579243E+00  0.18158742324E+01  0.29051147436E+01  0.35066001457E+01  0.00000000000E+00 0.  1.
</event>
<event>
 8    1  0.6239251E-010  0.9118800E+02  0.7816164E-02  0.1184000E+00
        -11   -1    0    0    0    0  0.00000000000E+00  0.00000000000E+00  0.45593999997E+02  0.45594000000E+02  0.51100000000E-03 0.  1.
         11   -1    0    0    0    0 -0.00000000000E+00 -0.00000000000E+00 -0.45593999997E+02  0.45594000000E+02  0.51100000000E-03 0. -1.
         23    2    1    2    0    0 -0.35527136788E-14  0.35527136788E-14  0.00000000000E+00  0.91188000000E+02  0.91188000000E+02 0.  0.
    9900012    2    3    3    0    0  0.20950239827E+02 -0.16936178472E+02 -0.34027583612E+02  0.47787272627E+02  0.20000007215E+02 0.  0.
         12    1    3    3    0    0 -0.20950239827E+02  0.16936178472E+02  0.34027583612E+02  0.43400727373E+02  0.00000000000E+00 0. -1.
         11    1    4    4    0    0  0.87975459570E+01 -0.48837600380E+01 -0.16847106878E+02  0.19623275399E+02  0.51100000000E-03 0. -1.
        -11    1    4    4    0    0 -0.34229468617E+00  0.16939490979E+01  0.11423349840E+01  0.20716077513E+01  0.51100000000E-03 0.  1.
        -12    1    4    4    0    0  0.12494988556E+02 -0.13746367532E+02 -0.18322811718E+02  0.26092389476E+02  0.00000000000E+00 0.  1.
</event>
<event>
 8    1  0.6239251E-010  0.9118800E+02  0.7816164E-02  0.1184000E+00
        -11   -1    0    0    0    0  0.00000000000E+00  0.00000000000E+00  0.45593999997E+02  0.45594000000E+02  0.51100000000E-03 0. -1.
         11   -1    0    0    0    0 -0.00000000000E+00 -0.00000000000E+00 -0.45593999997E+02  0.45594000000E+02  0.51100000000E-03 0.  1.
         23    2    1    2    0    0  0.00000000000E+00  0.00000000000E+00  0.00000000000E+00  0.91188000000E+02  0.91188000000E+02 0.  0.
    9900012    2    3    3    0    0 -0.36077742584E+02  0.17639319009E+02 -0.16458259228E+02  0.47787269800E+02  0.19999994326E+02 0.  0.
         12    1    3    3    0    0  0.36077742584E+02 -0.17639319009E+02  0.16458259228E+02  0.43400730200E+02  0.00000000000E+00 0. -1.
         11    1    4    4    0    0 -0.59713998194E+01  0.38082157695E+01 -0.37204709288E+00  0.70921465334E+01  0.51100000000E-03 0. -1.
        -11    1    4    4    0    0 -0.19081693289E+02  0.65353051034E+01 -0.39029105138E+00  0.20173585673E+02  0.51100000000E-03 0.  1.
        -12    1    4    4    0    0 -0.11024649476E+02  0.72957981362E+01 -0.15695921084E+02  0.20521537593E+02  0.00000000000E+00 0.  1.
</event>
<event>
 8    1  0.6239251E-010  0.9118800E+02  0.7816164E-02  0.1184000E+00
        -11   -1    0    0    0    0  0.00000000000E+00  0.00000000000E+00  0.45593999997E+02  0.45594000000E+02  0.51100000000E-03 0. -1.
         11   -1    0    0    0    0 -0.00000000000E+00 -0.00000000000E+00 -0.45593999997E+02  0.45594000000E+02  0.51100000000E-03 0.  1.
         23    2    1    2    0    0  0.00000000000E+00 -0.22204460493E-15  0.00000000000E+00  0.91188000000E+02  0.91188000000E+02 0.  0.
    9900012    2    3    3    0    0  0.14944872443E+02 -0.10289894965E+01 -0.40733470291E+02  0.47787266899E+02  0.19999981101E+02 0.  0.
         12    1    3    3    0    0 -0.14944872443E+02  0.10289894965E+01  0.40733470291E+02  0.43400733101E+02  0.00000000000E+00 0. -1.
         11    1    4    4    0    0  0.11394984482E+02 -0.12182203095E+01 -0.92216231124E+01  0.14709454958E+02  0.51100000000E-03 0. -1.
        -11    1    4    4    0    0  0.54255356546E+01 -0.13616031029E+01 -0.29165929766E+02  0.29697505948E+02  0.51100000000E-03 0.  1.
        -12    1    4    4    0    0 -0.18756476932E+01  0.15508339160E+01 -0.23459174127E+01  0.33803059938E+01  0.00000000000E+00 0.  1.
</event>
<event>
 8    1  0.6239251E-010  0.9118800E+02  0.7816164E-02  0.1184000E+00
        -11   -1    0    0    0    0  0.00000000000E+00  0.00000000000E+00  0.45593999997E+02  0.45594000000E+02  0.51100000000E-03 0. -1.
         11   -1    0    0    0    0 -0.00000000000E+00 -0.00000000000E+00 -0.45593999997E+02  0.45594000000E+02  0.51100000000E-03 0.  1.
         23    2    1    2    0    0  0.00000000000E+00  0.00000000000E+00  0.00000000000E+00  0.91188000000E+02  0.91188000000E+02 0.  0.
    9900012    2    3    3    0    0 -0.41707936870E+02  0.75503503076E+01 -0.93308160068E+01  0.47787263658E+02  0.19999966321E+02 0.  0.
         12    1    3    3    0    0  0.41707936870E+02 -0.75503503076E+01  0.93308160068E+01  0.43400736342E+02  0.00000000000E+00 0. -1.
         11    1    4    4    0    0 -0.19654827043E+02  0.20186506891E+01  0.33361805939E+01  0.20037896045E+02  0.51100000000E-03 0. -1.
        -11    1    4    4    0    0 -0.60708375255E+01  0.38163878994E+01 -0.85451493895E+01  0.11155243754E+02  0.51100000000E-03 0.  1.
         12    1    4    4    0    0 -0.15982272301E+02  0.17153117191E+01 -0.41218472113E+01  0.16594123859E+02  0.00000000000E+00 0. -1.
</event>
<event>
 8    1  0.6239251E-010  0.9118800E+02  0.7816164E-02  0.1184000E+00
        -11   -1    0    0    0    0  0.00000000000E+00  0.00000000000E+00  0.45593999997E+02  0.45594000000E+02  0.51100000000E-03 0. -1.
         11   -1    0    0    0    0 -0.00000000000E+00 -0.00000000000E+00 -0.45593999997E+02  0.45594000000E+02  0.51100000000E-03 0.  1.
         23    2    1    2    0    0  0.44408920985E-15  0.00000000000E+00  0.00000000000E+00  0.91188000000E+02  0.91188000000E+02 0.  0.
    9900012    2    3    3    0    0 -0.18596100526E+01  0.18565000907E+02  0.39185529201E+02  0.47787272967E+02  0.20000008765E+02 0.  0.
        -12    1    3    3    0    0  0.18596100526E+01 -0.18565000907E+02 -0.39185529201E+02  0.43400727033E+02  0.00000000000E+00 0.  1.
         11    1    4    4    0    0  0.51145346009E+01  0.54776922123E+01  0.24675090368E+02  0.25788052681E+02  0.51100000000E-03 0. -1.
        -11    1    4    4    0    0  0.15133627837E+01  0.20816499413E+01  0.30058745086E+01  0.39571220876E+01  0.51100000000E-03 0.  1.
         12    1    4    4    0    0 -0.84875074372E+01  0.11005658753E+02  0.11504564325E+02  0.18042098198E+02  0.00000000000E+00 0. -1.
</event>
<event>
 8    1  0.6239251E-010  0.9118800E+02  0.7816164E-02  0.1184000E+00
        -11   -1    0    0    0    0  0.00000000000E+00  0.00000000000E+00  0.45593999997E+02  0.45594000000E+02  0.51100000000E-03 0.  1.
         11   -1    0    0    0    0 -0.00000000000E+00 -0.00000000000E+00 -0.45593999997E+02  0.45594000000E+02  0.51100000000E-03 0. -1.
         23    2    1    2    0    0 -0.77715611724E-15 -0.71054273576E-14 -0.44408920985E-15  0.91188000000E+02  0.91188000000E+02 0.  0.
    9900012    2    3    3    0    0  0.97232576056E+00  0.43315702275E+02  0.25353151576E+01  0.47787270699E+02  0.19999998423E+02 0.  0.
        -12    1    3    3    0    0 -0.97232576056E+00 -0.43315702275E+02 -0.25353151576E+01  0.43400729301E+02  0.00000000000E+00 0.  1.
         11    1    4    4    0    0  0.64912144130E+01  0.23797860778E+02  0.10140372084E+01  0.24688100654E+02  0.51100000000E-03 0. -1.
        -11    1    4    4    0    0 -0.76782753507E+01  0.75964877283E+01  0.19527361572E+01  0.10976143081E+02  0.51100000000E-03 0.  1.
        -12    1    4    4    0    0  0.21593866983E+01  0.11921353768E+02 -0.43145820803E+00  0.12123026964E+02  0.00000000000E+00 0.  1.
</event>
<event>
 8    1  0.6239251E-010  0.9118800E+02  0.7816164E-02  0.1184000E+00
        -11   -1    0    0    0    0  0.00000000000E+00  0.00000000000E+00  0.45593999997E+02  0.45594000000E+02  0.51100000000E-03 0. -1.
         11   -1    0    0    0    0 -0.00000000000E+00 -0.00000000000E+00 -0.45593999997E+02  0.45594000000E+02  0.51100000000E-03 0.  1.
         23    2    1    2    0    0  0.88817841970E-15  0.00000000000E+00  0.00000000000E+00  0.91188000000E+02  0.91188000000E+02 0.  0.
    9900012    2    3    3    0    0 -0.32415202300E+01  0.20854219188E+02  0.37923830011E+02  0.47787276572E+02  0.20000025203E+02 0.  0.
        -12    1    3    3    0    0  0.32415202300E+01 -0.20854219188E+02 -0.37923830011E+02  0.43400723428E+02  0.00000000000E+00 0.  1.
         11    1    4    4    0    0 -0.43015143852E+01  0.52908690541E+00  0.44119533482E+01  0.61845203183E+01  0.51100000000E-03 0. -1.
        -11    1    4    4    0    0  0.69965444207E+01  0.12414338602E+02  0.23807387277E+02  0.27746335362E+02  0.51100000000E-03 0.  1.
        -12    1    4    4    0    0 -0.59365502655E+01  0.79107936804E+01  0.97044893857E+01  0.13856420892E+02  0.00000000000E+00 0.  1.
</event>
<event>
 8    1  0.6239251E-010  0.9118800E+02  0.7816164E-02  0.1184000E+00
        -11   -1    0    0    0    0  0.00000000000E+00  0.00000000000E+00  0.45593999997E+02  0.45594000000E+02  0.51100000000E-03 0. -1.
         11   -1    0    0    0    0 -0.00000000000E+00 -0.00000000000E+00 -0.45593999997E+02  0.45594000000E+02  0.51100000000E-03 0.  1.
         23    2    1    2    0    0  0.35527136788E-14  0.00000000000E+00  0.00000000000E+00  0.91188000000E+02  0.91188000000E+02 0.  0.
    9900012    2    3    3    0    0 -0.15651141448E+02 -0.17827323015E+02 -0.36343511388E+02  0.47787280023E+02  0.20000040938E+02 0.  0.
         12    1    3    3    0    0  0.15651141448E+02  0.17827323015E+02  0.36343511388E+02  0.43400719977E+02  0.00000000000E+00 0. -1.
         11    1    4    4    0    0 -0.10278352497E+02 -0.13145073923E+02 -0.11528798882E+02  0.20281782526E+02  0.51100000000E-03 0. -1.
        -11    1    4    4    0    0  0.23781926531E+01 -0.27879498457E+01 -0.55154807093E+01  0.66218571680E+01  0.51100000000E-03 0.  1.
         12    1    4    4    0    0 -0.77509816040E+01 -0.18942992457E+01 -0.19299231797E+02  0.20883640329E+02  0.00000000000E+00 0. -1.
</event>
<event>
 8    1  0.6239251E-010  0.9118800E+02  0.7816164E-02  0.1184000E+00
        -11   -1    0    0    0    0  0.00000000000E+00  0.00000000000E+00  0.45593999997E+02  0.45594000000E+02  0.51100000000E-03 0. -1.
         11   -1    0    0    0    0 -0.00000000000E+00 -0.00000000000E+00 -0.45593999997E+02  0.45594000000E+02  0.51100000000E-03 0.  1.
         23    2    1    2    0    0  0.44408920985E-15  0.17763568394E-14  0.00000000000E+00  0.91188000000E+02  0.91188000000E+02 0.  0.
    9900012    2    3    3    0    0 -0.21577623651E+01 -0.11922614095E+02 -0.41675160620E+02  0.47787266389E+02  0.19999978775E+02 0.  0.
         12    1    3    3    0    0  0.21577623651E+01  0.11922614095E+02  0.41675160620E+02  0.43400733611E+02  0.00000000000E+00 0. -1.
         11    1    4    4    0    0  0.27787171577E+01  0.10013584795E+01 -0.92889822012E+01  0.97472651776E+01  0.51100000000E-03 0. -1.
        -11    1    4    4    0    0 -0.22687389197E+00  0.30999812776E+01 -0.35697622806E+01  0.47333454010E+01  0.51100000000E-03 0.  1.
        -12    1    4    4    0    0 -0.47096056308E+01 -0.16023953852E+02 -0.28816416138E+02  0.33306655811E+02  0.00000000000E+00 0.  1.
</event>
<event>
 8    1  0.6273713E-010  0.9118800E+02  0.7816164E-02  0.1184000E+00
        -11   -1    0    0    0    0  0.00000000000E+00  0.00000000000E+00  0.45593999997E+02  0.45594000000E+02  0.51100000000E-03 0. -1.
         11   -1    0    0    0    0 -0.00000000000E+00 -0.00000000000E+00 -0.45593999997E+02  0.45594000000E+02  0.51100000000E-03 0.  1.
         23    2    1    2    0    0  0.11102230246E-14  0.00000000000E+00  0.00000000000E+00  0.91188000000E+02  0.91188000000E+02 0.  0.
    9900012    2    3    3    0    0 -0.17599454297E+01 -0.12995529280E+02  0.41371996153E+02  0.47787271264E+02  0.20000000999E+02 0.  0.
        -12    1    3    3    0    0  0.17599454297E+01  0.12995529280E+02 -0.41371996153E+02  0.43400728736E+02  0.00000000000E+00 0.  1.
         11    1    4    4    0    0  0.46160366871E+01 -0.84488465097E+01  0.25724655720E+02  0.27467229824E+02  0.51100000000E-03 0. -1.
        -11    1    4    4    0    0 -0.86568397152E+01 -0.56696005219E+01  0.11645282181E+02  0.15578762507E+02  0.51100000000E-03 0.  1.
        -12    1    4    4    0    0  0.22808575983E+01  0.11229177513E+01  0.40020582522E+01  0.47412789323E+01  0.00000000000E+00 0.  1.
</event>
<event>
 8    1  0.6239251E-010  0.9118800E+02  0.7816164E-02  0.1184000E+00
        -11   -1    0    0    0    0  0.00000000000E+00  0.00000000000E+00  0.45593999997E+02  0.45594000000E+02  0.51100000000E-03 0. -1.
         11   -1    0    0    0    0 -0.00000000000E+00 -0.00000000000E+00 -0.45593999997E+02  0.45594000000E+02  0.51100000000E-03 0.  1.
         23    2    1    2    0    0  0.00000000000E+00 -0.35527136788E-14  0.00000000000E+00  0.91188000000E+02  0.91188000000E+02 0.  0.
    9900012    2    3    3    0    0 -0.21949616169E+02  0.25291804983E+02 -0.27607289155E+02  0.47787268857E+02  0.19999990028E+02 0.  0.
         12    1    3    3    0    0  0.21949616169E+02 -0.25291804983E+02  0.27607289155E+02  0.43400731143E+02  0.00000000000E+00 0. -1.
         11    1    4    4    0    0  0.14069606651E+01  0.17631953683E+01  0.12177057861E+01  0.25634359486E+01  0.51100000000E-03 0. -1.
        -11    1    4    4    0    0 -0.20135554701E+02  0.23167215454E+02 -0.22306299398E+02  0.37943793012E+02  0.51100000000E-03 0.  1.
        -12    1    4    4    0    0 -0.32210221335E+01  0.36139416021E+00 -0.65186955426E+01  0.72800398969E+01  0.00000000000E+00 0.  1.
</event>
<event>
 8    1  0.6239251E-010  0.9118800E+02  0.7816164E-02  0.1184000E+00
        -11   -1    0    0    0    0  0.00000000000E+00  0.00000000000E+00  0.45593999997E+02  0.45594000000E+02  0.51100000000E-03 0. -1.
         11   -1    0    0    0    0 -0.00000000000E+00 -0.00000000000E+00 -0.45593999997E+02  0.45594000000E+02  0.51100000000E-03 0.  1.
         23    2    1    2    0    0  0.00000000000E+00  0.71054273576E-14  0.00000000000E+00  0.91188000000E+02  0.91188000000E+02 0.  0.
    9900012    2    3    3    0    0 -0.18634807989E+02 -0.39194201368E+02 -0.42646708045E+00  0.47787270008E+02  0.19999995275E+02 0.  0.
         12    1    3    3    0    0  0.18634807989E+02  0.39194201368E+02  0.42646708045E+00  0.43400729992E+02  0.00000000000E+00 0. -1.
         11    1    4    4    0    0  0.22052066858E+01 -0.23532278891E+00 -0.70988833369E+00  0.23285736083E+01  0.51100000000E-03 0. -1.
        -11    1    4    4    0    0 -0.18642253939E+01 -0.11334635972E+02  0.28860372055E+01  0.11843923334E+02  0.51100000000E-03 0.  1.
         12    1    4    4    0    0 -0.18975789281E+02 -0.27624242607E+02 -0.26026159522E+01  0.33614773066E+02  0.00000000000E+00 0. -1.
</event>
<event>
 8    1  0.6239251E-010  0.9118800E+02  0.7816164E-02  0.1184000E+00
        -11   -1    0    0    0    0  0.00000000000E+00  0.00000000000E+00  0.45593999997E+02  0.45594000000E+02  0.51100000000E-03 0. -1.
         11   -1    0    0    0    0 -0.00000000000E+00 -0.00000000000E+00 -0.45593999997E+02  0.45594000000E+02  0.51100000000E-03 0.  1.
         23    2    1    2    0    0  0.00000000000E+00  0.35527136788E-14  0.00000000000E+00  0.91188000000E+02  0.91188000000E+02 0.  0.
    9900012    2    3    3    0    0 -0.54753744381E+01 -0.25106463065E+02  0.34975829795E+02  0.47787275551E+02  0.20000020546E+02 0.  0.
        -12    1    3    3    0    0  0.54753744381E+01  0.25106463065E+02 -0.34975829795E+02  0.43400724449E+02  0.00000000000E+00 0.  1.
         11    1    4    4    0    0 -0.48568634459E+01 -0.14276269084E+02  0.92038167767E+01  0.17666669890E+02  0.51100000000E-03 0. -1.
        -11    1    4    4    0    0 -0.14701128026E+01  0.90775430985E+00  0.11467846251E+02  0.11597273276E+02  0.51100000000E-03 0.  1.
        -12    1    4    4    0    0  0.85160181043E+00 -0.11737948291E+02  0.14304166767E+02  0.18523332385E+02  0.00000000000E+00 0.  1.
</event>
<event>
 8    1  0.6239251E-010  0.9118800E+02  0.7816164E-02  0.1184000E+00
        -11   -1    0    0    0    0  0.00000000000E+00  0.00000000000E+00  0.45593999997E+02  0.45594000000E+02  0.51100000000E-03 0. -1.
         11   -1    0    0    0    0 -0.00000000000E+00 -0.00000000000E+00 -0.45593999997E+02  0.45594000000E+02  0.51100000000E-03 0.  1.
         23    2    1    2    0    0  0.17763568394E-14  0.35527136788E-14  0.00000000000E+00  0.91188000000E+02  0.91188000000E+02 0.  0.
    9900012    2    3    3    0    0 -0.14202448834E+02 -0.28999043449E+02 -0.28999470433E+02  0.47787270061E+02  0.19999995518E+02 0.  0.
         12    1    3    3    0    0  0.14202448834E+02  0.28999043449E+02  0.28999470433E+02  0.43400729939E+02  0.00000000000E+00 0. -1.
         11    1    4    4    0    0 -0.11365627759E+02 -0.22265410052E+02 -0.14834104747E+02  0.29068481953E+02  0.51100000000E-03 0. -1.
        -11    1    4    4    0    0 -0.54379731362E+01 -0.77026516699E+01 -0.10355262626E+02  0.14004779859E+02  0.51100000000E-03 0.  1.
         12    1    4    4    0    0  0.26011520607E+01  0.96901827301E+00 -0.38101030594E+01  0.47140082498E+01  0.00000000000E+00 0. -1.
</event>
<event>
 8    1  0.6239251E-010  0.9118800E+02  0.7816164E-02  0.1184000E+00
        -11   -1    0    0    0    0  0.00000000000E+00  0.00000000000E+00  0.45593999997E+02  0.45594000000E+02  0.51100000000E-03 0. -1.
         11   -1    0    0    0    0 -0.00000000000E+00 -0.00000000000E+00 -0.45593999997E+02  0.45594000000E+02  0.51100000000E-03 0.  1.
         23    2    1    2    0    0 -0.44408920985E-15  0.00000000000E+00  0.00000000000E+00  0.91188000000E+02  0.91188000000E+02 0.  0.
    9900012    2    3    3    0    0 -0.14444908947E+01  0.41801165343E+02 -0.11584422034E+02  0.47787276367E+02  0.20000024268E+02 0.  0.
         12    1    3    3    0    0  0.14444908947E+01 -0.41801165343E+02  0.11584422034E+02  0.43400723633E+02  0.00000000000E+00 0. -1.
         11    1    4    4    0    0 -0.51387696275E+01  0.13097564394E+02 -0.79540444849E+01  0.16162300896E+02  0.51100000000E-03 0.  1.
        -11    1    4    4    0    0  0.49247887883E+01  0.28918703543E+02 -0.17755564303E+01  0.29388731856E+02  0.51100000000E-03 0. -1.
         12    1    4    4    0    0 -0.12305100555E+01 -0.21510259330E+00 -0.18548211187E+01  0.22362436148E+01  0.00000000000E+00 0. -1.
</event>
<event>
 8    1  0.6239251E-010  0.9118800E+02  0.7816164E-02  0.1184000E+00
        -11   -1    0    0    0    0  0.00000000000E+00  0.00000000000E+00  0.45593999997E+02  0.45594000000E+02  0.51100000000E-03 0. -1.
         11   -1    0    0    0    0 -0.00000000000E+00 -0.00000000000E+00 -0.45593999997E+02  0.45594000000E+02  0.51100000000E-03 0.  1.
         23    2    1    2    0    0  0.00000000000E+00  0.00000000000E+00  0.00000000000E+00  0.91188000000E+02  0.91188000000E+02 0.  0.
    9900012    2    3    3    0    0  0.26598448208E+02  0.23119632553E+02  0.25330394260E+02  0.47787265792E+02  0.19999976052E+02 0.  0.
        -12    1    3    3    0    0 -0.26598448208E+02 -0.23119632553E+02 -0.25330394260E+02  0.43400734208E+02  0.00000000000E+00 0.  1.
         11    1    4    4    0    0  0.84338111398E+01  0.81755940894E+01 -0.16866202775E+01  0.11866515802E+02  0.51100000000E-03 0.  1.
        -11    1    4    4    0    0  0.64166189429E+01  0.45923113614E+01  0.10831316796E+02  0.13400736774E+02  0.51100000000E-03 0. -1.
         12    1    4    4    0    0  0.11748018125E+02  0.10351727102E+02  0.16185697741E+02  0.22520013216E+02  0.00000000000E+00 0. -1.
</event>
<event>
 8    1  0.6239251E-010  0.9118800E+02  0.7816164E-02  0.1184000E+00
        -11   -1    0    0    0    0  0.00000000000E+00  0.00000000000E+00  0.45593999997E+02  0.45594000000E+02  0.51100000000E-03 0. -1.
         11   -1    0    0    0    0 -0.00000000000E+00 -0.00000000000E+00 -0.45593999997E+02  0.45594000000E+02  0.51100000000E-03 0.  1.
         23    2    1    2    0    0  0.35527136788E-14  0.44408920985E-15  0.00000000000E+00  0.91188000000E+02  0.91188000000E+02 0.  0.
    9900012    2    3    3    0    0  0.30352678545E+02 -0.35895599731E+01 -0.30813203151E+02  0.47787268162E+02  0.19999986858E+02 0.  0.
         12    1    3    3    0    0 -0.30352678545E+02  0.35895599731E+01  0.30813203151E+02  0.43400731838E+02  0.00000000000E+00 0. -1.
         11    1    4    4    0    0  0.59284550944E+01  0.27476519951E+01 -0.16000072238E+02  0.17282895682E+02  0.51100000000E-03 0. -1.
        -11    1    4    4    0    0  0.59949261498E+01 -0.40106624776E+01 -0.84317284744E+00  0.72619208039E+01  0.51100000000E-03 0.  1.
        -12    1    4    4    0    0  0.18429297301E+02 -0.23265494906E+01 -0.13969958065E+02  0.23242451676E+02  0.00000000000E+00 0.  1.
</event>
<event>
 8    1  0.6239251E-010  0.9118800E+02  0.7816164E-02  0.1184000E+00
        -11   -1    0    0    0    0  0.00000000000E+00  0.00000000000E+00  0.45593999997E+02  0.45594000000E+02  0.51100000000E-03 0. -1.
         11   -1    0    0    0    0 -0.00000000000E+00 -0.00000000000E+00 -0.45593999997E+02  0.45594000000E+02  0.51100000000E-03 0.  1.
         23    2    1    2    0    0  0.00000000000E+00  0.00000000000E+00  0.00000000000E+00  0.91188000000E+02  0.91188000000E+02 0.  0.
    9900012    2    3    3    0    0  0.42522813754E+01  0.20805999356E+02  0.37850387283E+02  0.47787270472E+02  0.19999997391E+02 0.  0.
        -12    1    3    3    0    0 -0.42522813754E+01 -0.20805999356E+02 -0.37850387283E+02  0.43400729528E+02  0.00000000000E+00 0.  1.
         11    1    4    4    0    0  0.88279910701E+01  0.13103181752E+02  0.21368570768E+02  0.26575225592E+02  0.51100000000E-03 0. -1.
        -11    1    4    4    0    0 -0.20737252923E+01  0.36565132852E+00 -0.81467994554E+00  0.22578177864E+01  0.51100000000E-03 0.  1.
         12    1    4    4    0    0 -0.25019844023E+01  0.73371662758E+01  0.17296496460E+02  0.18954227093E+02  0.00000000000E+00 0. -1.
</event>
<event>
 8    1  0.6239251E-010  0.9118800E+02  0.7816164E-02  0.1184000E+00
        -11   -1    0    0    0    0  0.00000000000E+00  0.00000000000E+00  0.45593999997E+02  0.45594000000E+02  0.51100000000E-03 0. -1.
         11   -1    0    0    0    0 -0.00000000000E+00 -0.00000000000E+00 -0.45593999997E+02  0.45594000000E+02  0.51100000000E-03 0.  1.
         23    2    1    2    0    0  0.71054273576E-14 -0.17763568394E-14  0.00000000000E+00  0.91188000000E+02  0.91188000000E+02 0.  0.
    9900012    2    3    3    0    0 -0.42503961505E+02 -0.60938992284E+01  0.63167832100E+01  0.47787261509E+02  0.19999956524E+02 0.  0.
        -12    1    3    3    0    0  0.42503961505E+02  0.60938992284E+01 -0.63167832100E+01  0.43400738491E+02  0.00000000000E+00 0.  1.
         11    1    4    4    0    0 -0.27794236892E+02  0.92702502371E+00  0.18417504386E+01  0.27870612207E+02  0.51100000000E-03 0. -1.
        -11    1    4    4    0    0 -0.12957890133E+02 -0.99229744005E+00  0.19124729860E+01  0.13135795526E+02  0.51100000000E-03 0.  1.
         12    1    4    4    0    0 -0.17518344795E+01 -0.60286268121E+01  0.25625597855E+01  0.67808537764E+01  0.00000000000E+00 0. -1.
</event>
<event>
 8    1  0.6239251E-010  0.9118800E+02  0.7816164E-02  0.1184000E+00
        -11   -1    0    0    0    0  0.00000000000E+00  0.00000000000E+00  0.45593999997E+02  0.45594000000E+02  0.51100000000E-03 0.  1.
         11   -1    0    0    0    0 -0.00000000000E+00 -0.00000000000E+00 -0.45593999997E+02  0.45594000000E+02  0.51100000000E-03 0. -1.
         23    2    1    2    0    0  0.00000000000E+00  0.00000000000E+00  0.00000000000E+00  0.91188000000E+02  0.91188000000E+02 0.  0.
    9900012    2    3    3    0    0 -0.41290773345E+02  0.54055060786E+01  0.12226058166E+02  0.47787263167E+02  0.19999964082E+02 0.  0.
        -12    1    3    3    0    0  0.41290773345E+02 -0.54055060786E+01 -0.12226058166E+02  0.43400736833E+02  0.00000000000E+00 0.  1.
         11    1    4    4    0    0  0.85058433454E+00 -0.22698674080E+01  0.23348650087E+01  0.33656183132E+01  0.51100000000E-03 0. -1.
        -11    1    4    4    0    0 -0.18754759481E+02  0.21888108556E+00  0.39904889926E+01  0.19175841958E+02  0.51100000000E-03 0.  1.
         12    1    4    4    0    0 -0.23386598198E+02  0.74564924011E+01  0.59007041648E+01  0.25245802896E+02  0.00000000000E+00 0. -1.
</event>
<event>
 8    1  0.6239251E-010  0.9118800E+02  0.7816164E-02  0.1184000E+00
        -11   -1    0    0    0    0  0.00000000000E+00  0.00000000000E+00  0.45593999997E+02  0.45594000000E+02  0.51100000000E-03 0. -1.
         11   -1    0    0    0    0 -0.00000000000E+00 -0.00000000000E+00 -0.45593999997E+02  0.45594000000E+02  0.51100000000E-03 0.  1.
         23    2    1    2    0    0 -0.71054273576E-14  0.00000000000E+00  0.88817841970E-15  0.91188000000E+02  0.91188000000E+02 0.  0.
    9900012    2    3    3    0    0  0.40143548026E+02 -0.15954290695E+02  0.41927792925E+01  0.47787271459E+02  0.20000001889E+02 0.  0.
        -12    1    3    3    0    0 -0.40143548026E+02  0.15954290695E+02 -0.41927792925E+01  0.43400728541E+02  0.00000000000E+00 0.  1.
         11    1    4    4    0    0  0.30519123232E+02 -0.29765071116E+01 -0.33842296339E+00  0.30665795404E+02  0.51100000000E-03 0.  1.
        -11    1    4    4    0    0  0.88733908223E+01 -0.10604874074E+02  0.28506452887E+01  0.14118307180E+02  0.51100000000E-03 0. -1.
        -12    1    4    4    0    0  0.75103397206E+00 -0.23729095097E+01  0.16805569671E+01  0.30031688744E+01  0.00000000000E+00 0.  1.
</event>
<event>
 8    1  0.6239251E-010  0.9118800E+02  0.7816164E-02  0.1184000E+00
        -11   -1    0    0    0    0  0.00000000000E+00  0.00000000000E+00  0.45593999997E+02  0.45594000000E+02  0.51100000000E-03 0.  1.
         11   -1    0    0    0    0 -0.00000000000E+00 -0.00000000000E+00 -0.45593999997E+02  0.45594000000E+02  0.51100000000E-03 0. -1.
         23    2    1    2    0    0  0.00000000000E+00 -0.35527136788E-14  0.71054273576E-14  0.91188000000E+02  0.91188000000E+02 0.  0.
    9900012    2    3    3    0    0  0.82486314478E+01 -0.28567030899E+02  0.31614995308E+02  0.47787273007E+02  0.20000008949E+02 0.  0.
        -12    1    3    3    0    0 -0.82486314478E+01  0.28567030899E+02 -0.31614995308E+02  0.43400726993E+02  0.00000000000E+00 0.  1.
         11    1    4    4    0    0  0.11675040988E+01  0.21832099008E+01 -0.15258386006E+00  0.24804744278E+01  0.51100000000E-03 0. -1.
        -11    1    4    4    0    0  0.13995296404E+00 -0.98881567316E+00  0.36336151970E+01  0.37683554674E+01  0.51100000000E-03 0.  1.
         12    1    4    4    0    0  0.69411743850E+01 -0.29761425127E+02  0.28133963971E+02  0.41538443112E+02  0.00000000000E+00 0. -1.
</event>
<event>
 8    1  0.6239251E-010  0.9118800E+02  0.7816164E-02  0.1184000E+00
        -11   -1    0    0    0    0  0.00000000000E+00  0.00000000000E+00  0.45593999997E+02  0.45594000000E+02  0.51100000000E-03 0. -1.
         11   -1    0    0    0    0 -0.00000000000E+00 -0.00000000000E+00 -0.45593999997E+02  0.45594000000E+02  0.51100000000E-03 0.  1.
         23    2    1    2    0    0  0.00000000000E+00  0.00000000000E+00  0.00000000000E+00  0.91188000000E+02  0.91188000000E+02 0.  0.
    9900012    2    3    3    0    0 -0.10802725216E+02  0.15568662670E+02  0.39045387037E+02  0.47787258321E+02  0.19999941988E+02 0.  0.
        -12    1    3    3    0    0  0.10802725216E+02 -0.15568662670E+02 -0.39045387037E+02  0.43400741679E+02  0.00000000000E+00 0.  1.
         11    1    4    4    0    0  0.23868801174E+01  0.58471146860E+01  0.50165663592E+01  0.80654748864E+01  0.51100000000E-03 0. -1.
        -11    1    4    4    0    0 -0.71239825503E+01 -0.71505711162E+00  0.19842689925E+02  0.21094899331E+02  0.51100000000E-03 0.  1.
        -12    1    4    4    0    0 -0.60656227829E+01  0.10436605096E+02  0.14186130753E+02  0.18626884103E+02  0.00000000000E+00 0.  1.
</event>
<event>
 8    1  0.6239251E-010  0.9118800E+02  0.7816164E-02  0.1184000E+00
        -11   -1    0    0    0    0  0.00000000000E+00  0.00000000000E+00  0.45593999997E+02  0.45594000000E+02  0.51100000000E-03 0. -1.
         11   -1    0    0    0    0 -0.00000000000E+00 -0.00000000000E+00 -0.45593999997E+02  0.45594000000E+02  0.51100000000E-03 0.  1.
         23    2    1    2    0    0  0.00000000000E+00  0.00000000000E+00  0.00000000000E+00  0.91188000000E+02  0.91188000000E+02 0.  0.
    9900012    2    3    3    0    0 -0.86806091453E+01 -0.75467235839E+01 -0.41848750893E+02  0.47787263102E+02  0.19999963789E+02 0.  0.
         12    1    3    3    0    0  0.86806091453E+01  0.75467235839E+01  0.41848750893E+02  0.43400736898E+02  0.00000000000E+00 0. -1.
         11    1    4    4    0    0 -0.72984989230E+01 -0.15765968880E+01 -0.82796098079E+01  0.11149245854E+02  0.51100000000E-03 0. -1.
        -11    1    4    4    0    0 -0.96295245910E+00  0.92028717907E+00 -0.27240084988E+02  0.27272631636E+02  0.51100000000E-03 0.  1.
        -12    1    4    4    0    0 -0.41915776316E+00 -0.68904138750E+01 -0.63290560963E+01  0.93653856124E+01  0.00000000000E+00 0.  1.
</event>
<event>
 8    1  0.6239251E-010  0.9118800E+02  0.7816164E-02  0.1184000E+00
        -11   -1    0    0    0    0  0.00000000000E+00  0.00000000000E+00  0.45593999997E+02  0.45594000000E+02  0.51100000000E-03 0. -1.
         11   -1    0    0    0    0 -0.00000000000E+00 -0.00000000000E+00 -0.45593999997E+02  0.45594000000E+02  0.51100000000E-03 0.  1.
         23    2    1    2    0    0  0.00000000000E+00  0.00000000000E+00  0.00000000000E+00  0.91188000000E+02  0.91188000000E+02 0.  0.
    9900012    2    3    3    0    0  0.17148640937E+02 -0.11906093054E+02 -0.38049867968E+02  0.47787269704E+02  0.19999993891E+02 0.  0.
         12    1    3    3    0    0 -0.17148640937E+02  0.11906093054E+02  0.38049867968E+02  0.43400730296E+02  0.00000000000E+00 0. -1.
         11    1    4    4    0    0  0.86567462813E+01 -0.45166935729E+01 -0.41584700210E+01  0.10612853065E+02  0.51100000000E-03 0. -1.
        -11    1    4    4    0    0  0.10817709963E+02 -0.64492889005E+01 -0.25922740832E+02  0.28820212849E+02  0.51100000000E-03 0.  1.
         12    1    4    4    0    0 -0.23258153074E+01 -0.94011058095E+00 -0.79686571153E+01  0.83542037903E+01  0.00000000000E+00 0. -1.
</event>
<event>
 8    1  0.6239251E-010  0.9118800E+02  0.7816164E-02  0.1184000E+00
        -11   -1    0    0    0    0  0.00000000000E+00  0.00000000000E+00  0.45593999997E+02  0.45594000000E+02  0.51100000000E-03 0.  1.
         11   -1    0    0    0    0 -0.00000000000E+00 -0.00000000000E+00 -0.45593999997E+02  0.45594000000E+02  0.51100000000E-03 0. -1.
         23    2    1    2    0    0  0.00000000000E+00  0.00000000000E+00  0.00000000000E+00  0.91188000000E+02  0.91188000000E+02 0.  0.
    9900012    2    3    3    0    0  0.38288446133E+02 -0.12002902464E+02 -0.16539295783E+02  0.47787273280E+02  0.20000010193E+02 0.  0.
         12    1    3    3    0    0 -0.38288446133E+02  0.12002902464E+02  0.16539295783E+02  0.43400726720E+02  0.00000000000E+00 0. -1.
         11    1    4    4    0    0  0.28220639793E+02 -0.19507572610E+01 -0.11447590416E+02  0.30516508496E+02  0.51100000000E-03 0. -1.
        -11    1    4    4    0    0  0.11312484019E+02 -0.82767857596E+01 -0.31643934303E+01  0.14369789951E+02  0.51100000000E-03 0.  1.
         12    1    4    4    0    0 -0.12446776792E+01 -0.17753594429E+01 -0.19273119373E+01  0.29009748328E+01  0.00000000000E+00 0. -1.
</event>
<event>
 8    1  0.6239251E-010  0.9118800E+02  0.7816164E-02  0.1184000E+00
        -11   -1    0    0    0    0  0.00000000000E+00  0.00000000000E+00  0.45593999997E+02  0.45594000000E+02  0.51100000000E-03 0.  1.
         11   -1    0    0    0    0 -0.00000000000E+00 -0.00000000000E+00 -0.45593999997E+02  0.45594000000E+02  0.51100000000E-03 0. -1.
         23    2    1    2    0    0  0.00000000000E+00  0.17763568394E-14 -0.22204460493E-14  0.91188000000E+02  0.91188000000E+02 0.  0.
    9900012    2    3    3    0    0  0.42352432508E+02  0.92408966872E+01 -0.21214909228E+01  0.47787269192E+02  0.19999991552E+02 0.  0.
         12    1    3    3    0    0 -0.42352432508E+02 -0.92408966872E+01  0.21214909228E+01  0.43400730808E+02  0.00000000000E+00 0. -1.
         11    1    4    4    0    0  0.17554872826E+00  0.18699742750E+01 -0.30823554995E+00  0.19033209295E+01  0.51100000000E-03 0. -1.
        -11    1    4    4    0    0  0.14258054942E+02 -0.17150788877E+00  0.66752300483E+01  0.15744212973E+02  0.51100000000E-03 0.  1.
        -12    1    4    4    0    0  0.27918828838E+02  0.75424303010E+01 -0.84884854212E+01  0.30139735289E+02  0.00000000000E+00 0.  1.
</event>
<event>
 8    1  0.6239251E-010  0.9118800E+02  0.7816164E-02  0.1184000E+00
        -11   -1    0    0    0    0  0.00000000000E+00  0.00000000000E+00  0.45593999997E+02  0.45594000000E+02  0.51100000000E-03 0. -1.
         11   -1    0    0    0    0 -0.00000000000E+00 -0.00000000000E+00 -0.45593999997E+02  0.45594000000E+02  0.51100000000E-03 0.  1.
         23    2    1    2    0    0  0.00000000000E+00  0.00000000000E+00  0.00000000000E+00  0.91188000000E+02  0.91188000000E+02 0.  0.
    9900012    2    3    3    0    0  0.97273482930E+01  0.10261858548E+02  0.41032871843E+02  0.47787267087E+02  0.19999981958E+02 0.  0.
        -12    1    3    3    0    0 -0.97273482930E+01 -0.10261858548E+02 -0.41032871843E+02  0.43400732913E+02  0.00000000000E+00 0.  1.
         11    1    4    4    0    0  0.42445015114E+00  0.17201443846E+01 -0.12053722509E+01  0.21428899083E+01  0.51100000000E-03 0.  1.
        -11    1    4    4    0    0 -0.22326413739E+00  0.66374582275E+01  0.24895874553E+02  0.25766456268E+02  0.51100000000E-03 0. -1.
        -12    1    4    4    0    0  0.95261622792E+01  0.19042559354E+01  0.17342369541E+02  0.19877920911E+02  0.00000000000E+00 0.  1.
</event>
<event>
 8    1  0.6239251E-010  0.9118800E+02  0.7816164E-02  0.1184000E+00
        -11   -1    0    0    0    0  0.00000000000E+00  0.00000000000E+00  0.45593999997E+02  0.45594000000E+02  0.51100000000E-03 0.  1.
         11   -1    0    0    0    0 -0.00000000000E+00 -0.00000000000E+00 -0.45593999997E+02  0.45594000000E+02  0.51100000000E-03 0. -1.
         23    2    1    2    0    0  0.88817841970E-15  0.00000000000E+00 -0.88817841970E-15  0.91188000000E+02  0.91188000000E+02 0.  0.
    9900012    2    3    3    0    0  0.53792744746E+01 -0.42452133829E+02  0.72458869316E+01  0.47787272610E+02  0.20000007140E+02 0.  0.
         12    1    3    3    0    0 -0.53792744746E+01  0.42452133829E+02 -0.72458869316E+01  0.43400727390E+02  0.00000000000E+00 0. -1.
         11    1    4    4    0    0  0.11302034966E+02 -0.21728036504E+02  0.12883880053E+01  0.24525568467E+02  0.51100000000E-03 0. -1.
        -11    1    4    4    0    0 -0.57567825231E+01 -0.20939663628E+02  0.64883955032E+01  0.22665156834E+02  0.51100000000E-03 0.  1.
         12    1    4    4    0    0 -0.16597796871E+00  0.21556630252E+00 -0.53089657685E+00  0.59654730927E+00  0.00000000000E+00 0. -1.
</event>
<event>
 8    1  0.6239251E-010  0.9118800E+02  0.7816164E-02  0.1184000E+00
        -11   -1    0    0    0    0  0.00000000000E+00  0.00000000000E+00  0.45593999997E+02  0.45594000000E+02  0.51100000000E-03 0. -1.
         11   -1    0    0    0    0 -0.00000000000E+00 -0.00000000000E+00 -0.45593999997E+02  0.45594000000E+02  0.51100000000E-03 0.  1.
         23    2    1    2    0    0  0.00000000000E+00  0.00000000000E+00  0.00000000000E+00  0.91188000000E+02  0.91188000000E+02 0.  0.
    9900012    2    3    3    0    0  0.35042015303E+02 -0.99346583693E+01  0.23600477342E+02  0.47787276455E+02  0.20000024670E+02 0.  0.
        -12    1    3    3    0    0 -0.35042015303E+02  0.99346583693E+01 -0.23600477342E+02  0.43400723545E+02  0.00000000000E+00 0.  1.
         11    1    4    4    0    0  0.14083710235E+02  0.35206502343E+00  0.26765770867E+01  0.14340115373E+02  0.51100000000E-03 0. -1.
        -11    1    4    4    0    0  0.44811290624E+01 -0.28607285062E+01 -0.59026311004E+00  0.53490836655E+01  0.51100000000E-03 0.  1.
         12    1    4    4    0    0  0.16477176006E+02 -0.74259948864E+01  0.21514163366E+02  0.28098077417E+02  0.00000000000E+00 0. -1.
</event>
<event>
 8    1  0.6239251E-010  0.9118800E+02  0.7816164E-02  0.1184000E+00
        -11   -1    0    0    0    0  0.00000000000E+00  0.00000000000E+00  0.45593999997E+02  0.45594000000E+02  0.51100000000E-03 0. -1.
         11   -1    0    0    0    0 -0.00000000000E+00 -0.00000000000E+00 -0.45593999997E+02  0.45594000000E+02  0.51100000000E-03 0.  1.
         23    2    1    2    0    0  0.00000000000E+00 -0.35527136788E-14  0.00000000000E+00  0.91188000000E+02  0.91188000000E+02 0.  0.
    9900012    2    3    3    0    0 -0.19373191019E+02 -0.21679217015E+02 -0.32222907457E+02  0.47787254089E+02  0.19999922692E+02 0.  0.
         12    1    3    3    0    0  0.19373191019E+02  0.21679217015E+02  0.32222907457E+02  0.43400745911E+02  0.00000000000E+00 0. -1.
         11    1    4    4    0    0  0.11141937885E+01 -0.45900644175E+01 -0.92076424762E+01  0.10348468456E+02  0.51100000000E-03 0. -1.
        -11    1    4    4    0    0 -0.18520768539E+02 -0.15682364150E+02 -0.24593477498E+02  0.34551332077E+02  0.51100000000E-03 0.  1.
        -12    1    4    4    0    0 -0.19666162688E+01 -0.14067884476E+01  0.15782125171E+01  0.28874535553E+01  0.00000000000E+00 0.  1.
</event>
<event>
 8    1  0.6239251E-010  0.9118800E+02  0.7816164E-02  0.1184000E+00
        -11   -1    0    0    0    0  0.00000000000E+00  0.00000000000E+00  0.45593999997E+02  0.45594000000E+02  0.51100000000E-03 0.  1.
         11   -1    0    0    0    0 -0.00000000000E+00 -0.00000000000E+00 -0.45593999997E+02  0.45594000000E+02  0.51100000000E-03 0. -1.
         23    2    1    2    0    0  0.00000000000E+00 -0.71054273576E-14  0.88817841970E-15  0.91188000000E+02  0.91188000000E+02 0.  0.
    9900012    2    3    3    0    0  0.92775181659E+01 -0.41988828187E+02  0.58727387243E+01  0.47787273094E+02  0.20000009346E+02 0.  0.
         12    1    3    3    0    0 -0.92775181659E+01  0.41988828187E+02 -0.58727387243E+01  0.43400726906E+02  0.00000000000E+00 0. -1.
         11    1    4    4    0    0  0.10462469515E+02 -0.12825788021E+02  0.37631353623E+01  0.16974253879E+02  0.51100000000E-03 0. -1.
        -11    1    4    4    0    0  0.36627816117E+01 -0.65028520322E+01 -0.57258446827E+00  0.74853795443E+01  0.51100000000E-03 0.  1.
         12    1    4    4    0    0 -0.48477329605E+01 -0.22660188133E+02  0.26821878302E+01  0.23327639672E+02  0.00000000000E+00 0. -1.
</event>
<event>
 8    1  0.6239251E-010  0.9118800E+02  0.7816164E-02  0.1184000E+00
        -11   -1    0    0    0    0  0.00000000000E+00  0.00000000000E+00  0.45593999997E+02  0.45594000000E+02  0.51100000000E-03 0.  1.
         11   -1    0    0    0    0 -0.00000000000E+00 -0.00000000000E+00 -0.45593999997E+02  0.45594000000E+02  0.51100000000E-03 0. -1.
         23    2    1    2    0    0  0.00000000000E+00  0.00000000000E+00  0.00000000000E+00  0.91188000000E+02  0.91188000000E+02 0.  0.
    9900012    2    3    3    0    0 -0.19972553939E+02 -0.38395140538E+02 -0.32455336417E+01  0.47787271707E+02  0.20000003020E+02 0.  0.
         12    1    3    3    0    0  0.19972553939E+02  0.38395140538E+02  0.32455336417E+01  0.43400728293E+02  0.00000000000E+00 0. -1.
         11    1    4    4    0    0  0.40950798494E+00 -0.92250787669E+01  0.20734838437E+01  0.94640958658E+01  0.51100000000E-03 0. -1.
        -11    1    4    4    0    0 -0.17819587681E+02 -0.19315090073E+02  0.10714985027E+01  0.26301302609E+02  0.51100000000E-03 0.  1.
        -12    1    4    4    0    0 -0.25624742435E+01 -0.98549716973E+01 -0.63905159881E+01  0.12021873232E+02  0.00000000000E+00 0.  1.
</event>
<event>
 8    1  0.6239251E-010  0.9118800E+02  0.7816164E-02  0.1184000E+00
        -11   -1    0    0    0    0  0.00000000000E+00  0.00000000000E+00  0.45593999997E+02  0.45594000000E+02  0.51100000000E-03 0.  1.
         11   -1    0    0    0    0 -0.00000000000E+00 -0.00000000000E+00 -0.45593999997E+02  0.45594000000E+02  0.51100000000E-03 0. -1.
         23    2    1    2    0    0  0.00000000000E+00  0.00000000000E+00  0.00000000000E+00  0.91188000000E+02  0.91188000000E+02 0.  0.
    9900012    2    3    3    0    0  0.33094522488E+02 -0.22666249678E+02  0.16571460690E+02  0.47787313340E+02  0.20000192842E+02 0.  0.
        -12    1    3    3    0    0 -0.33094522488E+02  0.22666249678E+02 -0.16571460690E+02  0.43400686660E+02  0.00000000000E+00 0.  1.
         11    1    4    4    0    0  0.25343051359E+02 -0.90459436157E+01  0.10572984287E+02  0.28911716398E+02  0.51100000000E-03 0. -1.
        -11    1    4    4    0    0  0.23120255629E+01 -0.50434446711E+01  0.66954209537E+01  0.86954274398E+01  0.51100000000E-03 0.  1.
         12    1    4    4    0    0  0.54394455658E+01 -0.85768613909E+01 -0.69694455060E+00  0.10180169502E+02  0.00000000000E+00 0. -1.
</event>
<event>
 8    1  0.6239251E-010  0.9118800E+02  0.7816164E-02  0.1184000E+00
        -11   -1    0    0    0    0  0.00000000000E+00  0.00000000000E+00  0.45593999997E+02  0.45594000000E+02  0.51100000000E-03 0. -1.
         11   -1    0    0    0    0 -0.00000000000E+00 -0.00000000000E+00 -0.45593999997E+02  0.45594000000E+02  0.51100000000E-03 0.  1.
         23    2    1    2    0    0  0.00000000000E+00  0.17763568394E-14  0.00000000000E+00  0.91188000000E+02  0.91188000000E+02 0.  0.
    9900012    2    3    3    0    0 -0.22177302994E+02  0.12384200752E+02  0.35191218128E+02  0.47787273858E+02  0.20000012827E+02 0.  0.
        -12    1    3    3    0    0  0.22177302994E+02 -0.12384200752E+02 -0.35191218128E+02  0.43400726142E+02  0.00000000000E+00 0.  1.
         11    1    4    4    0    0 -0.21029615992E+02  0.14849952124E+02  0.31699570160E+02  0.40836608276E+02  0.51100000000E-03 0. -1.
        -11    1    4    4    0    0 -0.12500203598E+01 -0.35322707247E+01  0.50890814945E+00  0.37813324554E+01  0.51100000000E-03 0.  1.
         12    1    4    4    0    0  0.10233335791E+00  0.10665193527E+01  0.29827398181E+01  0.31693331267E+01  0.00000000000E+00 0. -1.
</event>
<event>
 8    1  0.6239251E-010  0.9118800E+02  0.7816164E-02  0.1184000E+00
        -11   -1    0    0    0    0  0.00000000000E+00  0.00000000000E+00  0.45593999997E+02  0.45594000000E+02  0.51100000000E-03 0. -1.
         11   -1    0    0    0    0 -0.00000000000E+00 -0.00000000000E+00 -0.45593999997E+02  0.45594000000E+02  0.51100000000E-03 0.  1.
         23    2    1    2    0    0  0.00000000000E+00  0.00000000000E+00  0.00000000000E+00  0.91188000000E+02  0.91188000000E+02 0.  0.
    9900012    2    3    3    0    0 -0.17348581326E+02  0.75719175288E+01 -0.39055290226E+02  0.47787275309E+02  0.20000019444E+02 0.  0.
         12    1    3    3    0    0  0.17348581326E+02 -0.75719175288E+01  0.39055290226E+02  0.43400724691E+02  0.00000000000E+00 0. -1.
         11    1    4    4    0    0  0.27602818045E+01  0.98286953355E+00 -0.37732080051E+01  0.47772677412E+01  0.51100000000E-03 0. -1.
        -11    1    4    4    0    0 -0.96046860107E+01  0.85482933520E+01 -0.25336608462E+02  0.28412445181E+02  0.51100000000E-03 0.  1.
        -12    1    4    4    0    0 -0.10504177120E+02 -0.19592453568E+01 -0.99454737592E+01  0.14597562386E+02  0.00000000000E+00 0.  1.
</event>
<event>
 8    1  0.6239251E-010  0.9118800E+02  0.7816164E-02  0.1184000E+00
        -11   -1    0    0    0    0  0.00000000000E+00  0.00000000000E+00  0.45593999997E+02  0.45594000000E+02  0.51100000000E-03 0.  1.
         11   -1    0    0    0    0 -0.00000000000E+00 -0.00000000000E+00 -0.45593999997E+02  0.45594000000E+02  0.51100000000E-03 0. -1.
         23    2    1    2    0    0  0.33306690739E-15  0.00000000000E+00  0.35527136788E-14  0.91188000000E+02  0.91188000000E+02 0.  0.
    9900012    2    3    3    0    0  0.47900046137E+00  0.35404715895E+02 -0.25097812612E+02  0.47787267899E+02  0.19999985657E+02 0.  0.
         12    1    3    3    0    0 -0.47900046137E+00 -0.35404715895E+02  0.25097812612E+02  0.43400732101E+02  0.00000000000E+00 0. -1.
         11    1    4    4    0    0 -0.25563683566E+00 -0.17113215755E+01 -0.15536542547E+00  0.17372709643E+01  0.51100000000E-03 0. -1.
        -11    1    4    4    0    0  0.54105761280E+01  0.27196997751E+02 -0.17306840470E+02  0.32687577886E+02  0.51100000000E-03 0.  1.
         12    1    4    4    0    0 -0.46759388309E+01  0.99190397188E+01 -0.76356067171E+01  0.13362419049E+02  0.00000000000E+00 0. -1.
</event>
<event>
 8    1  0.6239251E-010  0.9118800E+02  0.7816164E-02  0.1184000E+00
        -11   -1    0    0    0    0  0.00000000000E+00  0.00000000000E+00  0.45593999997E+02  0.45594000000E+02  0.51100000000E-03 0. -1.
         11   -1    0    0    0    0 -0.00000000000E+00 -0.00000000000E+00 -0.45593999997E+02  0.45594000000E+02  0.51100000000E-03 0.  1.
         23    2    1    2    0    0  0.00000000000E+00  0.00000000000E+00  0.00000000000E+00  0.91188000000E+02  0.91188000000E+02 0.  0.
    9900012    2    3    3    0    0  0.12281907398E+02  0.36935566445E+02 -0.19197445895E+02  0.47787271356E+02  0.20000001419E+02 0.  0.
         12    1    3    3    0    0 -0.12281907398E+02 -0.36935566445E+02  0.19197445895E+02  0.43400728644E+02  0.00000000000E+00 0. -1.
         11    1    4    4    0    0  0.60197125021E+01  0.31446518941E+02 -0.16926695191E+02  0.36216481089E+02  0.51100000000E-03 0. -1.
        -11    1    4    4    0    0 -0.86059300121E+00  0.28729508466E+01 -0.26092034483E+01  0.39752244938E+01  0.51100000000E-03 0.  1.
         12    1    4    4    0    0  0.71227878973E+01  0.26160966574E+01  0.33845274386E+00  0.75955657729E+01  0.00000000000E+00 0. -1.
</event>
<event>
 8    1  0.6239251E-010  0.9118800E+02  0.7816164E-02  0.1184000E+00
        -11   -1    0    0    0    0  0.00000000000E+00  0.00000000000E+00  0.45593999997E+02  0.45594000000E+02  0.51100000000E-03 0.  1.
         11   -1    0    0    0    0 -0.00000000000E+00 -0.00000000000E+00 -0.45593999997E+02  0.45594000000E+02  0.51100000000E-03 0. -1.
         23    2    1    2    0    0  0.00000000000E+00  0.00000000000E+00  0.00000000000E+00  0.91188000000E+02  0.91188000000E+02 0.  0.
    9900012    2    3    3    0    0  0.36432100492E+02  0.21546206158E+02  0.95961621734E+01  0.47787271037E+02  0.19999999966E+02 0.  0.
         12    1    3    3    0    0 -0.36432100492E+02 -0.21546206158E+02 -0.95961621734E+01  0.43400728963E+02  0.00000000000E+00 0. -1.
         11    1    4    4    0    0  0.14761333319E+02  0.14036143435E+01  0.32739132450E+01  0.15185045366E+02  0.51100000000E-03 0. -1.
        -11    1    4    4    0    0  0.94462384492E+01  0.15985010008E+02  0.65473922242E+01  0.19688075350E+02  0.51100000000E-03 0.  1.
        -12    1    4    4    0    0  0.12224528724E+02  0.41575818072E+01 -0.22514329576E+00  0.12914150321E+02  0.00000000000E+00 0.  1.
</event>
<event>
 8    1  0.6239251E-010  0.9118800E+02  0.7816164E-02  0.1184000E+00
        -11   -1    0    0    0    0  0.00000000000E+00  0.00000000000E+00  0.45593999997E+02  0.45594000000E+02  0.51100000000E-03 0. -1.
         11   -1    0    0    0    0 -0.00000000000E+00 -0.00000000000E+00 -0.45593999997E+02  0.45594000000E+02  0.51100000000E-03 0.  1.
         23    2    1    2    0    0  0.00000000000E+00  0.00000000000E+00  0.00000000000E+00  0.91188000000E+02  0.91188000000E+02 0.  0.
    9900012    2    3    3    0    0 -0.10045950672E+02  0.28079496970E+02 -0.31531636682E+02  0.47787269743E+02  0.19999994067E+02 0.  0.
         12    1    3    3    0    0  0.10045950672E+02 -0.28079496970E+02  0.31531636682E+02  0.43400730257E+02  0.00000000000E+00 0. -1.
         11    1    4    4    0    0 -0.30365517478E+01  0.61478415739E+01 -0.18646098316E+02  0.19866896718E+02  0.51100000000E-03 0. -1.
        -11    1    4    4    0    0 -0.21305783445E+01  0.14153256077E+02 -0.12033316821E+02  0.18699057079E+02  0.51100000000E-03 0.  1.
         12    1    4    4    0    0 -0.48788205795E+01  0.77783993193E+01 -0.85222154432E+00  0.92213159461E+01  0.00000000000E+00 0. -1.
</event>
<event>
 8    1  0.6239251E-010  0.9118800E+02  0.7816164E-02  0.1184000E+00
        -11   -1    0    0    0    0  0.00000000000E+00  0.00000000000E+00  0.45593999997E+02  0.45594000000E+02  0.51100000000E-03 0. -1.
         11   -1    0    0    0    0 -0.00000000000E+00 -0.00000000000E+00 -0.45593999997E+02  0.45594000000E+02  0.51100000000E-03 0.  1.
         23    2    1    2    0    0  0.00000000000E+00  0.00000000000E+00  0.00000000000E+00  0.91188000000E+02  0.91188000000E+02 0.  0.
    9900012    2    3    3    0    0 -0.71562731102E+01 -0.38070029340E+02 -0.19572528848E+02  0.47787271156E+02  0.20000000507E+02 0.  0.
         12    1    3    3    0    0  0.71562731102E+01  0.38070029340E+02  0.19572528848E+02  0.43400728844E+02  0.00000000000E+00 0. -1.
         11    1    4    4    0    0 -0.16552556904E+01 -0.14868069669E+02 -0.14741279192E+02  0.21002492222E+02  0.51100000000E-03 0. -1.
        -11    1    4    4    0    0 -0.52555252738E+01 -0.87820887239E+01  0.26017186990E+01  0.10560045867E+02  0.51100000000E-03 0.  1.
        -12    1    4    4    0    0 -0.24549214606E+00 -0.14419870947E+02 -0.74329683546E+01  0.16224733066E+02  0.00000000000E+00 0.  1.
</event>
<event>
 8    1  0.6239251E-010  0.9118800E+02  0.7816164E-02  0.1184000E+00
        -11   -1    0    0    0    0  0.00000000000E+00  0.00000000000E+00  0.45593999997E+02  0.45594000000E+02  0.51100000000E-03 0. -1.
         11   -1    0    0    0    0 -0.00000000000E+00 -0.00000000000E+00 -0.45593999997E+02  0.45594000000E+02  0.51100000000E-03 0.  1.
         23    2    1    2    0    0  0.17763568394E-14 -0.88817841970E-15  0.71054273576E-14  0.91188000000E+02  0.91188000000E+02 0.  0.
    9900012    2    3    3    0    0 -0.15230963585E+02  0.64786500117E+01 -0.40120672148E+02  0.47787268540E+02  0.19999988581E+02 0.  0.
         12    1    3    3    0    0  0.15230963585E+02 -0.64786500117E+01  0.40120672148E+02  0.43400731460E+02  0.00000000000E+00 0. -1.
         11    1    4    4    0    0 -0.54056000469E+01  0.10845208116E+02 -0.27013986142E+02  0.29607338592E+02  0.51100000000E-03 0. -1.
        -11    1    4    4    0    0 -0.39762992132E+01 -0.48995750845E+01 -0.44599262971E+01  0.77270779910E+01  0.51100000000E-03 0.  1.
        -12    1    4    4    0    0 -0.58490643251E+01  0.53301697987E+00 -0.86467597082E+01  0.10452851957E+02  0.00000000000E+00 0.  1.
</event>
<event>
 8    1  0.6239251E-010  0.9118800E+02  0.7816164E-02  0.1184000E+00
        -11   -1    0    0    0    0  0.00000000000E+00  0.00000000000E+00  0.45593999997E+02  0.45594000000E+02  0.51100000000E-03 0.  1.
         11   -1    0    0    0    0 -0.00000000000E+00 -0.00000000000E+00 -0.45593999997E+02  0.45594000000E+02  0.51100000000E-03 0. -1.
         23    2    1    2    0    0 -0.35527136788E-14 -0.71054273576E-14  0.00000000000E+00  0.91188000000E+02  0.91188000000E+02 0.  0.
    9900012    2    3    3    0    0  0.21777786543E+02  0.36123251748E+02  0.10220710621E+02  0.47787260039E+02  0.19999949823E+02 0.  0.
        -12    1    3    3    0    0 -0.21777786543E+02 -0.36123251748E+02 -0.10220710621E+02  0.43400739961E+02  0.00000000000E+00 0.  1.
         11    1    4    4    0    0  0.71837980217E+01  0.87089356828E+01  0.28024833921E+00  0.11292964807E+02  0.51100000000E-03 0. -1.
        -11    1    4    4    0    0  0.17171706319E+02  0.22192164054E+02  0.11713498597E+02  0.30406671850E+02  0.51100000000E-03 0.  1.
        -12    1    4    4    0    0 -0.25777177985E+01  0.52221520109E+01 -0.17730363149E+01  0.60876233826E+01  0.00000000000E+00 0.  1.
</event>
<event>
 8    1  0.6239251E-010  0.9118800E+02  0.7816164E-02  0.1184000E+00
        -11   -1    0    0    0    0  0.00000000000E+00  0.00000000000E+00  0.45593999997E+02  0.45594000000E+02  0.51100000000E-03 0. -1.
         11   -1    0    0    0    0 -0.00000000000E+00 -0.00000000000E+00 -0.45593999997E+02  0.45594000000E+02  0.51100000000E-03 0.  1.
         23    2    1    2    0    0  0.00000000000E+00  0.17763568394E-14 -0.17763568394E-14  0.91188000000E+02  0.91188000000E+02 0.  0.
    9900012    2    3    3    0    0 -0.40587039964E+02 -0.12339519809E+02  0.91679686450E+01  0.47787271766E+02  0.20000003289E+02 0.  0.
        -12    1    3    3    0    0  0.40587039964E+02  0.12339519809E+02 -0.91679686450E+01  0.43400728234E+02  0.00000000000E+00 0.  1.
         11    1    4    4    0    0 -0.46451467599E+01 -0.14716477976E+01  0.27660213589E+01  0.56030357914E+01  0.51100000000E-03 0. -1.
        -11    1    4    4    0    0 -0.32553357566E+01 -0.82505874770E+01  0.65969201465E+00  0.88940765917E+01  0.51100000000E-03 0.  1.
        -12    1    4    4    0    0 -0.32686557448E+02 -0.26172845346E+01  0.57422552715E+01  0.33290159383E+02  0.00000000000E+00 0.  1.
</event>
<event>
 8    1  0.6239251E-010  0.9118800E+02  0.7816164E-02  0.1184000E+00
        -11   -1    0    0    0    0  0.00000000000E+00  0.00000000000E+00  0.45593999997E+02  0.45594000000E+02  0.51100000000E-03 0. -1.
         11   -1    0    0    0    0 -0.00000000000E+00 -0.00000000000E+00 -0.45593999997E+02  0.45594000000E+02  0.51100000000E-03 0.  1.
         23    2    1    2    0    0 -0.22204460493E-15  0.00000000000E+00 -0.71054273576E-14  0.91188000000E+02  0.91188000000E+02 0.  0.
    9900012    2    3    3    0    0  0.88148548248E+00 -0.19012494530E+02  0.39004751035E+02  0.47787279174E+02  0.20000037065E+02 0.  0.
        -12    1    3    3    0    0 -0.88148548248E+00  0.19012494530E+02 -0.39004751035E+02  0.43400720826E+02  0.00000000000E+00 0.  1.
         11    1    4    4    0    0 -0.30531175819E+01  0.32432661138E+01  0.10434319035E+02  0.11345277257E+02  0.51100000000E-03 0. -1.
        -11    1    4    4    0    0  0.30979328651E+01 -0.15050653058E+02  0.19170893768E+02  0.24569137421E+02  0.51100000000E-03 0.  1.
         12    1    4    4    0    0  0.83667019931E+00 -0.72051075859E+01  0.93995382324E+01  0.11872864496E+02  0.00000000000E+00 0. -1.
</event>
<event>
 8    1  0.6239251E-010  0.9118800E+02  0.7816164E-02  0.1184000E+00
        -11   -1    0    0    0    0  0.00000000000E+00  0.00000000000E+00  0.45593999997E+02  0.45594000000E+02  0.51100000000E-03 0. -1.
         11   -1    0    0    0    0 -0.00000000000E+00 -0.00000000000E+00 -0.45593999997E+02  0.45594000000E+02  0.51100000000E-03 0.  1.
         23    2    1    2    0    0  0.00000000000E+00  0.83266726847E-16  0.00000000000E+00  0.91188000000E+02  0.91188000000E+02 0.  0.
    9900012    2    3    3    0    0  0.21385013525E+02  0.23409164620E+00  0.37765723190E+02  0.47787269011E+02  0.19999990728E+02 0.  0.
        -12    1    3    3    0    0 -0.21385013525E+02 -0.23409164620E+00 -0.37765723190E+02  0.43400730989E+02  0.00000000000E+00 0.  1.
         11    1    4    4    0    0  0.17144691078E+01  0.27542361109E+01  0.49167753507E+01  0.58906621858E+01  0.51100000000E-03 0. -1.
        -11    1    4    4    0    0 -0.26643228298E+01 -0.10743400237E+01  0.77632310548E+01  0.82777158262E+01  0.51100000000E-03 0.  1.
        -12    1    4    4    0    0  0.22334867247E+02 -0.14458044410E+01  0.25085716784E+02  0.33618890999E+02  0.00000000000E+00 0.  1.
</event>
<event>
 8    1  0.6239251E-010  0.9118800E+02  0.7816164E-02  0.1184000E+00
        -11   -1    0    0    0    0  0.00000000000E+00  0.00000000000E+00  0.45593999997E+02  0.45594000000E+02  0.51100000000E-03 0. -1.
         11   -1    0    0    0    0 -0.00000000000E+00 -0.00000000000E+00 -0.45593999997E+02  0.45594000000E+02  0.51100000000E-03 0.  1.
         23    2    1    2    0    0 -0.17763568394E-14  0.35527136788E-14  0.00000000000E+00  0.91188000000E+02  0.91188000000E+02 0.  0.
    9900012    2    3    3    0    0 -0.15812951453E+02  0.30925087002E+02  0.26023370678E+02  0.47787236630E+02  0.19999843089E+02 0.  0.
        -12    1    3    3    0    0  0.15812951453E+02 -0.30925087002E+02 -0.26023370678E+02  0.43400763370E+02  0.00000000000E+00 0.  1.
         11    1    4    4    0    0 -0.33480858011E+01  0.45152064850E+01  0.91925682993E+01  0.10774974725E+02  0.51100000000E-03 0. -1.
        -11    1    4    4    0    0 -0.67526060762E+01  0.11022951528E+01  0.20004385919E+01  0.71284288763E+01  0.51100000000E-03 0.  1.
        -12    1    4    4    0    0 -0.57122595752E+01  0.25307585364E+02  0.14830363786E+02  0.29883833028E+02  0.00000000000E+00 0.  1.
</event>
<event>
 8    1  0.6239251E-010  0.9118800E+02  0.7816164E-02  0.1184000E+00
        -11   -1    0    0    0    0  0.00000000000E+00  0.00000000000E+00  0.45593999997E+02  0.45594000000E+02  0.51100000000E-03 0. -1.
         11   -1    0    0    0    0 -0.00000000000E+00 -0.00000000000E+00 -0.45593999997E+02  0.45594000000E+02  0.51100000000E-03 0.  1.
         23    2    1    2    0    0 -0.44408920985E-15  0.88817841970E-15  0.00000000000E+00  0.91188000000E+02  0.91188000000E+02 0.  0.
    9900012    2    3    3    0    0  0.35036062273E+01 -0.52991505475E+01 -0.42933281991E+02  0.47787274711E+02  0.20000016718E+02 0.  0.
         12    1    3    3    0    0 -0.35036062273E+01  0.52991505475E+01  0.42933281991E+02  0.43400725289E+02  0.00000000000E+00 0. -1.
         11    1    4    4    0    0 -0.35003646715E+01 -0.81677277151E+00 -0.74531894534E+00  0.36708542855E+01  0.51100000000E-03 0. -1.
        -11    1    4    4    0    0  0.84598995341E+01 -0.35320133135E+00 -0.29686666082E+02  0.30870581379E+02  0.51100000000E-03 0.  1.
        -12    1    4    4    0    0 -0.14559286354E+01 -0.41291764447E+01 -0.12501296963E+02  0.13245839047E+02  0.00000000000E+00 0.  1.
</event>
<event>
 8    1  0.6239251E-010  0.9118800E+02  0.7816164E-02  0.1184000E+00
        -11   -1    0    0    0    0  0.00000000000E+00  0.00000000000E+00  0.45593999997E+02  0.45594000000E+02  0.51100000000E-03 0. -1.
         11   -1    0    0    0    0 -0.00000000000E+00 -0.00000000000E+00 -0.45593999997E+02  0.45594000000E+02  0.51100000000E-03 0.  1.
         23    2    1    2    0    0 -0.88817841970E-15  0.00000000000E+00 -0.35527136788E-14  0.91188000000E+02  0.91188000000E+02 0.  0.
    9900012    2    3    3    0    0 -0.30565233991E+01 -0.33603260216E+02 -0.27296552209E+02  0.47787271954E+02  0.20000004146E+02 0.  0.
         12    1    3    3    0    0  0.30565233991E+01  0.33603260216E+02  0.27296552209E+02  0.43400728046E+02  0.00000000000E+00 0. -1.
         11    1    4    4    0    0  0.25730793911E+01 -0.15340208454E+02 -0.23547743464E+02  0.28221250069E+02  0.51100000000E-03 0. -1.
        -11    1    4    4    0    0 -0.48360075968E+01 -0.14988224350E+02 -0.37795881881E+01  0.16196268884E+02  0.51100000000E-03 0.  1.
         12    1    4    4    0    0 -0.79359519344E+00 -0.32748274119E+01  0.30779442545E-01  0.33697530003E+01  0.00000000000E+00 0. -1.
</event>
<event>
 8    1  0.6239251E-010  0.9118800E+02  0.7816164E-02  0.1184000E+00
        -11   -1    0    0    0    0  0.00000000000E+00  0.00000000000E+00  0.45593999997E+02  0.45594000000E+02  0.51100000000E-03 0. -1.
         11   -1    0    0    0    0 -0.00000000000E+00 -0.00000000000E+00 -0.45593999997E+02  0.45594000000E+02  0.51100000000E-03 0.  1.
         23    2    1    2    0    0 -0.17763568394E-14  0.00000000000E+00  0.00000000000E+00  0.91188000000E+02  0.91188000000E+02 0.  0.
    9900012    2    3    3    0    0  0.15024916223E+02  0.21166193421E+02  0.34783150602E+02  0.47787269393E+02  0.19999992469E+02 0.  0.
        -12    1    3    3    0    0 -0.15024916223E+02 -0.21166193421E+02 -0.34783150602E+02  0.43400730607E+02  0.00000000000E+00 0.  1.
         11    1    4    4    0    0  0.61591605020E+01  0.12785020269E+02  0.29521050188E+02  0.32754914224E+02  0.51100000000E-03 0. -1.
        -11    1    4    4    0    0  0.55884705265E+01  0.59565209000E+00  0.24310626426E+01  0.61233871404E+01  0.51100000000E-03 0.  1.
        -12    1    4    4    0    0  0.32772851943E+01  0.77855210625E+01  0.28310377711E+01  0.89089680278E+01  0.00000000000E+00 0.  1.
</event>
<event>
 8    1  0.6239251E-010  0.9118800E+02  0.7816164E-02  0.1184000E+00
        -11   -1    0    0    0    0  0.00000000000E+00  0.00000000000E+00  0.45593999997E+02  0.45594000000E+02  0.51100000000E-03 0. -1.
         11   -1    0    0    0    0 -0.00000000000E+00 -0.00000000000E+00 -0.45593999997E+02  0.45594000000E+02  0.51100000000E-03 0.  1.
         23    2    1    2    0    0  0.11102230246E-15 -0.35527136788E-14  0.00000000000E+00  0.91188000000E+02  0.91188000000E+02 0.  0.
    9900012    2    3    3    0    0  0.40290639151E+00 -0.22162288686E+02  0.37313407081E+02  0.47787311972E+02  0.20000186603E+02 0.  0.
        -12    1    3    3    0    0 -0.40290639151E+00  0.22162288686E+02 -0.37313407081E+02  0.43400688028E+02  0.00000000000E+00 0.  1.
         11    1    4    4    0    0 -0.36067450135E+01 -0.58912642111E+01  0.22988410552E+02  0.24003804356E+02  0.51100000000E-03 0. -1.
        -11    1    4    4    0    0  0.22227017794E+01 -0.15028322379E+02  0.81579590773E+01  0.17243641532E+02  0.51100000000E-03 0.  1.
         12    1    4    4    0    0  0.17869496256E+01 -0.12427020959E+01  0.61670374516E+01  0.65398660837E+01  0.00000000000E+00 0. -1.
</event>
<event>
 8    1  0.6239251E-010  0.9118800E+02  0.7816164E-02  0.1184000E+00
        -11   -1    0    0    0    0  0.00000000000E+00  0.00000000000E+00  0.45593999997E+02  0.45594000000E+02  0.51100000000E-03 0. -1.
         11   -1    0    0    0    0 -0.00000000000E+00 -0.00000000000E+00 -0.45593999997E+02  0.45594000000E+02  0.51100000000E-03 0.  1.
         23    2    1    2    0    0  0.35527136788E-14  0.17763568394E-14  0.00000000000E+00  0.91188000000E+02  0.91188000000E+02 0.  0.
    9900012    2    3    3    0    0 -0.29191404829E+02 -0.11306139513E+02  0.30060877835E+02  0.47787270942E+02  0.19999999533E+02 0.  0.
        -12    1    3    3    0    0  0.29191404829E+02  0.11306139513E+02 -0.30060877835E+02  0.43400729058E+02  0.00000000000E+00 0.  1.
         11    1    4    4    0    0 -0.13006445817E+02 -0.14080606349E+02  0.14220169915E+02  0.23867223144E+02  0.51100000000E-03 0. -1.
        -11    1    4    4    0    0 -0.81831072781E+01  0.38007734542E+00  0.12454946746E+02  0.14907494834E+02  0.51100000000E-03 0.  1.
         12    1    4    4    0    0 -0.80018517333E+01  0.23943894905E+01  0.33857611738E+01  0.90125529635E+01  0.00000000000E+00 0. -1.
</event>
<event>
 8    1  0.6239251E-010  0.9118800E+02  0.7816164E-02  0.1184000E+00
        -11   -1    0    0    0    0  0.00000000000E+00  0.00000000000E+00  0.45593999997E+02  0.45594000000E+02  0.51100000000E-03 0. -1.
         11   -1    0    0    0    0 -0.00000000000E+00 -0.00000000000E+00 -0.45593999997E+02  0.45594000000E+02  0.51100000000E-03 0.  1.
         23    2    1    2    0    0  0.00000000000E+00  0.35527136788E-14 -0.35527136788E-14  0.91188000000E+02  0.91188000000E+02 0.  0.
    9900012    2    3    3    0    0  0.25823906495E+02 -0.18605785850E+02 -0.29505500165E+02  0.47787263212E+02  0.19999964289E+02 0.  0.
         12    1    3    3    0    0 -0.25823906495E+02  0.18605785850E+02  0.29505500165E+02  0.43400736788E+02  0.00000000000E+00 0. -1.
         11    1    4    4    0    0  0.66562289951E+01 -0.44997958385E+01 -0.38196531600E+01  0.88962518820E+01  0.51100000000E-03 0. -1.
        -11    1    4    4    0    0  0.16526916789E+01 -0.11346872444E+02 -0.97632647707E+01  0.15060021358E+02  0.51100000000E-03 0.  1.
        -12    1    4    4    0    0  0.17514985821E+02 -0.27591175675E+01 -0.15922582234E+02  0.23830989972E+02  0.00000000000E+00 0.  1.
</event>
<event>
 8    1  0.6239251E-010  0.9118800E+02  0.7816164E-02  0.1184000E+00
        -11   -1    0    0    0    0  0.00000000000E+00  0.00000000000E+00  0.45593999997E+02  0.45594000000E+02  0.51100000000E-03 0. -1.
         11   -1    0    0    0    0 -0.00000000000E+00 -0.00000000000E+00 -0.45593999997E+02  0.45594000000E+02  0.51100000000E-03 0.  1.
         23    2    1    2    0    0  0.17763568394E-14  0.00000000000E+00  0.00000000000E+00  0.91188000000E+02  0.91188000000E+02 0.  0.
    9900012    2    3    3    0    0  0.11593613629E+02 -0.25329314452E+02  0.33281185557E+02  0.47787270056E+02  0.19999995492E+02 0.  0.
        -12    1    3    3    0    0 -0.11593613629E+02  0.25329314452E+02 -0.33281185557E+02  0.43400729944E+02  0.00000000000E+00 0.  1.
         11    1    4    4    0    0  0.13660247566E+02 -0.23737097124E+02  0.27172313461E+02  0.38579615894E+02  0.51100000000E-03 0. -1.
        -11    1    4    4    0    0 -0.38857903563E+01 -0.13531596026E+01  0.61178668833E+01  0.73728354834E+01  0.51100000000E-03 0.  1.
         12    1    4    4    0    0  0.18191564196E+01 -0.23905772516E+00 -0.89947871885E-02  0.18348186779E+01  0.00000000000E+00 0. -1.
</event>
<event>
 8    1  0.6239251E-010  0.9118800E+02  0.7816164E-02  0.1184000E+00
        -11   -1    0    0    0    0  0.00000000000E+00  0.00000000000E+00  0.45593999997E+02  0.45594000000E+02  0.51100000000E-03 0. -1.
         11   -1    0    0    0    0 -0.00000000000E+00 -0.00000000000E+00 -0.45593999997E+02  0.45594000000E+02  0.51100000000E-03 0.  1.
         23    2    1    2    0    0 -0.44408920985E-15  0.00000000000E+00  0.71054273576E-14  0.91188000000E+02  0.91188000000E+02 0.  0.
    9900012    2    3    3    0    0 -0.28855734897E+01  0.21878247205E+02  0.37371642931E+02  0.47787263480E+02  0.19999965511E+02 0.  0.
        -12    1    3    3    0    0  0.28855734897E+01 -0.21878247205E+02 -0.37371642931E+02  0.43400736520E+02  0.00000000000E+00 0.  1.
         11    1    4    4    0    0  0.10174853151E+01  0.83514820433E+01  0.15298947503E+01  0.85512049966E+01  0.51100000000E-03 0. -1.
        -11    1    4    4    0    0 -0.16420856095E+01 -0.30238363384E+00  0.19837967318E+01  0.25929386312E+01  0.51100000000E-03 0.  1.
         12    1    4    4    0    0 -0.22609731953E+01  0.13829148796E+02  0.33857951449E+02  0.36643119852E+02  0.00000000000E+00 0. -1.
</event>
<event>
 8    1  0.6239251E-010  0.9118800E+02  0.7816164E-02  0.1184000E+00
        -11   -1    0    0    0    0  0.00000000000E+00  0.00000000000E+00  0.45593999997E+02  0.45594000000E+02  0.51100000000E-03 0.  1.
         11   -1    0    0    0    0 -0.00000000000E+00 -0.00000000000E+00 -0.45593999997E+02  0.45594000000E+02  0.51100000000E-03 0. -1.
         23    2    1    2    0    0  0.17763568394E-14  0.00000000000E+00  0.00000000000E+00  0.91188000000E+02  0.91188000000E+02 0.  0.
    9900012    2    3    3    0    0  0.10980049303E+02 -0.38309202705E+02  0.17189135335E+02  0.47787275719E+02  0.20000021311E+02 0.  0.
        -12    1    3    3    0    0 -0.10980049303E+02  0.38309202705E+02 -0.17189135335E+02  0.43400724281E+02  0.00000000000E+00 0.  1.
         11    1    4    4    0    0  0.61383285022E+01 -0.27978295695E+02  0.40580347057E+01  0.28929772774E+02  0.51100000000E-03 0. -1.
        -11    1    4    4    0    0  0.67475780205E+01 -0.76738724938E+01  0.92584608213E+01  0.13789025536E+02  0.51100000000E-03 0.  1.
         12    1    4    4    0    0 -0.19058572194E+01 -0.26570345158E+01  0.38726398084E+01  0.50684774089E+01  0.00000000000E+00 0. -1.
</event>
<event>
 8    1  0.6239251E-010  0.9118800E+02  0.7816164E-02  0.1184000E+00
        -11   -1    0    0    0    0  0.00000000000E+00  0.00000000000E+00  0.45593999997E+02  0.45594000000E+02  0.51100000000E-03 0. -1.
         11   -1    0    0    0    0 -0.00000000000E+00 -0.00000000000E+00 -0.45593999997E+02  0.45594000000E+02  0.51100000000E-03 0.  1.
         23    2    1    2    0    0  0.00000000000E+00 -0.35527136788E-14  0.71054273576E-14  0.91188000000E+02  0.91188000000E+02 0.  0.
    9900012    2    3    3    0    0  0.44422374661E+01 -0.25803799358E+02  0.34612916640E+02  0.47787268055E+02  0.19999986370E+02 0.  0.
        -12    1    3    3    0    0 -0.44422374661E+01  0.25803799358E+02 -0.34612916640E+02  0.43400731945E+02  0.00000000000E+00 0.  1.
         11    1    4    4    0    0  0.65973492214E+01 -0.13766754290E+01  0.36441490823E+01  0.76615974040E+01  0.51100000000E-03 0. -1.
        -11    1    4    4    0    0  0.16977121771E+01 -0.16464766624E+02  0.21970936395E+02  0.27508049966E+02  0.51100000000E-03 0.  1.
         12    1    4    4    0    0 -0.38528239324E+01 -0.79623573052E+01  0.89978311631E+01  0.12617620685E+02  0.00000000000E+00 0. -1.
</event>
<event>
 8    1  0.6239251E-010  0.9118800E+02  0.7816164E-02  0.1184000E+00
        -11   -1    0    0    0    0  0.00000000000E+00  0.00000000000E+00  0.45593999997E+02  0.45594000000E+02  0.51100000000E-03 0. -1.
         11   -1    0    0    0    0 -0.00000000000E+00 -0.00000000000E+00 -0.45593999997E+02  0.45594000000E+02  0.51100000000E-03 0.  1.
         23    2    1    2    0    0 -0.35527136788E-14  0.44408920985E-15 -0.71054273576E-14  0.91188000000E+02  0.91188000000E+02 0.  0.
    9900012    2    3    3    0    0 -0.21124895230E+02 -0.30435773015E+01 -0.37790187728E+02  0.47787275930E+02  0.20000022274E+02 0.  0.
         12    1    3    3    0    0  0.21124895230E+02  0.30435773015E+01  0.37790187728E+02  0.43400724070E+02  0.00000000000E+00 0. -1.
         11    1    4    4    0    0  0.62731454373E+00  0.28448509464E+00 -0.85852471688E+01  0.86128348710E+01  0.51100000000E-03 0. -1.
        -11    1    4    4    0    0 -0.23809517000E+02 -0.27814590867E+01 -0.26525859054E+02  0.35752633654E+02  0.51100000000E-03 0.  1.
        -12    1    4    4    0    0  0.20573072256E+01 -0.54660330939E+00 -0.26790815058E+01  0.34218074044E+01  0.00000000000E+00 0.  1.
</event>
<event>
 8    1  0.6239251E-010  0.9118800E+02  0.7816164E-02  0.1184000E+00
        -11   -1    0    0    0    0  0.00000000000E+00  0.00000000000E+00  0.45593999997E+02  0.45594000000E+02  0.51100000000E-03 0. -1.
         11   -1    0    0    0    0 -0.00000000000E+00 -0.00000000000E+00 -0.45593999997E+02  0.45594000000E+02  0.51100000000E-03 0.  1.
         23    2    1    2    0    0  0.88817841970E-15 -0.88817841970E-15  0.00000000000E+00  0.91188000000E+02  0.91188000000E+02 0.  0.
    9900012    2    3    3    0    0 -0.75027521798E+01  0.65063040990E+01 -0.42249263955E+02  0.47787267426E+02  0.19999983500E+02 0.  0.
         12    1    3    3    0    0  0.75027521798E+01 -0.65063040990E+01  0.42249263955E+02  0.43400732574E+02  0.00000000000E+00 0. -1.
         11    1    4    4    0    0 -0.26507102411E+01  0.48099526637E+00 -0.20213794563E+01  0.33680255932E+01  0.51100000000E-03 0. -1.
        -11    1    4    4    0    0  0.47928750875E+01  0.29189145292E+01 -0.42438664765E+01  0.70357740558E+01  0.51100000000E-03 0.  1.
        -12    1    4    4    0    0 -0.96449170261E+01  0.31063943034E+01 -0.35984018022E+02  0.37383467777E+02  0.00000000000E+00 0.  1.
</event>
<event>
 8    1  0.6239251E-010  0.9118800E+02  0.7816164E-02  0.1184000E+00
        -11   -1    0    0    0    0  0.00000000000E+00  0.00000000000E+00  0.45593999997E+02  0.45594000000E+02  0.51100000000E-03 0. -1.
         11   -1    0    0    0    0 -0.00000000000E+00 -0.00000000000E+00 -0.45593999997E+02  0.45594000000E+02  0.51100000000E-03 0.  1.
         23    2    1    2    0    0 -0.71054273576E-14  0.17763568394E-14  0.00000000000E+00  0.91188000000E+02  0.91188000000E+02 0.  0.
    9900012    2    3    3    0    0 -0.38319403908E+02 -0.14807885069E+02  0.13999027660E+02  0.47787274758E+02  0.20000016931E+02 0.  0.
        -12    1    3    3    0    0  0.38319403908E+02  0.14807885069E+02 -0.13999027660E+02  0.43400725242E+02  0.00000000000E+00 0.  1.
         11    1    4    4    0    0 -0.97805236369E+01 -0.50845925487E+01  0.51288935914E+01  0.12158012738E+02  0.51100000000E-03 0. -1.
        -11    1    4    4    0    0 -0.14144738735E+02 -0.13051943562E+02  0.20446160943E+01  0.19354775117E+02  0.51100000000E-03 0.  1.
        -12    1    4    4    0    0 -0.14394141537E+02  0.33286510413E+01  0.68255179743E+01  0.16274486903E+02  0.00000000000E+00 0.  1.
</event>
<event>
 8    1  0.6239251E-010  0.9118800E+02  0.7816164E-02  0.1184000E+00
        -11   -1    0    0    0    0  0.00000000000E+00  0.00000000000E+00  0.45593999997E+02  0.45594000000E+02  0.51100000000E-03 0. -1.
         11   -1    0    0    0    0 -0.00000000000E+00 -0.00000000000E+00 -0.45593999997E+02  0.45594000000E+02  0.51100000000E-03 0.  1.
         23    2    1    2    0    0  0.88817841970E-15  0.00000000000E+00  0.00000000000E+00  0.91188000000E+02  0.91188000000E+02 0.  0.
    9900012    2    3    3    0    0  0.73681584715E+01  0.98591059182E+01  0.41618885355E+02  0.47787270202E+02  0.19999996160E+02 0.  0.
        -12    1    3    3    0    0 -0.73681584715E+01 -0.98591059182E+01 -0.41618885355E+02  0.43400729798E+02  0.00000000000E+00 0.  1.
         11    1    4    4    0    0 -0.72501250503E-01  0.12388686332E+02  0.22888366163E+02  0.26026181267E+02  0.51100000000E-03 0. -1.
        -11    1    4    4    0    0  0.18104980325E+01  0.12833397783E+01  0.46018012683E+00  0.22664134933E+01  0.51100000000E-03 0.  1.
         12    1    4    4    0    0  0.56301616895E+01 -0.38129201916E+01  0.18270339065E+02  0.19494675442E+02  0.00000000000E+00 0. -1.
</event>
<event>
 8    1  0.6239251E-010  0.9118800E+02  0.7816164E-02  0.1184000E+00
        -11   -1    0    0    0    0  0.00000000000E+00  0.00000000000E+00  0.45593999997E+02  0.45594000000E+02  0.51100000000E-03 0. -1.
         11   -1    0    0    0    0 -0.00000000000E+00 -0.00000000000E+00 -0.45593999997E+02  0.45594000000E+02  0.51100000000E-03 0.  1.
         23    2    1    2    0    0  0.00000000000E+00 -0.35527136788E-14 -0.71054273576E-14  0.91188000000E+02  0.91188000000E+02 0.  0.
    9900012    2    3    3    0    0  0.45228175472E+01  0.18993464018E+02  0.38761006961E+02  0.47787271727E+02  0.20000003113E+02 0.  0.
        -12    1    3    3    0    0 -0.45228175472E+01 -0.18993464018E+02 -0.38761006961E+02  0.43400728273E+02  0.00000000000E+00 0.  1.
         11    1    4    4    0    0 -0.29389138399E+01  0.18589494527E+02  0.30828617721E+02  0.36119388037E+02  0.51100000000E-03 0. -1.
        -11    1    4    4    0    0  0.77278311035E+01  0.11052873309E+01  0.72210796083E+01  0.10634144282E+02  0.51100000000E-03 0.  1.
         12    1    4    4    0    0 -0.26609971636E+00 -0.70131783960E+00  0.71130963213E+00  0.10337394081E+01  0.00000000000E+00 0. -1.
</event>
<event>
 8    1  0.6239251E-010  0.9118800E+02  0.7816164E-02  0.1184000E+00
        -11   -1    0    0    0    0  0.00000000000E+00  0.00000000000E+00  0.45593999997E+02  0.45594000000E+02  0.51100000000E-03 0. -1.
         11   -1    0    0    0    0 -0.00000000000E+00 -0.00000000000E+00 -0.45593999997E+02  0.45594000000E+02  0.51100000000E-03 0.  1.
         23    2    1    2    0    0  0.00000000000E+00  0.17763568394E-14  0.71054273576E-14  0.91188000000E+02  0.91188000000E+02 0.  0.
    9900012    2    3    3    0    0 -0.22282668561E+02 -0.13955367715E+02 -0.34530486460E+02  0.47787261511E+02  0.19999956533E+02 0.  0.
         12    1    3    3    0    0  0.22282668561E+02  0.13955367715E+02  0.34530486460E+02  0.43400738489E+02  0.00000000000E+00 0. -1.
         11    1    4    4    0    0 -0.92711178469E+01  0.38078651563E+01 -0.10274918196E+02  0.14353654843E+02  0.51100000000E-03 0. -1.
        -11    1    4    4    0    0 -0.58768970133E+01 -0.11536820297E+02 -0.10185162051E+02  0.16473423060E+02  0.51100000000E-03 0.  1.
         12    1    4    4    0    0 -0.71346537011E+01 -0.62264125742E+01 -0.14070406213E+02  0.16960183607E+02  0.00000000000E+00 0. -1.
</event>
<event>
 8    1  0.6239251E-010  0.9118800E+02  0.7816164E-02  0.1184000E+00
        -11   -1    0    0    0    0  0.00000000000E+00  0.00000000000E+00  0.45593999997E+02  0.45594000000E+02  0.51100000000E-03 0. -1.
         11   -1    0    0    0    0 -0.00000000000E+00 -0.00000000000E+00 -0.45593999997E+02  0.45594000000E+02  0.51100000000E-03 0.  1.
         23    2    1    2    0    0  0.00000000000E+00  0.35527136788E-14  0.00000000000E+00  0.91188000000E+02  0.91188000000E+02 0.  0.
    9900012    2    3    3    0    0 -0.93979408487E+01  0.20584886547E+02  0.37034639685E+02  0.47787269788E+02  0.19999994270E+02 0.  0.
        -12    1    3    3    0    0  0.93979408487E+01 -0.20584886547E+02 -0.37034639685E+02  0.43400730212E+02  0.00000000000E+00 0.  1.
         11    1    4    4    0    0  0.19874434471E+01  0.10364240505E+02  0.43361169434E+01  0.11409177144E+02  0.51100000000E-03 0.  1.
        -11    1    4    4    0    0 -0.10557907130E+02  0.10397920163E+02  0.28798798753E+02  0.32387604984E+02  0.51100000000E-03 0. -1.
        -12    1    4    4    0    0 -0.82747716567E+00 -0.17727412181E+00  0.38997239889E+01  0.39904876599E+01  0.00000000000E+00 0.  1.
</event>
<event>
 8    1  0.6239251E-010  0.9118800E+02  0.7816164E-02  0.1184000E+00
        -11   -1    0    0    0    0  0.00000000000E+00  0.00000000000E+00  0.45593999997E+02  0.45594000000E+02  0.51100000000E-03 0. -1.
         11   -1    0    0    0    0 -0.00000000000E+00 -0.00000000000E+00 -0.45593999997E+02  0.45594000000E+02  0.51100000000E-03 0.  1.
         23    2    1    2    0    0  0.00000000000E+00  0.00000000000E+00  0.00000000000E+00  0.91188000000E+02  0.91188000000E+02 0.  0.
    9900012    2    3    3    0    0  0.15084683046E+02  0.29326849807E+02 -0.28213685336E+02  0.47787264725E+02  0.19999971186E+02 0.  0.
         12    1    3    3    0    0 -0.15084683046E+02 -0.29326849807E+02  0.28213685336E+02  0.43400735275E+02  0.00000000000E+00 0. -1.
         11    1    4    4    0    0  0.23574384241E+01  0.48735845167E+01  0.55328872263E+00  0.54420097975E+01  0.51100000000E-03 0. -1.
        -11    1    4    4    0    0  0.29328830495E+01  0.17742995416E+02 -0.22855380553E+02  0.29082367679E+02  0.51100000000E-03 0.  1.
        -12    1    4    4    0    0  0.97943615720E+01  0.67102698743E+01 -0.59115935054E+01  0.13262887248E+02  0.00000000000E+00 0.  1.
</event>
<event>
 8    1  0.6239251E-010  0.9118800E+02  0.7816164E-02  0.1184000E+00
        -11   -1    0    0    0    0  0.00000000000E+00  0.00000000000E+00  0.45593999997E+02  0.45594000000E+02  0.51100000000E-03 0. -1.
         11   -1    0    0    0    0 -0.00000000000E+00 -0.00000000000E+00 -0.45593999997E+02  0.45594000000E+02  0.51100000000E-03 0.  1.
         23    2    1    2    0    0  0.00000000000E+00 -0.88817841970E-15  0.00000000000E+00  0.91188000000E+02  0.91188000000E+02 0.  0.
    9900012    2    3    3    0    0 -0.19175284209E+02 -0.79061200549E+01 -0.38123811113E+02  0.47787271520E+02  0.20000002169E+02 0.  0.
         12    1    3    3    0    0  0.19175284209E+02  0.79061200549E+01  0.38123811113E+02  0.43400728480E+02  0.00000000000E+00 0. -1.
         11    1    4    4    0    0 -0.87231907847E+01  0.32175445416E+01 -0.72522307500E+01  0.11791586045E+02  0.51100000000E-03 0. -1.
        -11    1    4    4    0    0 -0.68273680078E+01 -0.97877751904E+01 -0.12736440601E+02  0.17453664846E+02  0.51100000000E-03 0.  1.
        -12    1    4    4    0    0 -0.36247254160E+01 -0.13358894061E+01 -0.18135139762E+02  0.18542020630E+02  0.00000000000E+00 0.  1.
</event>
<event>
 8    1  0.6239251E-010  0.9118800E+02  0.7816164E-02  0.1184000E+00
        -11   -1    0    0    0    0  0.00000000000E+00  0.00000000000E+00  0.45593999997E+02  0.45594000000E+02  0.51100000000E-03 0. -1.
         11   -1    0    0    0    0 -0.00000000000E+00 -0.00000000000E+00 -0.45593999997E+02  0.45594000000E+02  0.51100000000E-03 0.  1.
         23    2    1    2    0    0  0.00000000000E+00 -0.44408920985E-15  0.00000000000E+00  0.91188000000E+02  0.91188000000E+02 0.  0.
    9900012    2    3    3    0    0 -0.12779903006E+01 -0.61148943204E+00 -0.43377579005E+02  0.47787291033E+02  0.20000091134E+02 0.  0.
         12    1    3    3    0    0  0.12779903006E+01  0.61148943204E+00  0.43377579005E+02  0.43400708967E+02  0.00000000000E+00 0. -1.
         11    1    4    4    0    0  0.70447290855E+01 -0.16501016499E+01 -0.23716884780E+02  0.24796001034E+02  0.51100000000E-03 0.  1.
        -11    1    4    4    0    0 -0.66235684565E+01  0.44615637721E+01 -0.14701078701E+02  0.16730180083E+02  0.51100000000E-03 0. -1.
        -12    1    4    4    0    0 -0.16991509296E+01 -0.34229515542E+01 -0.49596155245E+01  0.62611099156E+01  0.00000000000E+00 0.  1.
</event>
<event>
 8    1  0.6239251E-010  0.9118800E+02  0.7816164E-02  0.1184000E+00
        -11   -1    0    0    0    0  0.00000000000E+00  0.00000000000E+00  0.45593999997E+02  0.45594000000E+02  0.51100000000E-03 0. -1.
         11   -1    0    0    0    0 -0.00000000000E+00 -0.00000000000E+00 -0.45593999997E+02  0.45594000000E+02  0.51100000000E-03 0.  1.
         23    2    1    2    0    0 -0.44408920985E-15  0.00000000000E+00  0.00000000000E+00  0.91188000000E+02  0.91188000000E+02 0.  0.
    9900012    2    3    3    0    0 -0.35660217523E+01 -0.74061237411E+01 -0.42615208202E+02  0.47787272470E+02  0.20000006500E+02 0.  0.
         12    1    3    3    0    0  0.35660217523E+01  0.74061237411E+01  0.42615208202E+02  0.43400727530E+02  0.00000000000E+00 0. -1.
         11    1    4    4    0    0  0.63040842650E+00 -0.56490523370E+01 -0.12966199301E+01  0.58301312673E+01  0.51100000000E-03 0. -1.
        -11    1    4    4    0    0 -0.26988740004E+01 -0.53345955369E+00 -0.38121663453E+02  0.38220802250E+02  0.51100000000E-03 0.  1.
         12    1    4    4    0    0 -0.14975561784E+01 -0.12236118504E+01 -0.31969248197E+01  0.37363389529E+01  0.00000000000E+00 0. -1.
</event>
<event>
 8    1  0.6239251E-010  0.9118800E+02  0.7816164E-02  0.1184000E+00
        -11   -1    0    0    0    0  0.00000000000E+00  0.00000000000E+00  0.45593999997E+02  0.45594000000E+02  0.51100000000E-03 0. -1.
         11   -1    0    0    0    0 -0.00000000000E+00 -0.00000000000E+00 -0.45593999997E+02  0.45594000000E+02  0.51100000000E-03 0.  1.
         23    2    1    2    0    0  0.00000000000E+00  0.00000000000E+00 -0.35527136788E-14  0.91188000000E+02  0.91188000000E+02 0.  0.
    9900012    2    3    3    0    0  0.32391874877E+02 -0.11716249462E+02  0.26403018507E+02  0.47787269064E+02  0.19999990970E+02 0.  0.
        -12    1    3    3    0    0 -0.32391874877E+02  0.11716249462E+02 -0.26403018507E+02  0.43400730936E+02  0.00000000000E+00 0.  1.
         11    1    4    4    0    0  0.13205994129E+01  0.26128707676E+00  0.36171278241E+01  0.38595165116E+01  0.51100000000E-03 0. -1.
        -11    1    4    4    0    0 -0.18774458265E+00 -0.31742864600E+01  0.72731997012E+01  0.79379327733E+01  0.51100000000E-03 0.  1.
        -12    1    4    4    0    0  0.31259020047E+02 -0.88032500788E+01  0.15512690982E+02  0.35989819779E+02  0.00000000000E+00 0.  1.
</event>
<event>
 8    1  0.6239251E-010  0.9118800E+02  0.7816164E-02  0.1184000E+00
        -11   -1    0    0    0    0  0.00000000000E+00  0.00000000000E+00  0.45593999997E+02  0.45594000000E+02  0.51100000000E-03 0. -1.
         11   -1    0    0    0    0 -0.00000000000E+00 -0.00000000000E+00 -0.45593999997E+02  0.45594000000E+02  0.51100000000E-03 0.  1.
         23    2    1    2    0    0 -0.35527136788E-14 -0.17763568394E-14  0.00000000000E+00  0.91188000000E+02  0.91188000000E+02 0.  0.
    9900012    2    3    3    0    0 -0.26681688277E+02 -0.13762501099E+02  0.31341825101E+02  0.47787205924E+02  0.19999703088E+02 0.  0.
        -12    1    3    3    0    0  0.26681688277E+02  0.13762501099E+02 -0.31341825101E+02  0.43400794076E+02  0.00000000000E+00 0.  1.
         11    1    4    4    0    0 -0.19891355086E+01 -0.49433351750E+01  0.87230050045E+01  0.10221743457E+02  0.51100000000E-03 0.  1.
        -11    1    4    4    0    0 -0.10193988114E+02  0.36120150157E+01  0.68822473246E+01  0.12819101943E+02  0.51100000000E-03 0. -1.
        -12    1    4    4    0    0 -0.14498564654E+02 -0.12431180939E+02  0.15736572772E+02  0.24746360524E+02  0.00000000000E+00 0.  1.
</event>
<event>
 8    1  0.6239251E-010  0.9118800E+02  0.7816164E-02  0.1184000E+00
        -11   -1    0    0    0    0  0.00000000000E+00  0.00000000000E+00  0.45593999997E+02  0.45594000000E+02  0.51100000000E-03 0. -1.
         11   -1    0    0    0    0 -0.00000000000E+00 -0.00000000000E+00 -0.45593999997E+02  0.45594000000E+02  0.51100000000E-03 0.  1.
         23    2    1    2    0    0  0.00000000000E+00 -0.88817841970E-15  0.35527136788E-14  0.91188000000E+02  0.91188000000E+02 0.  0.
    9900012    2    3    3    0    0  0.35756447922E+02 -0.62977796369E+01  0.23778931309E+02  0.47787272235E+02  0.20000005429E+02 0.  0.
        -12    1    3    3    0    0 -0.35756447922E+02  0.62977796369E+01 -0.23778931309E+02  0.43400727765E+02  0.00000000000E+00 0.  1.
         11    1    4    4    0    0  0.20430927865E+02 -0.33575362660E+01  0.19039407390E+02  0.28128186881E+02  0.51100000000E-03 0. -1.
        -11    1    4    4    0    0  0.21704251436E+01 -0.22135518418E+01  0.56583476783E+01  0.64519342658E+01  0.51100000000E-03 0.  1.
         12    1    4    4    0    0  0.13155094914E+02 -0.72669152908E+00 -0.91882376000E+00  0.13207151088E+02  0.00000000000E+00 0. -1.
</event>
<event>
 8    1  0.6239251E-010  0.9118800E+02  0.7816164E-02  0.1184000E+00
        -11   -1    0    0    0    0  0.00000000000E+00  0.00000000000E+00  0.45593999997E+02  0.45594000000E+02  0.51100000000E-03 0. -1.
         11   -1    0    0    0    0 -0.00000000000E+00 -0.00000000000E+00 -0.45593999997E+02  0.45594000000E+02  0.51100000000E-03 0.  1.
         23    2    1    2    0    0  0.88817841970E-15 -0.35527136788E-14  0.00000000000E+00  0.91188000000E+02  0.91188000000E+02 0.  0.
    9900012    2    3    3    0    0  0.75550497887E+01 -0.25107958879E+02  0.34585186207E+02  0.47787268654E+02  0.19999989103E+02 0.  0.
        -12    1    3    3    0    0 -0.75550497887E+01  0.25107958879E+02 -0.34585186207E+02  0.43400731346E+02  0.00000000000E+00 0.  1.
         11    1    4    4    0    0 -0.80152559440E+00  0.20411634672E+01 -0.75069137902E+00  0.23178285929E+01  0.51100000000E-03 0.  1.
        -11    1    4    4    0    0  0.69934310194E+01 -0.24734364787E+02  0.33094132253E+02  0.41903680849E+02  0.51100000000E-03 0. -1.
        -12    1    4    4    0    0  0.13631443637E+01 -0.24147575587E+01  0.22417453327E+01  0.35657592123E+01  0.00000000000E+00 0.  1.
</event>
<event>
 8    1  0.6239251E-010  0.9118800E+02  0.7816164E-02  0.1184000E+00
        -11   -1    0    0    0    0  0.00000000000E+00  0.00000000000E+00  0.45593999997E+02  0.45594000000E+02  0.51100000000E-03 0. -1.
         11   -1    0    0    0    0 -0.00000000000E+00 -0.00000000000E+00 -0.45593999997E+02  0.45594000000E+02  0.51100000000E-03 0.  1.
         23    2    1    2    0    0  0.00000000000E+00 -0.35527136788E-14  0.71054273576E-14  0.91188000000E+02  0.91188000000E+02 0.  0.
    9900012    2    3    3    0    0  0.13312081738E+02  0.22326021924E+02 -0.34755724287E+02  0.47787272520E+02  0.20000006726E+02 0.  0.
         12    1    3    3    0    0 -0.13312081738E+02 -0.22326021924E+02  0.34755724287E+02  0.43400727480E+02  0.00000000000E+00 0. -1.
         11    1    4    4    0    0 -0.99919768817E+00  0.46872183384E+00  0.30307673277E+00  0.11445313209E+01  0.51100000000E-03 0. -1.
        -11    1    4    4    0    0  0.11936292966E+01  0.13456869296E+02 -0.88372159895E+01  0.16143372288E+02  0.51100000000E-03 0.  1.
         12    1    4    4    0    0  0.13117650129E+02  0.84004307941E+01 -0.26221585030E+02  0.30499368910E+02  0.00000000000E+00 0. -1.
</event>
<event>
 8    1  0.6239251E-010  0.9118800E+02  0.7816164E-02  0.1184000E+00
        -11   -1    0    0    0    0  0.00000000000E+00  0.00000000000E+00  0.45593999997E+02  0.45594000000E+02  0.51100000000E-03 0. -1.
         11   -1    0    0    0    0 -0.00000000000E+00 -0.00000000000E+00 -0.45593999997E+02  0.45594000000E+02  0.51100000000E-03 0.  1.
         23    2    1    2    0    0  0.00000000000E+00  0.00000000000E+00  0.00000000000E+00  0.91188000000E+02  0.91188000000E+02 0.  0.
    9900012    2    3    3    0    0 -0.27872441732E+02  0.31236374926E+02  0.11447233277E+02  0.47787271016E+02  0.19999999871E+02 0.  0.
        -12    1    3    3    0    0  0.27872441732E+02 -0.31236374926E+02 -0.11447233277E+02  0.43400728984E+02  0.00000000000E+00 0.  1.
         11    1    4    4    0    0 -0.74803393442E+01  0.84353618005E+01  0.54899236695E+00  0.11287701196E+02  0.51100000000E-03 0. -1.
        -11    1    4    4    0    0 -0.20857853130E+02  0.16472680472E+02  0.35876709823E+01  0.26819221138E+02  0.51100000000E-03 0.  1.
        -12    1    4    4    0    0  0.46575074216E+00  0.63283326540E+01  0.73105699282E+01  0.96803486822E+01  0.00000000000E+00 0.  1.
</event>
<event>
 8    1  0.6239251E-010  0.9118800E+02  0.7816164E-02  0.1184000E+00
        -11   -1    0    0    0    0  0.00000000000E+00  0.00000000000E+00  0.45593999997E+02  0.45594000000E+02  0.51100000000E-03 0.  1.
         11   -1    0    0    0    0 -0.00000000000E+00 -0.00000000000E+00 -0.45593999997E+02  0.45594000000E+02  0.51100000000E-03 0. -1.
         23    2    1    2    0    0  0.00000000000E+00 -0.71054273576E-14  0.00000000000E+00  0.91188000000E+02  0.91188000000E+02 0.  0.
    9900012    2    3    3    0    0 -0.78453327236E+01  0.41104334009E+02  0.11511267006E+02  0.47787253601E+02  0.19999920470E+02 0.  0.
        -12    1    3    3    0    0  0.78453327236E+01 -0.41104334009E+02 -0.11511267006E+02  0.43400746399E+02  0.00000000000E+00 0.  1.
         11    1    4    4    0    0  0.11041699349E+01  0.29112389754E+02  0.30917602938E+01  0.29296918105E+02  0.51100000000E-03 0. -1.
        -11    1    4    4    0    0 -0.93266271015E+01  0.10116535455E+02  0.90581133936E+01  0.16473605592E+02  0.51100000000E-03 0.  1.
        -12    1    4    4    0    0  0.37712444303E+00  0.18754088002E+01 -0.63860668175E+00  0.20167299044E+01  0.00000000000E+00 0.  1.
</event>
<event>
 8    1  0.6239251E-010  0.9118800E+02  0.7816164E-02  0.1184000E+00
        -11   -1    0    0    0    0  0.00000000000E+00  0.00000000000E+00  0.45593999997E+02  0.45594000000E+02  0.51100000000E-03 0. -1.
         11   -1    0    0    0    0 -0.00000000000E+00 -0.00000000000E+00 -0.45593999997E+02  0.45594000000E+02  0.51100000000E-03 0.  1.
         23    2    1    2    0    0  0.00000000000E+00  0.35527136788E-14  0.00000000000E+00  0.91188000000E+02  0.91188000000E+02 0.  0.
    9900012    2    3    3    0    0  0.15737643822E+02  0.16955751209E+02  0.36721269958E+02  0.47787278814E+02  0.20000035423E+02 0.  0.
        -12    1    3    3    0    0 -0.15737643822E+02 -0.16955751209E+02 -0.36721269958E+02  0.43400721186E+02  0.00000000000E+00 0.  1.
         11    1    4    4    0    0 -0.28057225574E+01  0.10080744392E+02  0.15477623387E+02  0.18682888228E+02  0.51100000000E-03 0. -1.
        -11    1    4    4    0    0  0.93888676665E+01  0.37527337006E+01  0.93223587429E+01  0.13752825858E+02  0.51100000000E-03 0.  1.
         12    1    4    4    0    0  0.91544987134E+01  0.31222731163E+01  0.11921287828E+02  0.15351564728E+02  0.00000000000E+00 0. -1.
</event>
<event>
 8    1  0.6239251E-010  0.9118800E+02  0.7816164E-02  0.1184000E+00
        -11   -1    0    0    0    0  0.00000000000E+00  0.00000000000E+00  0.45593999997E+02  0.45594000000E+02  0.51100000000E-03 0. -1.
         11   -1    0    0    0    0 -0.00000000000E+00 -0.00000000000E+00 -0.45593999997E+02  0.45594000000E+02  0.51100000000E-03 0.  1.
         23    2    1    2    0    0  0.00000000000E+00  0.00000000000E+00  0.00000000000E+00  0.91188000000E+02  0.91188000000E+02 0.  0.
    9900012    2    3    3    0    0 -0.69926495489E+01  0.38132728740E+02  0.19509517657E+02  0.47787269267E+02  0.19999991898E+02 0.  0.
        -12    1    3    3    0    0  0.69926495489E+01 -0.38132728740E+02 -0.19509517657E+02  0.43400730733E+02  0.00000000000E+00 0.  1.
         11    1    4    4    0    0 -0.75490923340E+00  0.15593426060E+02  0.18129354837E+02  0.23924847572E+02  0.51100000000E-03 0. -1.
        -11    1    4    4    0    0 -0.28636901714E+01  0.97582036624E+01 -0.16445419527E+01  0.10301833750E+02  0.51100000000E-03 0.  1.
         12    1    4    4    0    0 -0.33740501440E+01  0.12781099018E+02  0.30247047727E+01  0.13560587946E+02  0.00000000000E+00 0. -1.
</event>
<event>
 8    1  0.6239251E-010  0.9118800E+02  0.7816164E-02  0.1184000E+00
        -11   -1    0    0    0    0  0.00000000000E+00  0.00000000000E+00  0.45593999997E+02  0.45594000000E+02  0.51100000000E-03 0.  1.
         11   -1    0    0    0    0 -0.00000000000E+00 -0.00000000000E+00 -0.45593999997E+02  0.45594000000E+02  0.51100000000E-03 0. -1.
         23    2    1    2    0    0  0.10408340856E-15  0.00000000000E+00  0.00000000000E+00  0.91188000000E+02  0.91188000000E+02 0.  0.
    9900012    2    3    3    0    0  0.31319889323E-01 -0.43360610293E+02 -0.18653078541E+01  0.47787275590E+02  0.20000020727E+02 0.  0.
         12    1    3    3    0    0 -0.31319889323E-01  0.43360610293E+02  0.18653078541E+01  0.43400724410E+02  0.00000000000E+00 0. -1.
         11    1    4    4    0    0 -0.23644363466E+01 -0.84307371266E+01 -0.72829190564E+01  0.11388977038E+02  0.51100000000E-03 0. -1.
        -11    1    4    4    0    0  0.37627618096E+01 -0.19473618831E+02 -0.37056307987E+00  0.19837276125E+02  0.51100000000E-03 0.  1.
         12    1    4    4    0    0 -0.13670055736E+01 -0.15456254335E+02  0.57881742821E+01  0.16561022427E+02  0.00000000000E+00 0. -1.
</event>
<event>
 8    1  0.6239251E-010  0.9118800E+02  0.7816164E-02  0.1184000E+00
        -11   -1    0    0    0    0  0.00000000000E+00  0.00000000000E+00  0.45593999997E+02  0.45594000000E+02  0.51100000000E-03 0. -1.
         11   -1    0    0    0    0 -0.00000000000E+00 -0.00000000000E+00 -0.45593999997E+02  0.45594000000E+02  0.51100000000E-03 0.  1.
         23    2    1    2    0    0  0.00000000000E+00  0.00000000000E+00 -0.44408920985E-15  0.91188000000E+02  0.91188000000E+02 0.  0.
    9900012    2    3    3    0    0  0.15281651478E+02 -0.40556351126E+02 -0.22978576099E+01  0.47787232286E+02  0.19999823284E+02 0.  0.
         12    1    3    3    0    0 -0.15281651478E+02  0.40556351126E+02  0.22978576099E+01  0.43400767714E+02  0.00000000000E+00 0. -1.
         11    1    4    4    0    0  0.48016949799E+01 -0.80780295901E+01 -0.42765341622E+01  0.10324707330E+02  0.51100000000E-03 0. -1.
        -11    1    4    4    0    0  0.75425685987E+01 -0.28737483575E+02 -0.38281519189E+01  0.29956435880E+02  0.51100000000E-03 0.  1.
        -12    1    4    4    0    0  0.29373878993E+01 -0.37408379612E+01  0.58068284713E+01  0.75060890761E+01  0.00000000000E+00 0.  1.
</event>
<event>
 8    1  0.6239251E-010  0.9118800E+02  0.7816164E-02  0.1184000E+00
        -11   -1    0    0    0    0  0.00000000000E+00  0.00000000000E+00  0.45593999997E+02  0.45594000000E+02  0.51100000000E-03 0. -1.
         11   -1    0    0    0    0 -0.00000000000E+00 -0.00000000000E+00 -0.45593999997E+02  0.45594000000E+02  0.51100000000E-03 0.  1.
         23    2    1    2    0    0  0.17763568394E-14  0.00000000000E+00 -0.71054273576E-14  0.91188000000E+02  0.91188000000E+02 0.  0.
    9900012    2    3    3    0    0  0.13794761378E+02  0.17051460694E+02 -0.37450978664E+02  0.47787267792E+02  0.19999985172E+02 0.  0.
         12    1    3    3    0    0 -0.13794761378E+02 -0.17051460694E+02  0.37450978664E+02  0.43400732208E+02  0.00000000000E+00 0. -1.
         11    1    4    4    0    0 -0.65434437536E+00 -0.31282151639E+01 -0.16650067709E+01  0.36036293485E+01  0.51100000000E-03 0. -1.
        -11    1    4    4    0    0  0.10665439495E+02  0.19242909675E+02 -0.29836574346E+02  0.37071044514E+02  0.51100000000E-03 0.  1.
         12    1    4    4    0    0  0.37836662590E+01  0.93676618328E+00 -0.59493975471E+01  0.71125939301E+01  0.00000000000E+00 0. -1.
</event>
<event>
 8    1  0.6239251E-010  0.9118800E+02  0.7816164E-02  0.1184000E+00
        -11   -1    0    0    0    0  0.00000000000E+00  0.00000000000E+00  0.45593999997E+02  0.45594000000E+02  0.51100000000E-03 0. -1.
         11   -1    0    0    0    0 -0.00000000000E+00 -0.00000000000E+00 -0.45593999997E+02  0.45594000000E+02  0.51100000000E-03 0.  1.
         23    2    1    2    0    0 -0.88817841970E-15  0.00000000000E+00  0.00000000000E+00  0.91188000000E+02  0.91188000000E+02 0.  0.
    9900012    2    3    3    0    0  0.67728853438E+01  0.10241485584E+02 -0.41627677235E+02  0.47787268268E+02  0.19999987343E+02 0.  0.
         12    1    3    3    0    0 -0.67728853438E+01 -0.10241485584E+02  0.41627677235E+02  0.43400731732E+02  0.00000000000E+00 0. -1.
         11    1    4    4    0    0 -0.18423085441E+00  0.47897008350E+01 -0.15177194201E+02  0.15916105025E+02  0.51100000000E-03 0. -1.
        -11    1    4    4    0    0 -0.17258182264E+01 -0.37280218256E+01 -0.25474930223E+01  0.48338717653E+01  0.51100000000E-03 0.  1.
        -12    1    4    4    0    0  0.86829344246E+01  0.91798065746E+01 -0.23902990011E+02  0.27037291478E+02  0.00000000000E+00 0.  1.
</event>
<event>
 8    1  0.6239251E-010  0.9118800E+02  0.7816164E-02  0.1184000E+00
        -11   -1    0    0    0    0  0.00000000000E+00  0.00000000000E+00  0.45593999997E+02  0.45594000000E+02  0.51100000000E-03 0. -1.
         11   -1    0    0    0    0 -0.00000000000E+00 -0.00000000000E+00 -0.45593999997E+02  0.45594000000E+02  0.51100000000E-03 0.  1.
         23    2    1    2    0    0 -0.44408920985E-15  0.00000000000E+00  0.00000000000E+00  0.91188000000E+02  0.91188000000E+02 0.  0.
    9900012    2    3    3    0    0 -0.23837457905E+01 -0.41797931945E+02  0.11440013765E+02  0.47787271046E+02  0.20000000005E+02 0.  0.
        -12    1    3    3    0    0  0.23837457905E+01  0.41797931945E+02 -0.11440013765E+02  0.43400728954E+02  0.00000000000E+00 0.  1.
         11    1    4    4    0    0  0.45705142890E+01 -0.26331989762E+02  0.58457521624E+01  0.27357560277E+02  0.51100000000E-03 0. -1.
        -11    1    4    4    0    0 -0.26285825026E+01  0.85236767634E+00  0.92396282126E+00  0.29137062627E+01  0.51100000000E-03 0.  1.
         12    1    4    4    0    0 -0.43256775769E+01 -0.16318309859E+02  0.46702987811E+01  0.17516004506E+02  0.00000000000E+00 0. -1.
</event>
<event>
 8    1  0.6239251E-010  0.9118800E+02  0.7816164E-02  0.1184000E+00
        -11   -1    0    0    0    0  0.00000000000E+00  0.00000000000E+00  0.45593999997E+02  0.45594000000E+02  0.51100000000E-03 0. -1.
         11   -1    0    0    0    0 -0.00000000000E+00 -0.00000000000E+00 -0.45593999997E+02  0.45594000000E+02  0.51100000000E-03 0.  1.
         23    2    1    2    0    0  0.00000000000E+00  0.00000000000E+00  0.00000000000E+00  0.91188000000E+02  0.91188000000E+02 0.  0.
    9900012    2    3    3    0    0 -0.75926278785E+01  0.89466782990E+01 -0.41784353400E+02  0.47787271437E+02  0.20000001791E+02 0.  0.
         12    1    3    3    0    0  0.75926278785E+01 -0.89466782990E+01  0.41784353400E+02  0.43400728563E+02  0.00000000000E+00 0. -1.
         11    1    4    4    0    0 -0.13931286122E+01 -0.22406135051E+01 -0.21563242549E+02  0.21724055461E+02  0.51100000000E-03 0.  1.
        -11    1    4    4    0    0 -0.91234375363E+01  0.84894555546E+01 -0.15108825926E+02  0.19585315652E+02  0.51100000000E-03 0. -1.
         12    1    4    4    0    0  0.29239382700E+01  0.26978362495E+01 -0.51122849262E+01  0.64779003236E+01  0.00000000000E+00 0. -1.
</event>
<event>
 8    1  0.6239251E-010  0.9118800E+02  0.7816164E-02  0.1184000E+00
        -11   -1    0    0    0    0  0.00000000000E+00  0.00000000000E+00  0.45593999997E+02  0.45594000000E+02  0.51100000000E-03 0. -1.
         11   -1    0    0    0    0 -0.00000000000E+00 -0.00000000000E+00 -0.45593999997E+02  0.45594000000E+02  0.51100000000E-03 0.  1.
         23    2    1    2    0    0  0.00000000000E+00  0.00000000000E+00  0.00000000000E+00  0.91188000000E+02  0.91188000000E+02 0.  0.
    9900012    2    3    3    0    0  0.25894557874E+02 -0.29550935686E+02  0.18434674378E+02  0.47787272508E+02  0.20000006673E+02 0.  0.
        -12    1    3    3    0    0 -0.25894557874E+02  0.29550935686E+02 -0.18434674378E+02  0.43400727492E+02  0.00000000000E+00 0.  1.
         11    1    4    4    0    0  0.13632811694E+02 -0.11213172802E+02  0.16187009755E+02  0.23950116577E+02  0.51100000000E-03 0. -1.
        -11    1    4    4    0    0  0.26258065106E+00 -0.42107465236E+01 -0.22254074529E+01  0.47698819144E+01  0.51100000000E-03 0.  1.
         12    1    4    4    0    0  0.11999165529E+02 -0.14127016360E+02  0.44730720764E+01  0.19067274017E+02  0.00000000000E+00 0. -1.
</event>
<event>
 8    1  0.6239251E-010  0.9118800E+02  0.7816164E-02  0.1184000E+00
        -11   -1    0    0    0    0  0.00000000000E+00  0.00000000000E+00  0.45593999997E+02  0.45594000000E+02  0.51100000000E-03 0. -1.
         11   -1    0    0    0    0 -0.00000000000E+00 -0.00000000000E+00 -0.45593999997E+02  0.45594000000E+02  0.51100000000E-03 0.  1.
         23    2    1    2    0    0  0.88817841970E-15  0.00000000000E+00  0.00000000000E+00  0.91188000000E+02  0.91188000000E+02 0.  0.
    9900012    2    3    3    0    0 -0.76667567840E+01  0.16374530396E+02 -0.39455285619E+02  0.47787263041E+02  0.19999963511E+02 0.  0.
         12    1    3    3    0    0  0.76667567840E+01 -0.16374530396E+02  0.39455285619E+02  0.43400736959E+02  0.00000000000E+00 0. -1.
         11    1    4    4    0    0  0.29464918250E+01  0.60463288461E+01 -0.16157940181E+01  0.69174198341E+01  0.51100000000E-03 0. -1.
        -11    1    4    4    0    0 -0.82332239890E+01  0.96074886191E+01 -0.34168046717E+02  0.36435494117E+02  0.51100000000E-03 0.  1.
        -12    1    4    4    0    0 -0.23800246200E+01  0.72071293104E+00 -0.36714448833E+01  0.44343490900E+01  0.00000000000E+00 0.  1.
</event>
<event>
 8    1  0.6239251E-010  0.9118800E+02  0.7816164E-02  0.1184000E+00
        -11   -1    0    0    0    0  0.00000000000E+00  0.00000000000E+00  0.45593999997E+02  0.45594000000E+02  0.51100000000E-03 0. -1.
         11   -1    0    0    0    0 -0.00000000000E+00 -0.00000000000E+00 -0.45593999997E+02  0.45594000000E+02  0.51100000000E-03 0.  1.
         23    2    1    2    0    0 -0.17763568394E-14  0.00000000000E+00 -0.35527136788E-14  0.91188000000E+02  0.91188000000E+02 0.  0.
    9900012    2    3    3    0    0  0.10960141807E+02  0.30178662148E+02  0.29201830134E+02  0.47787271427E+02  0.20000001743E+02 0.  0.
        -12    1    3    3    0    0 -0.10960141807E+02 -0.30178662148E+02 -0.29201830134E+02  0.43400728573E+02  0.00000000000E+00 0.  1.
         11    1    4    4    0    0 -0.31384915201E+01  0.28036072253E+01  0.88963035498E+01  0.98414714147E+01  0.51100000000E-03 0. -1.
        -11    1    4    4    0    0  0.17620833404E+01  0.23218922138E+01 -0.70491676897E+00  0.29988379521E+01  0.51100000000E-03 0.  1.
         12    1    4    4    0    0  0.12336549987E+02  0.25053162709E+02  0.21010443354E+02  0.34946962060E+02  0.00000000000E+00 0. -1.
</event>
<event>
 8    1  0.6239251E-010  0.9118800E+02  0.7816164E-02  0.1184000E+00
        -11   -1    0    0    0    0  0.00000000000E+00  0.00000000000E+00  0.45593999997E+02  0.45594000000E+02  0.51100000000E-03 0. -1.
         11   -1    0    0    0    0 -0.00000000000E+00 -0.00000000000E+00 -0.45593999997E+02  0.45594000000E+02  0.51100000000E-03 0.  1.
         23    2    1    2    0    0 -0.35527136788E-14  0.17763568394E-14  0.35527136788E-14  0.91188000000E+02  0.91188000000E+02 0.  0.
    9900012    2    3    3    0    0  0.28160164404E+02 -0.12718070776E+02 -0.30477514529E+02  0.47787273331E+02  0.20000010426E+02 0.  0.
         12    1    3    3    0    0 -0.28160164404E+02  0.12718070776E+02  0.30477514529E+02  0.43400726669E+02  0.00000000000E+00 0. -1.
         11    1    4    4    0    0  0.28570844216E+02 -0.99987006695E+01 -0.18718404485E+02  0.35589967983E+02  0.51100000000E-03 0.  1.
        -11    1    4    4    0    0  0.26933085954E+00 -0.24809938750E+01 -0.84590071427E+01  0.88194484987E+01  0.51100000000E-03 0. -1.
        -12    1    4    4    0    0 -0.68001067145E+00 -0.23837623194E+00 -0.33001029010E+01  0.33778568499E+01  0.00000000000E+00 0.  1.
</event>
<event>
 8    1  0.6239251E-010  0.9118800E+02  0.7816164E-02  0.1184000E+00
        -11   -1    0    0    0    0  0.00000000000E+00  0.00000000000E+00  0.45593999997E+02  0.45594000000E+02  0.51100000000E-03 0. -1.
         11   -1    0    0    0    0 -0.00000000000E+00 -0.00000000000E+00 -0.45593999997E+02  0.45594000000E+02  0.51100000000E-03 0.  1.
         23    2    1    2    0    0  0.00000000000E+00  0.00000000000E+00  0.00000000000E+00  0.91188000000E+02  0.91188000000E+02 0.  0.
    9900012    2    3    3    0    0  0.79620484883E+01  0.30798416645E+02 -0.29524345413E+02  0.47787266642E+02  0.19999979926E+02 0.  0.
         12    1    3    3    0    0 -0.79620484883E+01 -0.30798416645E+02  0.29524345413E+02  0.43400733358E+02  0.00000000000E+00 0. -1.
         11    1    4    4    0    0 -0.26336056950E+00  0.17165102129E+02 -0.12875351268E+02  0.21458908650E+02  0.51100000000E-03 0. -1.
        -11    1    4    4    0    0  0.91334832897E+01  0.71028776290E+01 -0.15940718610E+02  0.19697154558E+02  0.51100000000E-03 0.  1.
        -12    1    4    4    0    0 -0.90807423189E+00  0.65304368871E+01 -0.70827553398E+00  0.66312034337E+01  0.00000000000E+00 0.  1.
</event>
<event>
 8    1  0.6239251E-010  0.9118800E+02  0.7816164E-02  0.1184000E+00
        -11   -1    0    0    0    0  0.00000000000E+00  0.00000000000E+00  0.45593999997E+02  0.45594000000E+02  0.51100000000E-03 0. -1.
         11   -1    0    0    0    0 -0.00000000000E+00 -0.00000000000E+00 -0.45593999997E+02  0.45594000000E+02  0.51100000000E-03 0.  1.
         23    2    1    2    0    0  0.00000000000E+00  0.00000000000E+00  0.00000000000E+00  0.91188000000E+02  0.91188000000E+02 0.  0.
    9900012    2    3    3    0    0 -0.30189974606E+02 -0.13211432421E+02 -0.28242635773E+02  0.47787274330E+02  0.20000014980E+02 0.  0.
         12    1    3    3    0    0  0.30189974606E+02  0.13211432421E+02  0.28242635773E+02  0.43400725670E+02  0.00000000000E+00 0. -1.
         11    1    4    4    0    0 -0.22994789036E+01 -0.18176658209E+01  0.27954680767E+01  0.40504511222E+01  0.51100000000E-03 0. -1.
        -11    1    4    4    0    0 -0.23493610454E+02 -0.87379827723E+01 -0.22048818646E+02  0.33383416228E+02  0.51100000000E-03 0.  1.
        -12    1    4    4    0    0 -0.43968852485E+01 -0.26557838274E+01 -0.89892852031E+01  0.10353406980E+02  0.00000000000E+00 0.  1.
</event>
<event>
 8    1  0.6239251E-010  0.9118800E+02  0.7816164E-02  0.1184000E+00
        -11   -1    0    0    0    0  0.00000000000E+00  0.00000000000E+00  0.45593999997E+02  0.45594000000E+02  0.51100000000E-03 0.  1.
         11   -1    0    0    0    0 -0.00000000000E+00 -0.00000000000E+00 -0.45593999997E+02  0.45594000000E+02  0.51100000000E-03 0. -1.
         23    2    1    2    0    0  0.00000000000E+00  0.35527136788E-14  0.35527136788E-14  0.91188000000E+02  0.91188000000E+02 0.  0.
    9900012    2    3    3    0    0  0.17469657908E+02 -0.26725153529E+02 -0.29397278216E+02  0.47787277137E+02  0.20000027777E+02 0.  0.
         12    1    3    3    0    0 -0.17469657908E+02  0.26725153529E+02  0.29397278216E+02  0.43400722863E+02  0.00000000000E+00 0. -1.
         11    1    4    4    0    0  0.52417881817E+01 -0.41954578481E+01 -0.13960655734E+02  0.15491227153E+02  0.51100000000E-03 0. -1.
        -11    1    4    4    0    0  0.12954916526E+02 -0.22526783601E+02 -0.16663432472E+02  0.30869982566E+02  0.51100000000E-03 0.  1.
         12    1    4    4    0    0 -0.72704679931E+00 -0.29120794567E-02  0.12268099906E+01  0.14260674183E+01  0.00000000000E+00 0. -1.
</event>
<event>
 8    1  0.6239251E-010  0.9118800E+02  0.7816164E-02  0.1184000E+00
        -11   -1    0    0    0    0  0.00000000000E+00  0.00000000000E+00  0.45593999997E+02  0.45594000000E+02  0.51100000000E-03 0. -1.
         11   -1    0    0    0    0 -0.00000000000E+00 -0.00000000000E+00 -0.45593999997E+02  0.45594000000E+02  0.51100000000E-03 0.  1.
         23    2    1    2    0    0  0.88817841970E-15 -0.35527136788E-14 -0.71054273576E-14  0.91188000000E+02  0.91188000000E+02 0.  0.
    9900012    2    3    3    0    0  0.72539689978E+01 -0.24328722091E+02 -0.35201083876E+02  0.47787273153E+02  0.20000009613E+02 0.  0.
         12    1    3    3    0    0 -0.72539689978E+01  0.24328722091E+02  0.35201083876E+02  0.43400726847E+02  0.00000000000E+00 0. -1.
         11    1    4    4    0    0  0.11740497235E+02 -0.22916476421E+02 -0.29056244466E+02  0.38823568996E+02  0.51100000000E-03 0.  1.
        -11    1    4    4    0    0 -0.36991281134E+01 -0.76829203241E+00 -0.67820714963E+01  0.77633958735E+01  0.51100000000E-03 0. -1.
        -12    1    4    4    0    0 -0.78740012385E+00 -0.64395363737E+00  0.63723208613E+00  0.12003082828E+01  0.00000000000E+00 0.  1.
</event>
<event>
 8    1  0.6239251E-010  0.9118800E+02  0.7816164E-02  0.1184000E+00
        -11   -1    0    0    0    0  0.00000000000E+00  0.00000000000E+00  0.45593999997E+02  0.45594000000E+02  0.51100000000E-03 0. -1.
         11   -1    0    0    0    0 -0.00000000000E+00 -0.00000000000E+00 -0.45593999997E+02  0.45594000000E+02  0.51100000000E-03 0.  1.
         23    2    1    2    0    0  0.38857805862E-15  0.00000000000E+00  0.00000000000E+00  0.91188000000E+02  0.91188000000E+02 0.  0.
    9900012    2    3    3    0    0 -0.42080719693E+00 -0.13182173228E+01  0.43378662090E+02  0.47787273044E+02  0.20000009117E+02 0.  0.
        -12    1    3    3    0    0  0.42080719693E+00  0.13182173228E+01 -0.43378662090E+02  0.43400726956E+02  0.00000000000E+00 0.  1.
         11    1    4    4    0    0  0.92157814837E+01 -0.60419457599E+00  0.29042662019E+02  0.30475759168E+02  0.51100000000E-03 0. -1.
        -11    1    4    4    0    0 -0.66335620111E+01 -0.77701590166E-01  0.98619450875E+01  0.11885627609E+02  0.51100000000E-03 0.  1.
         12    1    4    4    0    0 -0.30030266696E+01 -0.63632115661E+00  0.44740549832E+01  0.54258862673E+01  0.00000000000E+00 0. -1.
</event>
<event>
 8    1  0.6239251E-010  0.9118800E+02  0.7816164E-02  0.1184000E+00
        -11   -1    0    0    0    0  0.00000000000E+00  0.00000000000E+00  0.45593999997E+02  0.45594000000E+02  0.51100000000E-03 0. -1.
         11   -1    0    0    0    0 -0.00000000000E+00 -0.00000000000E+00 -0.45593999997E+02  0.45594000000E+02  0.51100000000E-03 0.  1.
         23    2    1    2    0    0  0.00000000000E+00 -0.35527136788E-14  0.00000000000E+00  0.91188000000E+02  0.91188000000E+02 0.  0.
    9900012    2    3    3    0    0  0.82968165090E+01 -0.30027784322E+02  0.30217852421E+02  0.47787267282E+02  0.19999982848E+02 0.  0.
        -12    1    3    3    0    0 -0.82968165090E+01  0.30027784322E+02 -0.30217852421E+02  0.43400732718E+02  0.00000000000E+00 0.  1.
         11    1    4    4    0    0  0.33008950927E+01 -0.25300405667E+02  0.20815539227E+02  0.32928606240E+02  0.51100000000E-03 0. -1.
        -11    1    4    4    0    0 -0.23132091684E+01  0.42587442854E+00  0.32161908303E+01  0.39844936195E+01  0.51100000000E-03 0.  1.
        -12    1    4    4    0    0  0.73091305846E+01 -0.51532530839E+01  0.61861223632E+01  0.10874167423E+02  0.00000000000E+00 0.  1.
</event>
<event>
 8    1  0.6239251E-010  0.9118800E+02  0.7816164E-02  0.1184000E+00
        -11   -1    0    0    0    0  0.00000000000E+00  0.00000000000E+00  0.45593999997E+02  0.45594000000E+02  0.51100000000E-03 0. -1.
         11   -1    0    0    0    0 -0.00000000000E+00 -0.00000000000E+00 -0.45593999997E+02  0.45594000000E+02  0.51100000000E-03 0.  1.
         23    2    1    2    0    0 -0.17763568394E-14  0.00000000000E+00  0.00000000000E+00  0.91188000000E+02  0.91188000000E+02 0.  0.
    9900012    2    3    3    0    0 -0.88888810665E+01 -0.12845126830E+02 -0.40492147127E+02  0.47787268798E+02  0.19999989758E+02 0.  0.
         12    1    3    3    0    0  0.88888810665E+01  0.12845126830E+02  0.40492147127E+02  0.43400731202E+02  0.00000000000E+00 0. -1.
         11    1    4    4    0    0 -0.24360954720E+01 -0.11185421553E+02 -0.12673092551E+02  0.17077924099E+02  0.51100000000E-03 0. -1.
        -11    1    4    4    0    0 -0.21011871873E+01 -0.56735342186E+01 -0.80322303062E+01  0.10055878981E+02  0.51100000000E-03 0.  1.
         12    1    4    4    0    0 -0.43515984071E+01  0.40138289420E+01 -0.19786824270E+02  0.20653465718E+02  0.00000000000E+00 0. -1.
</event>
<event>
 8    1  0.6239251E-010  0.9118800E+02  0.7816164E-02  0.1184000E+00
        -11   -1    0    0    0    0  0.00000000000E+00  0.00000000000E+00  0.45593999997E+02  0.45594000000E+02  0.51100000000E-03 0. -1.
         11   -1    0    0    0    0 -0.00000000000E+00 -0.00000000000E+00 -0.45593999997E+02  0.45594000000E+02  0.51100000000E-03 0.  1.
         23    2    1    2    0    0  0.00000000000E+00  0.00000000000E+00 -0.88817841970E-15  0.91188000000E+02  0.91188000000E+02 0.  0.
    9900012    2    3    3    0    0  0.36683887398E+02  0.22541316256E+02 -0.54593437880E+01  0.47787274571E+02  0.20000016078E+02 0.  0.
         12    1    3    3    0    0 -0.36683887398E+02 -0.22541316256E+02  0.54593437880E+01  0.43400725429E+02  0.00000000000E+00 0. -1.
         11    1    4    4    0    0 -0.76813721155E+00 -0.52518231013E+00 -0.32623729712E+01  0.33924812305E+01  0.51100000000E-03 0. -1.
        -11    1    4    4    0    0  0.33659796428E+02  0.20968948985E+02 -0.28486310501E+00  0.39658036567E+02  0.51100000000E-03 0.  1.
        -12    1    4    4    0    0  0.37922281816E+01  0.20975495817E+01 -0.19121077118E+01  0.47367567734E+01  0.00000000000E+00 0.  1.
</event>
<event>
 8    1  0.6239251E-010  0.9118800E+02  0.7816164E-02  0.1184000E+00
        -11   -1    0    0    0    0  0.00000000000E+00  0.00000000000E+00  0.45593999997E+02  0.45594000000E+02  0.51100000000E-03 0. -1.
         11   -1    0    0    0    0 -0.00000000000E+00 -0.00000000000E+00 -0.45593999997E+02  0.45594000000E+02  0.51100000000E-03 0.  1.
         23    2    1    2    0    0  0.00000000000E+00  0.00000000000E+00  0.00000000000E+00  0.91188000000E+02  0.91188000000E+02 0.  0.
    9900012    2    3    3    0    0  0.12641870784E+02  0.17214709380E+02 -0.37781747004E+02  0.47787268179E+02  0.19999986933E+02 0.  0.
         12    1    3    3    0    0 -0.12641870784E+02 -0.17214709380E+02  0.37781747004E+02  0.43400731821E+02  0.00000000000E+00 0. -1.
         11    1    4    4    0    0  0.53706147528E+01 -0.54651879658E+00 -0.57867933491E+01  0.79138589288E+01  0.51100000000E-03 0. -1.
        -11    1    4    4    0    0  0.91840678948E+01  0.17844811179E+02 -0.32205688040E+02  0.37947209799E+02  0.51100000000E-03 0.  1.
        -12    1    4    4    0    0 -0.19128118638E+01 -0.83583002703E-01  0.21073438492E+00  0.19261994512E+01  0.00000000000E+00 0.  1.
</event>
<event>
 8    1  0.6239251E-010  0.9118800E+02  0.7816164E-02  0.1184000E+00
        -11   -1    0    0    0    0  0.00000000000E+00  0.00000000000E+00  0.45593999997E+02  0.45594000000E+02  0.51100000000E-03 0. -1.
         11   -1    0    0    0    0 -0.00000000000E+00 -0.00000000000E+00 -0.45593999997E+02  0.45594000000E+02  0.51100000000E-03 0.  1.
         23    2    1    2    0    0  0.88817841970E-15  0.00000000000E+00  0.71054273576E-14  0.91188000000E+02  0.91188000000E+02 0.  0.
    9900012    2    3    3    0    0 -0.73958171825E+01  0.27618214452E+02 -0.32652098192E+02  0.47787269618E+02  0.19999993498E+02 0.  0.
         12    1    3    3    0    0  0.73958171825E+01 -0.27618214452E+02  0.32652098192E+02  0.43400730382E+02  0.00000000000E+00 0. -1.
         11    1    4    4    0    0 -0.79511635864E+01  0.13274822461E+02 -0.16914601152E+02  0.22924782357E+02  0.51100000000E-03 0. -1.
        -11    1    4    4    0    0  0.55241901324E+01  0.51209883581E+01 -0.11079899498E+02  0.13397961469E+02  0.51100000000E-03 0.  1.
         12    1    4    4    0    0 -0.49688437285E+01  0.92224036329E+01 -0.46575975421E+01  0.11464525792E+02  0.00000000000E+00 0. -1.
</event>
<event>
 8    1  0.6239251E-010  0.9118800E+02  0.7816164E-02  0.1184000E+00
        -11   -1    0    0    0    0  0.00000000000E+00  0.00000000000E+00  0.45593999997E+02  0.45594000000E+02  0.51100000000E-03 0. -1.
         11   -1    0    0    0    0 -0.00000000000E+00 -0.00000000000E+00 -0.45593999997E+02  0.45594000000E+02  0.51100000000E-03 0.  1.
         23    2    1    2    0    0 -0.71054273576E-14  0.00000000000E+00  0.00000000000E+00  0.91188000000E+02  0.91188000000E+02 0.  0.
    9900012    2    3    3    0    0  0.38241430852E+02  0.18028849415E+01  0.20444213706E+02  0.47787270723E+02  0.19999998533E+02 0.  0.
        -12    1    3    3    0    0 -0.38241430852E+02 -0.18028849415E+01 -0.20444213706E+02  0.43400729277E+02  0.00000000000E+00 0.  1.
         11    1    4    4    0    0  0.26477818178E+02  0.23826707985E+01  0.19905436744E+02  0.33211118437E+02  0.51100000000E-03 0. -1.
        -11    1    4    4    0    0  0.97895598012E+01 -0.37053339300E+01 -0.11146119447E+01  0.10526506575E+02  0.51100000000E-03 0.  1.
        -12    1    4    4    0    0  0.19740528735E+01  0.31255480730E+01  0.16533889069E+01  0.40496457106E+01  0.00000000000E+00 0.  1.
</event>
<event>
 8    1  0.6239251E-010  0.9118800E+02  0.7816164E-02  0.1184000E+00
        -11   -1    0    0    0    0  0.00000000000E+00  0.00000000000E+00  0.45593999997E+02  0.45594000000E+02  0.51100000000E-03 0. -1.
         11   -1    0    0    0    0 -0.00000000000E+00 -0.00000000000E+00 -0.45593999997E+02  0.45594000000E+02  0.51100000000E-03 0.  1.
         23    2    1    2    0    0  0.35527136788E-14 -0.17763568394E-14  0.00000000000E+00  0.91188000000E+02  0.91188000000E+02 0.  0.
    9900012    2    3    3    0    0  0.21268471928E+02 -0.10021139452E+02 -0.36480847776E+02  0.47787269723E+02  0.19999993976E+02 0.  0.
         12    1    3    3    0    0 -0.21268471928E+02  0.10021139452E+02  0.36480847776E+02  0.43400730277E+02  0.00000000000E+00 0. -1.
         11    1    4    4    0    0  0.45582172148E+00 -0.61203539953E+01 -0.12308386844E+02  0.13753650186E+02  0.51100000000E-03 0. -1.
        -11    1    4    4    0    0  0.19235800606E+02  0.86454690164E-01 -0.16970504149E+02  0.25651929960E+02  0.51100000000E-03 0.  1.
        -12    1    4    4    0    0  0.15768496011E+01 -0.39872401469E+01 -0.72019567835E+01  0.83816895770E+01  0.00000000000E+00 0.  1.
</event>
<event>
 8    1  0.6239251E-010  0.9118800E+02  0.7816164E-02  0.1184000E+00
        -11   -1    0    0    0    0  0.00000000000E+00  0.00000000000E+00  0.45593999997E+02  0.45594000000E+02  0.51100000000E-03 0. -1.
         11   -1    0    0    0    0 -0.00000000000E+00 -0.00000000000E+00 -0.45593999997E+02  0.45594000000E+02  0.51100000000E-03 0.  1.
         23    2    1    2    0    0 -0.71054273576E-14 -0.17763568394E-14  0.00000000000E+00  0.91188000000E+02  0.91188000000E+02 0.  0.
    9900012    2    3    3    0    0  0.29044798702E+02  0.11644937230E+02 -0.30073547104E+02  0.47787272701E+02  0.20000007551E+02 0.  0.
         12    1    3    3    0    0 -0.29044798702E+02 -0.11644937230E+02  0.30073547104E+02  0.43400727299E+02  0.00000000000E+00 0. -1.
         11    1    4    4    0    0  0.97501364459E+00  0.56068051332E-01  0.76765009898E+00  0.12422085852E+01  0.51100000000E-03 0. -1.
        -11    1    4    4    0    0  0.34486992984E+00 -0.28654226270E+01 -0.58312874669E+01  0.65064195901E+01  0.51100000000E-03 0.  1.
        -12    1    4    4    0    0  0.27724915127E+02  0.14454291806E+02 -0.25009909736E+02  0.40038644525E+02  0.00000000000E+00 0.  1.
</event>
<event>
 8    1  0.6239251E-010  0.9118800E+02  0.7816164E-02  0.1184000E+00
        -11   -1    0    0    0    0  0.00000000000E+00  0.00000000000E+00  0.45593999997E+02  0.45594000000E+02  0.51100000000E-03 0. -1.
         11   -1    0    0    0    0 -0.00000000000E+00 -0.00000000000E+00 -0.45593999997E+02  0.45594000000E+02  0.51100000000E-03 0.  1.
         23    2    1    2    0    0 -0.88817841970E-15  0.35527136788E-14  0.00000000000E+00  0.91188000000E+02  0.91188000000E+02 0.  0.
    9900012    2    3    3    0    0 -0.61690971431E+01 -0.28443516357E+02 -0.32195208763E+02  0.47787275933E+02  0.20000022288E+02 0.  0.
         12    1    3    3    0    0  0.61690971431E+01  0.28443516357E+02  0.32195208763E+02  0.43400724067E+02  0.00000000000E+00 0. -1.
         11    1    4    4    0    0  0.28269904854E+01 -0.10094603744E+02 -0.16577132577E+02  0.19613623446E+02  0.51100000000E-03 0. -1.
        -11    1    4    4    0    0 -0.79601192041E+01 -0.19721647656E+02 -0.12655539329E+02  0.24748122352E+02  0.51100000000E-03 0.  1.
        -12    1    4    4    0    0 -0.10359684244E+01  0.13727350429E+01 -0.29625368567E+01  0.34255301344E+01  0.00000000000E+00 0.  1.
</event>
<event>
 8    1  0.6239251E-010  0.9118800E+02  0.7816164E-02  0.1184000E+00
        -11   -1    0    0    0    0  0.00000000000E+00  0.00000000000E+00  0.45593999997E+02  0.45594000000E+02  0.51100000000E-03 0. -1.
         11   -1    0    0    0    0 -0.00000000000E+00 -0.00000000000E+00 -0.45593999997E+02  0.45594000000E+02  0.51100000000E-03 0.  1.
         23    2    1    2    0    0  0.17763568394E-14  0.71054273576E-14  0.35527136788E-14  0.91188000000E+02  0.91188000000E+02 0.  0.
    9900012    2    3    3    0    0  0.14711976209E+02  0.36300872781E+02  0.18692982036E+02  0.47787272056E+02  0.20000004611E+02 0.  0.
        -12    1    3    3    0    0 -0.14711976209E+02 -0.36300872781E+02 -0.18692982036E+02  0.43400727944E+02  0.00000000000E+00 0.  1.
         11    1    4    4    0    0  0.53063570301E+00  0.32465358198E+00 -0.29444973963E+01  0.30094915476E+01  0.51100000000E-03 0. -1.
        -11    1    4    4    0    0  0.86232416578E+00  0.33573438115E+00  0.14120130513E+01  0.16882244104E+01  0.51100000000E-03 0.  1.
         12    1    4    4    0    0  0.13319016340E+02  0.35640484818E+02  0.20225466381E+02  0.43089556098E+02  0.00000000000E+00 0. -1.
</event>
<event>
 8    1  0.6239251E-010  0.9118800E+02  0.7816164E-02  0.1184000E+00
        -11   -1    0    0    0    0  0.00000000000E+00  0.00000000000E+00  0.45593999997E+02  0.45594000000E+02  0.51100000000E-03 0. -1.
         11   -1    0    0    0    0 -0.00000000000E+00 -0.00000000000E+00 -0.45593999997E+02  0.45594000000E+02  0.51100000000E-03 0.  1.
         23    2    1    2    0    0  0.00000000000E+00  0.00000000000E+00 -0.35527136788E-14  0.91188000000E+02  0.91188000000E+02 0.  0.
    9900012    2    3    3    0    0  0.42837580064E+01 -0.29300479005E+02  0.31729395796E+02  0.47787271778E+02  0.20000003344E+02 0.  0.
        -12    1    3    3    0    0 -0.42837580064E+01  0.29300479005E+02 -0.31729395796E+02  0.43400728222E+02  0.00000000000E+00 0.  1.
         11    1    4    4    0    0  0.32158316413E+01 -0.97941315837E+01  0.94198002650E+01  0.13964212256E+02  0.51100000000E-03 0. -1.
        -11    1    4    4    0    0  0.28043299364E+01 -0.20424191685E+02  0.23703637919E+02  0.31414555914E+02  0.51100000000E-03 0.  1.
        -12    1    4    4    0    0 -0.17364035713E+01  0.91784426340E+00 -0.13940423878E+01  0.24085036087E+01  0.00000000000E+00 0.  1.
</event>
<event>
 8    1  0.6239251E-010  0.9118800E+02  0.7816164E-02  0.1184000E+00
        -11   -1    0    0    0    0  0.00000000000E+00  0.00000000000E+00  0.45593999997E+02  0.45594000000E+02  0.51100000000E-03 0.  1.
         11   -1    0    0    0    0 -0.00000000000E+00 -0.00000000000E+00 -0.45593999997E+02  0.45594000000E+02  0.51100000000E-03 0. -1.
         23    2    1    2    0    0 -0.35527136788E-14  0.00000000000E+00  0.00000000000E+00  0.91188000000E+02  0.91188000000E+02 0.  0.
    9900012    2    3    3    0    0 -0.16140089103E+02  0.39398087569E+02 -0.84209016928E+01  0.47787269987E+02  0.19999995180E+02 0.  0.
         12    1    3    3    0    0  0.16140089103E+02 -0.39398087569E+02  0.84209016928E+01  0.43400730013E+02  0.00000000000E+00 0. -1.
         11    1    4    4    0    0 -0.78932781239E+01  0.49951419165E+01  0.19971135413E+01  0.95521591834E+01  0.51100000000E-03 0.  1.
        -11    1    4    4    0    0 -0.33777253676E+01  0.21076969041E+01 -0.95817444265E-01  0.39825363956E+01  0.51100000000E-03 0. -1.
         12    1    4    4    0    0 -0.48690856114E+01  0.32295248748E+02 -0.10322197790E+02  0.34252574408E+02  0.00000000000E+00 0. -1.
</event>
<event>
 8    1  0.6239251E-010  0.9118800E+02  0.7816164E-02  0.1184000E+00
        -11   -1    0    0    0    0  0.00000000000E+00  0.00000000000E+00  0.45593999997E+02  0.45594000000E+02  0.51100000000E-03 0. -1.
         11   -1    0    0    0    0 -0.00000000000E+00 -0.00000000000E+00 -0.45593999997E+02  0.45594000000E+02  0.51100000000E-03 0.  1.
         23    2    1    2    0    0 -0.94368957093E-15 -0.35527136788E-14  0.00000000000E+00  0.91188000000E+02  0.91188000000E+02 0.  0.
    9900012    2    3    3    0    0 -0.44009757111E+00  0.21884754165E+02  0.37476488031E+02  0.47787270676E+02  0.19999998321E+02 0.  0.
        -12    1    3    3    0    0  0.44009757111E+00 -0.21884754165E+02 -0.37476488031E+02  0.43400729324E+02  0.00000000000E+00 0.  1.
         11    1    4    4    0    0 -0.92209452721E+01  0.13215230596E+02  0.25378273978E+02  0.30062018259E+02  0.51100000000E-03 0. -1.
        -11    1    4    4    0    0  0.47910064779E+01  0.72807686524E+01  0.85320809946E+01  0.12196710278E+02  0.51100000000E-03 0.  1.
         12    1    4    4    0    0  0.39898412231E+01  0.13887549171E+01  0.35661330575E+01  0.55285421395E+01  0.00000000000E+00 0. -1.
</event>
<event>
 8    1  0.6239251E-010  0.9118800E+02  0.7816164E-02  0.1184000E+00
        -11   -1    0    0    0    0  0.00000000000E+00  0.00000000000E+00  0.45593999997E+02  0.45594000000E+02  0.51100000000E-03 0. -1.
         11   -1    0    0    0    0 -0.00000000000E+00 -0.00000000000E+00 -0.45593999997E+02  0.45594000000E+02  0.51100000000E-03 0.  1.
         23    2    1    2    0    0  0.00000000000E+00  0.00000000000E+00  0.00000000000E+00  0.91188000000E+02  0.91188000000E+02 0.  0.
    9900012    2    3    3    0    0 -0.22519172588E+02  0.22889200384E+01 -0.37030678545E+02  0.47787269102E+02  0.19999991144E+02 0.  0.
         12    1    3    3    0    0  0.22519172588E+02 -0.22889200384E+01  0.37030678545E+02  0.43400730898E+02  0.00000000000E+00 0. -1.
         11    1    4    4    0    0  0.11423816941E+01 -0.51897461065E+00 -0.58663544094E+01  0.59990403315E+01  0.51100000000E-03 0. -1.
        -11    1    4    4    0    0 -0.24874695536E+02  0.15420115453E+01 -0.24693784094E+02  0.35084344810E+02  0.51100000000E-03 0.  1.
        -12    1    4    4    0    0  0.12131412535E+01  0.12658831038E+01 -0.64705400410E+01  0.67038839605E+01  0.00000000000E+00 0.  1.
</event>
<event>
 8    1  0.6239251E-010  0.9118800E+02  0.7816164E-02  0.1184000E+00
        -11   -1    0    0    0    0  0.00000000000E+00  0.00000000000E+00  0.45593999997E+02  0.45594000000E+02  0.51100000000E-03 0. -1.
         11   -1    0    0    0    0 -0.00000000000E+00 -0.00000000000E+00 -0.45593999997E+02  0.45594000000E+02  0.51100000000E-03 0.  1.
         23    2    1    2    0    0  0.00000000000E+00  0.17763568394E-14  0.00000000000E+00  0.91188000000E+02  0.91188000000E+02 0.  0.
    9900012    2    3    3    0    0 -0.14422709298E+02  0.10890641771E+02 -0.39458871376E+02  0.47787272449E+02  0.20000006404E+02 0.  0.
         12    1    3    3    0    0  0.14422709298E+02 -0.10890641771E+02  0.39458871376E+02  0.43400727551E+02  0.00000000000E+00 0. -1.
         11    1    4    4    0    0 -0.30793245877E+00  0.10114700998E+02 -0.17225792043E+02  0.19978235919E+02  0.51100000000E-03 0.  1.
        -11    1    4    4    0    0 -0.77213677942E+01  0.31314914086E+00 -0.44760631625E+01  0.89304381019E+01  0.51100000000E-03 0. -1.
        -12    1    4    4    0    0 -0.63934090451E+01  0.46279163200E+00 -0.17757016171E+02  0.18878598428E+02  0.00000000000E+00 0.  1.
</event>
<event>
 8    1  0.6239251E-010  0.9118800E+02  0.7816164E-02  0.1184000E+00
        -11   -1    0    0    0    0  0.00000000000E+00  0.00000000000E+00  0.45593999997E+02  0.45594000000E+02  0.51100000000E-03 0.  1.
         11   -1    0    0    0    0 -0.00000000000E+00 -0.00000000000E+00 -0.45593999997E+02  0.45594000000E+02  0.51100000000E-03 0. -1.
         23    2    1    2    0    0  0.00000000000E+00  0.00000000000E+00  0.35527136788E-14  0.91188000000E+02  0.91188000000E+02 0.  0.
    9900012    2    3    3    0    0 -0.22378170458E+02  0.34784977403E+02 -0.13147087059E+02  0.47787273461E+02  0.20000011016E+02 0.  0.
        -12    1    3    3    0    0  0.22378170458E+02 -0.34784977403E+02  0.13147087059E+02  0.43400726539E+02  0.00000000000E+00 0.  1.
         11    1    4    4    0    0 -0.12240197759E+02  0.26185618979E+02 -0.79369195116E+01  0.29975052529E+02  0.51100000000E-03 0. -1.
        -11    1    4    4    0    0 -0.16678808634E+01 -0.23315094827E+01  0.38952767003E+00  0.28930079691E+01  0.51100000000E-03 0.  1.
        -12    1    4    4    0    0 -0.84700918357E+01  0.10930867907E+02 -0.55996952170E+01  0.14919212963E+02  0.00000000000E+00 0.  1.
</event>
<event>
 8    1  0.6239251E-010  0.9118800E+02  0.7816164E-02  0.1184000E+00
        -11   -1    0    0    0    0  0.00000000000E+00  0.00000000000E+00  0.45593999997E+02  0.45594000000E+02  0.51100000000E-03 0. -1.
         11   -1    0    0    0    0 -0.00000000000E+00 -0.00000000000E+00 -0.45593999997E+02  0.45594000000E+02  0.51100000000E-03 0.  1.
         23    2    1    2    0    0  0.35527136788E-14  0.00000000000E+00 -0.71054273576E-14  0.91188000000E+02  0.91188000000E+02 0.  0.
    9900012    2    3    3    0    0  0.24578408234E+02 -0.14654876052E+02 -0.32630657850E+02  0.47787269878E+02  0.19999994681E+02 0.  0.
         12    1    3    3    0    0 -0.24578408234E+02  0.14654876052E+02  0.32630657850E+02  0.43400730122E+02  0.00000000000E+00 0. -1.
         11    1    4    4    0    0  0.12957080853E+02 -0.66726733257E+01 -0.72588161762E+01  0.16281920221E+02  0.51100000000E-03 0. -1.
        -11    1    4    4    0    0  0.88094086076E+01  0.23972897107E-01 -0.18836715331E+02  0.20794905613E+02  0.51100000000E-03 0.  1.
        -12    1    4    4    0    0  0.28119187732E+01 -0.80061756237E+01 -0.65351263425E+01  0.10710444044E+02  0.00000000000E+00 0.  1.
</event>
<event>
 8    1  0.6239251E-010  0.9118800E+02  0.7816164E-02  0.1184000E+00
        -11   -1    0    0    0    0  0.00000000000E+00  0.00000000000E+00  0.45593999997E+02  0.45594000000E+02  0.51100000000E-03 0. -1.
         11   -1    0    0    0    0 -0.00000000000E+00 -0.00000000000E+00 -0.45593999997E+02  0.45594000000E+02  0.51100000000E-03 0.  1.
         23    2    1    2    0    0  0.00000000000E+00 -0.35527136788E-14  0.00000000000E+00  0.91188000000E+02  0.91188000000E+02 0.  0.
    9900012    2    3    3    0    0 -0.10589562006E+02  0.28622541537E+02  0.30858307860E+02  0.47787264159E+02  0.19999968608E+02 0.  0.
        -12    1    3    3    0    0  0.10589562006E+02 -0.28622541537E+02 -0.30858307860E+02  0.43400735841E+02  0.00000000000E+00 0.  1.
         11    1    4    4    0    0 -0.21436443256E+01  0.93171176002E+01  0.67091156064E+01  0.11679731326E+02  0.51100000000E-03 0. -1.
        -11    1    4    4    0    0 -0.22572835833E+01  0.71795006963E+01 -0.91830911676E+00  0.75818105568E+01  0.51100000000E-03 0.  1.
        -12    1    4    4    0    0 -0.61886340971E+01  0.12125923241E+02  0.25067501371E+02  0.28525722276E+02  0.00000000000E+00 0.  1.
</event>
<event>
 8    1  0.7141215E-010  0.9118800E+02  0.7816164E-02  0.1184000E+00
        -11   -1    0    0    0    0  0.00000000000E+00  0.00000000000E+00  0.45593999997E+02  0.45594000000E+02  0.51100000000E-03 0. -1.
         11   -1    0    0    0    0 -0.00000000000E+00 -0.00000000000E+00 -0.45593999997E+02  0.45594000000E+02  0.51100000000E-03 0.  1.
         23    2    1    2    0    0  0.00000000000E+00  0.00000000000E+00 -0.71054273576E-14  0.91188000000E+02  0.91188000000E+02 0.  0.
    9900012    2    3    3    0    0 -0.78390842068E+01  0.85850951530E+01  0.41814700567E+02  0.47787259413E+02  0.19999946969E+02 0.  0.
        -12    1    3    3    0    0  0.78390842068E+01 -0.85850951530E+01 -0.41814700567E+02  0.43400740587E+02  0.00000000000E+00 0.  1.
         11    1    4    4    0    0  0.57162121636E+00  0.28568921430E+01  0.10884116400E+02  0.11267323267E+02  0.51100000000E-03 0. -1.
        -11    1    4    4    0    0 -0.42715072183E+01  0.11492960838E+02  0.20933575056E+02  0.24260018294E+02  0.51100000000E-03 0.  1.
        -12    1    4    4    0    0 -0.41391982049E+01 -0.57647578277E+01  0.99970091104E+01  0.12259917852E+02  0.00000000000E+00 0.  1.
</event>
<event>
 8    1  0.6239251E-010  0.9118800E+02  0.7816164E-02  0.1184000E+00
        -11   -1    0    0    0    0  0.00000000000E+00  0.00000000000E+00  0.45593999997E+02  0.45594000000E+02  0.51100000000E-03 0. -1.
         11   -1    0    0    0    0 -0.00000000000E+00 -0.00000000000E+00 -0.45593999997E+02  0.45594000000E+02  0.51100000000E-03 0.  1.
         23    2    1    2    0    0  0.00000000000E+00  0.00000000000E+00 -0.35527136788E-14  0.91188000000E+02  0.91188000000E+02 0.  0.
    9900012    2    3    3    0    0  0.21151730026E+02  0.34353577935E+02  0.16001866106E+02  0.47787265917E+02  0.19999976623E+02 0.  0.
        -12    1    3    3    0    0 -0.21151730026E+02 -0.34353577935E+02 -0.16001866106E+02  0.43400734083E+02  0.00000000000E+00 0.  1.
         11    1    4    4    0    0  0.11733998418E+02  0.30346744959E+02  0.89748718262E+01  0.33751444014E+02  0.51100000000E-03 0. -1.
        -11    1    4    4    0    0  0.65643553119E+01 -0.33527567367E+00  0.56327446061E+01  0.86562683933E+01  0.51100000000E-03 0.  1.
        -12    1    4    4    0    0  0.28533762956E+01  0.43421086503E+01  0.13942496735E+01  0.53795535101E+01  0.00000000000E+00 0.  1.
</event>
<event>
 8    1  0.6239251E-010  0.9118800E+02  0.7816164E-02  0.1184000E+00
        -11   -1    0    0    0    0  0.00000000000E+00  0.00000000000E+00  0.45593999997E+02  0.45594000000E+02  0.51100000000E-03 0. -1.
         11   -1    0    0    0    0 -0.00000000000E+00 -0.00000000000E+00 -0.45593999997E+02  0.45594000000E+02  0.51100000000E-03 0.  1.
         23    2    1    2    0    0  0.00000000000E+00  0.00000000000E+00 -0.35527136788E-14  0.91188000000E+02  0.91188000000E+02 0.  0.
    9900012    2    3    3    0    0 -0.31570577045E+02  0.17525658074E+02  0.24078477613E+02  0.47787272932E+02  0.20000008604E+02 0.  0.
        -12    1    3    3    0    0  0.31570577045E+02 -0.17525658074E+02 -0.24078477613E+02  0.43400727068E+02  0.00000000000E+00 0.  1.
         11    1    4    4    0    0 -0.53603560909E+01 -0.34553419049E+01  0.88296473414E+01  0.10891991440E+02  0.51100000000E-03 0. -1.
        -11    1    4    4    0    0 -0.17819901385E+02  0.13963228087E+02  0.10866169664E+02  0.25111636096E+02  0.51100000000E-03 0.  1.
         12    1    4    4    0    0 -0.83903195688E+01  0.70177718928E+01  0.43826606078E+01  0.11783645396E+02  0.00000000000E+00 0. -1.
</event>
<event>
 8    1  0.6239251E-010  0.9118800E+02  0.7816164E-02  0.1184000E+00
        -11   -1    0    0    0    0  0.00000000000E+00  0.00000000000E+00  0.45593999997E+02  0.45594000000E+02  0.51100000000E-03 0. -1.
         11   -1    0    0    0    0 -0.00000000000E+00 -0.00000000000E+00 -0.45593999997E+02  0.45594000000E+02  0.51100000000E-03 0.  1.
         23    2    1    2    0    0  0.00000000000E+00  0.35527136788E-14  0.71054273576E-14  0.91188000000E+02  0.91188000000E+02 0.  0.
    9900012    2    3    3    0    0 -0.68018916929E+01 -0.29043928312E+02 -0.31524711052E+02  0.47787275245E+02  0.20000019150E+02 0.  0.
         12    1    3    3    0    0  0.68018916929E+01  0.29043928312E+02  0.31524711052E+02  0.43400724755E+02  0.00000000000E+00 0. -1.
         11    1    4    4    0    0 -0.44316232072E+00  0.28230322123E+01 -0.26707040329E+01  0.39113378794E+01  0.51100000000E-03 0. -1.
        -11    1    4    4    0    0 -0.71510397574E+01 -0.23339119457E+02 -0.19996196272E+02  0.31554710144E+02  0.51100000000E-03 0.  1.
         12    1    4    4    0    0  0.79231038524E+00 -0.85278410673E+01 -0.88578107471E+01  0.12321227222E+02  0.00000000000E+00 0. -1.
</event>
<event>
 8    1  0.6239251E-010  0.9118800E+02  0.7816164E-02  0.1184000E+00
        -11   -1    0    0    0    0  0.00000000000E+00  0.00000000000E+00  0.45593999997E+02  0.45594000000E+02  0.51100000000E-03 0. -1.
         11   -1    0    0    0    0 -0.00000000000E+00 -0.00000000000E+00 -0.45593999997E+02  0.45594000000E+02  0.51100000000E-03 0.  1.
         23    2    1    2    0    0  0.00000000000E+00 -0.88817841970E-15  0.00000000000E+00  0.91188000000E+02  0.91188000000E+02 0.  0.
    9900012    2    3    3    0    0  0.85321221580E+01 -0.61672798150E+01 -0.42104524442E+02  0.47787269277E+02  0.19999991939E+02 0.  0.
         12    1    3    3    0    0 -0.85321221580E+01  0.61672798150E+01  0.42104524442E+02  0.43400730723E+02  0.00000000000E+00 0. -1.
         11    1    4    4    0    0 -0.19160773131E+01  0.10488489865E+01 -0.37561048746E+01  0.43450846432E+01  0.51100000000E-03 0. -1.
        -11    1    4    4    0    0  0.25754347613E+01 -0.39545869988E+00  0.96015242764E+00  0.27768948014E+01  0.51100000000E-03 0.  1.
        -12    1    4    4    0    0  0.78727647099E+01 -0.68206701017E+01 -0.39308571995E+02  0.40665289832E+02  0.00000000000E+00 0.  1.
</event>
<event>
 8    1  0.6239251E-010  0.9118800E+02  0.7816164E-02  0.1184000E+00
        -11   -1    0    0    0    0  0.00000000000E+00  0.00000000000E+00  0.45593999997E+02  0.45594000000E+02  0.51100000000E-03 0. -1.
         11   -1    0    0    0    0 -0.00000000000E+00 -0.00000000000E+00 -0.45593999997E+02  0.45594000000E+02  0.51100000000E-03 0.  1.
         23    2    1    2    0    0  0.00000000000E+00 -0.35527136788E-14  0.00000000000E+00  0.91188000000E+02  0.91188000000E+02 0.  0.
    9900012    2    3    3    0    0  0.23328216879E+02 -0.20355945782E+02  0.30414680635E+02  0.47787273859E+02  0.20000012834E+02 0.  0.
        -12    1    3    3    0    0 -0.23328216879E+02  0.20355945782E+02 -0.30414680635E+02  0.43400726141E+02  0.00000000000E+00 0.  1.
         11    1    4    4    0    0  0.54087384996E+01 -0.87078086029E+01  0.21041483961E+02  0.23405649540E+02  0.51100000000E-03 0. -1.
        -11    1    4    4    0    0  0.44572028884E+01 -0.43539516698E+01 -0.35536700982E+00  0.62409805884E+01  0.51100000000E-03 0.  1.
         12    1    4    4    0    0  0.13462275491E+02 -0.72941855088E+01  0.97285636834E+01  0.18140643731E+02  0.00000000000E+00 0. -1.
</event>
<event>
 8    1  0.6239251E-010  0.9118800E+02  0.7816164E-02  0.1184000E+00
        -11   -1    0    0    0    0  0.00000000000E+00  0.00000000000E+00  0.45593999997E+02  0.45594000000E+02  0.51100000000E-03 0. -1.
         11   -1    0    0    0    0 -0.00000000000E+00 -0.00000000000E+00 -0.45593999997E+02  0.45594000000E+02  0.51100000000E-03 0.  1.
         23    2    1    2    0    0  0.00000000000E+00 -0.13322676296E-14  0.00000000000E+00  0.91188000000E+02  0.91188000000E+02 0.  0.
    9900012    2    3    3    0    0  0.13754609927E+02  0.28291892023E+01  0.41066156224E+02  0.47787276587E+02  0.20000025269E+02 0.  0.
        -12    1    3    3    0    0 -0.13754609927E+02 -0.28291892023E+01 -0.41066156224E+02  0.43400723413E+02  0.00000000000E+00 0.  1.
         11    1    4    4    0    0  0.54931446665E+01 -0.37934070003E+01  0.25120523043E+02  0.25992407607E+02  0.51100000000E-03 0. -1.
        -11    1    4    4    0    0  0.44607023063E+01 -0.85388876592E+00  0.99049689262E+00  0.46484487139E+01  0.51100000000E-03 0.  1.
         12    1    4    4    0    0  0.38007629543E+01  0.74764849685E+01  0.14955136288E+02  0.17146420265E+02  0.00000000000E+00 0. -1.
</event>
<event>
 8    1  0.6239251E-010  0.9118800E+02  0.7816164E-02  0.1184000E+00
        -11   -1    0    0    0    0  0.00000000000E+00  0.00000000000E+00  0.45593999997E+02  0.45594000000E+02  0.51100000000E-03 0. -1.
         11   -1    0    0    0    0 -0.00000000000E+00 -0.00000000000E+00 -0.45593999997E+02  0.45594000000E+02  0.51100000000E-03 0.  1.
         23    2    1    2    0    0  0.22204460493E-15  0.35527136788E-14 -0.71054273576E-14  0.91188000000E+02  0.91188000000E+02 0.  0.
    9900012    2    3    3    0    0 -0.11767567971E+01 -0.20841368755E+02  0.38050961420E+02  0.47787273357E+02  0.20000010545E+02 0.  0.
        -12    1    3    3    0    0  0.11767567971E+01  0.20841368755E+02 -0.38050961420E+02  0.43400726643E+02  0.00000000000E+00 0.  1.
         11    1    4    4    0    0  0.22588139746E+01 -0.80403824969E+01  0.27878741598E+02  0.29102821592E+02  0.51100000000E-03 0. -1.
        -11    1    4    4    0    0 -0.26625636165E+01 -0.41839720542E+01 -0.45582554414E+00  0.49802253313E+01  0.51100000000E-03 0.  1.
        -12    1    4    4    0    0 -0.77300715521E+00 -0.86170142041E+01  0.10628045366E+02  0.13704226434E+02  0.00000000000E+00 0.  1.
</event>
<event>
 8    1  0.6239251E-010  0.9118800E+02  0.7816164E-02  0.1184000E+00
        -11   -1    0    0    0    0  0.00000000000E+00  0.00000000000E+00  0.45593999997E+02  0.45594000000E+02  0.51100000000E-03 0. -1.
         11   -1    0    0    0    0 -0.00000000000E+00 -0.00000000000E+00 -0.45593999997E+02  0.45594000000E+02  0.51100000000E-03 0.  1.
         23    2    1    2    0    0  0.00000000000E+00  0.00000000000E+00  0.00000000000E+00  0.91188000000E+02  0.91188000000E+02 0.  0.
    9900012    2    3    3    0    0 -0.12410306380E+02 -0.38010271752E+02 -0.16876803077E+02  0.47787274831E+02  0.20000017264E+02 0.  0.
         12    1    3    3    0    0  0.12410306380E+02  0.38010271752E+02  0.16876803077E+02  0.43400725169E+02  0.00000000000E+00 0. -1.
         11    1    4    4    0    0 -0.25359570193E+01 -0.14521069664E+02 -0.13461168207E+00  0.14741460672E+02  0.51100000000E-03 0. -1.
        -11    1    4    4    0    0 -0.64439666399E+01 -0.15111496150E+02 -0.17448819951E+02  0.23965461395E+02  0.51100000000E-03 0.  1.
        -12    1    4    4    0    0 -0.34303827210E+01 -0.83777059380E+01  0.70662855551E+00  0.90803527636E+01  0.00000000000E+00 0.  1.
</event>
<event>
 8    1  0.6239251E-010  0.9118800E+02  0.7816164E-02  0.1184000E+00
        -11   -1    0    0    0    0  0.00000000000E+00  0.00000000000E+00  0.45593999997E+02  0.45594000000E+02  0.51100000000E-03 0. -1.
         11   -1    0    0    0    0 -0.00000000000E+00 -0.00000000000E+00 -0.45593999997E+02  0.45594000000E+02  0.51100000000E-03 0.  1.
         23    2    1    2    0    0  0.00000000000E+00  0.00000000000E+00  0.00000000000E+00  0.91188000000E+02  0.91188000000E+02 0.  0.
    9900012    2    3    3    0    0 -0.21232881317E+01 -0.35651169719E+02 -0.24659866767E+02  0.47787270930E+02  0.19999999480E+02 0.  0.
         12    1    3    3    0    0  0.21232881317E+01  0.35651169719E+02  0.24659866767E+02  0.43400729070E+02  0.00000000000E+00 0. -1.
         11    1    4    4    0    0  0.10375047601E+01 -0.89767238066E+01 -0.12960069117E+02  0.15799410692E+02  0.51100000000E-03 0. -1.
        -11    1    4    4    0    0 -0.61435679695E+00 -0.20371119067E+02 -0.24771163630E+01  0.20530368531E+02  0.51100000000E-03 0.  1.
        -12    1    4    4    0    0 -0.25464360948E+01 -0.63033268457E+01 -0.92226812867E+01  0.11457491707E+02  0.00000000000E+00 0.  1.
</event>
<event>
 8    1  0.6239251E-010  0.9118800E+02  0.7816164E-02  0.1184000E+00
        -11   -1    0    0    0    0  0.00000000000E+00  0.00000000000E+00  0.45593999997E+02  0.45594000000E+02  0.51100000000E-03 0. -1.
         11   -1    0    0    0    0 -0.00000000000E+00 -0.00000000000E+00 -0.45593999997E+02  0.45594000000E+02  0.51100000000E-03 0.  1.
         23    2    1    2    0    0  0.35527136788E-14  0.17763568394E-14  0.00000000000E+00  0.91188000000E+02  0.91188000000E+02 0.  0.
    9900012    2    3    3    0    0 -0.29935249494E+02 -0.12700174069E+02 -0.28743859637E+02  0.47787273618E+02  0.20000011734E+02 0.  0.
         12    1    3    3    0    0  0.29935249494E+02  0.12700174069E+02  0.28743859637E+02  0.43400726382E+02  0.00000000000E+00 0. -1.
         11    1    4    4    0    0 -0.99511941847E+01 -0.50164220119E+01  0.33330212435E+00  0.11149073776E+02  0.51100000000E-03 0. -1.
        -11    1    4    4    0    0 -0.55368385409E+01 -0.33305727688E+01 -0.47807602411E+01  0.80377213649E+01  0.51100000000E-03 0.  1.
         12    1    4    4    0    0 -0.14447216769E+02 -0.43531792884E+01 -0.24296401520E+02  0.28600478477E+02  0.00000000000E+00 0. -1.
</event>
<event>
 8    1  0.6239251E-010  0.9118800E+02  0.7816164E-02  0.1184000E+00
        -11   -1    0    0    0    0  0.00000000000E+00  0.00000000000E+00  0.45593999997E+02  0.45594000000E+02  0.51100000000E-03 0.  1.
         11   -1    0    0    0    0 -0.00000000000E+00 -0.00000000000E+00 -0.45593999997E+02  0.45594000000E+02  0.51100000000E-03 0. -1.
         23    2    1    2    0    0  0.00000000000E+00  0.00000000000E+00  0.00000000000E+00  0.91188000000E+02  0.91188000000E+02 0.  0.
    9900012    2    3    3    0    0  0.28403574710E+02 -0.32085206010E+02  0.68847360146E+01  0.47787273151E+02  0.20000009605E+02 0.  0.
        -12    1    3    3    0    0 -0.28403574710E+02  0.32085206010E+02 -0.68847360146E+01  0.43400726849E+02  0.00000000000E+00 0.  1.
         11    1    4    4    0    0  0.52952371830E+01  0.19379515773E+01  0.23513371201E+01  0.61093354510E+01  0.51100000000E-03 0. -1.
        -11    1    4    4    0    0  0.17271549101E+02 -0.24513666949E+02  0.54657829486E+01  0.30481159085E+02  0.51100000000E-03 0.  1.
         12    1    4    4    0    0  0.58367884257E+01 -0.95094906383E+01 -0.93238405422E+00  0.11196778615E+02  0.00000000000E+00 0. -1.
</event>
<event>
 8    1  0.6239251E-010  0.9118800E+02  0.7816164E-02  0.1184000E+00
        -11   -1    0    0    0    0  0.00000000000E+00  0.00000000000E+00  0.45593999997E+02  0.45594000000E+02  0.51100000000E-03 0. -1.
         11   -1    0    0    0    0 -0.00000000000E+00 -0.00000000000E+00 -0.45593999997E+02  0.45594000000E+02  0.51100000000E-03 0.  1.
         23    2    1    2    0    0 -0.71054273576E-14  0.00000000000E+00  0.35527136788E-14  0.91188000000E+02  0.91188000000E+02 0.  0.
    9900012    2    3    3    0    0  0.36412311278E+02 -0.17863794483E+02 -0.15448342648E+02  0.47787275852E+02  0.20000021921E+02 0.  0.
         12    1    3    3    0    0 -0.36412311278E+02  0.17863794483E+02  0.15448342648E+02  0.43400724148E+02  0.00000000000E+00 0. -1.
         11    1    4    4    0    0  0.24070093178E+02 -0.75386818685E+01 -0.20595146839E+01  0.25306969612E+02  0.51100000000E-03 0. -1.
        -11    1    4    4    0    0  0.76616359193E+01 -0.10878436807E+02 -0.10526166737E+02  0.16965884556E+02  0.51100000000E-03 0.  1.
         12    1    4    4    0    0  0.46805821807E+01  0.55332419268E+00 -0.28626612275E+01  0.55144216847E+01  0.00000000000E+00 0. -1.
</event>
<event>
 8    1  0.6239251E-010  0.9118800E+02  0.7816164E-02  0.1184000E+00
        -11   -1    0    0    0    0  0.00000000000E+00  0.00000000000E+00  0.45593999997E+02  0.45594000000E+02  0.51100000000E-03 0. -1.
         11   -1    0    0    0    0 -0.00000000000E+00 -0.00000000000E+00 -0.45593999997E+02  0.45594000000E+02  0.51100000000E-03 0.  1.
         23    2    1    2    0    0 -0.17763568394E-14  0.00000000000E+00  0.00000000000E+00  0.91188000000E+02  0.91188000000E+02 0.  0.
    9900012    2    3    3    0    0 -0.14682956131E+02  0.92468709283E+01 -0.39781019963E+02  0.47787269914E+02  0.19999994845E+02 0.  0.
         12    1    3    3    0    0  0.14682956131E+02 -0.92468709283E+01  0.39781019963E+02  0.43400730086E+02  0.00000000000E+00 0. -1.
         11    1    4    4    0    0 -0.40592952588E+01  0.87063141519E+00 -0.24403437602E+01  0.48157195712E+01  0.51100000000E-03 0. -1.
        -11    1    4    4    0    0 -0.85614620268E+00  0.50319467128E+01 -0.10110423203E+01  0.52034297224E+01  0.51100000000E-03 0.  1.
        -12    1    4    4    0    0 -0.97675146694E+01  0.33442928003E+01 -0.36329633883E+02  0.37768120620E+02  0.00000000000E+00 0.  1.
</event>
<event>
 8    1  0.6239251E-010  0.9118800E+02  0.7816164E-02  0.1184000E+00
        -11   -1    0    0    0    0  0.00000000000E+00  0.00000000000E+00  0.45593999997E+02  0.45594000000E+02  0.51100000000E-03 0. -1.
         11   -1    0    0    0    0 -0.00000000000E+00 -0.00000000000E+00 -0.45593999997E+02  0.45594000000E+02  0.51100000000E-03 0.  1.
         23    2    1    2    0    0  0.00000000000E+00  0.00000000000E+00  0.00000000000E+00  0.91188000000E+02  0.91188000000E+02 0.  0.
    9900012    2    3    3    0    0  0.20444407777E+02 -0.18395258859E+02  0.33574748347E+02  0.47787273228E+02  0.20000009954E+02 0.  0.
        -12    1    3    3    0    0 -0.20444407777E+02  0.18395258859E+02 -0.33574748347E+02  0.43400726772E+02  0.00000000000E+00 0.  1.
         11    1    4    4    0    0  0.17333315082E+02 -0.18315738748E+02  0.27963103866E+02  0.37654286286E+02  0.51100000000E-03 0. -1.
        -11    1    4    4    0    0  0.19567121093E+01 -0.39322334709E+01  0.33030556357E+01  0.54955763248E+01  0.51100000000E-03 0.  1.
         12    1    4    4    0    0  0.11543805855E+01  0.38527133603E+01  0.23085888449E+01  0.46374106167E+01  0.00000000000E+00 0. -1.
</event>
<event>
 8    1  0.6239251E-010  0.9118800E+02  0.7816164E-02  0.1184000E+00
        -11   -1    0    0    0    0  0.00000000000E+00  0.00000000000E+00  0.45593999997E+02  0.45594000000E+02  0.51100000000E-03 0. -1.
         11   -1    0    0    0    0 -0.00000000000E+00 -0.00000000000E+00 -0.45593999997E+02  0.45594000000E+02  0.51100000000E-03 0.  1.
         23    2    1    2    0    0  0.88817841970E-15  0.35527136788E-14  0.00000000000E+00  0.91188000000E+02  0.91188000000E+02 0.  0.
    9900012    2    3    3    0    0  0.44847740899E+01 -0.16044772919E+02 -0.40075873758E+02  0.47787267355E+02  0.19999983178E+02 0.  0.
         12    1    3    3    0    0 -0.44847740899E+01  0.16044772919E+02  0.40075873758E+02  0.43400732645E+02  0.00000000000E+00 0. -1.
         11    1    4    4    0    0  0.31641306954E+01  0.29881677910E+01 -0.16142705051E+02  0.16719084796E+02  0.51100000000E-03 0. -1.
        -11    1    4    4    0    0  0.11749281610E+01 -0.16499414815E+02 -0.17156048203E+02  0.23831515597E+02  0.51100000000E-03 0.  1.
         12    1    4    4    0    0  0.14571523347E+00 -0.25335258946E+01 -0.67771205047E+01  0.72366669622E+01  0.00000000000E+00 0. -1.
</event>
<event>
 8    1  0.6239251E-010  0.9118800E+02  0.7816164E-02  0.1184000E+00
        -11   -1    0    0    0    0  0.00000000000E+00  0.00000000000E+00  0.45593999997E+02  0.45594000000E+02  0.51100000000E-03 0. -1.
         11   -1    0    0    0    0 -0.00000000000E+00 -0.00000000000E+00 -0.45593999997E+02  0.45594000000E+02  0.51100000000E-03 0.  1.
         23    2    1    2    0    0  0.00000000000E+00 -0.35527136788E-14 -0.35527136788E-14  0.91188000000E+02  0.91188000000E+02 0.  0.
    9900012    2    3    3    0    0  0.19127475540E+02  0.31341231473E+02  0.23140663610E+02  0.47787269326E+02  0.19999992163E+02 0.  0.
        -12    1    3    3    0    0 -0.19127475540E+02 -0.31341231473E+02 -0.23140663610E+02  0.43400730674E+02  0.00000000000E+00 0.  1.
         11    1    4    4    0    0  0.11428195342E+00 -0.18047182740E+01  0.17929497327E+00  0.18171998685E+01  0.51100000000E-03 0. -1.
        -11    1    4    4    0    0  0.15827670415E+02  0.32884903575E+02  0.22077865418E+02  0.42654005388E+02  0.51100000000E-03 0.  1.
        -12    1    4    4    0    0  0.31855231709E+01  0.26104617195E+00  0.88350321810E+00  0.33160640694E+01  0.00000000000E+00 0.  1.
</event>
<event>
 8    1  0.6239251E-010  0.9118800E+02  0.7816164E-02  0.1184000E+00
        -11   -1    0    0    0    0  0.00000000000E+00  0.00000000000E+00  0.45593999997E+02  0.45594000000E+02  0.51100000000E-03 0. -1.
         11   -1    0    0    0    0 -0.00000000000E+00 -0.00000000000E+00 -0.45593999997E+02  0.45594000000E+02  0.51100000000E-03 0.  1.
         23    2    1    2    0    0  0.00000000000E+00  0.88817841970E-15  0.00000000000E+00  0.91188000000E+02  0.91188000000E+02 0.  0.
    9900012    2    3    3    0    0  0.93676968267E+01  0.64478722501E+01  0.41884302292E+02  0.47787267531E+02  0.19999983981E+02 0.  0.
        -12    1    3    3    0    0 -0.93676968267E+01 -0.64478722501E+01 -0.41884302292E+02  0.43400732469E+02  0.00000000000E+00 0.  1.
         11    1    4    4    0    0  0.79491998040E+01  0.11800214512E+02  0.21926567742E+02  0.26138271046E+02  0.51100000000E-03 0. -1.
        -11    1    4    4    0    0 -0.13358768339E+01 -0.25534645643E+01  0.26961716173E+01  0.39464021396E+01  0.51100000000E-03 0.  1.
         12    1    4    4    0    0  0.27543738566E+01 -0.27988776974E+01  0.17261562932E+02  0.17702594346E+02  0.00000000000E+00 0. -1.
</event>
<event>
 8    1  0.6239251E-010  0.9118800E+02  0.7816164E-02  0.1184000E+00
        -11   -1    0    0    0    0  0.00000000000E+00  0.00000000000E+00  0.45593999997E+02  0.45594000000E+02  0.51100000000E-03 0.  1.
         11   -1    0    0    0    0 -0.00000000000E+00 -0.00000000000E+00 -0.45593999997E+02  0.45594000000E+02  0.51100000000E-03 0. -1.
         23    2    1    2    0    0  0.00000000000E+00 -0.71054273576E-14  0.00000000000E+00  0.91188000000E+02  0.91188000000E+02 0.  0.
    9900012    2    3    3    0    0  0.43401221778E+01  0.42107027595E+02  0.95804368585E+01  0.47787271852E+02  0.20000003683E+02 0.  0.
         12    1    3    3    0    0 -0.43401221778E+01 -0.42107027595E+02 -0.95804368585E+01  0.43400728148E+02  0.00000000000E+00 0. -1.
         11    1    4    4    0    0 -0.51027893184E+00  0.59211356239E+01 -0.11801148036E+01  0.60591173347E+01  0.51100000000E-03 0. -1.
        -11    1    4    4    0    0  0.16012967799E+01 -0.84054304131E+00 -0.17439659660E+01  0.25123856259E+01  0.51100000000E-03 0.  1.
        -12    1    4    4    0    0  0.32491043297E+01  0.37026435012E+02  0.12504517628E+02  0.39215768892E+02  0.00000000000E+00 0.  1.
</event>
<event>
 8    1  0.6239251E-010  0.9118800E+02  0.7816164E-02  0.1184000E+00
        -11   -1    0    0    0    0  0.00000000000E+00  0.00000000000E+00  0.45593999997E+02  0.45594000000E+02  0.51100000000E-03 0. -1.
         11   -1    0    0    0    0 -0.00000000000E+00 -0.00000000000E+00 -0.45593999997E+02  0.45594000000E+02  0.51100000000E-03 0.  1.
         23    2    1    2    0    0 -0.71054273576E-14  0.00000000000E+00  0.35527136788E-14  0.91188000000E+02  0.91188000000E+02 0.  0.
    9900012    2    3    3    0    0  0.33824191769E+02 -0.15255028631E+02 -0.22512909644E+02  0.47787274799E+02  0.20000017118E+02 0.  0.
         12    1    3    3    0    0 -0.33824191769E+02  0.15255028631E+02  0.22512909644E+02  0.43400725201E+02  0.00000000000E+00 0. -1.
         11    1    4    4    0    0  0.21646660536E+02 -0.66388066863E+01 -0.16205789041E+02  0.27843837115E+02  0.51100000000E-03 0. -1.
        -11    1    4    4    0    0  0.11229902647E+02 -0.83748611963E+01 -0.92867002802E+01  0.16807492849E+02  0.51100000000E-03 0.  1.
         12    1    4    4    0    0  0.94762858624E+00 -0.24136074806E+00  0.29795796781E+01  0.31359448347E+01  0.00000000000E+00 0. -1.
</event>
<event>
 8    1  0.1047545E-009  0.9118800E+02  0.7816164E-02  0.1184000E+00
        -11   -1    0    0    0    0  0.00000000000E+00  0.00000000000E+00  0.45593999997E+02  0.45594000000E+02  0.51100000000E-03 0. -1.
         11   -1    0    0    0    0 -0.00000000000E+00 -0.00000000000E+00 -0.45593999997E+02  0.45594000000E+02  0.51100000000E-03 0.  1.
         23    2    1    2    0    0  0.00000000000E+00  0.88817841970E-15 -0.71054273576E-14  0.91188000000E+02  0.91188000000E+02 0.  0.
    9900012    2    3    3    0    0  0.65669689528E+01  0.56422551586E+01  0.42528383425E+02  0.47787268194E+02  0.19999987005E+02 0.  0.
        -12    1    3    3    0    0 -0.65669689528E+01 -0.56422551586E+01 -0.42528383425E+02  0.43400731806E+02  0.00000000000E+00 0.  1.
         11    1    4    4    0    0  0.25580404478E+00  0.64771532098E+00  0.19926675799E+02  0.19938840977E+02  0.51100000000E-03 0. -1.
        -11    1    4    4    0    0  0.71843714426E+01 -0.19286071034E+01  0.51337154279E+01  0.90382383648E+01  0.51100000000E-03 0.  1.
        -12    1    4    4    0    0 -0.87320653457E+00  0.69231469410E+01  0.17467992198E+02  0.18810188852E+02  0.00000000000E+00 0.  1.
</event>
<event>
 8    1  0.6239251E-010  0.9118800E+02  0.7816164E-02  0.1184000E+00
        -11   -1    0    0    0    0  0.00000000000E+00  0.00000000000E+00  0.45593999997E+02  0.45594000000E+02  0.51100000000E-03 0. -1.
         11   -1    0    0    0    0 -0.00000000000E+00 -0.00000000000E+00 -0.45593999997E+02  0.45594000000E+02  0.51100000000E-03 0.  1.
         23    2    1    2    0    0  0.00000000000E+00 -0.35527136788E-14  0.71054273576E-14  0.91188000000E+02  0.91188000000E+02 0.  0.
    9900012    2    3    3    0    0 -0.15382523406E+02 -0.16515101911E+02  0.37070910544E+02  0.47787273900E+02  0.20000013020E+02 0.  0.
        -12    1    3    3    0    0  0.15382523406E+02  0.16515101911E+02 -0.37070910544E+02  0.43400726100E+02  0.00000000000E+00 0.  1.
         11    1    4    4    0    0 -0.29376431989E+01 -0.11187498816E+02  0.24356516360E+02  0.26963489514E+02  0.51100000000E-03 0. -1.
        -11    1    4    4    0    0 -0.10497769271E+02 -0.29981992825E+00  0.56142427021E+01  0.11908516828E+02  0.51100000000E-03 0.  1.
        -12    1    4    4    0    0 -0.19471109359E+01 -0.50277831674E+01  0.71001514816E+01  0.89152675583E+01  0.00000000000E+00 0.  1.
</event>
<event>
 8    1  0.6239251E-010  0.9118800E+02  0.7816164E-02  0.1184000E+00
        -11   -1    0    0    0    0  0.00000000000E+00  0.00000000000E+00  0.45593999997E+02  0.45594000000E+02  0.51100000000E-03 0. -1.
         11   -1    0    0    0    0 -0.00000000000E+00 -0.00000000000E+00 -0.45593999997E+02  0.45594000000E+02  0.51100000000E-03 0.  1.
         23    2    1    2    0    0  0.00000000000E+00  0.35527136788E-14  0.00000000000E+00  0.91188000000E+02  0.91188000000E+02 0.  0.
    9900012    2    3    3    0    0 -0.34399596271E+02  0.24340939541E+02  0.10383161497E+02  0.47787267241E+02  0.19999982660E+02 0.  0.
        -12    1    3    3    0    0  0.34399596271E+02 -0.24340939541E+02 -0.10383161497E+02  0.43400732759E+02  0.00000000000E+00 0.  1.
         11    1    4    4    0    0 -0.24734143140E+02  0.90210714348E+01  0.86353138493E+01  0.27707872748E+02  0.51100000000E-03 0. -1.
        -11    1    4    4    0    0 -0.30813547828E+01  0.12257507942E+02  0.20870866358E+01  0.12810042120E+02  0.51100000000E-03 0.  1.
        -12    1    4    4    0    0 -0.65840983481E+01  0.30623601642E+01 -0.33923898773E+00  0.72693523731E+01  0.00000000000E+00 0.  1.
</event>
<event>
 8    1  0.6239251E-010  0.9118800E+02  0.7816164E-02  0.1184000E+00
        -11   -1    0    0    0    0  0.00000000000E+00  0.00000000000E+00  0.45593999997E+02  0.45594000000E+02  0.51100000000E-03 0. -1.
         11   -1    0    0    0    0 -0.00000000000E+00 -0.00000000000E+00 -0.45593999997E+02  0.45594000000E+02  0.51100000000E-03 0.  1.
         23    2    1    2    0    0  0.00000000000E+00 -0.88817841970E-15  0.00000000000E+00  0.91188000000E+02  0.91188000000E+02 0.  0.
    9900012    2    3    3    0    0 -0.23382184059E+02 -0.42518856322E+01 -0.36315538102E+02  0.47787269932E+02  0.19999994930E+02 0.  0.
         12    1    3    3    0    0  0.23382184059E+02  0.42518856322E+01  0.36315538102E+02  0.43400730068E+02  0.00000000000E+00 0. -1.
         11    1    4    4    0    0 -0.46312961991E+01 -0.92574103825E+01 -0.96731890475E+01  0.14167538180E+02  0.51100000000E-03 0. -1.
        -11    1    4    4    0    0 -0.12766647812E+02  0.55619815492E+01 -0.21950544282E+02  0.25995178969E+02  0.51100000000E-03 0.  1.
        -12    1    4    4    0    0 -0.59842400481E+01 -0.55645679879E+00 -0.46918047719E+01  0.76245527830E+01  0.00000000000E+00 0.  1.
</event>
<event>
 8    1  0.6239251E-010  0.9118800E+02  0.7816164E-02  0.1184000E+00
        -11   -1    0    0    0    0  0.00000000000E+00  0.00000000000E+00  0.45593999997E+02  0.45594000000E+02  0.51100000000E-03 0. -1.
         11   -1    0    0    0    0 -0.00000000000E+00 -0.00000000000E+00 -0.45593999997E+02  0.45594000000E+02  0.51100000000E-03 0.  1.
         23    2    1    2    0    0 -0.35527136788E-14  0.00000000000E+00  0.00000000000E+00  0.91188000000E+02  0.91188000000E+02 0.  0.
    9900012    2    3    3    0    0  0.17194121583E+02  0.25932919394E+02  0.30256720106E+02  0.47787271471E+02  0.20000001944E+02 0.  0.
        -12    1    3    3    0    0 -0.17194121583E+02 -0.25932919394E+02 -0.30256720106E+02  0.43400728529E+02  0.00000000000E+00 0.  1.
         11    1    4    4    0    0  0.83740199643E+01  0.22102662428E+02  0.24010055785E+02  0.33691759761E+02  0.51100000000E-03 0. -1.
        -11    1    4    4    0    0  0.20170968299E+01  0.51066602648E+01  0.14647518609E+01  0.56826188467E+01  0.51100000000E-03 0.  1.
         12    1    4    4    0    0  0.68030047890E+01 -0.12764032990E+01  0.47819124601E+01  0.84128928626E+01  0.00000000000E+00 0. -1.
</event>
<event>
 8    1  0.6239251E-010  0.9118800E+02  0.7816164E-02  0.1184000E+00
        -11   -1    0    0    0    0  0.00000000000E+00  0.00000000000E+00  0.45593999997E+02  0.45594000000E+02  0.51100000000E-03 0. -1.
         11   -1    0    0    0    0 -0.00000000000E+00 -0.00000000000E+00 -0.45593999997E+02  0.45594000000E+02  0.51100000000E-03 0.  1.
         23    2    1    2    0    0  0.00000000000E+00  0.35527136788E-14 -0.35527136788E-14  0.91188000000E+02  0.91188000000E+02 0.  0.
    9900012    2    3    3    0    0 -0.12749703061E+02  0.29203702969E+02 -0.29465431013E+02  0.47787276273E+02  0.20000023838E+02 0.  0.
         12    1    3    3    0    0  0.12749703061E+02 -0.29203702969E+02  0.29465431013E+02  0.43400723727E+02  0.00000000000E+00 0. -1.
         11    1    4    4    0    0 -0.12081021144E+02  0.20727095291E+02 -0.27628757892E+02  0.36591143928E+02  0.51100000000E-03 0. -1.
        -11    1    4    4    0    0 -0.24292952002E+01  0.22119328818E+01 -0.31567370962E+01  0.45562168077E+01  0.51100000000E-03 0.  1.
         12    1    4    4    0    0  0.17606132828E+01  0.62646747965E+01  0.13200639749E+01  0.66399155367E+01  0.00000000000E+00 0. -1.
</event>
<event>
 8    1  0.6239251E-010  0.9118800E+02  0.7816164E-02  0.1184000E+00
        -11   -1    0    0    0    0  0.00000000000E+00  0.00000000000E+00  0.45593999997E+02  0.45594000000E+02  0.51100000000E-03 0. -1.
         11   -1    0    0    0    0 -0.00000000000E+00 -0.00000000000E+00 -0.45593999997E+02  0.45594000000E+02  0.51100000000E-03 0.  1.
         23    2    1    2    0    0  0.00000000000E+00  0.00000000000E+00  0.35527136788E-14  0.91188000000E+02  0.91188000000E+02 0.  0.
    9900012    2    3    3    0    0 -0.30036817978E+02  0.17910363063E+02  0.25702758718E+02  0.47787270225E+02  0.19999996266E+02 0.  0.
        -12    1    3    3    0    0  0.30036817978E+02 -0.17910363063E+02 -0.25702758718E+02  0.43400729775E+02  0.00000000000E+00 0.  1.
         11    1    4    4    0    0 -0.16601459579E+01 -0.14274253525E+01  0.54048672942E+01  0.58314850996E+01  0.51100000000E-03 0. -1.
        -11    1    4    4    0    0  0.10441488113E+01  0.27187759269E+01  0.12788835885E+01  0.31808069377E+01  0.51100000000E-03 0.  1.
         12    1    4    4    0    0 -0.29420820831E+02  0.16619012489E+02  0.19019007835E+02  0.38774978188E+02  0.00000000000E+00 0. -1.
</event>
<event>
 8    1  0.6239251E-010  0.9118800E+02  0.7816164E-02  0.1184000E+00
        -11   -1    0    0    0    0  0.00000000000E+00  0.00000000000E+00  0.45593999997E+02  0.45594000000E+02  0.51100000000E-03 0. -1.
         11   -1    0    0    0    0 -0.00000000000E+00 -0.00000000000E+00 -0.45593999997E+02  0.45594000000E+02  0.51100000000E-03 0.  1.
         23    2    1    2    0    0 -0.17763568394E-14  0.00000000000E+00  0.00000000000E+00  0.91188000000E+02  0.91188000000E+02 0.  0.
    9900012    2    3    3    0    0  0.96281962551E+01 -0.30493862609E+02  0.29343582794E+02  0.47787266468E+02  0.19999979134E+02 0.  0.
        -12    1    3    3    0    0 -0.96281962551E+01  0.30493862609E+02 -0.29343582794E+02  0.43400733532E+02  0.00000000000E+00 0.  1.
         11    1    4    4    0    0  0.32229934241E+00 -0.40694958868E+01  0.51828149647E+01  0.65974422967E+01  0.51100000000E-03 0.  1.
        -11    1    4    4    0    0  0.96996697660E+01 -0.29089317038E+02  0.22091895999E+02  0.37793171716E+02  0.51100000000E-03 0. -1.
        -12    1    4    4    0    0 -0.39377285324E+00  0.26649503162E+01  0.20688718307E+01  0.33966524550E+01  0.00000000000E+00 0.  1.
</event>
<event>
 8    1  0.6239251E-010  0.9118800E+02  0.7816164E-02  0.1184000E+00
        -11   -1    0    0    0    0  0.00000000000E+00  0.00000000000E+00  0.45593999997E+02  0.45594000000E+02  0.51100000000E-03 0. -1.
         11   -1    0    0    0    0 -0.00000000000E+00 -0.00000000000E+00 -0.45593999997E+02  0.45594000000E+02  0.51100000000E-03 0.  1.
         23    2    1    2    0    0 -0.17763568394E-14 -0.35527136788E-14  0.00000000000E+00  0.91188000000E+02  0.91188000000E+02 0.  0.
    9900012    2    3    3    0    0 -0.15374404342E+02  0.23780021946E+02 -0.32890138652E+02  0.47787274509E+02  0.20000015795E+02 0.  0.
         12    1    3    3    0    0  0.15374404342E+02 -0.23780021946E+02  0.32890138652E+02  0.43400725491E+02  0.00000000000E+00 0. -1.
         11    1    4    4    0    0  0.62394422961E+00  0.67836996626E+01 -0.32075464882E+01  0.75296907140E+01  0.51100000000E-03 0. -1.
        -11    1    4    4    0    0 -0.11799474845E+02  0.11128894936E+02 -0.28713195228E+02  0.32977681690E+02  0.51100000000E-03 0.  1.
        -12    1    4    4    0    0 -0.41988737257E+01  0.58674273474E+01 -0.96939693541E+00  0.72799021051E+01  0.00000000000E+00 0.  1.
</event>
<event>
 8    1  0.6239251E-010  0.9118800E+02  0.7816164E-02  0.1184000E+00
        -11   -1    0    0    0    0  0.00000000000E+00  0.00000000000E+00  0.45593999997E+02  0.45594000000E+02  0.51100000000E-03 0.  1.
         11   -1    0    0    0    0 -0.00000000000E+00 -0.00000000000E+00 -0.45593999997E+02  0.45594000000E+02  0.51100000000E-03 0. -1.
         23    2    1    2    0    0  0.35527136788E-14  0.00000000000E+00  0.17763568394E-14  0.91188000000E+02  0.91188000000E+02 0.  0.
    9900012    2    3    3    0    0 -0.13948750356E+02  0.39484874004E+02  0.11401773289E+02  0.47787270216E+02  0.19999996223E+02 0.  0.
        -12    1    3    3    0    0  0.13948750356E+02 -0.39484874004E+02 -0.11401773289E+02  0.43400729784E+02  0.00000000000E+00 0.  1.
         11    1    4    4    0    0 -0.85474638929E+01  0.85516083644E+01  0.11016486783E+01  0.12140954439E+02  0.51100000000E-03 0. -1.
        -11    1    4    4    0    0 -0.70494640788E+00  0.23969598618E+02  0.12388919439E+02  0.26991182494E+02  0.51100000000E-03 0.  1.
        -12    1    4    4    0    0 -0.46963400548E+01  0.69636670225E+01 -0.20887948275E+01  0.86551332828E+01  0.00000000000E+00 0.  1.
</event>
<event>
 8    1  0.6239251E-010  0.9118800E+02  0.7816164E-02  0.1184000E+00
        -11   -1    0    0    0    0  0.00000000000E+00  0.00000000000E+00  0.45593999997E+02  0.45594000000E+02  0.51100000000E-03 0. -1.
         11   -1    0    0    0    0 -0.00000000000E+00 -0.00000000000E+00 -0.45593999997E+02  0.45594000000E+02  0.51100000000E-03 0.  1.
         23    2    1    2    0    0  0.88817841970E-15  0.00000000000E+00  0.35527136788E-14  0.91188000000E+02  0.91188000000E+02 0.  0.
    9900012    2    3    3    0    0 -0.57918131559E+01  0.37021388528E+02  0.21897382628E+02  0.47787266433E+02  0.19999978975E+02 0.  0.
        -12    1    3    3    0    0  0.57918131559E+01 -0.37021388528E+02 -0.21897382628E+02  0.43400733567E+02  0.00000000000E+00 0.  1.
         11    1    4    4    0    0  0.50356063247E+01  0.99550987394E+01  0.56479170685E+00  0.11170510816E+02  0.51100000000E-03 0. -1.
        -11    1    4    4    0    0 -0.62091356505E+01  0.89795387651E+01  0.98278876290E+01  0.14689208878E+02  0.51100000000E-03 0.  1.
         12    1    4    4    0    0 -0.46182838301E+01  0.18086751024E+02  0.11504703292E+02  0.21927546738E+02  0.00000000000E+00 0. -1.
</event>
<event>
 8    1  0.6239251E-010  0.9118800E+02  0.7816164E-02  0.1184000E+00
        -11   -1    0    0    0    0  0.00000000000E+00  0.00000000000E+00  0.45593999997E+02  0.45594000000E+02  0.51100000000E-03 0. -1.
         11   -1    0    0    0    0 -0.00000000000E+00 -0.00000000000E+00 -0.45593999997E+02  0.45594000000E+02  0.51100000000E-03 0.  1.
         23    2    1    2    0    0  0.00000000000E+00 -0.17763568394E-14  0.00000000000E+00  0.91188000000E+02  0.91188000000E+02 0.  0.
    9900012    2    3    3    0    0  0.36268551665E+02  0.45757965123E+01  0.23393963840E+02  0.47787270770E+02  0.19999998747E+02 0.  0.
        -12    1    3    3    0    0 -0.36268551665E+02 -0.45757965123E+01 -0.23393963840E+02  0.43400729230E+02  0.00000000000E+00 0.  1.
         11    1    4    4    0    0  0.13034703594E+02  0.80663920535E+01  0.16885630349E+02  0.22805584647E+02  0.51100000000E-03 0. -1.
        -11    1    4    4    0    0  0.15781258243E+02 -0.44361958919E+01  0.28990755183E+01  0.16647299626E+02  0.51100000000E-03 0.  1.
        -12    1    4    4    0    0  0.74525898272E+01  0.94560035065E+00  0.36092579724E+01  0.83343864962E+01  0.00000000000E+00 0.  1.
</event>
<event>
 8    1  0.6239251E-010  0.9118800E+02  0.7816164E-02  0.1184000E+00
        -11   -1    0    0    0    0  0.00000000000E+00  0.00000000000E+00  0.45593999997E+02  0.45594000000E+02  0.51100000000E-03 0.  1.
         11   -1    0    0    0    0 -0.00000000000E+00 -0.00000000000E+00 -0.45593999997E+02  0.45594000000E+02  0.51100000000E-03 0. -1.
         23    2    1    2    0    0  0.71054273576E-14  0.44408920985E-15  0.00000000000E+00  0.91188000000E+02  0.91188000000E+02 0.  0.
    9900012    2    3    3    0    0  0.40802477604E+02 -0.75458018511E+00 -0.14771953967E+02  0.47787283487E+02  0.20000056728E+02 0.  0.
        -12    1    3    3    0    0 -0.40802477604E+02  0.75458018511E+00  0.14771953967E+02  0.43400716513E+02  0.00000000000E+00 0.  1.
         11    1    4    4    0    0  0.98283419313E+01  0.63515921485E+01 -0.61330251831E+01  0.13211851729E+02  0.51100000000E-03 0.  1.
        -11    1    4    4    0    0  0.70889071788E+01 -0.35640267559E+01  0.20100524161E+01  0.81850597239E+01  0.51100000000E-03 0. -1.
        -12    1    4    4    0    0  0.23885228494E+02 -0.35421455777E+01 -0.10648981200E+02  0.26390372034E+02  0.00000000000E+00 0.  1.
</event>
<event>
 8    1  0.6239251E-010  0.9118800E+02  0.7816164E-02  0.1184000E+00
        -11   -1    0    0    0    0  0.00000000000E+00  0.00000000000E+00  0.45593999997E+02  0.45594000000E+02  0.51100000000E-03 0. -1.
         11   -1    0    0    0    0 -0.00000000000E+00 -0.00000000000E+00 -0.45593999997E+02  0.45594000000E+02  0.51100000000E-03 0.  1.
         23    2    1    2    0    0  0.00000000000E+00  0.00000000000E+00  0.00000000000E+00  0.91188000000E+02  0.91188000000E+02 0.  0.
    9900012    2    3    3    0    0 -0.15169058634E+02 -0.15361881810E+02 -0.37650171884E+02  0.47787271948E+02  0.20000004119E+02 0.  0.
         12    1    3    3    0    0  0.15169058634E+02  0.15361881810E+02  0.37650171884E+02  0.43400728052E+02  0.00000000000E+00 0. -1.
         11    1    4    4    0    0 -0.82364328848E+01 -0.12820693633E+01 -0.45346221586E+01  0.94892216172E+01  0.51100000000E-03 0. -1.
        -11    1    4    4    0    0 -0.90135374714E+01 -0.14518888666E+02 -0.29996987252E+02  0.34523343266E+02  0.51100000000E-03 0.  1.
         12    1    4    4    0    0  0.20809117223E+01  0.43907621883E+00 -0.31185624730E+01  0.37747070641E+01  0.00000000000E+00 0. -1.
</event>
<event>
 8    1  0.6239251E-010  0.9118800E+02  0.7816164E-02  0.1184000E+00
        -11   -1    0    0    0    0  0.00000000000E+00  0.00000000000E+00  0.45593999997E+02  0.45594000000E+02  0.51100000000E-03 0. -1.
         11   -1    0    0    0    0 -0.00000000000E+00 -0.00000000000E+00 -0.45593999997E+02  0.45594000000E+02  0.51100000000E-03 0.  1.
         23    2    1    2    0    0  0.35527136788E-14  0.00000000000E+00  0.00000000000E+00  0.91188000000E+02  0.91188000000E+02 0.  0.
    9900012    2    3    3    0    0  0.18075367107E+02  0.28087600954E+01  0.39357531000E+02  0.47787271023E+02  0.19999999903E+02 0.  0.
        -12    1    3    3    0    0 -0.18075367107E+02 -0.28087600954E+01 -0.39357531000E+02  0.43400728977E+02  0.00000000000E+00 0.  1.
         11    1    4    4    0    0  0.18777320733E+02  0.23888037724E+01  0.34874700046E+02  0.39680459435E+02  0.51100000000E-03 0. -1.
        -11    1    4    4    0    0  0.28668149570E+01  0.11505411442E+01  0.17270540185E+01  0.35390802147E+01  0.51100000000E-03 0.  1.
         12    1    4    4    0    0 -0.35687685836E+01 -0.73058482124E+00  0.27557769350E+01  0.45677313734E+01  0.00000000000E+00 0. -1.
</event>
<event>
 8    1  0.6239251E-010  0.9118800E+02  0.7816164E-02  0.1184000E+00
        -11   -1    0    0    0    0  0.00000000000E+00  0.00000000000E+00  0.45593999997E+02  0.45594000000E+02  0.51100000000E-03 0.  1.
         11   -1    0    0    0    0 -0.00000000000E+00 -0.00000000000E+00 -0.45593999997E+02  0.45594000000E+02  0.51100000000E-03 0. -1.
         23    2    1    2    0    0  0.00000000000E+00 -0.35527136788E-14  0.22204460493E-15  0.91188000000E+02  0.91188000000E+02 0.  0.
    9900012    2    3    3    0    0  0.34100823073E+02  0.26795141532E+02  0.16664737073E+01  0.47787275598E+02  0.20000020761E+02 0.  0.
        -12    1    3    3    0    0 -0.34100823073E+02 -0.26795141532E+02 -0.16664737073E+01  0.43400724402E+02  0.00000000000E+00 0.  1.
         11    1    4    4    0    0  0.13504248506E+02  0.59462569517E+01  0.13395620124E+01  0.14816110356E+02  0.51100000000E-03 0. -1.
        -11    1    4    4    0    0  0.11074166991E+01  0.25430436838E+01  0.51045690661E+01  0.58094809179E+01  0.51100000000E-03 0.  1.
        -12    1    4    4    0    0  0.19489157869E+02  0.18305840896E+02 -0.47776573712E+01  0.27161684324E+02  0.00000000000E+00 0.  1.
</event>
<event>
 8    1  0.6239251E-010  0.9118800E+02  0.7816164E-02  0.1184000E+00
        -11   -1    0    0    0    0  0.00000000000E+00  0.00000000000E+00  0.45593999997E+02  0.45594000000E+02  0.51100000000E-03 0. -1.
         11   -1    0    0    0    0 -0.00000000000E+00 -0.00000000000E+00 -0.45593999997E+02  0.45594000000E+02  0.51100000000E-03 0.  1.
         23    2    1    2    0    0  0.00000000000E+00 -0.71054273576E-14  0.00000000000E+00  0.91188000000E+02  0.91188000000E+02 0.  0.
    9900012    2    3    3    0    0  0.98150512819E+00  0.40291629090E+02 -0.16100959487E+02  0.47787313099E+02  0.20000191743E+02 0.  0.
         12    1    3    3    0    0 -0.98150512819E+00 -0.40291629090E+02  0.16100959487E+02  0.43400686901E+02  0.00000000000E+00 0. -1.
         11    1    4    4    0    0  0.41212218344E+00 -0.15420593733E+01  0.12115041843E+01  0.20038798503E+01  0.51100000000E-03 0. -1.
        -11    1    4    4    0    0  0.43209657518E-01  0.27290142647E+02 -0.14700894331E+02  0.30997903916E+02  0.51100000000E-03 0.  1.
         12    1    4    4    0    0  0.52617328723E+00  0.14543545816E+02 -0.26115693402E+01  0.14785529333E+02  0.00000000000E+00 0. -1.
</event>
<event>
 8    1  0.6239251E-010  0.9118800E+02  0.7816164E-02  0.1184000E+00
        -11   -1    0    0    0    0  0.00000000000E+00  0.00000000000E+00  0.45593999997E+02  0.45594000000E+02  0.51100000000E-03 0. -1.
         11   -1    0    0    0    0 -0.00000000000E+00 -0.00000000000E+00 -0.45593999997E+02  0.45594000000E+02  0.51100000000E-03 0.  1.
         23    2    1    2    0    0  0.35527136788E-14  0.44408920985E-15 -0.35527136788E-14  0.91188000000E+02  0.91188000000E+02 0.  0.
    9900012    2    3    3    0    0 -0.29917507559E+02  0.11567553628E+01 -0.31420181961E+02  0.47787272173E+02  0.20000005143E+02 0.  0.
         12    1    3    3    0    0  0.29917507559E+02 -0.11567553628E+01  0.31420181961E+02  0.43400727827E+02  0.00000000000E+00 0. -1.
         11    1    4    4    0    0 -0.14538509193E+02 -0.65727638066E+01 -0.91423535563E+01  0.18388912486E+02  0.51100000000E-03 0. -1.
        -11    1    4    4    0    0 -0.50251884237E+01 -0.14230438110E+01 -0.77701172197E+01  0.93622803980E+01  0.51100000000E-03 0.  1.
         12    1    4    4    0    0 -0.10353809942E+02  0.91525629804E+01 -0.14507711185E+02  0.20036079288E+02  0.00000000000E+00 0. -1.
</event>
<event>
 8    1  0.6239251E-010  0.9118800E+02  0.7816164E-02  0.1184000E+00
        -11   -1    0    0    0    0  0.00000000000E+00  0.00000000000E+00  0.45593999997E+02  0.45594000000E+02  0.51100000000E-03 0. -1.
         11   -1    0    0    0    0 -0.00000000000E+00 -0.00000000000E+00 -0.45593999997E+02  0.45594000000E+02  0.51100000000E-03 0.  1.
         23    2    1    2    0    0 -0.44408920985E-15 -0.35527136788E-14  0.00000000000E+00  0.91188000000E+02  0.91188000000E+02 0.  0.
    9900012    2    3    3    0    0  0.16527423310E+01  0.23871761466E+02 -0.36208157096E+02  0.47787271976E+02  0.20000004248E+02 0.  0.
         12    1    3    3    0    0 -0.16527423310E+01 -0.23871761466E+02  0.36208157096E+02  0.43400728024E+02  0.00000000000E+00 0. -1.
         11    1    4    4    0    0  0.64935259812E+01  0.26055296439E+01 -0.23892422451E+01  0.73934527226E+01  0.51100000000E-03 0. -1.
        -11    1    4    4    0    0 -0.43281071323E+01  0.13836934057E+02 -0.20086877167E+02  0.24772482517E+02  0.51100000000E-03 0.  1.
         12    1    4    4    0    0 -0.51267651792E+00  0.74292977656E+01 -0.13732037683E+02  0.15621336737E+02  0.00000000000E+00 0. -1.
</event>
<event>
 8    1  0.6239251E-010  0.9118800E+02  0.7816164E-02  0.1184000E+00
        -11   -1    0    0    0    0  0.00000000000E+00  0.00000000000E+00  0.45593999997E+02  0.45594000000E+02  0.51100000000E-03 0. -1.
         11   -1    0    0    0    0 -0.00000000000E+00 -0.00000000000E+00 -0.45593999997E+02  0.45594000000E+02  0.51100000000E-03 0.  1.
         23    2    1    2    0    0 -0.17763568394E-14  0.00000000000E+00  0.00000000000E+00  0.91188000000E+02  0.91188000000E+02 0.  0.
    9900012    2    3    3    0    0 -0.11339368071E+02  0.11870261957E+01 -0.41876404625E+02  0.47787267705E+02  0.19999984773E+02 0.  0.
         12    1    3    3    0    0  0.11339368071E+02 -0.11870261957E+01  0.41876404625E+02  0.43400732295E+02  0.00000000000E+00 0. -1.
         11    1    4    4    0    0  0.43809911224E+01  0.61848552416E+00 -0.33579368988E+01  0.55543989806E+01  0.51100000000E-03 0. -1.
        -11    1    4    4    0    0 -0.11336188420E+02  0.12407889642E+01 -0.18528154295E+02  0.21756406573E+02  0.51100000000E-03 0.  1.
        -12    1    4    4    0    0 -0.43841707739E+01 -0.67224829259E+00 -0.19990313431E+02  0.20476462151E+02  0.00000000000E+00 0.  1.
</event>
<event>
 8    1  0.6239251E-010  0.9118800E+02  0.7816164E-02  0.1184000E+00
        -11   -1    0    0    0    0  0.00000000000E+00  0.00000000000E+00  0.45593999997E+02  0.45594000000E+02  0.51100000000E-03 0. -1.
         11   -1    0    0    0    0 -0.00000000000E+00 -0.00000000000E+00 -0.45593999997E+02  0.45594000000E+02  0.51100000000E-03 0.  1.
         23    2    1    2    0    0  0.88817841970E-15  0.00000000000E+00 -0.17763568394E-14  0.91188000000E+02  0.91188000000E+02 0.  0.
    9900012    2    3    3    0    0 -0.72462003160E+01 -0.41168411889E+02 -0.11673800327E+02  0.47787272235E+02  0.20000005428E+02 0.  0.
         12    1    3    3    0    0  0.72462003160E+01  0.41168411889E+02  0.11673800327E+02  0.43400727765E+02  0.00000000000E+00 0. -1.
         11    1    4    4    0    0 -0.12024097087E+02 -0.19553785557E+02 -0.19659725358E+01  0.23038977596E+02  0.51100000000E-03 0. -1.
        -11    1    4    4    0    0  0.51363893034E+01 -0.12884578997E+02 -0.45286130071E+01  0.14591203070E+02  0.51100000000E-03 0.  1.
         12    1    4    4    0    0 -0.35849253194E+00 -0.87300473351E+01 -0.51792147838E+01  0.10157091569E+02  0.00000000000E+00 0. -1.
</event>
<event>
 8    1  0.6239251E-010  0.9118800E+02  0.7816164E-02  0.1184000E+00
        -11   -1    0    0    0    0  0.00000000000E+00  0.00000000000E+00  0.45593999997E+02  0.45594000000E+02  0.51100000000E-03 0. -1.
         11   -1    0    0    0    0 -0.00000000000E+00 -0.00000000000E+00 -0.45593999997E+02  0.45594000000E+02  0.51100000000E-03 0.  1.
         23    2    1    2    0    0 -0.22204460493E-15  0.35527136788E-14  0.71054273576E-14  0.91188000000E+02  0.91188000000E+02 0.  0.
    9900012    2    3    3    0    0  0.19081591567E+01 -0.15562264592E+02 -0.40469722248E+02  0.47787267639E+02  0.19999984474E+02 0.  0.
         12    1    3    3    0    0 -0.19081591567E+01  0.15562264592E+02  0.40469722248E+02  0.43400732361E+02  0.00000000000E+00 0. -1.
         11    1    4    4    0    0 -0.17756803341E+01  0.15542986317E+00 -0.10909601997E+01  0.20898309764E+01  0.51100000000E-03 0. -1.
        -11    1    4    4    0    0 -0.55786181831E+01 -0.97505067238E+01 -0.26283676025E+02  0.28583648960E+02  0.51100000000E-03 0.  1.
        -12    1    4    4    0    0  0.92624576740E+01 -0.59671877309E+01 -0.13095086023E+02  0.17113787703E+02  0.00000000000E+00 0.  1.
</event>
<event>
 8    1  0.6239251E-010  0.9118800E+02  0.7816164E-02  0.1184000E+00
        -11   -1    0    0    0    0  0.00000000000E+00  0.00000000000E+00  0.45593999997E+02  0.45594000000E+02  0.51100000000E-03 0. -1.
         11   -1    0    0    0    0 -0.00000000000E+00 -0.00000000000E+00 -0.45593999997E+02  0.45594000000E+02  0.51100000000E-03 0.  1.
         23    2    1    2    0    0 -0.35527136788E-14  0.00000000000E+00  0.00000000000E+00  0.91188000000E+02  0.91188000000E+02 0.  0.
    9900012    2    3    3    0    0 -0.16598673647E+02 -0.55464237380E+01  0.39715794793E+02  0.47787272597E+02  0.20000007077E+02 0.  0.
        -12    1    3    3    0    0  0.16598673647E+02  0.55464237380E+01 -0.39715794793E+02  0.43400727403E+02  0.00000000000E+00 0.  1.
         11    1    4    4    0    0 -0.46596322116E+01  0.57898785811E+01  0.79637088422E+01  0.10892911691E+02  0.51100000000E-03 0.  1.
        -11    1    4    4    0    0 -0.85676537766E+01 -0.12456943886E+02  0.23971344831E+02  0.28340880641E+02  0.51100000000E-03 0. -1.
        -12    1    4    4    0    0 -0.33713876583E+01  0.11206415673E+01  0.77807411194E+01  0.85534802643E+01  0.00000000000E+00 0.  1.
</event>
<event>
 8    1  0.6239251E-010  0.9118800E+02  0.7816164E-02  0.1184000E+00
        -11   -1    0    0    0    0  0.00000000000E+00  0.00000000000E+00  0.45593999997E+02  0.45594000000E+02  0.51100000000E-03 0. -1.
         11   -1    0    0    0    0 -0.00000000000E+00 -0.00000000000E+00 -0.45593999997E+02  0.45594000000E+02  0.51100000000E-03 0.  1.
         23    2    1    2    0    0 -0.17763568394E-14  0.00000000000E+00  0.00000000000E+00  0.91188000000E+02  0.91188000000E+02 0.  0.
    9900012    2    3    3    0    0  0.92377122601E+01 -0.15996719371E+02  0.39273312575E+02  0.47787269142E+02  0.19999991326E+02 0.  0.
        -12    1    3    3    0    0 -0.92377122601E+01  0.15996719371E+02 -0.39273312575E+02  0.43400730858E+02  0.00000000000E+00 0.  1.
         11    1    4    4    0    0  0.14275958678E+02 -0.87938158658E+01  0.18653456671E+02  0.25081579689E+02  0.51100000000E-03 0. -1.
        -11    1    4    4    0    0 -0.39326012185E+01 -0.24866127971E+01  0.10605789755E+02  0.11581509925E+02  0.51100000000E-03 0.  1.
         12    1    4    4    0    0 -0.11056451996E+01 -0.47162907077E+01  0.10014066149E+02  0.11124179528E+02  0.00000000000E+00 0. -1.
</event>
<event>
 8    1  0.6239251E-010  0.9118800E+02  0.7816164E-02  0.1184000E+00
        -11   -1    0    0    0    0  0.00000000000E+00  0.00000000000E+00  0.45593999997E+02  0.45594000000E+02  0.51100000000E-03 0.  1.
         11   -1    0    0    0    0 -0.00000000000E+00 -0.00000000000E+00 -0.45593999997E+02  0.45594000000E+02  0.51100000000E-03 0. -1.
         23    2    1    2    0    0  0.00000000000E+00  0.00000000000E+00  0.88817841970E-15  0.91188000000E+02  0.91188000000E+02 0.  0.
    9900012    2    3    3    0    0 -0.20780557808E+02 -0.37340153544E+02 -0.75831702641E+01  0.47787272808E+02  0.20000008042E+02 0.  0.
         12    1    3    3    0    0  0.20780557808E+02  0.37340153544E+02  0.75831702641E+01  0.43400727192E+02  0.00000000000E+00 0. -1.
         11    1    4    4    0    0 -0.14136897122E+02 -0.25572545492E+02  0.40146461373E+00  0.29222732885E+02  0.51100000000E-03 0. -1.
        -11    1    4    4    0    0 -0.44644993658E+01 -0.12421272822E+02 -0.36913263188E+01  0.13705679967E+02  0.51100000000E-03 0.  1.
         12    1    4    4    0    0 -0.21791613197E+01  0.65366476985E+00 -0.42933085590E+01  0.48588599559E+01  0.00000000000E+00 0. -1.
</event>
<event>
 8    1  0.6239251E-010  0.9118800E+02  0.7816164E-02  0.1184000E+00
        -11   -1    0    0    0    0  0.00000000000E+00  0.00000000000E+00  0.45593999997E+02  0.45594000000E+02  0.51100000000E-03 0. -1.
         11   -1    0    0    0    0 -0.00000000000E+00 -0.00000000000E+00 -0.45593999997E+02  0.45594000000E+02  0.51100000000E-03 0.  1.
         23    2    1    2    0    0  0.17763568394E-14 -0.17763568394E-14  0.71054273576E-14  0.91188000000E+02  0.91188000000E+02 0.  0.
    9900012    2    3    3    0    0  0.98736469185E+01 -0.11379359828E+02  0.40701900593E+02  0.47787269068E+02  0.19999990988E+02 0.  0.
        -12    1    3    3    0    0 -0.98736469185E+01  0.11379359828E+02 -0.40701900593E+02  0.43400730932E+02  0.00000000000E+00 0.  1.
         11    1    4    4    0    0  0.68723116488E+01 -0.72995784208E+00  0.14801427111E+02  0.16335352786E+02  0.51100000000E-03 0. -1.
        -11    1    4    4    0    0  0.27693495856E+01  0.30589407234E+01  0.56301016683E+01  0.69802908631E+01  0.51100000000E-03 0.  1.
        -12    1    4    4    0    0  0.23198568412E+00 -0.13708342709E+02  0.20270371813E+02  0.24471625419E+02  0.00000000000E+00 0.  1.
</event>
<event>
 8    1  0.6239251E-010  0.9118800E+02  0.7816164E-02  0.1184000E+00
        -11   -1    0    0    0    0  0.00000000000E+00  0.00000000000E+00  0.45593999997E+02  0.45594000000E+02  0.51100000000E-03 0. -1.
         11   -1    0    0    0    0 -0.00000000000E+00 -0.00000000000E+00 -0.45593999997E+02  0.45594000000E+02  0.51100000000E-03 0.  1.
         23    2    1    2    0    0  0.71054273576E-14  0.00000000000E+00 -0.35527136788E-14  0.91188000000E+02  0.91188000000E+02 0.  0.
    9900012    2    3    3    0    0 -0.34251199546E+02  0.76582689267E+01  0.25530951066E+02  0.47787271716E+02  0.20000003060E+02 0.  0.
        -12    1    3    3    0    0  0.34251199546E+02 -0.76582689267E+01 -0.25530951066E+02  0.43400728284E+02  0.00000000000E+00 0.  1.
         11    1    4    4    0    0 -0.10311049131E+02  0.23888751197E+01  0.17560360265E+02  0.20503431698E+02  0.51100000000E-03 0. -1.
        -11    1    4    4    0    0  0.27028900945E+00  0.37969964998E+00 -0.92150913760E+00  0.10326699979E+01  0.51100000000E-03 0.  1.
         12    1    4    4    0    0 -0.24210439425E+02  0.48896941570E+01  0.88920999388E+01  0.26251170020E+02  0.00000000000E+00 0. -1.
</event>
<event>
 8    1  0.6239251E-010  0.9118800E+02  0.7816164E-02  0.1184000E+00
        -11   -1    0    0    0    0  0.00000000000E+00  0.00000000000E+00  0.45593999997E+02  0.45594000000E+02  0.51100000000E-03 0. -1.
         11   -1    0    0    0    0 -0.00000000000E+00 -0.00000000000E+00 -0.45593999997E+02  0.45594000000E+02  0.51100000000E-03 0.  1.
         23    2    1    2    0    0  0.00000000000E+00 -0.35527136788E-14  0.00000000000E+00  0.91188000000E+02  0.91188000000E+02 0.  0.
    9900012    2    3    3    0    0 -0.16220585793E+02 -0.28847566294E+02  0.28077332004E+02  0.47787238981E+02  0.19999853810E+02 0.  0.
        -12    1    3    3    0    0  0.16220585793E+02  0.28847566294E+02 -0.28077332004E+02  0.43400761019E+02  0.00000000000E+00 0.  1.
         11    1    4    4    0    0 -0.41227114285E+01  0.10664872406E+01  0.77695249386E+01  0.88600035322E+01  0.51100000000E-03 0.  1.
        -11    1    4    4    0    0 -0.12777561697E+02 -0.29527034437E+02  0.18892082641E+02  0.37309819516E+02  0.51100000000E-03 0. -1.
         12    1    4    4    0    0  0.67968733290E+00 -0.38701909723E+00  0.14157244249E+01  0.16174159327E+01  0.00000000000E+00 0. -1.
</event>
<event>
 8    1  0.6239251E-010  0.9118800E+02  0.7816164E-02  0.1184000E+00
        -11   -1    0    0    0    0  0.00000000000E+00  0.00000000000E+00  0.45593999997E+02  0.45594000000E+02  0.51100000000E-03 0. -1.
         11   -1    0    0    0    0 -0.00000000000E+00 -0.00000000000E+00 -0.45593999997E+02  0.45594000000E+02  0.51100000000E-03 0.  1.
         23    2    1    2    0    0  0.44408920985E-15  0.00000000000E+00  0.00000000000E+00  0.91188000000E+02  0.91188000000E+02 0.  0.
    9900012    2    3    3    0    0  0.38300941536E+01  0.24204196433E+01  0.43163581061E+02  0.47787276706E+02  0.20000025813E+02 0.  0.
        -12    1    3    3    0    0 -0.38300941536E+01 -0.24204196433E+01 -0.43163581061E+02  0.43400723294E+02  0.00000000000E+00 0.  1.
         11    1    4    4    0    0  0.31920518673E+01 -0.18137723100E+01  0.11610208347E+02  0.12176859334E+02  0.51100000000E-03 0. -1.
        -11    1    4    4    0    0  0.13496241167E+01 -0.50083772259E+00 -0.15773370568E+01  0.21354896704E+01  0.51100000000E-03 0.  1.
        -12    1    4    4    0    0 -0.71158183029E+00  0.47350296759E+01  0.33130709771E+02  0.33474927702E+02  0.00000000000E+00 0.  1.
</event>
<event>
 8    1  0.6239251E-010  0.9118800E+02  0.7816164E-02  0.1184000E+00
        -11   -1    0    0    0    0  0.00000000000E+00  0.00000000000E+00  0.45593999997E+02  0.45594000000E+02  0.51100000000E-03 0. -1.
         11   -1    0    0    0    0 -0.00000000000E+00 -0.00000000000E+00 -0.45593999997E+02  0.45594000000E+02  0.51100000000E-03 0.  1.
         23    2    1    2    0    0  0.71054273576E-14 -0.35527136788E-14  0.35527136788E-14  0.91188000000E+02  0.91188000000E+02 0.  0.
    9900012    2    3    3    0    0  0.30366162452E+02 -0.16543074298E+02  0.26226819926E+02  0.47787271749E+02  0.20000003213E+02 0.  0.
        -12    1    3    3    0    0 -0.30366162452E+02  0.16543074298E+02 -0.26226819926E+02  0.43400728251E+02  0.00000000000E+00 0.  1.
         11    1    4    4    0    0  0.10758120249E+02 -0.35896527118E+01  0.69561214709E+01  0.13304524947E+02  0.51100000000E-03 0. -1.
        -11    1    4    4    0    0  0.51254209990E+01  0.34430652888E+00 -0.20039684091E+01  0.55140164172E+01  0.51100000000E-03 0.  1.
        -12    1    4    4    0    0  0.14482621204E+02 -0.13297728115E+02  0.21274666864E+02  0.28968730385E+02  0.00000000000E+00 0.  1.
</event>
<event>
 8    1  0.6239251E-010  0.9118800E+02  0.7816164E-02  0.1184000E+00
        -11   -1    0    0    0    0  0.00000000000E+00  0.00000000000E+00  0.45593999997E+02  0.45594000000E+02  0.51100000000E-03 0. -1.
         11   -1    0    0    0    0 -0.00000000000E+00 -0.00000000000E+00 -0.45593999997E+02  0.45594000000E+02  0.51100000000E-03 0.  1.
         23    2    1    2    0    0 -0.35527136788E-14  0.00000000000E+00  0.35527136788E-14  0.91188000000E+02  0.91188000000E+02 0.  0.
    9900012    2    3    3    0    0  0.20402592068E+02 -0.21374779236E+02 -0.31787984508E+02  0.47787275242E+02  0.20000019137E+02 0.  0.
         12    1    3    3    0    0 -0.20402592068E+02  0.21374779236E+02  0.31787984508E+02  0.43400724758E+02  0.00000000000E+00 0. -1.
         11    1    4    4    0    0  0.72051741728E+01 -0.66341224747E+01 -0.23333215258E+02  0.25305435195E+02  0.51100000000E-03 0. -1.
        -11    1    4    4    0    0  0.12440786943E+02 -0.98148129722E+01 -0.63127993005E+01  0.17057408031E+02  0.51100000000E-03 0.  1.
         12    1    4    4    0    0  0.75663095126E+00 -0.49258437895E+01 -0.21419699494E+01  0.54244320163E+01  0.00000000000E+00 0. -1.
</event>
<event>
 8    1  0.6239251E-010  0.9118800E+02  0.7816164E-02  0.1184000E+00
        -11   -1    0    0    0    0  0.00000000000E+00  0.00000000000E+00  0.45593999997E+02  0.45594000000E+02  0.51100000000E-03 0. -1.
         11   -1    0    0    0    0 -0.00000000000E+00 -0.00000000000E+00 -0.45593999997E+02  0.45594000000E+02  0.51100000000E-03 0.  1.
         23    2    1    2    0    0  0.17763568394E-14  0.00000000000E+00  0.00000000000E+00  0.91188000000E+02  0.91188000000E+02 0.  0.
    9900012    2    3    3    0    0  0.12125730717E+02  0.19775736750E+02 -0.36681196261E+02  0.47787271106E+02  0.20000000280E+02 0.  0.
         12    1    3    3    0    0 -0.12125730717E+02 -0.19775736750E+02  0.36681196261E+02  0.43400728894E+02  0.00000000000E+00 0. -1.
         11    1    4    4    0    0  0.14977059428E+01  0.10219010140E+02 -0.73196616740E+01  0.12658939079E+02  0.51100000000E-03 0. -1.
        -11    1    4    4    0    0  0.11130979466E+02  0.91074543462E+01 -0.30547629087E+02  0.33763916711E+02  0.51100000000E-03 0.  1.
        -12    1    4    4    0    0 -0.50295469180E+00  0.44927226456E+00  0.11860945007E+01  0.13644153159E+01  0.00000000000E+00 0.  1.
</event>
<event>
 8    1  0.6239251E-010  0.9118800E+02  0.7816164E-02  0.1184000E+00
        -11   -1    0    0    0    0  0.00000000000E+00  0.00000000000E+00  0.45593999997E+02  0.45594000000E+02  0.51100000000E-03 0. -1.
         11   -1    0    0    0    0 -0.00000000000E+00 -0.00000000000E+00 -0.45593999997E+02  0.45594000000E+02  0.51100000000E-03 0.  1.
         23    2    1    2    0    0 -0.17763568394E-14  0.00000000000E+00  0.00000000000E+00  0.91188000000E+02  0.91188000000E+02 0.  0.
    9900012    2    3    3    0    0  0.13885680078E+02  0.33576656368E+02  0.23736478567E+02  0.47787258314E+02  0.19999941958E+02 0.  0.
        -12    1    3    3    0    0 -0.13885680078E+02 -0.33576656368E+02 -0.23736478567E+02  0.43400741686E+02  0.00000000000E+00 0.  1.
         11    1    4    4    0    0  0.10185540641E+02  0.26521847843E+02  0.20220982417E+02  0.34871790624E+02  0.51100000000E-03 0. -1.
        -11    1    4    4    0    0  0.11647537813E+01 -0.23713920081E+01  0.10856770299E+01  0.28563694267E+01  0.51100000000E-03 0.  1.
         12    1    4    4    0    0  0.25353856556E+01  0.94262005334E+01  0.24298191201E+01  0.10059098264E+02  0.00000000000E+00 0. -1.
</event>
<event>
 8    1  0.6239251E-010  0.9118800E+02  0.7816164E-02  0.1184000E+00
        -11   -1    0    0    0    0  0.00000000000E+00  0.00000000000E+00  0.45593999997E+02  0.45594000000E+02  0.51100000000E-03 0. -1.
         11   -1    0    0    0    0 -0.00000000000E+00 -0.00000000000E+00 -0.45593999997E+02  0.45594000000E+02  0.51100000000E-03 0.  1.
         23    2    1    2    0    0 -0.17763568394E-14  0.00000000000E+00 -0.35527136788E-14  0.91188000000E+02  0.91188000000E+02 0.  0.
    9900012    2    3    3    0    0  0.93012841989E+01  0.33950566785E+02 -0.25386374893E+02  0.47787275317E+02  0.20000019482E+02 0.  0.
         12    1    3    3    0    0 -0.93012841989E+01 -0.33950566785E+02  0.25386374893E+02  0.43400724683E+02  0.00000000000E+00 0. -1.
         11    1    4    4    0    0  0.32809697169E+01  0.47320011537E+01  0.10741434690E+01  0.58575064367E+01  0.51100000000E-03 0. -1.
        -11    1    4    4    0    0 -0.19677556416E+01  0.16503841505E+02 -0.18728912241E+02  0.25040387391E+02  0.51100000000E-03 0.  1.
        -12    1    4    4    0    0  0.79880701236E+01  0.12714724126E+02 -0.77316061213E+01  0.16889381490E+02  0.00000000000E+00 0.  1.
</event>
<event>
 8    1  0.6239251E-010  0.9118800E+02  0.7816164E-02  0.1184000E+00
        -11   -1    0    0    0    0  0.00000000000E+00  0.00000000000E+00  0.45593999997E+02  0.45594000000E+02  0.51100000000E-03 0. -1.
         11   -1    0    0    0    0 -0.00000000000E+00 -0.00000000000E+00 -0.45593999997E+02  0.45594000000E+02  0.51100000000E-03 0.  1.
         23    2    1    2    0    0  0.00000000000E+00 -0.44408920985E-15  0.71054273576E-14  0.91188000000E+02  0.91188000000E+02 0.  0.
    9900012    2    3    3    0    0  0.29736094043E+02  0.29413630793E+01  0.31475964952E+02  0.47787271027E+02  0.19999999922E+02 0.  0.
        -12    1    3    3    0    0 -0.29736094043E+02 -0.29413630793E+01 -0.31475964952E+02  0.43400728973E+02  0.00000000000E+00 0.  1.
         11    1    4    4    0    0  0.20494067536E+02  0.48378842263E+01  0.18226290045E+02  0.27849767989E+02  0.51100000000E-03 0. -1.
        -11    1    4    4    0    0 -0.23164382295E+01  0.69282991693E+00  0.38155113508E+00  0.24477501700E+01  0.51100000000E-03 0.  1.
         12    1    4    4    0    0  0.11558464736E+02 -0.25893510639E+01  0.12868123772E+02  0.17489752869E+02  0.00000000000E+00 0. -1.
</event>
<event>
 8    1  0.6239251E-010  0.9118800E+02  0.7816164E-02  0.1184000E+00
        -11   -1    0    0    0    0  0.00000000000E+00  0.00000000000E+00  0.45593999997E+02  0.45594000000E+02  0.51100000000E-03 0. -1.
         11   -1    0    0    0    0 -0.00000000000E+00 -0.00000000000E+00 -0.45593999997E+02  0.45594000000E+02  0.51100000000E-03 0.  1.
         23    2    1    2    0    0  0.00000000000E+00 -0.35527136788E-14  0.00000000000E+00  0.91188000000E+02  0.91188000000E+02 0.  0.
    9900012    2    3    3    0    0 -0.31040840003E+02 -0.84850667473E+01 -0.29122035857E+02  0.47787273298E+02  0.20000010275E+02 0.  0.
         12    1    3    3    0    0  0.31040840003E+02  0.84850667473E+01  0.29122035857E+02  0.43400726702E+02  0.00000000000E+00 0. -1.
         11    1    4    4    0    0 -0.22876620703E+02  0.86829863464E+00 -0.12329148745E+02  0.26001954279E+02  0.51100000000E-03 0. -1.
        -11    1    4    4    0    0 -0.90717166417E+00  0.91232939035E+00 -0.19156891454E+01  0.23076330964E+01  0.51100000000E-03 0.  1.
         12    1    4    4    0    0 -0.72570476361E+01 -0.10265694772E+02 -0.14877197967E+02  0.19477685923E+02  0.00000000000E+00 0. -1.
</event>
<event>
 8    1  0.6239251E-010  0.9118800E+02  0.7816164E-02  0.1184000E+00
        -11   -1    0    0    0    0  0.00000000000E+00  0.00000000000E+00  0.45593999997E+02  0.45594000000E+02  0.51100000000E-03 0. -1.
         11   -1    0    0    0    0 -0.00000000000E+00 -0.00000000000E+00 -0.45593999997E+02  0.45594000000E+02  0.51100000000E-03 0.  1.
         23    2    1    2    0    0 -0.44408920985E-15  0.00000000000E+00  0.00000000000E+00  0.91188000000E+02  0.91188000000E+02 0.  0.
    9900012    2    3    3    0    0 -0.33024479394E+01  0.34916904001E+02  0.25564170175E+02  0.47787272539E+02  0.20000006816E+02 0.  0.
        -12    1    3    3    0    0  0.33024479394E+01 -0.34916904001E+02 -0.25564170175E+02  0.43400727461E+02  0.00000000000E+00 0.  1.
         11    1    4    4    0    0 -0.24990051171E+01  0.61610425869E+01 -0.42421954102E+00  0.66620893729E+01  0.51100000000E-03 0.  1.
        -11    1    4    4    0    0 -0.14180178841E+01  0.28509752307E+02  0.19422680195E+02  0.34526182203E+02  0.51100000000E-03 0. -1.
        -12    1    4    4    0    0  0.61457506171E+00  0.24610910709E+00  0.65657095209E+01  0.65990009632E+01  0.00000000000E+00 0.  1.
</event>
<event>
 8    1  0.6239251E-010  0.9118800E+02  0.7816164E-02  0.1184000E+00
        -11   -1    0    0    0    0  0.00000000000E+00  0.00000000000E+00  0.45593999997E+02  0.45594000000E+02  0.51100000000E-03 0. -1.
         11   -1    0    0    0    0 -0.00000000000E+00 -0.00000000000E+00 -0.45593999997E+02  0.45594000000E+02  0.51100000000E-03 0.  1.
         23    2    1    2    0    0 -0.71054273576E-14  0.00000000000E+00 -0.35527136788E-14  0.91188000000E+02  0.91188000000E+02 0.  0.
    9900012    2    3    3    0    0  0.26674135217E+02  0.21279252407E+02  0.26819897369E+02  0.47787274574E+02  0.20000016095E+02 0.  0.
        -12    1    3    3    0    0 -0.26674135217E+02 -0.21279252407E+02 -0.26819897369E+02  0.43400725426E+02  0.00000000000E+00 0.  1.
         11    1    4    4    0    0  0.25023514447E+01  0.14533322090E+01  0.11973138785E+02  0.12317872783E+02  0.51100000000E-03 0. -1.
        -11    1    4    4    0    0  0.15423511857E+02  0.97046300349E+01  0.51174480541E+01  0.18927568173E+02  0.51100000000E-03 0.  1.
         12    1    4    4    0    0  0.87482719160E+01  0.10121290163E+02  0.97293105294E+01  0.16541833618E+02  0.00000000000E+00 0. -1.
</event>
<event>
 8    1  0.6239251E-010  0.9118800E+02  0.7816164E-02  0.1184000E+00
        -11   -1    0    0    0    0  0.00000000000E+00  0.00000000000E+00  0.45593999997E+02  0.45594000000E+02  0.51100000000E-03 0. -1.
         11   -1    0    0    0    0 -0.00000000000E+00 -0.00000000000E+00 -0.45593999997E+02  0.45594000000E+02  0.51100000000E-03 0.  1.
         23    2    1    2    0    0  0.00000000000E+00  0.00000000000E+00  0.00000000000E+00  0.91188000000E+02  0.91188000000E+02 0.  0.
    9900012    2    3    3    0    0  0.34998660120E+02  0.11079424105E+02 -0.23150866091E+02  0.47787280542E+02  0.20000043305E+02 0.  0.
         12    1    3    3    0    0 -0.34998660120E+02 -0.11079424105E+02  0.23150866091E+02  0.43400719458E+02  0.00000000000E+00 0. -1.
         11    1    4    4    0    0  0.12749947902E+02  0.44876038997E+01  0.88600221830E+00  0.13545654671E+02  0.51100000000E-03 0. -1.
        -11    1    4    4    0    0  0.21117053457E+02  0.42043578517E+01 -0.22675041634E+02  0.31269219450E+02  0.51100000000E-03 0.  1.
         12    1    4    4    0    0  0.11316587604E+01  0.23874623535E+01 -0.13618266751E+01  0.29724064212E+01  0.00000000000E+00 0. -1.
</event>
<event>
 8    1  0.6239251E-010  0.9118800E+02  0.7816164E-02  0.1184000E+00
        -11   -1    0    0    0    0  0.00000000000E+00  0.00000000000E+00  0.45593999997E+02  0.45594000000E+02  0.51100000000E-03 0. -1.
         11   -1    0    0    0    0 -0.00000000000E+00 -0.00000000000E+00 -0.45593999997E+02  0.45594000000E+02  0.51100000000E-03 0.  1.
         23    2    1    2    0    0  0.00000000000E+00 -0.44408920985E-15  0.17763568394E-14  0.91188000000E+02  0.91188000000E+02 0.  0.
    9900012    2    3    3    0    0  0.40432740048E+02 -0.29134318139E+01  0.15502538943E+02  0.47787271130E+02  0.20000000391E+02 0.  0.
        -12    1    3    3    0    0 -0.40432740048E+02  0.29134318139E+01 -0.15502538943E+02  0.43400728870E+02  0.00000000000E+00 0.  1.
         11    1    4    4    0    0  0.34152586391E+02 -0.61381883325E+01  0.16498051569E+02  0.38422157918E+02  0.51100000000E-03 0. -1.
        -11    1    4    4    0    0  0.29501814297E+01  0.19096340810E+01 -0.35280361160E+01  0.49796899390E+01  0.51100000000E-03 0.  1.
        -12    1    4    4    0    0  0.33299722279E+01  0.13151224376E+01  0.25325234894E+01  0.43854232736E+01  0.00000000000E+00 0.  1.
</event>
<event>
 8    1  0.6239251E-010  0.9118800E+02  0.7816164E-02  0.1184000E+00
        -11   -1    0    0    0    0  0.00000000000E+00  0.00000000000E+00  0.45593999997E+02  0.45594000000E+02  0.51100000000E-03 0. -1.
         11   -1    0    0    0    0 -0.00000000000E+00 -0.00000000000E+00 -0.45593999997E+02  0.45594000000E+02  0.51100000000E-03 0.  1.
         23    2    1    2    0    0  0.38857805862E-15  0.00000000000E+00  0.00000000000E+00  0.91188000000E+02  0.91188000000E+02 0.  0.
    9900012    2    3    3    0    0  0.15468753174E+00  0.11333031699E+02 -0.41894642394E+02  0.47787278841E+02  0.20000035550E+02 0.  0.
         12    1    3    3    0    0 -0.15468753174E+00 -0.11333031699E+02  0.41894642394E+02  0.43400721159E+02  0.00000000000E+00 0. -1.
         11    1    4    4    0    0 -0.16213838265E+01  0.12883438780E+02 -0.18759082871E+02  0.22814799380E+02  0.51100000000E-03 0. -1.
        -11    1    4    4    0    0 -0.30586411574E+01  0.15281398686E+01 -0.60264534457E+01  0.69288266382E+01  0.51100000000E-03 0.  1.
         12    1    4    4    0    0  0.48347125157E+01 -0.30785469499E+01 -0.17109106078E+02  0.18043652824E+02  0.00000000000E+00 0. -1.
</event>
<event>
 8    1  0.6239251E-010  0.9118800E+02  0.7816164E-02  0.1184000E+00
        -11   -1    0    0    0    0  0.00000000000E+00  0.00000000000E+00  0.45593999997E+02  0.45594000000E+02  0.51100000000E-03 0. -1.
         11   -1    0    0    0    0 -0.00000000000E+00 -0.00000000000E+00 -0.45593999997E+02  0.45594000000E+02  0.51100000000E-03 0.  1.
         23    2    1    2    0    0  0.00000000000E+00  0.00000000000E+00  0.00000000000E+00  0.91188000000E+02  0.91188000000E+02 0.  0.
    9900012    2    3    3    0    0  0.37591130251E+02 -0.21058711079E+02 -0.52019804469E+01  0.47787274356E+02  0.20000015099E+02 0.  0.
         12    1    3    3    0    0 -0.37591130251E+02  0.21058711079E+02  0.52019804469E+01  0.43400725644E+02  0.00000000000E+00 0. -1.
         11    1    4    4    0    0  0.83899193784E+01 -0.10700278788E+00  0.75141220633E+00  0.84241805144E+01  0.51100000000E-03 0. -1.
        -11    1    4    4    0    0 -0.12438935868E+01  0.45698588243E+00 -0.12968450855E+01  0.18541614786E+01  0.51100000000E-03 0.  1.
        -12    1    4    4    0    0  0.30445104459E+02 -0.21408694174E+02 -0.46565475677E+01  0.37508932363E+02  0.00000000000E+00 0.  1.
</event>
<event>
 8    1  0.6239251E-010  0.9118800E+02  0.7816164E-02  0.1184000E+00
        -11   -1    0    0    0    0  0.00000000000E+00  0.00000000000E+00  0.45593999997E+02  0.45594000000E+02  0.51100000000E-03 0. -1.
         11   -1    0    0    0    0 -0.00000000000E+00 -0.00000000000E+00 -0.45593999997E+02  0.45594000000E+02  0.51100000000E-03 0.  1.
         23    2    1    2    0    0  0.00000000000E+00 -0.88817841970E-15 -0.35527136788E-14  0.91188000000E+02  0.91188000000E+02 0.  0.
    9900012    2    3    3    0    0 -0.37470982519E+02  0.43952775955E+01  0.21452982483E+02  0.47787268975E+02  0.19999990564E+02 0.  0.
        -12    1    3    3    0    0  0.37470982519E+02 -0.43952775955E+01 -0.21452982483E+02  0.43400731025E+02  0.00000000000E+00 0.  1.
         11    1    4    4    0    0 -0.20341563220E+02 -0.25479903188E+01  0.15841619740E+02  0.25908075288E+02  0.51100000000E-03 0. -1.
        -11    1    4    4    0    0 -0.17928257296E+02  0.79799309962E+01  0.44337816948E+01  0.20118651266E+02  0.51100000000E-03 0.  1.
        -12    1    4    4    0    0  0.79883799652E+00 -0.10366630819E+01  0.11775810486E+01  0.17605424210E+01  0.00000000000E+00 0.  1.
</event>
<event>
 8    1  0.6239251E-010  0.9118800E+02  0.7816164E-02  0.1184000E+00
        -11   -1    0    0    0    0  0.00000000000E+00  0.00000000000E+00  0.45593999997E+02  0.45594000000E+02  0.51100000000E-03 0. -1.
         11   -1    0    0    0    0 -0.00000000000E+00 -0.00000000000E+00 -0.45593999997E+02  0.45594000000E+02  0.51100000000E-03 0.  1.
         23    2    1    2    0    0  0.00000000000E+00  0.55511151231E-15 -0.71054273576E-14  0.91188000000E+02  0.91188000000E+02 0.  0.
    9900012    2    3    3    0    0 -0.29873578647E+01  0.89809123722E+00 -0.43288501900E+02  0.47787248029E+02  0.19999895065E+02 0.  0.
         12    1    3    3    0    0  0.29873578647E+01 -0.89809123722E+00  0.43288501900E+02  0.43400751971E+02  0.00000000000E+00 0. -1.
         11    1    4    4    0    0 -0.31165559352E+01 -0.66829207171E+01 -0.74104553703E+01  0.10454147467E+02  0.51100000000E-03 0. -1.
        -11    1    4    4    0    0  0.41482636236E+00  0.29255032368E+01 -0.28163943277E+02  0.28318516050E+02  0.51100000000E-03 0.  1.
         12    1    4    4    0    0 -0.28562829180E+00  0.46555087175E+01 -0.77141032528E+01  0.90145845125E+01  0.00000000000E+00 0. -1.
</event>
<event>
 8    1  0.6239251E-010  0.9118800E+02  0.7816164E-02  0.1184000E+00
        -11   -1    0    0    0    0  0.00000000000E+00  0.00000000000E+00  0.45593999997E+02  0.45594000000E+02  0.51100000000E-03 0. -1.
         11   -1    0    0    0    0 -0.00000000000E+00 -0.00000000000E+00 -0.45593999997E+02  0.45594000000E+02  0.51100000000E-03 0.  1.
         23    2    1    2    0    0  0.17763568394E-14  0.00000000000E+00  0.00000000000E+00  0.91188000000E+02  0.91188000000E+02 0.  0.
    9900012    2    3    3    0    0 -0.71235576691E+01  0.10300683966E+02  0.41554475057E+02  0.47787267734E+02  0.19999984905E+02 0.  0.
        -12    1    3    3    0    0  0.71235576691E+01 -0.10300683966E+02 -0.41554475057E+02  0.43400732266E+02  0.00000000000E+00 0.  1.
         11    1    4    4    0    0  0.10596962172E+01  0.83427373696E+01  0.71051733674E+01  0.11009437394E+02  0.51100000000E-03 0. -1.
        -11    1    4    4    0    0 -0.66849158397E+01 -0.18681946710E+01  0.11261339651E+02  0.13228606204E+02  0.51100000000E-03 0.  1.
         12    1    4    4    0    0 -0.14983380466E+01  0.38261412670E+01  0.23187962038E+02  0.23549224135E+02  0.00000000000E+00 0. -1.
</event>
<event>
 8    1  0.6239251E-010  0.9118800E+02  0.7816164E-02  0.1184000E+00
        -11   -1    0    0    0    0  0.00000000000E+00  0.00000000000E+00  0.45593999997E+02  0.45594000000E+02  0.51100000000E-03 0. -1.
         11   -1    0    0    0    0 -0.00000000000E+00 -0.00000000000E+00 -0.45593999997E+02  0.45594000000E+02  0.51100000000E-03 0.  1.
         23    2    1    2    0    0 -0.17763568394E-14  0.00000000000E+00  0.00000000000E+00  0.91188000000E+02  0.91188000000E+02 0.  0.
    9900012    2    3    3    0    0 -0.87657518985E+01 -0.99014263063E+01 -0.41336988115E+02  0.47787271485E+02  0.20000002007E+02 0.  0.
         12    1    3    3    0    0  0.87657518985E+01  0.99014263063E+01  0.41336988115E+02  0.43400728515E+02  0.00000000000E+00 0. -1.
         11    1    4    4    0    0 -0.89858761344E+01  0.29331958880E+01 -0.23644407074E+02  0.25463848770E+02  0.51100000000E-03 0. -1.
        -11    1    4    4    0    0  0.12485073411E+00 -0.72885128299E+01 -0.62294178011E+01  0.95887253261E+01  0.51100000000E-03 0.  1.
         12    1    4    4    0    0  0.95273501809E-01 -0.55461093644E+01 -0.11463163239E+02  0.12734697389E+02  0.00000000000E+00 0. -1.
</event>
<event>
 8    1  0.6239251E-010  0.9118800E+02  0.7816164E-02  0.1184000E+00
        -11   -1    0    0    0    0  0.00000000000E+00  0.00000000000E+00  0.45593999997E+02  0.45594000000E+02  0.51100000000E-03 0. -1.
         11   -1    0    0    0    0 -0.00000000000E+00 -0.00000000000E+00 -0.45593999997E+02  0.45594000000E+02  0.51100000000E-03 0.  1.
         23    2    1    2    0    0  0.35527136788E-14 -0.17763568394E-14  0.00000000000E+00  0.91188000000E+02  0.91188000000E+02 0.  0.
    9900012    2    3    3    0    0  0.28205332966E+02 -0.14755728422E+02 -0.29501687701E+02  0.47787286801E+02  0.20000071841E+02 0.  0.
         12    1    3    3    0    0 -0.28205332966E+02  0.14755728422E+02  0.29501687701E+02  0.43400713199E+02  0.00000000000E+00 0. -1.
         11    1    4    4    0    0  0.70841715415E+00 -0.81377305543E+00 -0.30018935510E+01  0.31898975850E+01  0.51100000000E-03 0. -1.
        -11    1    4    4    0    0 -0.15836782883E+01 -0.46892144819E+01 -0.15715594901E+01  0.51929345143E+01  0.51100000000E-03 0.  1.
        -12    1    4    4    0    0  0.29080594100E+02 -0.92527408849E+01 -0.24928234659E+02  0.39404454702E+02  0.00000000000E+00 0.  1.
</event>
<event>
 8    1  0.7129131E-010  0.9118800E+02  0.7816164E-02  0.1184000E+00
        -11   -1    0    0    0    0  0.00000000000E+00  0.00000000000E+00  0.45593999997E+02  0.45594000000E+02  0.51100000000E-03 0. -1.
         11   -1    0    0    0    0 -0.00000000000E+00 -0.00000000000E+00 -0.45593999997E+02  0.45594000000E+02  0.51100000000E-03 0.  1.
         23    2    1    2    0    0 -0.13322676296E-14  0.00000000000E+00  0.71054273576E-14  0.91188000000E+02  0.91188000000E+02 0.  0.
    9900012    2    3    3    0    0  0.21576597168E+01  0.73041889598E+01  0.42727234413E+02  0.47787271522E+02  0.20000002179E+02 0.  0.
        -12    1    3    3    0    0 -0.21576597168E+01 -0.73041889598E+01 -0.42727234413E+02  0.43400728478E+02  0.00000000000E+00 0.  1.
         11    1    4    4    0    0 -0.53256707601E+00  0.68604662246E+01  0.16530317879E+02  0.17905335349E+02  0.51100000000E-03 0. -1.
        -11    1    4    4    0    0  0.75779385206E+01 -0.27448864185E+01  0.18839010963E+02  0.20490678076E+02  0.51100000000E-03 0.  1.
        -12    1    4    4    0    0 -0.48877117278E+01  0.31886091536E+01  0.73579055707E+01  0.93912580977E+01  0.00000000000E+00 0.  1.
</event>
<event>
 8    1  0.6239251E-010  0.9118800E+02  0.7816164E-02  0.1184000E+00
        -11   -1    0    0    0    0  0.00000000000E+00  0.00000000000E+00  0.45593999997E+02  0.45594000000E+02  0.51100000000E-03 0. -1.
         11   -1    0    0    0    0 -0.00000000000E+00 -0.00000000000E+00 -0.45593999997E+02  0.45594000000E+02  0.51100000000E-03 0.  1.
         23    2    1    2    0    0  0.88817841970E-15 -0.22204460493E-15  0.00000000000E+00  0.91188000000E+02  0.91188000000E+02 0.  0.
    9900012    2    3    3    0    0  0.64451445449E+01  0.15659294304E+01 -0.42890919338E+02  0.47787274374E+02  0.20000015180E+02 0.  0.
         12    1    3    3    0    0 -0.64451445449E+01 -0.15659294304E+01  0.42890919338E+02  0.43400725626E+02  0.00000000000E+00 0. -1.
         11    1    4    4    0    0 -0.39094899482E+01  0.19693917353E+01 -0.21015470082E+02  0.21466546031E+02  0.51100000000E-03 0. -1.
        -11    1    4    4    0    0  0.92304962922E+01 -0.26601061293E+01 -0.21772514322E+02  0.23797491603E+02  0.51100000000E-03 0.  1.
         12    1    4    4    0    0  0.11241382010E+01  0.22566438244E+01 -0.10293493398E+00  0.25232367399E+01  0.00000000000E+00 0. -1.
</event>
<event>
 8    1  0.6239251E-010  0.9118800E+02  0.7816164E-02  0.1184000E+00
        -11   -1    0    0    0    0  0.00000000000E+00  0.00000000000E+00  0.45593999997E+02  0.45594000000E+02  0.51100000000E-03 0. -1.
         11   -1    0    0    0    0 -0.00000000000E+00 -0.00000000000E+00 -0.45593999997E+02  0.45594000000E+02  0.51100000000E-03 0.  1.
         23    2    1    2    0    0  0.00000000000E+00  0.00000000000E+00  0.00000000000E+00  0.91188000000E+02  0.91188000000E+02 0.  0.
    9900012    2    3    3    0    0  0.62735503739E+01  0.27210636929E+02 -0.33224195730E+02  0.47787269841E+02  0.19999994515E+02 0.  0.
         12    1    3    3    0    0 -0.62735503739E+01 -0.27210636929E+02  0.33224195730E+02  0.43400730159E+02  0.00000000000E+00 0. -1.
         11    1    4    4    0    0 -0.12852273767E+01  0.47589184334E+01  0.14217027943E+01  0.51303365545E+01  0.51100000000E-03 0. -1.
        -11    1    4    4    0    0  0.16060917174E+01  0.15117815054E+02 -0.24147581179E+02  0.28534777722E+02  0.51100000000E-03 0.  1.
        -12    1    4    4    0    0  0.59526860332E+01  0.73339034413E+01 -0.10498317346E+02  0.14122155565E+02  0.00000000000E+00 0.  1.
</event>
<event>
 8    1  0.6239251E-010  0.9118800E+02  0.7816164E-02  0.1184000E+00
        -11   -1    0    0    0    0  0.00000000000E+00  0.00000000000E+00  0.45593999997E+02  0.45594000000E+02  0.51100000000E-03 0. -1.
         11   -1    0    0    0    0 -0.00000000000E+00 -0.00000000000E+00 -0.45593999997E+02  0.45594000000E+02  0.51100000000E-03 0.  1.
         23    2    1    2    0    0  0.00000000000E+00  0.00000000000E+00  0.71054273576E-14  0.91188000000E+02  0.91188000000E+02 0.  0.
    9900012    2    3    3    0    0 -0.25696205885E+02 -0.10194878283E+02  0.33457325042E+02  0.47787272598E+02  0.20000007082E+02 0.  0.
        -12    1    3    3    0    0  0.25696205885E+02  0.10194878283E+02 -0.33457325042E+02  0.43400727402E+02  0.00000000000E+00 0.  1.
         11    1    4    4    0    0 -0.85558019669E+01  0.31830235681E+01  0.14965292622E+02  0.17529785220E+02  0.51100000000E-03 0. -1.
        -11    1    4    4    0    0 -0.13318674037E+01  0.44771810043E+00 -0.90307639497E+00  0.16702902486E+01  0.51100000000E-03 0.  1.
         12    1    4    4    0    0 -0.15808536514E+02 -0.13825619951E+02  0.19395108815E+02  0.28587197129E+02  0.00000000000E+00 0. -1.
</event>
<event>
 8    1  0.6239251E-010  0.9118800E+02  0.7816164E-02  0.1184000E+00
        -11   -1    0    0    0    0  0.00000000000E+00  0.00000000000E+00  0.45593999997E+02  0.45594000000E+02  0.51100000000E-03 0.  1.
         11   -1    0    0    0    0 -0.00000000000E+00 -0.00000000000E+00 -0.45593999997E+02  0.45594000000E+02  0.51100000000E-03 0. -1.
         23    2    1    2    0    0 -0.71054273576E-14 -0.55511151231E-15  0.44408920985E-15  0.91188000000E+02  0.91188000000E+02 0.  0.
    9900012    2    3    3    0    0 -0.43250925782E+02  0.99582171494E+00  0.34621062058E+01  0.47787303908E+02  0.20000149839E+02 0.  0.
         12    1    3    3    0    0  0.43250925782E+02 -0.99582171494E+00 -0.34621062058E+01  0.43400696092E+02  0.00000000000E+00 0. -1.
         11    1    4    4    0    0 -0.15396249058E+02 -0.24560658504E+01  0.46262975574E+01  0.16262821830E+02  0.51100000000E-03 0. -1.
        -11    1    4    4    0    0 -0.80232852847E+01  0.64653109528E+01  0.35868225561E+01  0.10910483435E+02  0.51100000000E-03 0.  1.
        -12    1    4    4    0    0 -0.19831391439E+02 -0.30134233875E+01 -0.47510139078E+01  0.20613998643E+02  0.00000000000E+00 0.  1.
</event>
<event>
 8    1  0.6239251E-010  0.9118800E+02  0.7816164E-02  0.1184000E+00
        -11   -1    0    0    0    0  0.00000000000E+00  0.00000000000E+00  0.45593999997E+02  0.45594000000E+02  0.51100000000E-03 0. -1.
         11   -1    0    0    0    0 -0.00000000000E+00 -0.00000000000E+00 -0.45593999997E+02  0.45594000000E+02  0.51100000000E-03 0.  1.
         23    2    1    2    0    0  0.00000000000E+00  0.22204460493E-15  0.00000000000E+00  0.91188000000E+02  0.91188000000E+02 0.  0.
    9900012    2    3    3    0    0 -0.10308787238E+02 -0.10104406699E+01  0.42146538454E+02  0.47787276638E+02  0.20000025504E+02 0.  0.
        -12    1    3    3    0    0  0.10308787238E+02  0.10104406699E+01 -0.42146538454E+02  0.43400723362E+02  0.00000000000E+00 0.  1.
         11    1    4    4    0    0  0.10031748928E+01  0.22460249212E+01 -0.10551302051E+01  0.26766187295E+01  0.51100000000E-03 0.  1.
        -11    1    4    4    0    0 -0.91048075820E+01 -0.11611333124E+01  0.37919044792E+02  0.39014096297E+02  0.51100000000E-03 0. -1.
        -12    1    4    4    0    0 -0.22071545486E+01 -0.20953322788E+01  0.52826238671E+01  0.60965616114E+01  0.00000000000E+00 0.  1.
</event>
<event>
 8    1  0.6239251E-010  0.9118800E+02  0.7816164E-02  0.1184000E+00
        -11   -1    0    0    0    0  0.00000000000E+00  0.00000000000E+00  0.45593999997E+02  0.45594000000E+02  0.51100000000E-03 0. -1.
         11   -1    0    0    0    0 -0.00000000000E+00 -0.00000000000E+00 -0.45593999997E+02  0.45594000000E+02  0.51100000000E-03 0.  1.
         23    2    1    2    0    0 -0.71054273576E-14 -0.88817841970E-15  0.00000000000E+00  0.91188000000E+02  0.91188000000E+02 0.  0.
    9900012    2    3    3    0    0 -0.33632241076E+02  0.59330690590E+01  0.26782352105E+02  0.47787270369E+02  0.19999996920E+02 0.  0.
        -12    1    3    3    0    0  0.33632241076E+02 -0.59330690590E+01 -0.26782352105E+02  0.43400729631E+02  0.00000000000E+00 0.  1.
         11    1    4    4    0    0 -0.24619419329E+02 -0.94096099414E+00  0.24087886959E+02  0.34456168012E+02  0.51100000000E-03 0. -1.
        -11    1    4    4    0    0 -0.43708744163E+01  0.41555665157E+01 -0.18293906591E+01  0.63023762720E+01  0.51100000000E-03 0.  1.
         12    1    4    4    0    0 -0.46419473306E+01  0.27184635375E+01  0.45238558053E+01  0.70287260846E+01  0.00000000000E+00 0. -1.
</event>
<event>
 8    1  0.6239251E-010  0.9118800E+02  0.7816164E-02  0.1184000E+00
        -11   -1    0    0    0    0  0.00000000000E+00  0.00000000000E+00  0.45593999997E+02  0.45594000000E+02  0.51100000000E-03 0. -1.
         11   -1    0    0    0    0 -0.00000000000E+00 -0.00000000000E+00 -0.45593999997E+02  0.45594000000E+02  0.51100000000E-03 0.  1.
         23    2    1    2    0    0  0.00000000000E+00  0.00000000000E+00  0.00000000000E+00  0.91188000000E+02  0.91188000000E+02 0.  0.
    9900012    2    3    3    0    0 -0.22653326905E+02 -0.67169977291E+01  0.36405112069E+02  0.47787268865E+02  0.19999990062E+02 0.  0.
        -12    1    3    3    0    0  0.22653326905E+02  0.67169977291E+01 -0.36405112069E+02  0.43400731135E+02  0.00000000000E+00 0.  1.
         11    1    4    4    0    0 -0.38599046671E+01 -0.40504153753E+01  0.37201661812E+01  0.67189556799E+01  0.51100000000E-03 0. -1.
        -11    1    4    4    0    0 -0.13256779846E+02 -0.71877351223E+01  0.12279722593E+02  0.19447296349E+02  0.51100000000E-03 0.  1.
        -12    1    4    4    0    0 -0.55366423918E+01  0.45211527685E+01  0.20405223294E+02  0.21621016836E+02  0.00000000000E+00 0.  1.
</event>
<event>
 8    1  0.6239251E-010  0.9118800E+02  0.7816164E-02  0.1184000E+00
        -11   -1    0    0    0    0  0.00000000000E+00  0.00000000000E+00  0.45593999997E+02  0.45594000000E+02  0.51100000000E-03 0. -1.
         11   -1    0    0    0    0 -0.00000000000E+00 -0.00000000000E+00 -0.45593999997E+02  0.45594000000E+02  0.51100000000E-03 0.  1.
         23    2    1    2    0    0  0.22204460493E-15  0.00000000000E+00  0.00000000000E+00  0.91188000000E+02  0.91188000000E+02 0.  0.
    9900012    2    3    3    0    0  0.10127727198E+01  0.37380612093E+02 -0.22029239962E+02  0.47787270947E+02  0.19999999556E+02 0.  0.
         12    1    3    3    0    0 -0.10127727198E+01 -0.37380612093E+02  0.22029239962E+02  0.43400729053E+02  0.00000000000E+00 0. -1.
         11    1    4    4    0    0 -0.37113255862E+01  0.85941734599E+01 -0.25162409869E+00  0.93646713778E+01  0.51100000000E-03 0. -1.
        -11    1    4    4    0    0  0.39567980990E+01  0.11141823484E+02 -0.15889020550E+02  0.19805490553E+02  0.51100000000E-03 0.  1.
         12    1    4    4    0    0  0.76730020706E+00  0.17644615149E+02 -0.58885953134E+01  0.18617109016E+02  0.00000000000E+00 0. -1.
</event>
<event>
 8    1  0.6239251E-010  0.9118800E+02  0.7816164E-02  0.1184000E+00
        -11   -1    0    0    0    0  0.00000000000E+00  0.00000000000E+00  0.45593999997E+02  0.45594000000E+02  0.51100000000E-03 0. -1.
         11   -1    0    0    0    0 -0.00000000000E+00 -0.00000000000E+00 -0.45593999997E+02  0.45594000000E+02  0.51100000000E-03 0.  1.
         23    2    1    2    0    0 -0.35527136788E-14  0.00000000000E+00  0.71054273576E-14  0.91188000000E+02  0.91188000000E+02 0.  0.
    9900012    2    3    3    0    0 -0.22937337772E+02 -0.18021902179E+02  0.32135848019E+02  0.47787272470E+02  0.20000006498E+02 0.  0.
        -12    1    3    3    0    0  0.22937337772E+02  0.18021902179E+02 -0.32135848019E+02  0.43400727530E+02  0.00000000000E+00 0.  1.
         11    1    4    4    0    0 -0.10758226931E+02 -0.68301720311E+01  0.25789318815E+02  0.28765946219E+02  0.51100000000E-03 0. -1.
        -11    1    4    4    0    0 -0.12099478824E+00 -0.33835008514E+01  0.23130266064E+01  0.41003426800E+01  0.51100000000E-03 0.  1.
         12    1    4    4    0    0 -0.12058116053E+02 -0.78082292968E+01  0.40335025977E+01  0.14920983570E+02  0.00000000000E+00 0. -1.
</event>
<event>
 8    1  0.6239251E-010  0.9118800E+02  0.7816164E-02  0.1184000E+00
        -11   -1    0    0    0    0  0.00000000000E+00  0.00000000000E+00  0.45593999997E+02  0.45594000000E+02  0.51100000000E-03 0. -1.
         11   -1    0    0    0    0 -0.00000000000E+00 -0.00000000000E+00 -0.45593999997E+02  0.45594000000E+02  0.51100000000E-03 0.  1.
         23    2    1    2    0    0 -0.35527136788E-14  0.88817841970E-15  0.00000000000E+00  0.91188000000E+02  0.91188000000E+02 0.  0.
    9900012    2    3    3    0    0  0.26094915336E+02 -0.20608786183E+01 -0.34618370623E+02  0.47787269457E+02  0.19999992763E+02 0.  0.
         12    1    3    3    0    0 -0.26094915336E+02  0.20608786183E+01  0.34618370623E+02  0.43400730543E+02  0.00000000000E+00 0. -1.
         11    1    4    4    0    0 -0.63228456730E+00 -0.27820308727E+01 -0.43751554075E+01  0.52231661520E+01  0.51100000000E-03 0. -1.
        -11    1    4    4    0    0  0.24940286925E+02  0.48269015048E+01 -0.26701923441E+02  0.36855252079E+02  0.51100000000E-03 0.  1.
        -12    1    4    4    0    0  0.17869129780E+01 -0.41057492504E+01 -0.35412917741E+01  0.57088512266E+01  0.00000000000E+00 0.  1.
</event>
<event>
 8    1  0.6239251E-010  0.9118800E+02  0.7816164E-02  0.1184000E+00
        -11   -1    0    0    0    0  0.00000000000E+00  0.00000000000E+00  0.45593999997E+02  0.45594000000E+02  0.51100000000E-03 0.  1.
         11   -1    0    0    0    0 -0.00000000000E+00 -0.00000000000E+00 -0.45593999997E+02  0.45594000000E+02  0.51100000000E-03 0. -1.
         23    2    1    2    0    0  0.00000000000E+00  0.71054273576E-14  0.00000000000E+00  0.91188000000E+02  0.91188000000E+02 0.  0.
    9900012    2    3    3    0    0 -0.99269511243E+01 -0.41399842812E+02  0.84339682178E+01  0.47787272317E+02  0.20000005803E+02 0.  0.
        -12    1    3    3    0    0  0.99269511243E+01  0.41399842812E+02 -0.84339682178E+01  0.43400727683E+02  0.00000000000E+00 0.  1.
         11    1    4    4    0    0 -0.71661518090E+01 -0.16182445967E+02 -0.97955754138E+00  0.17725259447E+02  0.51100000000E-03 0. -1.
        -11    1    4    4    0    0  0.30720336454E+01 -0.27155061733E+01  0.48880789176E+01  0.63800219640E+01  0.51100000000E-03 0.  1.
        -12    1    4    4    0    0 -0.58328329606E+01 -0.22501890672E+02  0.45254468416E+01  0.23681990906E+02  0.00000000000E+00 0.  1.
</event>
