<event>
 7    1  0.2458979E-009  0.4778727E+02  0.7816164E-02  0.1312668E+00
        -11   -1    0    0    0    0  0.00000000000E+00  0.00000000000E+00  0.45593999997E+02  0.45594000000E+02  0.51100000000E-03 0.  1.
         11   -1    0    0    0    0 -0.00000000000E+00 -0.00000000000E+00 -0.45593999997E+02  0.45594000000E+02  0.51100000000E-03 0. -1.
    9900012    2    1    2    0    0  0.42970932024E+01 -0.10345349541E+02 -0.41930087204E+02  0.47787268670E+02  0.19999989172E+02 0.  0.
        -12    1    1    2    0    0 -0.42970932024E+01  0.10345349541E+02  0.41930087204E+02  0.43400731330E+02  0.00000000000E+00 0.  1.
         11    1    3    3    0    0  0.38649112435E+01 -0.87740586013E+01 -0.17222697601E+02  0.19711492997E+02  0.51100000000E-03 0. -1.
        -11    1    3    3    0    0 -0.62532767304E+01 -0.17136373244E+01 -0.14356749632E+02  0.15752976957E+02  0.51100000000E-03 0.  1.
        -12    1    3    3    0    0  0.66854586894E+01  0.14234638518E+00 -0.10350639971E+02  0.12322798716E+02  0.00000000000E+00 0.  1.
</event>
<event>
 7    1  0.2458979E-009  0.4778727E+02  0.7816164E-02  0.1312668E+00
        -11   -1    0    0    0    0  0.00000000000E+00  0.00000000000E+00  0.45593999997E+02  0.45594000000E+02  0.51100000000E-03 0.  1.
         11   -1    0    0    0    0 -0.00000000000E+00 -0.00000000000E+00 -0.45593999997E+02  0.45594000000E+02  0.51100000000E-03 0. -1.
    9900012    2    1    2    0    0  0.43085052693E+02 -0.49109046568E+01  0.17846044672E+01  0.47787267711E+02  0.19999984803E+02 0.  0.
        -12    1    1    2    0    0 -0.43085052693E+02  0.49109046568E+01 -0.17846044672E+01  0.43400732289E+02  0.00000000000E+00 0.  1.
         11    1    3    3    0    0  0.18761553431E+02 -0.11369462529E+02 -0.69303299108E+00  0.21948595863E+02  0.51100000000E-03 0. -1.
        -11    1    3    3    0    0  0.94588278998E+01  0.47040929165E+01  0.25634839718E+01  0.10870573386E+02  0.51100000000E-03 0.  1.
         12    1    3    3    0    0  0.14864671362E+02  0.17544649556E+01 -0.85846513454E-01  0.14968098463E+02  0.00000000000E+00 0. -1.
</event>
<event>
 7    1  0.2458979E-009  0.4778726E+02  0.7816164E-02  0.1312668E+00
        -11   -1    0    0    0    0  0.00000000000E+00  0.00000000000E+00  0.45593999997E+02  0.45594000000E+02  0.51100000000E-03 0. -1.
         11   -1    0    0    0    0 -0.00000000000E+00 -0.00000000000E+00 -0.45593999997E+02  0.45594000000E+02  0.51100000000E-03 0.  1.
    9900012    2    1    2    0    0 -0.19752720864E+02  0.38021785520E+02  0.69135879644E+01  0.47787264359E+02  0.19999969517E+02 0.  0.
        -12    1    1    2    0    0  0.19752720864E+02 -0.38021785520E+02 -0.69135879644E+01  0.43400735641E+02  0.00000000000E+00 0.  1.
         11    1    3    3    0    0 -0.72591157280E+01  0.18200570534E+01 -0.22512511677E+01  0.78150816317E+01  0.51100000000E-03 0.  1.
        -11    1    3    3    0    0 -0.11221424652E+02  0.22500102768E+02  0.61861278591E+01  0.25892917447E+02  0.51100000000E-03 0. -1.
         12    1    3    3    0    0 -0.12721804848E+01  0.13701625698E+02  0.29787112730E+01  0.14079265279E+02  0.00000000000E+00 0. -1.
</event>
<event>
 7    1  0.2458979E-009  0.4778727E+02  0.7816164E-02  0.1312668E+00
        -11   -1    0    0    0    0  0.00000000000E+00  0.00000000000E+00  0.45593999997E+02  0.45594000000E+02  0.51100000000E-03 0.  1.
         11   -1    0    0    0    0 -0.00000000000E+00 -0.00000000000E+00 -0.45593999997E+02  0.45594000000E+02  0.51100000000E-03 0. -1.
    9900012    2    1    2    0    0  0.37482161365E+02 -0.63298880856E+01 -0.20943826502E+02  0.47787265302E+02  0.19999973819E+02 0.  0.
        -12    1    1    2    0    0 -0.37482161365E+02  0.63298880856E+01  0.20943826502E+02  0.43400734698E+02  0.00000000000E+00 0.  1.
         11    1    3    3    0    0  0.18887118467E+02 -0.74805989426E+01 -0.13854808289E+02  0.24589394412E+02  0.51100000000E-03 0. -1.
        -11    1    3    3    0    0  0.19474249224E+02  0.33114895538E+01 -0.62548786122E+01  0.20720421150E+02  0.51100000000E-03 0.  1.
         12    1    3    3    0    0 -0.87920632703E+00 -0.21607786969E+01 -0.83413960080E+00  0.24774497403E+01  0.00000000000E+00 0. -1.
</event>
<event>
 7    1  0.2458979E-009  0.4778727E+02  0.7816164E-02  0.1312668E+00
        -11   -1    0    0    0    0  0.00000000000E+00  0.00000000000E+00  0.45593999997E+02  0.45594000000E+02  0.51100000000E-03 0.  1.
         11   -1    0    0    0    0 -0.00000000000E+00 -0.00000000000E+00 -0.45593999997E+02  0.45594000000E+02  0.51100000000E-03 0. -1.
    9900012    2    1    2    0    0 -0.66291417940E+00  0.43243525306E+02 -0.36306237334E+01  0.47787269997E+02  0.19999995223E+02 0.  0.
        -12    1    1    2    0    0  0.66291417940E+00 -0.43243525306E+02  0.36306237334E+01  0.43400730003E+02  0.00000000000E+00 0.  1.
         11    1    3    3    0    0 -0.18533029898E+01  0.26762948555E+02 -0.58167289519E+01  0.27450400422E+02  0.51100000000E-03 0. -1.
        -11    1    3    3    0    0  0.35987312148E+01  0.83383017881E+01  0.61480147663E+01  0.10967051969E+02  0.51100000000E-03 0.  1.
         12    1    3    3    0    0 -0.24083424044E+01  0.81422749626E+01 -0.39619095477E+01  0.93698176059E+01  0.00000000000E+00 0. -1.
</event>
<event>
 7    1  0.2458979E-009  0.4778727E+02  0.7816164E-02  0.1312668E+00
        -11   -1    0    0    0    0  0.00000000000E+00  0.00000000000E+00  0.45593999997E+02  0.45594000000E+02  0.51100000000E-03 0.  1.
         11   -1    0    0    0    0 -0.00000000000E+00 -0.00000000000E+00 -0.45593999997E+02  0.45594000000E+02  0.51100000000E-03 0. -1.
    9900012    2    1    2    0    0  0.31009041665E+02  0.25431572048E+02  0.16592097723E+02  0.47787271565E+02  0.20000002374E+02 0.  0.
        -12    1    1    2    0    0 -0.31009041665E+02 -0.25431572048E+02 -0.16592097723E+02  0.43400728435E+02  0.00000000000E+00 0.  1.
         11    1    3    3    0    0  0.59183629710E+01  0.40717206080E+01  0.61341560161E+00  0.72098687871E+01  0.51100000000E-03 0. -1.
        -11    1    3    3    0    0  0.26360750743E+02  0.14098117634E+02  0.13489509949E+02  0.32796539139E+02  0.51100000000E-03 0.  1.
        -12    1    3    3    0    0 -0.12700720484E+01  0.72617338056E+01  0.24891721726E+01  0.77808636395E+01  0.00000000000E+00 0.  1.
</event>
<event>
 7    1  0.2458979E-009  0.4778729E+02  0.7816164E-02  0.1312668E+00
        -11   -1    0    0    0    0  0.00000000000E+00  0.00000000000E+00  0.45593999997E+02  0.45594000000E+02  0.51100000000E-03 0.  1.
         11   -1    0    0    0    0 -0.00000000000E+00 -0.00000000000E+00 -0.45593999997E+02  0.45594000000E+02  0.51100000000E-03 0. -1.
    9900012    2    1    2    0    0 -0.37192739628E+02 -0.12076588454E+02  0.18827580979E+02  0.47787289462E+02  0.20000083971E+02 0.  0.
        -12    1    1    2    0    0  0.37192739628E+02  0.12076588454E+02 -0.18827580979E+02  0.43400710538E+02  0.00000000000E+00 0.  1.
         11    1    3    3    0    0 -0.29035935043E+01 -0.10392850140E+00 -0.28618687327E+01  0.40782286934E+01  0.51100000000E-03 0. -1.
        -11    1    3    3    0    0  0.54437580920E+00 -0.13704761886E+01  0.38907295233E+00  0.15250993504E+01  0.51100000000E-03 0.  1.
         12    1    3    3    0    0 -0.34833521933E+02 -0.10602183764E+02  0.21300376759E+02  0.42183961418E+02  0.00000000000E+00 0. -1.
</event>
<event>
 7    1  0.2458979E-009  0.4778727E+02  0.7816164E-02  0.1312668E+00
        -11   -1    0    0    0    0  0.00000000000E+00  0.00000000000E+00  0.45593999997E+02  0.45594000000E+02  0.51100000000E-03 0. -1.
         11   -1    0    0    0    0 -0.00000000000E+00 -0.00000000000E+00 -0.45593999997E+02  0.45594000000E+02  0.51100000000E-03 0.  1.
    9900012    2    1    2    0    0 -0.29092221270E+01 -0.41417039801E+02  0.12640741112E+02  0.47787273104E+02  0.20000009389E+02 0.  0.
        -12    1    1    2    0    0  0.29092221270E+01  0.41417039801E+02 -0.12640741112E+02  0.43400726896E+02  0.00000000000E+00 0.  1.
         11    1    3    3    0    0  0.33909708553E+01 -0.27377032156E+02  0.57099266963E+01  0.28170975066E+02  0.51100000000E-03 0. -1.
        -11    1    3    3    0    0 -0.60705942144E+01 -0.12953618499E+02  0.92565198011E+01  0.17039116920E+02  0.51100000000E-03 0.  1.
        -12    1    3    3    0    0 -0.22959876783E+00 -0.10863891460E+01 -0.23257053857E+01  0.25771811174E+01  0.00000000000E+00 0.  1.
</event>
<event>
 7    1  0.2458979E-009  0.4778731E+02  0.7816164E-02  0.1312668E+00
        -11   -1    0    0    0    0  0.00000000000E+00  0.00000000000E+00  0.45593999997E+02  0.45594000000E+02  0.51100000000E-03 0.  1.
         11   -1    0    0    0    0 -0.00000000000E+00 -0.00000000000E+00 -0.45593999997E+02  0.45594000000E+02  0.51100000000E-03 0. -1.
    9900012    2    1    2    0    0 -0.84705840364E+01  0.16093233812E+02 -0.39406561606E+02  0.47787308000E+02  0.20000168494E+02 0.  0.
        -12    1    1    2    0    0  0.84705840364E+01 -0.16093233812E+02  0.39406561606E+02  0.43400692000E+02  0.00000000000E+00 0.  1.
         11    1    3    3    0    0 -0.46804497539E+01  0.13891589279E+01 -0.68783252263E+01  0.84349114165E+01  0.51100000000E-03 0. -1.
        -11    1    3    3    0    0 -0.18293064995E+01  0.16822765236E+02 -0.32290464340E+02  0.36455807219E+02  0.51100000000E-03 0.  1.
        -12    1    3    3    0    0 -0.19608277831E+01 -0.21186903517E+01 -0.23777204016E+00  0.28965893641E+01  0.00000000000E+00 0.  1.
</event>
<event>
 7    1  0.2458979E-009  0.4778727E+02  0.7816164E-02  0.1312668E+00
        -11   -1    0    0    0    0  0.00000000000E+00  0.00000000000E+00  0.45593999997E+02  0.45594000000E+02  0.51100000000E-03 0.  1.
         11   -1    0    0    0    0 -0.00000000000E+00 -0.00000000000E+00 -0.45593999997E+02  0.45594000000E+02  0.51100000000E-03 0. -1.
    9900012    2    1    2    0    0  0.37522430722E+02  0.36306602063E+01 -0.21506021739E+02  0.47787268763E+02  0.19999989599E+02 0.  0.
        -12    1    1    2    0    0 -0.37522430722E+02 -0.36306602063E+01  0.21506021739E+02  0.43400731237E+02  0.00000000000E+00 0.  1.
         11    1    3    3    0    0  0.31851019759E+02  0.14196951056E+01 -0.11959824562E+02  0.34052024870E+02  0.51100000000E-03 0. -1.
        -11    1    3    3    0    0  0.39224713960E+01  0.49093683748E+01 -0.44154268555E+01  0.76800829598E+01  0.51100000000E-03 0.  1.
         12    1    3    3    0    0  0.17489395668E+01 -0.26984032741E+01 -0.51307703221E+01  0.60551609339E+01  0.00000000000E+00 0. -1.
</event>
<event>
 7    1  0.2458979E-009  0.4778727E+02  0.7816164E-02  0.1312668E+00
        -11   -1    0    0    0    0  0.00000000000E+00  0.00000000000E+00  0.45593999997E+02  0.45594000000E+02  0.51100000000E-03 0.  1.
         11   -1    0    0    0    0 -0.00000000000E+00 -0.00000000000E+00 -0.45593999997E+02  0.45594000000E+02  0.51100000000E-03 0. -1.
    9900012    2    1    2    0    0  0.31492403248E+02  0.16011762881E+02 -0.25208632678E+02  0.47787272191E+02  0.20000005227E+02 0.  0.
        -12    1    1    2    0    0 -0.31492403248E+02 -0.16011762881E+02  0.25208632678E+02  0.43400727809E+02  0.00000000000E+00 0.  1.
         11    1    3    3    0    0  0.17047477222E+02  0.93551641345E+01 -0.25351199338E+01  0.19610262848E+02  0.51100000000E-03 0. -1.
        -11    1    3    3    0    0  0.14136646375E+02  0.60000489923E+01 -0.22749344460E+02  0.27447732735E+02  0.51100000000E-03 0.  1.
        -12    1    3    3    0    0  0.30827964995E+00  0.65654975416E+00  0.75831715560E-01  0.72927660825E+00  0.00000000000E+00 0.  1.
</event>
<event>
 7    1  0.2458979E-009  0.4778727E+02  0.7816164E-02  0.1312668E+00
        -11   -1    0    0    0    0  0.00000000000E+00  0.00000000000E+00  0.45593999997E+02  0.45594000000E+02  0.51100000000E-03 0. -1.
         11   -1    0    0    0    0 -0.00000000000E+00 -0.00000000000E+00 -0.45593999997E+02  0.45594000000E+02  0.51100000000E-03 0.  1.
    9900012    2    1    2    0    0  0.29966774010E+01 -0.81782803890E+01  0.42517749657E+02  0.47787269805E+02  0.19999994347E+02 0.  0.
        -12    1    1    2    0    0 -0.29966774010E+01  0.81782803890E+01 -0.42517749657E+02  0.43400730195E+02  0.00000000000E+00 0.  1.
         11    1    3    3    0    0 -0.23024679980E+01 -0.63868864686E+01  0.66509669743E+01  0.95041590685E+01  0.51100000000E-03 0. -1.
        -11    1    3    3    0    0 -0.10620015123E+01 -0.19818132131E+01  0.44229585053E+00  0.22915184277E+01  0.51100000000E-03 0.  1.
         12    1    3    3    0    0  0.63611469114E+01  0.19041929269E+00  0.35424486833E+02  0.35991592308E+02  0.00000000000E+00 0. -1.
</event>
<event>
 7    1  0.2458979E-009  0.4778726E+02  0.7816164E-02  0.1312668E+00
        -11   -1    0    0    0    0  0.00000000000E+00  0.00000000000E+00  0.45593999997E+02  0.45594000000E+02  0.51100000000E-03 0.  1.
         11   -1    0    0    0    0 -0.00000000000E+00 -0.00000000000E+00 -0.45593999997E+02  0.45594000000E+02  0.51100000000E-03 0. -1.
    9900012    2    1    2    0    0  0.12683759816E+01 -0.25937182031E+02 -0.34774673857E+02  0.47787261168E+02  0.19999954969E+02 0.  0.
        -12    1    1    2    0    0 -0.12683759816E+01  0.25937182031E+02  0.34774673857E+02  0.43400738832E+02  0.00000000000E+00 0.  1.
         11    1    3    3    0    0  0.85428807778E+01 -0.73729166840E+01 -0.17434259666E+02  0.20767621981E+02  0.51100000000E-03 0. -1.
        -11    1    3    3    0    0 -0.23848615404E+01 -0.13223892155E+02 -0.12090650483E+02  0.18076026047E+02  0.51100000000E-03 0.  1.
         12    1    3    3    0    0 -0.48896432559E+01 -0.53403731914E+01 -0.52497637081E+01  0.89436131392E+01  0.00000000000E+00 0. -1.
</event>
<event>
 7    1  0.2458979E-009  0.4778727E+02  0.7816164E-02  0.1312668E+00
        -11   -1    0    0    0    0  0.00000000000E+00  0.00000000000E+00  0.45593999997E+02  0.45594000000E+02  0.51100000000E-03 0.  1.
         11   -1    0    0    0    0 -0.00000000000E+00 -0.00000000000E+00 -0.45593999997E+02  0.45594000000E+02  0.51100000000E-03 0. -1.
    9900012    2    1    2    0    0  0.16304211987E+02  0.14042716180E+02 -0.37690823988E+02  0.47787269371E+02  0.19999992372E+02 0.  0.
        -12    1    1    2    0    0 -0.16304211987E+02 -0.14042716180E+02  0.37690823988E+02  0.43400730629E+02  0.00000000000E+00 0.  1.
         11    1    3    3    0    0  0.57438185473E+01  0.24461922420E+01 -0.29114861382E+02  0.29776676469E+02  0.51100000000E-03 0. -1.
        -11    1    3    3    0    0  0.35284410329E+01  0.46831429680E+01 -0.21745078875E+01  0.62538155550E+01  0.51100000000E-03 0.  1.
         12    1    3    3    0    0  0.70319524066E+01  0.69133809703E+01 -0.64014547186E+01  0.11756777348E+02  0.00000000000E+00 0. -1.
</event>
<event>
 7    1  0.2458979E-009  0.4778728E+02  0.7816164E-02  0.1312668E+00
        -11   -1    0    0    0    0  0.00000000000E+00  0.00000000000E+00  0.45593999997E+02  0.45594000000E+02  0.51100000000E-03 0. -1.
         11   -1    0    0    0    0 -0.00000000000E+00 -0.00000000000E+00 -0.45593999997E+02  0.45594000000E+02  0.51100000000E-03 0.  1.
    9900012    2    1    2    0    0 -0.38484684551E+02 -0.22199603725E+01  0.19940499406E+02  0.47787277822E+02  0.20000030901E+02 0.  0.
        -12    1    1    2    0    0  0.38484684551E+02  0.22199603725E+01 -0.19940499406E+02  0.43400722178E+02  0.00000000000E+00 0.  1.
         11    1    3    3    0    0 -0.35825314343E+01 -0.22843547371E+01  0.44683625318E+01  0.61659607540E+01  0.51100000000E-03 0. -1.
        -11    1    3    3    0    0  0.14413810450E+01  0.38204418282E+00 -0.91862057716E+00  0.17513997546E+01  0.51100000000E-03 0.  1.
        -12    1    3    3    0    0 -0.36343534161E+02 -0.31764981820E+00  0.16390757452E+02  0.39869917313E+02  0.00000000000E+00 0.  1.
</event>
<event>
 7    1  0.2458979E-009  0.4778727E+02  0.7816164E-02  0.1312668E+00
        -11   -1    0    0    0    0  0.00000000000E+00  0.00000000000E+00  0.45593999997E+02  0.45594000000E+02  0.51100000000E-03 0.  1.
         11   -1    0    0    0    0 -0.00000000000E+00 -0.00000000000E+00 -0.45593999997E+02  0.45594000000E+02  0.51100000000E-03 0. -1.
    9900012    2    1    2    0    0  0.93460109847E+01 -0.33228873626E+02 -0.26308121176E+02  0.47787271854E+02  0.20000003692E+02 0.  0.
        -12    1    1    2    0    0 -0.93460109847E+01  0.33228873626E+02  0.26308121176E+02  0.43400728146E+02  0.00000000000E+00 0.  1.
         11    1    3    3    0    0  0.92424873662E+01 -0.60260943107E+01 -0.89104248266E+01  0.14182138633E+02  0.51100000000E-03 0. -1.
        -11    1    3    3    0    0 -0.35644957478E+01 -0.63247289604E+01 -0.24312124413E+01  0.76562798116E+01  0.51100000000E-03 0.  1.
         12    1    3    3    0    0  0.36680193663E+01 -0.20878050355E+02 -0.14966483908E+02  0.25948853409E+02  0.00000000000E+00 0. -1.
</event>
<event>
 7    1  0.2458979E-009  0.4778727E+02  0.7816164E-02  0.1312668E+00
        -11   -1    0    0    0    0  0.00000000000E+00  0.00000000000E+00  0.45593999997E+02  0.45594000000E+02  0.51100000000E-03 0.  1.
         11   -1    0    0    0    0 -0.00000000000E+00 -0.00000000000E+00 -0.45593999997E+02  0.45594000000E+02  0.51100000000E-03 0. -1.
    9900012    2    1    2    0    0 -0.21200990662E+02 -0.37869948976E+02  0.91398547211E-01  0.47787269659E+02  0.19999993682E+02 0.  0.
        -12    1    1    2    0    0  0.21200990662E+02  0.37869948976E+02 -0.91398547211E-01  0.43400730341E+02  0.00000000000E+00 0.  1.
         11    1    3    3    0    0 -0.13914447110E+02 -0.21777039598E+02 -0.25138448497E+01  0.25964797480E+02  0.51100000000E-03 0. -1.
        -11    1    3    3    0    0 -0.63687728961E+01 -0.16594752592E+01  0.32610297707E+01  0.73450283706E+01  0.51100000000E-03 0.  1.
        -12    1    3    3    0    0 -0.91777065576E+00 -0.14433434119E+02 -0.65578637383E+00  0.14477443808E+02  0.00000000000E+00 0.  1.
</event>
<event>
 7    1  0.2458979E-009  0.4778728E+02  0.7816164E-02  0.1312668E+00
        -11   -1    0    0    0    0  0.00000000000E+00  0.00000000000E+00  0.45593999997E+02  0.45594000000E+02  0.51100000000E-03 0.  1.
         11   -1    0    0    0    0 -0.00000000000E+00 -0.00000000000E+00 -0.45593999997E+02  0.45594000000E+02  0.51100000000E-03 0. -1.
    9900012    2    1    2    0    0  0.40991735208E+02 -0.41981866128E+01  0.13626262465E+02  0.47787283935E+02  0.20000058771E+02 0.  0.
        -12    1    1    2    0    0 -0.40991735208E+02  0.41981866128E+01 -0.13626262465E+02  0.43400716065E+02  0.00000000000E+00 0.  1.
         11    1    3    3    0    0  0.10055518398E+02 -0.61477792165E+01  0.67033473106E+01  0.13558890256E+02  0.51100000000E-03 0. -1.
        -11    1    3    3    0    0 -0.44385213298E+00 -0.30087252267E+00  0.23821221378E+01  0.24417278987E+01  0.51100000000E-03 0.  1.
         12    1    3    3    0    0  0.31380068943E+02  0.22504651264E+01  0.45407930165E+01  0.31786665780E+02  0.00000000000E+00 0. -1.
</event>
<event>
 7    1  0.2458979E-009  0.4778728E+02  0.7816164E-02  0.1312668E+00
        -11   -1    0    0    0    0  0.00000000000E+00  0.00000000000E+00  0.45593999997E+02  0.45594000000E+02  0.51100000000E-03 0.  1.
         11   -1    0    0    0    0 -0.00000000000E+00 -0.00000000000E+00 -0.45593999997E+02  0.45594000000E+02  0.51100000000E-03 0. -1.
    9900012    2    1    2    0    0  0.32156616696E+02 -0.19688100202E+02 -0.21493102720E+02  0.47787277063E+02  0.20000027442E+02 0.  0.
        -12    1    1    2    0    0 -0.32156616696E+02  0.19688100202E+02  0.21493102720E+02  0.43400722937E+02  0.00000000000E+00 0.  1.
         11    1    3    3    0    0  0.46083155766E+01 -0.86024331098E+01  0.54935561617E+00  0.97744677460E+01  0.51100000000E-03 0.  1.
        -11    1    3    3    0    0  0.18222286581E+02 -0.92242949722E+01 -0.19336364143E+02  0.28125332434E+02  0.51100000000E-03 0. -1.
        -12    1    3    3    0    0  0.93260145381E+01 -0.18613721200E+01 -0.27060941930E+01  0.98874768832E+01  0.00000000000E+00 0.  1.
</event>
<event>
 7    1  0.2458979E-009  0.4778727E+02  0.7816164E-02  0.1312668E+00
        -11   -1    0    0    0    0  0.00000000000E+00  0.00000000000E+00  0.45593999997E+02  0.45594000000E+02  0.51100000000E-03 0. -1.
         11   -1    0    0    0    0 -0.00000000000E+00 -0.00000000000E+00 -0.45593999997E+02  0.45594000000E+02  0.51100000000E-03 0.  1.
    9900012    2    1    2    0    0  0.26228546851E+02  0.28086747404E+02  0.20169807827E+02  0.47787271925E+02  0.20000004014E+02 0.  0.
        -12    1    1    2    0    0 -0.26228546851E+02 -0.28086747404E+02 -0.20169807827E+02  0.43400728075E+02  0.00000000000E+00 0.  1.
         11    1    3    3    0    0  0.14511853909E+02  0.23827894687E+02  0.66702889780E+01  0.28685453185E+02  0.51100000000E-03 0. -1.
        -11    1    3    3    0    0  0.37512865096E+01 -0.10948139738E+01  0.35874091691E+01  0.53047406083E+01  0.51100000000E-03 0.  1.
         12    1    3    3    0    0  0.79654064320E+01  0.53536666911E+01  0.99121096800E+01  0.13797078132E+02  0.00000000000E+00 0. -1.
</event>
<event>
 7    1  0.2458979E-009  0.4778727E+02  0.7816164E-02  0.1312668E+00
        -11   -1    0    0    0    0  0.00000000000E+00  0.00000000000E+00  0.45593999997E+02  0.45594000000E+02  0.51100000000E-03 0.  1.
         11   -1    0    0    0    0 -0.00000000000E+00 -0.00000000000E+00 -0.45593999997E+02  0.45594000000E+02  0.51100000000E-03 0. -1.
    9900012    2    1    2    0    0  0.31207585197E+02  0.11228604633E+02 -0.27993362516E+02  0.47787270965E+02  0.19999999636E+02 0.  0.
        -12    1    1    2    0    0 -0.31207585197E+02 -0.11228604633E+02  0.27993362516E+02  0.43400729035E+02  0.00000000000E+00 0.  1.
         11    1    3    3    0    0  0.30467116016E+02  0.11388008902E+02 -0.18223108936E+02  0.37282886216E+02  0.51100000000E-03 0.  1.
        -11    1    3    3    0    0  0.11540367477E+01  0.91991329245E+00 -0.89888444566E+01  0.91091913037E+01  0.51100000000E-03 0. -1.
        -12    1    3    3    0    0 -0.41356756648E+00 -0.10793175610E+01 -0.78140912349E+00  0.13951934446E+01  0.00000000000E+00 0.  1.
</event>
<event>
 7    1  0.2458979E-009  0.4778727E+02  0.7816164E-02  0.1312668E+00
        -11   -1    0    0    0    0  0.00000000000E+00  0.00000000000E+00  0.45593999997E+02  0.45594000000E+02  0.51100000000E-03 0.  1.
         11   -1    0    0    0    0 -0.00000000000E+00 -0.00000000000E+00 -0.45593999997E+02  0.45594000000E+02  0.51100000000E-03 0. -1.
    9900012    2    1    2    0    0  0.85705445133E+00 -0.14163862656E+02 -0.41015530206E+02  0.47787271138E+02  0.20000000427E+02 0.  0.
        -12    1    1    2    0    0 -0.85705445133E+00  0.14163862656E+02  0.41015530206E+02  0.43400728862E+02  0.00000000000E+00 0.  1.
         11    1    3    3    0    0  0.21656559656E+01  0.10113942629E+01 -0.25352153182E-01  0.23903194575E+01  0.51100000000E-03 0.  1.
        -11    1    3    3    0    0 -0.23127873420E+01 -0.14609642959E+02 -0.41558190438E+02  0.44112060091E+02  0.51100000000E-03 0. -1.
         12    1    3    3    0    0  0.10041858277E+01 -0.56561395915E+00  0.56801238544E+00  0.12848915897E+01  0.00000000000E+00 0. -1.
</event>
<event>
 7    1  0.2458979E-009  0.4778727E+02  0.7816164E-02  0.1312668E+00
        -11   -1    0    0    0    0  0.00000000000E+00  0.00000000000E+00  0.45593999997E+02  0.45594000000E+02  0.51100000000E-03 0.  1.
         11   -1    0    0    0    0 -0.00000000000E+00 -0.00000000000E+00 -0.45593999997E+02  0.45594000000E+02  0.51100000000E-03 0. -1.
    9900012    2    1    2    0    0 -0.16781455542E+02  0.12576771482E+02 -0.37997773840E+02  0.47787271345E+02  0.20000001369E+02 0.  0.
        -12    1    1    2    0    0  0.16781455542E+02 -0.12576771482E+02  0.37997773840E+02  0.43400728655E+02  0.00000000000E+00 0.  1.
         11    1    3    3    0    0 -0.70265362109E+01 -0.50007380160E+01 -0.12243417473E+02  0.14976009599E+02  0.51100000000E-03 0. -1.
        -11    1    3    3    0    0 -0.56909918439E+01  0.12205307718E+02 -0.15389573252E+02  0.20449838380E+02  0.51100000000E-03 0.  1.
         12    1    3    3    0    0 -0.40639274868E+01  0.53722017804E+01 -0.10364783115E+02  0.12361423365E+02  0.00000000000E+00 0. -1.
</event>
<event>
 7    1  0.2458979E-009  0.4778728E+02  0.7816164E-02  0.1312668E+00
        -11   -1    0    0    0    0  0.00000000000E+00  0.00000000000E+00  0.45593999997E+02  0.45594000000E+02  0.51100000000E-03 0.  1.
         11   -1    0    0    0    0 -0.00000000000E+00 -0.00000000000E+00 -0.45593999997E+02  0.45594000000E+02  0.51100000000E-03 0. -1.
    9900012    2    1    2    0    0  0.35918957211E+02 -0.55616487661E+01 -0.23717478178E+02  0.47787283471E+02  0.20000056656E+02 0.  0.
        -12    1    1    2    0    0 -0.35918957211E+02  0.55616487661E+01  0.23717478178E+02  0.43400716529E+02  0.00000000000E+00 0.  1.
         11    1    3    3    0    0  0.25670570575E+02 -0.32004226115E+01 -0.61218856524E+01  0.26583799253E+02  0.51100000000E-03 0. -1.
        -11    1    3    3    0    0  0.56702041383E+01 -0.34290812631E+01 -0.13188821289E+02  0.14759905844E+02  0.51100000000E-03 0.  1.
        -12    1    3    3    0    0  0.45781824980E+01  0.10678551084E+01 -0.44067712368E+01  0.64435783732E+01  0.00000000000E+00 0.  1.
</event>
<event>
 7    1  0.2458979E-009  0.4778727E+02  0.7816164E-02  0.1312668E+00
        -11   -1    0    0    0    0  0.00000000000E+00  0.00000000000E+00  0.45593999997E+02  0.45594000000E+02  0.51100000000E-03 0.  1.
         11   -1    0    0    0    0 -0.00000000000E+00 -0.00000000000E+00 -0.45593999997E+02  0.45594000000E+02  0.51100000000E-03 0. -1.
    9900012    2    1    2    0    0 -0.23725101562E+02 -0.30228136757E+02 -0.20174299104E+02  0.47787273736E+02  0.20000012271E+02 0.  0.
        -12    1    1    2    0    0  0.23725101562E+02  0.30228136757E+02  0.20174299104E+02  0.43400726264E+02  0.00000000000E+00 0.  1.
         11    1    3    3    0    0 -0.69129733351E+01 -0.18899955476E+02 -0.42582781227E+01  0.20570134909E+02  0.51100000000E-03 0. -1.
        -11    1    3    3    0    0 -0.84149195551E+01 -0.28975528696E+01 -0.24166341234E+01  0.92220824383E+01  0.51100000000E-03 0.  1.
         12    1    3    3    0    0 -0.83972086717E+01 -0.84306284110E+01 -0.13499386858E+02  0.17995056388E+02  0.00000000000E+00 0. -1.
</event>
<event>
 7    1  0.2458979E-009  0.4778727E+02  0.7816164E-02  0.1312668E+00
        -11   -1    0    0    0    0  0.00000000000E+00  0.00000000000E+00  0.45593999997E+02  0.45594000000E+02  0.51100000000E-03 0. -1.
         11   -1    0    0    0    0 -0.00000000000E+00 -0.00000000000E+00 -0.45593999997E+02  0.45594000000E+02  0.51100000000E-03 0.  1.
    9900012    2    1    2    0    0 -0.36869131764E+02 -0.22599607445E+02  0.36808127640E+01  0.47787268251E+02  0.19999987265E+02 0.  0.
        -12    1    1    2    0    0  0.36869131764E+02  0.22599607445E+02 -0.36808127640E+01  0.43400731749E+02  0.00000000000E+00 0.  1.
         11    1    3    3    0    0 -0.19603531666E+02 -0.11085298533E+02  0.82368846513E+00  0.22535766246E+02  0.51100000000E-03 0. -1.
        -11    1    3    3    0    0 -0.29054201479E+01  0.17574622566E+01 -0.33161725878E+01  0.47462765103E+01  0.51100000000E-03 0.  1.
        -12    1    3    3    0    0 -0.14360179950E+02 -0.13271771168E+02  0.61732968867E+01  0.20505225495E+02  0.00000000000E+00 0.  1.
</event>
<event>
 7    1  0.2458979E-009  0.4778727E+02  0.7816164E-02  0.1312668E+00
        -11   -1    0    0    0    0  0.00000000000E+00  0.00000000000E+00  0.45593999997E+02  0.45594000000E+02  0.51100000000E-03 0.  1.
         11   -1    0    0    0    0 -0.00000000000E+00 -0.00000000000E+00 -0.45593999997E+02  0.45594000000E+02  0.51100000000E-03 0. -1.
    9900012    2    1    2    0    0 -0.23170137862E+02 -0.11965814669E+00 -0.36698142794E+02  0.47787270846E+02  0.19999999093E+02 0.  0.
        -12    1    1    2    0    0  0.23170137862E+02  0.11965814669E+00  0.36698142794E+02  0.43400729154E+02  0.00000000000E+00 0.  1.
         11    1    3    3    0    0 -0.12713977609E+02 -0.45004314734E+01 -0.32598547769E+02  0.35278384699E+02  0.51100000000E-03 0. -1.
        -11    1    3    3    0    0 -0.20263465890E+01  0.23873860635E+01 -0.73805228296E+00  0.32172059537E+01  0.51100000000E-03 0.  1.
         12    1    3    3    0    0 -0.84298136642E+01  0.19933872632E+01 -0.33615427418E+01  0.92916801925E+01  0.00000000000E+00 0. -1.
</event>
<event>
 7    1  0.2458979E-009  0.4778727E+02  0.7816164E-02  0.1312668E+00
        -11   -1    0    0    0    0  0.00000000000E+00  0.00000000000E+00  0.45593999997E+02  0.45594000000E+02  0.51100000000E-03 0. -1.
         11   -1    0    0    0    0 -0.00000000000E+00 -0.00000000000E+00 -0.45593999997E+02  0.45594000000E+02  0.51100000000E-03 0.  1.
    9900012    2    1    2    0    0  0.35764168092E+02 -0.14595228156E+02 -0.19787036144E+02  0.47787271854E+02  0.20000003690E+02 0.  0.
        -12    1    1    2    0    0 -0.35764168092E+02  0.14595228156E+02  0.19787036144E+02  0.43400728146E+02  0.00000000000E+00 0.  1.
         11    1    3    3    0    0  0.21701497568E+02 -0.39668373420E+00 -0.14180268787E+02  0.25926673096E+02  0.51100000000E-03 0. -1.
        -11    1    3    3    0    0  0.14565056417E+01 -0.38156324436E+01  0.10619286122E+01  0.42199706477E+01  0.51100000000E-03 0.  1.
         12    1    3    3    0    0  0.12606164883E+02 -0.10382911978E+02 -0.66686959685E+01  0.17640628110E+02  0.00000000000E+00 0. -1.
</event>
<event>
 7    1  0.2458979E-009  0.4778727E+02  0.7816164E-02  0.1312668E+00
        -11   -1    0    0    0    0  0.00000000000E+00  0.00000000000E+00  0.45593999997E+02  0.45594000000E+02  0.51100000000E-03 0.  1.
         11   -1    0    0    0    0 -0.00000000000E+00 -0.00000000000E+00 -0.45593999997E+02  0.45594000000E+02  0.51100000000E-03 0. -1.
    9900012    2    1    2    0    0 -0.40229921428E+02  0.56824204910E+01  0.15260624705E+02  0.47787272505E+02  0.20000006657E+02 0.  0.
        -12    1    1    2    0    0  0.40229921428E+02 -0.56824204910E+01 -0.15260624705E+02  0.43400727495E+02  0.00000000000E+00 0.  1.
         11    1    3    3    0    0 -0.64806356395E+01 -0.64415082257E+00 -0.35815812865E+01  0.74324486778E+01  0.51100000000E-03 0. -1.
        -11    1    3    3    0    0 -0.33233498578E+01 -0.80414077567E+00 -0.70963613578E+00  0.34921168896E+01  0.51100000000E-03 0.  1.
        -12    1    3    3    0    0 -0.30425935931E+02  0.71307120893E+01  0.19551842127E+02  0.36862706937E+02  0.00000000000E+00 0.  1.
</event>
<event>
 7    1  0.2458979E-009  0.4778727E+02  0.7816164E-02  0.1312668E+00
        -11   -1    0    0    0    0  0.00000000000E+00  0.00000000000E+00  0.45593999997E+02  0.45594000000E+02  0.51100000000E-03 0.  1.
         11   -1    0    0    0    0 -0.00000000000E+00 -0.00000000000E+00 -0.45593999997E+02  0.45594000000E+02  0.51100000000E-03 0. -1.
    9900012    2    1    2    0    0 -0.33382532967E+02 -0.43811757749E+01 -0.27386767058E+02  0.47787271684E+02  0.20000002914E+02 0.  0.
        -12    1    1    2    0    0  0.33382532967E+02  0.43811757749E+01  0.27386767058E+02  0.43400728316E+02  0.00000000000E+00 0.  1.
         11    1    3    3    0    0 -0.43534383824E+01 -0.15484719514E+00 -0.55409533255E+01  0.70483024495E+01  0.51100000000E-03 0. -1.
        -11    1    3    3    0    0 -0.26007625542E+02 -0.59072448755E+01 -0.24627305456E+02  0.36301464194E+02  0.51100000000E-03 0.  1.
        -12    1    3    3    0    0 -0.30214690429E+01  0.16809162957E+01  0.27814917234E+01  0.44375050397E+01  0.00000000000E+00 0.  1.
</event>
<event>
 7    1  0.2458979E-009  0.4778727E+02  0.7816164E-02  0.1312668E+00
        -11   -1    0    0    0    0  0.00000000000E+00  0.00000000000E+00  0.45593999997E+02  0.45594000000E+02  0.51100000000E-03 0.  1.
         11   -1    0    0    0    0 -0.00000000000E+00 -0.00000000000E+00 -0.45593999997E+02  0.45594000000E+02  0.51100000000E-03 0. -1.
    9900012    2    1    2    0    0 -0.12420553544E+01 -0.10447804776E+02 -0.42106103128E+02  0.47787271356E+02  0.20000001423E+02 0.  0.
        -12    1    1    2    0    0  0.12420553544E+01  0.10447804776E+02  0.42106103128E+02  0.43400728644E+02  0.00000000000E+00 0.  1.
         11    1    3    3    0    0  0.62091847768E+00 -0.32109647143E+01 -0.33482872734E+01  0.46804766935E+01  0.51100000000E-03 0. -1.
        -11    1    3    3    0    0  0.60525497849E+01 -0.75781404898E+01 -0.28754077955E+02  0.30345651607E+02  0.51100000000E-03 0.  1.
        -12    1    3    3    0    0 -0.79155236170E+01  0.34130042779E+00 -0.10003737900E+02  0.12761143056E+02  0.00000000000E+00 0.  1.
</event>
<event>
 7    1  0.2458979E-009  0.4778727E+02  0.7816164E-02  0.1312668E+00
        -11   -1    0    0    0    0  0.00000000000E+00  0.00000000000E+00  0.45593999997E+02  0.45594000000E+02  0.51100000000E-03 0.  1.
         11   -1    0    0    0    0 -0.00000000000E+00 -0.00000000000E+00 -0.45593999997E+02  0.45594000000E+02  0.51100000000E-03 0. -1.
    9900012    2    1    2    0    0  0.37931350884E+02  0.20209055081E+02  0.60357402131E+01  0.47787269049E+02  0.19999990900E+02 0.  0.
        -12    1    1    2    0    0 -0.37931350884E+02 -0.20209055081E+02 -0.60357402131E+01  0.43400730951E+02  0.00000000000E+00 0.  1.
         11    1    3    3    0    0  0.23195845118E+02  0.16657936375E+02 -0.33643837179E+01  0.28755054391E+02  0.51100000000E-03 0. -1.
        -11    1    3    3    0    0  0.12718660426E+01  0.11432514831E+01  0.39586523692E+01  0.43122611267E+01  0.51100000000E-03 0.  1.
         12    1    3    3    0    0  0.13463639724E+02  0.24078672236E+01  0.54414715618E+01  0.14719953531E+02  0.00000000000E+00 0. -1.
</event>
<event>
 7    1  0.2458979E-009  0.4778727E+02  0.7816164E-02  0.1312668E+00
        -11   -1    0    0    0    0  0.00000000000E+00  0.00000000000E+00  0.45593999997E+02  0.45594000000E+02  0.51100000000E-03 0.  1.
         11   -1    0    0    0    0 -0.00000000000E+00 -0.00000000000E+00 -0.45593999997E+02  0.45594000000E+02  0.51100000000E-03 0. -1.
    9900012    2    1    2    0    0  0.84920724028E+01  0.96768432348E+01 -0.41447153443E+02  0.47787272850E+02  0.20000008231E+02 0.  0.
        -12    1    1    2    0    0 -0.84920724028E+01 -0.96768432348E+01  0.41447153443E+02  0.43400727150E+02  0.00000000000E+00 0.  1.
         11    1    3    3    0    0  0.51095185724E+01  0.82398561435E+01 -0.36855891950E+02  0.38109830504E+02  0.51100000000E-03 0. -1.
        -11    1    3    3    0    0  0.38883345798E+01  0.21709932653E+01  0.52492423035E+00  0.44841836794E+01  0.51100000000E-03 0.  1.
        -12    1    3    3    0    0 -0.50578074944E+00 -0.73400617406E+00 -0.51161857225E+01  0.51932586665E+01  0.00000000000E+00 0.  1.
</event>
<event>
 7    1  0.2458979E-009  0.4778726E+02  0.7816164E-02  0.1312668E+00
        -11   -1    0    0    0    0  0.00000000000E+00  0.00000000000E+00  0.45593999997E+02  0.45594000000E+02  0.51100000000E-03 0.  1.
         11   -1    0    0    0    0 -0.00000000000E+00 -0.00000000000E+00 -0.45593999997E+02  0.45594000000E+02  0.51100000000E-03 0. -1.
    9900012    2    1    2    0    0 -0.68803046090E+01  0.40969184763E+02  0.12562310294E+02  0.47787258860E+02  0.19999944444E+02 0.  0.
        -12    1    1    2    0    0  0.68803046090E+01 -0.40969184763E+02 -0.12562310294E+02  0.43400741140E+02  0.00000000000E+00 0.  1.
         11    1    3    3    0    0 -0.64011334034E+01  0.36817386181E+01 -0.17602693558E+00  0.73865210921E+01  0.51100000000E-03 0. -1.
        -11    1    3    3    0    0  0.33014716068E+01  0.19927946104E+02  0.95783788274E+01  0.22355493551E+02  0.51100000000E-03 0.  1.
         12    1    3    3    0    0 -0.37806428124E+01  0.17359500040E+02  0.31599584019E+01  0.18045244216E+02  0.00000000000E+00 0. -1.
</event>
<event>
 7    1  0.2458979E-009  0.4778727E+02  0.7816164E-02  0.1312668E+00
        -11   -1    0    0    0    0  0.00000000000E+00  0.00000000000E+00  0.45593999997E+02  0.45594000000E+02  0.51100000000E-03 0.  1.
         11   -1    0    0    0    0 -0.00000000000E+00 -0.00000000000E+00 -0.45593999997E+02  0.45594000000E+02  0.51100000000E-03 0. -1.
    9900012    2    1    2    0    0  0.41687057125E+00 -0.48168995842E+01 -0.43130579919E+02  0.47787271587E+02  0.20000002473E+02 0.  0.
        -12    1    1    2    0    0 -0.41687057125E+00  0.48168995842E+01  0.43130579919E+02  0.43400728413E+02  0.00000000000E+00 0.  1.
         11    1    3    3    0    0  0.16245315498E+01 -0.98705062532E+01 -0.29402398087E+02  0.31057479131E+02  0.51100000000E-03 0. -1.
        -11    1    3    3    0    0 -0.42045394564E+01  0.48416347676E+01 -0.79190660988E+01  0.10189758947E+02  0.51100000000E-03 0.  1.
        -12    1    3    3    0    0  0.29968784779E+01  0.21197190146E+00 -0.58091157325E+01  0.65400335084E+01  0.00000000000E+00 0.  1.
</event>
<event>
 7    1  0.2458979E-009  0.4778727E+02  0.7816164E-02  0.1312668E+00
        -11   -1    0    0    0    0  0.00000000000E+00  0.00000000000E+00  0.45593999997E+02  0.45594000000E+02  0.51100000000E-03 0.  1.
         11   -1    0    0    0    0 -0.00000000000E+00 -0.00000000000E+00 -0.45593999997E+02  0.45594000000E+02  0.51100000000E-03 0. -1.
    9900012    2    1    2    0    0 -0.39636190652E+02  0.16714345073E+02  0.57642247349E+01  0.47787271580E+02  0.20000002441E+02 0.  0.
        -12    1    1    2    0    0  0.39636190652E+02 -0.16714345073E+02 -0.57642247349E+01  0.43400728420E+02  0.00000000000E+00 0.  1.
         11    1    3    3    0    0 -0.42575456886E+01  0.83876638235E+00 -0.47749240209E+01  0.64521410401E+01  0.51100000000E-03 0.  1.
        -11    1    3    3    0    0 -0.29084638447E+02  0.13683526729E+02  0.47200444821E+01  0.32487442458E+02  0.51100000000E-03 0. -1.
         12    1    3    3    0    0 -0.62940065167E+01  0.21920519617E+01  0.58191042737E+01  0.88476880812E+01  0.00000000000E+00 0. -1.
</event>
<event>
 7    1  0.2458979E-009  0.4778727E+02  0.7816164E-02  0.1312668E+00
        -11   -1    0    0    0    0  0.00000000000E+00  0.00000000000E+00  0.45593999997E+02  0.45594000000E+02  0.51100000000E-03 0.  1.
         11   -1    0    0    0    0 -0.00000000000E+00 -0.00000000000E+00 -0.45593999997E+02  0.45594000000E+02  0.51100000000E-03 0. -1.
    9900012    2    1    2    0    0 -0.28305942068E+02 -0.72286833675E+01 -0.32095841473E+02  0.47787271211E+02  0.20000000759E+02 0.  0.
        -12    1    1    2    0    0  0.28305942068E+02  0.72286833675E+01  0.32095841473E+02  0.43400728789E+02  0.00000000000E+00 0.  1.
         11    1    3    3    0    0 -0.14439724438E+02  0.44774047723E+01 -0.12573213755E+02  0.19663125381E+02  0.51100000000E-03 0. -1.
        -11    1    3    3    0    0  0.98537800138E+00  0.41709301715E+00 -0.92646939802E+00  0.14153735186E+01  0.51100000000E-03 0.  1.
         12    1    3    3    0    0 -0.14851595631E+02 -0.12123181157E+02 -0.18596158319E+02  0.26708772312E+02  0.00000000000E+00 0. -1.
</event>
<event>
 7    1  0.2458979E-009  0.4778728E+02  0.7816164E-02  0.1312668E+00
        -11   -1    0    0    0    0  0.00000000000E+00  0.00000000000E+00  0.45593999997E+02  0.45594000000E+02  0.51100000000E-03 0.  1.
         11   -1    0    0    0    0 -0.00000000000E+00 -0.00000000000E+00 -0.45593999997E+02  0.45594000000E+02  0.51100000000E-03 0. -1.
    9900012    2    1    2    0    0  0.11476450399E+02  0.30128579582E+02 -0.29054821760E+02  0.47787275480E+02  0.20000020221E+02 0.  0.
        -12    1    1    2    0    0 -0.11476450399E+02 -0.30128579582E+02  0.29054821760E+02  0.43400724520E+02  0.00000000000E+00 0.  1.
         11    1    3    3    0    0  0.49272674855E+01  0.23635719969E+02 -0.97045455352E+01  0.26021211110E+02  0.51100000000E-03 0. -1.
        -11    1    3    3    0    0  0.23720978743E+01  0.49932385672E+01 -0.10801331137E+02  0.12133755985E+02  0.51100000000E-03 0.  1.
         12    1    3    3    0    0  0.41770850392E+01  0.14996210466E+01 -0.85489450878E+01  0.96323083849E+01  0.00000000000E+00 0. -1.
</event>
<event>
 7    1  0.2458979E-009  0.4778727E+02  0.7816164E-02  0.1312668E+00
        -11   -1    0    0    0    0  0.00000000000E+00  0.00000000000E+00  0.45593999997E+02  0.45594000000E+02  0.51100000000E-03 0.  1.
         11   -1    0    0    0    0 -0.00000000000E+00 -0.00000000000E+00 -0.45593999997E+02  0.45594000000E+02  0.51100000000E-03 0. -1.
    9900012    2    1    2    0    0 -0.27448020810E+02  0.34921407745E+01 -0.33437016208E+02  0.47787274817E+02  0.20000017199E+02 0.  0.
        -12    1    1    2    0    0  0.27448020810E+02 -0.34921407745E+01  0.33437016208E+02  0.43400725183E+02  0.00000000000E+00 0.  1.
         11    1    3    3    0    0 -0.21964481070E+02  0.50833744148E+01 -0.12802440204E+02  0.25926465235E+02  0.51100000000E-03 0. -1.
        -11    1    3    3    0    0 -0.23529059578E+00  0.85074437310E+00 -0.77436126427E+00  0.11742075121E+01  0.51100000000E-03 0.  1.
         12    1    3    3    0    0 -0.52482491438E+01 -0.24419780133E+01 -0.19860214739E+02  0.20686602070E+02  0.00000000000E+00 0. -1.
</event>
<event>
 7    1  0.2458979E-009  0.4778729E+02  0.7816164E-02  0.1312668E+00
        -11   -1    0    0    0    0  0.00000000000E+00  0.00000000000E+00  0.45593999997E+02  0.45594000000E+02  0.51100000000E-03 0.  1.
         11   -1    0    0    0    0 -0.00000000000E+00 -0.00000000000E+00 -0.45593999997E+02  0.45594000000E+02  0.51100000000E-03 0. -1.
    9900012    2    1    2    0    0 -0.58632788958E+00  0.38492210603E+02 -0.20040657046E+02  0.47787285808E+02  0.20000067314E+02 0.  0.
        -12    1    1    2    0    0  0.58632788958E+00 -0.38492210603E+02  0.20040657046E+02  0.43400714192E+02  0.00000000000E+00 0.  1.
         11    1    3    3    0    0 -0.36927412619E+01  0.46935930923E+00 -0.20790340949E+01  0.42636861068E+01  0.51100000000E-03 0. -1.
        -11    1    3    3    0    0 -0.15273366167E+01  0.70799609310E+01 -0.77590972954E+01  0.10614244911E+02  0.51100000000E-03 0.  1.
         12    1    3    3    0    0  0.46337499890E+01  0.30942890363E+02 -0.10202525656E+02  0.32909354791E+02  0.00000000000E+00 0. -1.
</event>
<event>
 7    1  0.2458979E-009  0.4778727E+02  0.7816164E-02  0.1312668E+00
        -11   -1    0    0    0    0  0.00000000000E+00  0.00000000000E+00  0.45593999997E+02  0.45594000000E+02  0.51100000000E-03 0. -1.
         11   -1    0    0    0    0 -0.00000000000E+00 -0.00000000000E+00 -0.45593999997E+02  0.45594000000E+02  0.51100000000E-03 0.  1.
    9900012    2    1    2    0    0 -0.59484744673E+01  0.31344201504E+02  0.29424135407E+02  0.47787273499E+02  0.20000011191E+02 0.  0.
        -12    1    1    2    0    0  0.59484744673E+01 -0.31344201504E+02 -0.29424135407E+02  0.43400726501E+02  0.00000000000E+00 0.  1.
         11    1    3    3    0    0 -0.98544505714E+01  0.19941345306E+02  0.16190901106E+02  0.27512046953E+02  0.51100000000E-03 0. -1.
        -11    1    3    3    0    0  0.31224359696E+01  0.56738925921E+01  0.12958116385E+02  0.14486388233E+02  0.51100000000E-03 0.  1.
         12    1    3    3    0    0  0.78354013442E+00  0.57289636059E+01  0.27511791514E+00  0.57888383124E+01  0.00000000000E+00 0. -1.
</event>
<event>
 7    1  0.2458979E-009  0.4778727E+02  0.7816164E-02  0.1312668E+00
        -11   -1    0    0    0    0  0.00000000000E+00  0.00000000000E+00  0.45593999997E+02  0.45594000000E+02  0.51100000000E-03 0.  1.
         11   -1    0    0    0    0 -0.00000000000E+00 -0.00000000000E+00 -0.45593999997E+02  0.45594000000E+02  0.51100000000E-03 0. -1.
    9900012    2    1    2    0    0  0.18693960401E+01 -0.13481732264E+01 -0.43339488552E+02  0.47787268664E+02  0.19999989145E+02 0.  0.
        -12    1    1    2    0    0 -0.18693960401E+01  0.13481732264E+01  0.43339488552E+02  0.43400731336E+02  0.00000000000E+00 0.  1.
         11    1    3    3    0    0  0.14007871055E+01 -0.59606087140E+01 -0.21978063339E+02  0.22815046114E+02  0.51100000000E-03 0. -1.
        -11    1    3    3    0    0 -0.46983482200E+01  0.25246117160E+01 -0.38030167460E+01  0.65506546958E+01  0.51100000000E-03 0.  1.
         12    1    3    3    0    0  0.51669571546E+01  0.20878237717E+01 -0.17558408466E+02  0.18421567854E+02  0.00000000000E+00 0. -1.
</event>
<event>
 7    1  0.2458979E-009  0.4778727E+02  0.7816164E-02  0.1312668E+00
        -11   -1    0    0    0    0  0.00000000000E+00  0.00000000000E+00  0.45593999997E+02  0.45594000000E+02  0.51100000000E-03 0. -1.
         11   -1    0    0    0    0 -0.00000000000E+00 -0.00000000000E+00 -0.45593999997E+02  0.45594000000E+02  0.51100000000E-03 0.  1.
    9900012    2    1    2    0    0  0.25923793822E+02 -0.27616068493E+02 -0.21188039941E+02  0.47787270033E+02  0.19999995389E+02 0.  0.
        -12    1    1    2    0    0 -0.25923793822E+02  0.27616068493E+02  0.21188039941E+02  0.43400729967E+02  0.00000000000E+00 0.  1.
         11    1    3    3    0    0  0.17649536821E+02 -0.21921242736E+02 -0.13053769078E+02  0.31023344766E+02  0.51100000000E-03 0. -1.
        -11    1    3    3    0    0 -0.12386147433E+01 -0.17245245013E+01 -0.58255152906E+01  0.62003854638E+01  0.51100000000E-03 0.  1.
         12    1    3    3    0    0  0.95128717439E+01 -0.39703012555E+01 -0.23087555726E+01  0.10563539803E+02  0.00000000000E+00 0. -1.
</event>
<event>
 7    1  0.2458979E-009  0.4778727E+02  0.7816164E-02  0.1312668E+00
        -11   -1    0    0    0    0  0.00000000000E+00  0.00000000000E+00  0.45593999997E+02  0.45594000000E+02  0.51100000000E-03 0. -1.
         11   -1    0    0    0    0 -0.00000000000E+00 -0.00000000000E+00 -0.45593999997E+02  0.45594000000E+02  0.51100000000E-03 0.  1.
    9900012    2    1    2    0    0 -0.39615433473E+01  0.37194201997E+02  0.22011827854E+02  0.47787273585E+02  0.20000011585E+02 0.  0.
        -12    1    1    2    0    0  0.39615433473E+01 -0.37194201997E+02 -0.22011827854E+02  0.43400726415E+02  0.00000000000E+00 0.  1.
         11    1    3    3    0    0 -0.27257595243E+00 -0.15366515801E+01 -0.66790299337E-01  0.15620681591E+01  0.51100000000E-03 0.  1.
        -11    1    3    3    0    0 -0.95858200383E+00  0.33912446530E+02  0.14636767598E+02  0.36948719533E+02  0.51100000000E-03 0. -1.
        -12    1    3    3    0    0 -0.27303853910E+01  0.48184070462E+01  0.74418505551E+01  0.92764858934E+01  0.00000000000E+00 0.  1.
</event>
<event>
 7    1  0.2458979E-009  0.4778727E+02  0.7816164E-02  0.1312668E+00
        -11   -1    0    0    0    0  0.00000000000E+00  0.00000000000E+00  0.45593999997E+02  0.45594000000E+02  0.51100000000E-03 0.  1.
         11   -1    0    0    0    0 -0.00000000000E+00 -0.00000000000E+00 -0.45593999997E+02  0.45594000000E+02  0.51100000000E-03 0. -1.
    9900012    2    1    2    0    0 -0.35730171031E+02 -0.23770770308E+02 -0.64752341278E+01  0.47787270745E+02  0.19999998633E+02 0.  0.
        -12    1    1    2    0    0  0.35730171031E+02  0.23770770308E+02  0.64752341278E+01  0.43400729255E+02  0.00000000000E+00 0.  1.
         11    1    3    3    0    0 -0.10170959471E+02 -0.10421067171E+01 -0.31368063946E+01  0.10694576082E+02  0.51100000000E-03 0. -1.
        -11    1    3    3    0    0 -0.74113163073E+01 -0.12080178417E+02  0.41354046028E+01  0.14763464752E+02  0.51100000000E-03 0.  1.
        -12    1    3    3    0    0 -0.18147895253E+02 -0.10648485173E+02 -0.74738323361E+01  0.22329229910E+02  0.00000000000E+00 0.  1.
</event>
<event>
 7    1  0.2458979E-009  0.4778727E+02  0.7816164E-02  0.1312668E+00
        -11   -1    0    0    0    0  0.00000000000E+00  0.00000000000E+00  0.45593999997E+02  0.45594000000E+02  0.51100000000E-03 0.  1.
         11   -1    0    0    0    0 -0.00000000000E+00 -0.00000000000E+00 -0.45593999997E+02  0.45594000000E+02  0.51100000000E-03 0. -1.
    9900012    2    1    2    0    0 -0.15610985296E+02  0.23376241102E+02 -0.33067686547E+02  0.47787269550E+02  0.19999993186E+02 0.  0.
        -12    1    1    2    0    0  0.15610985296E+02 -0.23376241102E+02  0.33067686547E+02  0.43400730450E+02  0.00000000000E+00 0.  1.
         11    1    3    3    0    0 -0.13294808990E+02  0.55226495522E+01 -0.16875121988E+02  0.22181554195E+02  0.51100000000E-03 0. -1.
        -11    1    3    3    0    0 -0.29785499744E+01  0.18358815613E+02 -0.16343132690E+02  0.24759157034E+02  0.51100000000E-03 0.  1.
        -12    1    3    3    0    0  0.66237366740E+00 -0.50522406240E+00  0.15056813043E+00  0.84655832073E+00  0.00000000000E+00 0.  1.
</event>
<event>
 7    1  0.2458979E-009  0.4778728E+02  0.7816164E-02  0.1312668E+00
        -11   -1    0    0    0    0  0.00000000000E+00  0.00000000000E+00  0.45593999997E+02  0.45594000000E+02  0.51100000000E-03 0. -1.
         11   -1    0    0    0    0 -0.00000000000E+00 -0.00000000000E+00 -0.45593999997E+02  0.45594000000E+02  0.51100000000E-03 0.  1.
    9900012    2    1    2    0    0  0.26586572420E+01  0.40801619482E+02 -0.14552739506E+02  0.47787276068E+02  0.20000022905E+02 0.  0.
        -12    1    1    2    0    0 -0.26586572420E+01 -0.40801619482E+02  0.14552739506E+02  0.43400723932E+02  0.00000000000E+00 0.  1.
         11    1    3    3    0    0  0.21320599200E+01  0.61161061468E+01  0.54427062582E+00  0.64998972820E+01  0.51100000000E-03 0. -1.
        -11    1    3    3    0    0  0.49087380159E+01  0.59945136507E+01  0.14436432263E+01  0.78812441177E+01  0.51100000000E-03 0.  1.
        -12    1    3    3    0    0 -0.43821406940E+01  0.28690999684E+02 -0.16540653358E+02  0.33406134668E+02  0.00000000000E+00 0.  1.
</event>
<event>
 7    1  0.2458979E-009  0.4778727E+02  0.7816164E-02  0.1312668E+00
        -11   -1    0    0    0    0  0.00000000000E+00  0.00000000000E+00  0.45593999997E+02  0.45594000000E+02  0.51100000000E-03 0. -1.
         11   -1    0    0    0    0 -0.00000000000E+00 -0.00000000000E+00 -0.45593999997E+02  0.45594000000E+02  0.51100000000E-03 0.  1.
    9900012    2    1    2    0    0  0.79705130688E+00  0.15048582394E+02  0.40700469633E+02  0.47787270154E+02  0.19999995940E+02 0.  0.
        -12    1    1    2    0    0 -0.79705130688E+00 -0.15048582394E+02 -0.40700469633E+02  0.43400729846E+02  0.00000000000E+00 0.  1.
         11    1    3    3    0    0  0.25327430210E+01 -0.40878312700E+01  0.88842451205E+01  0.10102225662E+02  0.51100000000E-03 0.  1.
        -11    1    3    3    0    0  0.96803108929E+00  0.25957328266E+00  0.26986638823E+01  0.28787583243E+01  0.51100000000E-03 0. -1.
         12    1    3    3    0    0 -0.27037228034E+01  0.18876840381E+02  0.29117560630E+02  0.34806286168E+02  0.00000000000E+00 0. -1.
</event>
<event>
 7    1  0.2458979E-009  0.4778727E+02  0.7816164E-02  0.1312668E+00
        -11   -1    0    0    0    0  0.00000000000E+00  0.00000000000E+00  0.45593999997E+02  0.45594000000E+02  0.51100000000E-03 0.  1.
         11   -1    0    0    0    0 -0.00000000000E+00 -0.00000000000E+00 -0.45593999997E+02  0.45594000000E+02  0.51100000000E-03 0. -1.
    9900012    2    1    2    0    0 -0.39915107267E+02  0.19611179024E+01 -0.16928130689E+02  0.47787269820E+02  0.19999994418E+02 0.  0.
        -12    1    1    2    0    0  0.39915107267E+02 -0.19611179024E+01  0.16928130689E+02  0.43400730180E+02  0.00000000000E+00 0.  1.
         11    1    3    3    0    0 -0.11760539332E+02 -0.64521543799E+01 -0.10198655688E+02  0.16850909756E+02  0.51100000000E-03 0. -1.
        -11    1    3    3    0    0 -0.23430209992E+02  0.44530249223E+01 -0.66953670169E+01  0.24771598878E+02  0.51100000000E-03 0.  1.
        -12    1    3    3    0    0 -0.47243579428E+01  0.39602473600E+01 -0.34107984083E-01  0.61647611859E+01  0.00000000000E+00 0.  1.
</event>
<event>
 7    1  0.2458979E-009  0.4778727E+02  0.7816164E-02  0.1312668E+00
        -11   -1    0    0    0    0  0.00000000000E+00  0.00000000000E+00  0.45593999997E+02  0.45594000000E+02  0.51100000000E-03 0.  1.
         11   -1    0    0    0    0 -0.00000000000E+00 -0.00000000000E+00 -0.45593999997E+02  0.45594000000E+02  0.51100000000E-03 0. -1.
    9900012    2    1    2    0    0  0.33323636061E+02  0.21382157456E+02 -0.17775327565E+02  0.47787266736E+02  0.19999980355E+02 0.  0.
        -12    1    1    2    0    0 -0.33323636061E+02 -0.21382157456E+02  0.17775327565E+02  0.43400733264E+02  0.00000000000E+00 0.  1.
         11    1    3    3    0    0  0.95020661486E+01 -0.16893165143E+01 -0.67524983792E+01  0.11778764197E+02  0.51100000000E-03 0. -1.
        -11    1    3    3    0    0  0.78992620047E+01  0.56126338597E+01  0.53353955106E+00  0.97048783493E+01  0.51100000000E-03 0.  1.
         12    1    3    3    0    0  0.15922307908E+02  0.17458840111E+02 -0.11556368737E+02  0.26303624190E+02  0.00000000000E+00 0. -1.
</event>
<event>
 7    1  0.2458979E-009  0.4778728E+02  0.7816164E-02  0.1312668E+00
        -11   -1    0    0    0    0  0.00000000000E+00  0.00000000000E+00  0.45593999997E+02  0.45594000000E+02  0.51100000000E-03 0.  1.
         11   -1    0    0    0    0 -0.00000000000E+00 -0.00000000000E+00 -0.45593999997E+02  0.45594000000E+02  0.51100000000E-03 0. -1.
    9900012    2    1    2    0    0 -0.18156383203E+02 -0.27335852363E+02 -0.28402812256E+02  0.47787276280E+02  0.20000023869E+02 0.  0.
        -12    1    1    2    0    0  0.18156383203E+02  0.27335852363E+02  0.28402812256E+02  0.43400723720E+02  0.00000000000E+00 0.  1.
         11    1    3    3    0    0 -0.91036290586E+01 -0.26485241301E+02 -0.25089303894E+02  0.37600761149E+02  0.51100000000E-03 0. -1.
        -11    1    3    3    0    0 -0.67665770065E+01 -0.16616482003E+01 -0.14239091059E+01  0.71116212307E+01  0.51100000000E-03 0.  1.
         12    1    3    3    0    0 -0.22861771382E+01  0.81103713905E+00 -0.18895992557E+01  0.30748938998E+01  0.00000000000E+00 0. -1.
</event>
<event>
 7    1  0.2458979E-009  0.4778727E+02  0.7816164E-02  0.1312668E+00
        -11   -1    0    0    0    0  0.00000000000E+00  0.00000000000E+00  0.45593999997E+02  0.45594000000E+02  0.51100000000E-03 0.  1.
         11   -1    0    0    0    0 -0.00000000000E+00 -0.00000000000E+00 -0.45593999997E+02  0.45594000000E+02  0.51100000000E-03 0. -1.
    9900012    2    1    2    0    0 -0.36464105572E+02 -0.17468783911E+02 -0.15774463211E+02  0.47787273093E+02  0.20000009340E+02 0.  0.
        -12    1    1    2    0    0  0.36464105572E+02  0.17468783911E+02  0.15774463211E+02  0.43400726907E+02  0.00000000000E+00 0.  1.
         11    1    3    3    0    0 -0.55273008079E+01  0.29804751288E+01 -0.24226996707E+01  0.67308067993E+01  0.51100000000E-03 0. -1.
        -11    1    3    3    0    0 -0.25035127467E+02 -0.15840203199E+02 -0.53632242978E+01  0.30107039373E+02  0.51100000000E-03 0.  1.
         12    1    3    3    0    0 -0.59016772969E+01 -0.46090558400E+01 -0.79885392427E+01  0.10949426920E+02  0.00000000000E+00 0. -1.
</event>
<event>
 7    1  0.2458979E-009  0.4778732E+02  0.7816164E-02  0.1312668E+00
        -11   -1    0    0    0    0  0.00000000000E+00  0.00000000000E+00  0.45593999997E+02  0.45594000000E+02  0.51100000000E-03 0.  1.
         11   -1    0    0    0    0 -0.00000000000E+00 -0.00000000000E+00 -0.45593999997E+02  0.45594000000E+02  0.51100000000E-03 0. -1.
    9900012    2    1    2    0    0 -0.15502082715E+02  0.17323600260E+02 -0.36649658712E+02  0.47787318229E+02  0.20000215132E+02 0.  0.
        -12    1    1    2    0    0  0.15502082715E+02 -0.17323600260E+02  0.36649658712E+02  0.43400681771E+02  0.00000000000E+00 0.  1.
         11    1    3    3    0    0 -0.10929258905E+02  0.17101257963E+02 -0.18324140508E+02  0.27343661966E+02  0.51100000000E-03 0. -1.
        -11    1    3    3    0    0 -0.49473508394E+01 -0.28910542254E+01 -0.13754876552E+02  0.14900708174E+02  0.51100000000E-03 0.  1.
        -12    1    3    3    0    0  0.37452702863E+00  0.31133965224E+01 -0.45706416522E+01  0.55429480887E+01  0.00000000000E+00 0.  1.
</event>
<event>
 7    1  0.2458979E-009  0.4778727E+02  0.7816164E-02  0.1312668E+00
        -11   -1    0    0    0    0  0.00000000000E+00  0.00000000000E+00  0.45593999997E+02  0.45594000000E+02  0.51100000000E-03 0.  1.
         11   -1    0    0    0    0 -0.00000000000E+00 -0.00000000000E+00 -0.45593999997E+02  0.45594000000E+02  0.51100000000E-03 0. -1.
    9900012    2    1    2    0    0 -0.14399683375E+02 -0.13316687773E+02 -0.38716127934E+02  0.47787267095E+02  0.19999981991E+02 0.  0.
        -12    1    1    2    0    0  0.14399683375E+02  0.13316687773E+02  0.38716127934E+02  0.43400732905E+02  0.00000000000E+00 0.  1.
         11    1    3    3    0    0 -0.92693991592E-02 -0.12132591755E+02 -0.18553594408E+02  0.22168349834E+02  0.51100000000E-03 0. -1.
        -11    1    3    3    0    0 -0.84205592022E+01  0.10818878170E+01 -0.15634904186E+02  0.17791192419E+02  0.51100000000E-03 0.  1.
        -12    1    3    3    0    0 -0.59698547741E+01 -0.22659838345E+01 -0.45276293396E+01  0.78277248418E+01  0.00000000000E+00 0.  1.
</event>
<event>
 7    1  0.2458979E-009  0.4778727E+02  0.7816164E-02  0.1312668E+00
        -11   -1    0    0    0    0  0.00000000000E+00  0.00000000000E+00  0.45593999997E+02  0.45594000000E+02  0.51100000000E-03 0.  1.
         11   -1    0    0    0    0 -0.00000000000E+00 -0.00000000000E+00 -0.45593999997E+02  0.45594000000E+02  0.51100000000E-03 0. -1.
    9900012    2    1    2    0    0  0.30558925645E+02  0.83594602463E+01 -0.29663017972E+02  0.47787272501E+02  0.20000006643E+02 0.  0.
        -12    1    1    2    0    0 -0.30558925645E+02 -0.83594602463E+01  0.29663017972E+02  0.43400727499E+02  0.00000000000E+00 0.  1.
         11    1    3    3    0    0  0.32478795235E+01  0.71149805623E+01 -0.25868269936E+01  0.82379210944E+01  0.51100000000E-03 0. -1.
        -11    1    3    3    0    0  0.13482223129E+02  0.12791906145E+01 -0.19615227847E+02  0.23836187465E+02  0.51100000000E-03 0.  1.
        -12    1    3    3    0    0  0.13828822993E+02 -0.34710930488E-01 -0.74609631319E+01  0.15713163942E+02  0.00000000000E+00 0.  1.
</event>
<event>
 7    1  0.2458979E-009  0.4778727E+02  0.7816164E-02  0.1312668E+00
        -11   -1    0    0    0    0  0.00000000000E+00  0.00000000000E+00  0.45593999997E+02  0.45594000000E+02  0.51100000000E-03 0.  1.
         11   -1    0    0    0    0 -0.00000000000E+00 -0.00000000000E+00 -0.45593999997E+02  0.45594000000E+02  0.51100000000E-03 0. -1.
    9900012    2    1    2    0    0 -0.35415010166E+02 -0.19743195231E+02 -0.15479222399E+02  0.47787273865E+02  0.20000012861E+02 0.  0.
        -12    1    1    2    0    0  0.35415010166E+02  0.19743195231E+02  0.15479222399E+02  0.43400726135E+02  0.00000000000E+00 0.  1.
         11    1    3    3    0    0 -0.12637083344E+02  0.15652058865E+01 -0.66620871418E+01  0.14371122094E+02  0.51100000000E-03 0. -1.
        -11    1    3    3    0    0  0.21833276492E+00 -0.18653001994E+01  0.40568036147E+00  0.19213513075E+01  0.51100000000E-03 0.  1.
         12    1    3    3    0    0 -0.22996259587E+02 -0.19443100918E+02 -0.92228156190E+01  0.31494800463E+02  0.00000000000E+00 0. -1.
</event>
<event>
 7    1  0.2458979E-009  0.4778727E+02  0.7816164E-02  0.1312668E+00
        -11   -1    0    0    0    0  0.00000000000E+00  0.00000000000E+00  0.45593999997E+02  0.45594000000E+02  0.51100000000E-03 0.  1.
         11   -1    0    0    0    0 -0.00000000000E+00 -0.00000000000E+00 -0.45593999997E+02  0.45594000000E+02  0.51100000000E-03 0. -1.
    9900012    2    1    2    0    0 -0.21706337027E+02  0.25673830311E+02 -0.27446541223E+02  0.47787271261E+02  0.20000000988E+02 0.  0.
        -12    1    1    2    0    0  0.21706337027E+02 -0.25673830311E+02  0.27446541223E+02  0.43400728739E+02  0.00000000000E+00 0.  1.
         11    1    3    3    0    0 -0.19109671171E+02  0.20930945618E+02 -0.19715548396E+02  0.34525162788E+02  0.51100000000E-03 0. -1.
        -11    1    3    3    0    0  0.29223689919E+01  0.29656126027E+01 -0.82439818915E+00  0.42443764288E+01  0.51100000000E-03 0.  1.
         12    1    3    3    0    0 -0.55190348479E+01  0.17772720904E+01 -0.69065946377E+01  0.90177320445E+01  0.00000000000E+00 0. -1.
</event>
<event>
 7    1  0.2458979E-009  0.4778728E+02  0.7816164E-02  0.1312668E+00
        -11   -1    0    0    0    0  0.00000000000E+00  0.00000000000E+00  0.45593999997E+02  0.45594000000E+02  0.51100000000E-03 0. -1.
         11   -1    0    0    0    0 -0.00000000000E+00 -0.00000000000E+00 -0.45593999997E+02  0.45594000000E+02  0.51100000000E-03 0.  1.
    9900012    2    1    2    0    0 -0.42279682844E+01 -0.24074293129E+02  0.35863290560E+02  0.47787275176E+02  0.20000018838E+02 0.  0.
        -12    1    1    2    0    0  0.42279682844E+01  0.24074293129E+02 -0.35863290560E+02  0.43400724824E+02  0.00000000000E+00 0.  1.
         11    1    3    3    0    0  0.22676071999E+01 -0.24069000535E+02  0.32080167520E+02  0.40169590209E+02  0.51100000000E-03 0. -1.
        -11    1    3    3    0    0 -0.51155322123E+01 -0.25628332145E+00  0.24316107558E+01  0.56698396878E+01  0.51100000000E-03 0.  1.
         12    1    3    3    0    0 -0.13800432719E+01  0.25099072834E+00  0.13515122838E+01  0.19478452791E+01  0.00000000000E+00 0. -1.
</event>
<event>
 7    1  0.2458979E-009  0.4778727E+02  0.7816164E-02  0.1312668E+00
        -11   -1    0    0    0    0  0.00000000000E+00  0.00000000000E+00  0.45593999997E+02  0.45594000000E+02  0.51100000000E-03 0.  1.
         11   -1    0    0    0    0 -0.00000000000E+00 -0.00000000000E+00 -0.45593999997E+02  0.45594000000E+02  0.51100000000E-03 0. -1.
    9900012    2    1    2    0    0  0.35618243820E+02 -0.21046656736E+02 -0.13114962507E+02  0.47787270811E+02  0.19999998936E+02 0.  0.
        -12    1    1    2    0    0 -0.35618243820E+02  0.21046656736E+02  0.13114962507E+02  0.43400729189E+02  0.00000000000E+00 0.  1.
         11    1    3    3    0    0  0.23887665273E+02 -0.18573468018E+02 -0.14827544938E+02  0.33696444257E+02  0.51100000000E-03 0. -1.
        -11    1    3    3    0    0 -0.35097891438E-02 -0.59625063816E+00  0.21183300578E+01  0.22006475494E+01  0.51100000000E-03 0.  1.
         12    1    3    3    0    0  0.11734088336E+02 -0.18769380795E+01 -0.40574762750E+00  0.11890179005E+02  0.00000000000E+00 0. -1.
</event>
<event>
 7    1  0.2458979E-009  0.4778727E+02  0.7816164E-02  0.1312668E+00
        -11   -1    0    0    0    0  0.00000000000E+00  0.00000000000E+00  0.45593999997E+02  0.45594000000E+02  0.51100000000E-03 0.  1.
         11   -1    0    0    0    0 -0.00000000000E+00 -0.00000000000E+00 -0.45593999997E+02  0.45594000000E+02  0.51100000000E-03 0. -1.
    9900012    2    1    2    0    0 -0.28166295217E+02 -0.17604717722E+02 -0.27934872039E+02  0.47787270189E+02  0.19999996098E+02 0.  0.
        -12    1    1    2    0    0  0.28166295217E+02  0.17604717722E+02  0.27934872039E+02  0.43400729811E+02  0.00000000000E+00 0.  1.
         11    1    3    3    0    0 -0.16872605021E+02 -0.34193662653E+01 -0.41014762261E+01  0.17697428439E+02  0.51100000000E-03 0. -1.
        -11    1    3    3    0    0 -0.16049625406E+01 -0.27857535030E+01 -0.27083417829E+01  0.42037415252E+01  0.51100000000E-03 0.  1.
         12    1    3    3    0    0 -0.96887276555E+01 -0.11399597954E+02 -0.21125054030E+02  0.25886100225E+02  0.00000000000E+00 0. -1.
</event>
<event>
 7    1  0.2458979E-009  0.4778728E+02  0.7816164E-02  0.1312668E+00
        -11   -1    0    0    0    0  0.00000000000E+00  0.00000000000E+00  0.45593999997E+02  0.45594000000E+02  0.51100000000E-03 0.  1.
         11   -1    0    0    0    0 -0.00000000000E+00 -0.00000000000E+00 -0.45593999997E+02  0.45594000000E+02  0.51100000000E-03 0. -1.
    9900012    2    1    2    0    0  0.74990626403E+00  0.21609409974E+02 -0.37631023830E+02  0.47787275198E+02  0.20000018939E+02 0.  0.
        -12    1    1    2    0    0 -0.74990626403E+00 -0.21609409974E+02  0.37631023830E+02  0.43400724802E+02  0.00000000000E+00 0.  1.
         11    1    3    3    0    0  0.80737836806E+01  0.55017907358E+01 -0.98027002191E+01  0.13840108962E+02  0.51100000000E-03 0. -1.
        -11    1    3    3    0    0  0.96821811078E+00  0.14177505184E+01 -0.42590774159E+00  0.17688585325E+01  0.51100000000E-03 0.  1.
         12    1    3    3    0    0 -0.82920955274E+01  0.14689868720E+02 -0.27402415869E+02  0.32178307704E+02  0.00000000000E+00 0. -1.
</event>
<event>
 7    1  0.2458979E-009  0.4778727E+02  0.7816164E-02  0.1312668E+00
        -11   -1    0    0    0    0  0.00000000000E+00  0.00000000000E+00  0.45593999997E+02  0.45594000000E+02  0.51100000000E-03 0. -1.
         11   -1    0    0    0    0 -0.00000000000E+00 -0.00000000000E+00 -0.45593999997E+02  0.45594000000E+02  0.51100000000E-03 0.  1.
    9900012    2    1    2    0    0  0.30940817940E+02  0.29338143635E+02  0.80970810944E+01  0.47787267184E+02  0.19999982398E+02 0.  0.
        -12    1    1    2    0    0 -0.30940817940E+02 -0.29338143635E+02 -0.80970810944E+01  0.43400732816E+02  0.00000000000E+00 0.  1.
         11    1    3    3    0    0  0.23112135014E+02  0.26218049595E+02  0.21972517000E+01  0.35019777623E+02  0.51100000000E-03 0. -1.
        -11    1    3    3    0    0 -0.87942386590E+00 -0.12901357053E+01  0.80758815051E+00  0.17578496397E+01  0.51100000000E-03 0.  1.
         12    1    3    3    0    0  0.87081067924E+01  0.44102297450E+01  0.50922412439E+01  0.11009639921E+02  0.00000000000E+00 0. -1.
</event>
<event>
 7    1  0.2458979E-009  0.4778727E+02  0.7816164E-02  0.1312668E+00
        -11   -1    0    0    0    0  0.00000000000E+00  0.00000000000E+00  0.45593999997E+02  0.45594000000E+02  0.51100000000E-03 0.  1.
         11   -1    0    0    0    0 -0.00000000000E+00 -0.00000000000E+00 -0.45593999997E+02  0.45594000000E+02  0.51100000000E-03 0. -1.
    9900012    2    1    2    0    0  0.35208239768E+02  0.23191150209E+02  0.10304079579E+02  0.47787266694E+02  0.19999980164E+02 0.  0.
        -12    1    1    2    0    0 -0.35208239768E+02 -0.23191150209E+02 -0.10304079579E+02  0.43400733306E+02  0.00000000000E+00 0.  1.
         11    1    3    3    0    0  0.19419399119E+02  0.96060356714E+01  0.43875556077E+01  0.22105194592E+02  0.51100000000E-03 0. -1.
        -11    1    3    3    0    0  0.54017232516E+00  0.43588013049E+01 -0.34157054710E+01  0.55639894934E+01  0.51100000000E-03 0.  1.
        -12    1    3    3    0    0  0.15248668323E+02  0.92263132325E+01  0.93322294421E+01  0.20118082609E+02  0.00000000000E+00 0.  1.
</event>
<event>
 7    1  0.2458979E-009  0.4778725E+02  0.7816164E-02  0.1312668E+00
        -11   -1    0    0    0    0  0.00000000000E+00  0.00000000000E+00  0.45593999997E+02  0.45594000000E+02  0.51100000000E-03 0.  1.
         11   -1    0    0    0    0 -0.00000000000E+00 -0.00000000000E+00 -0.45593999997E+02  0.45594000000E+02  0.51100000000E-03 0. -1.
    9900012    2    1    2    0    0  0.11457201999E+02  0.41788721287E+02 -0.24617975976E+01  0.47787249409E+02  0.19999901355E+02 0.  0.
        -12    1    1    2    0    0 -0.11457201999E+02 -0.41788721287E+02  0.24617975976E+01  0.43400750591E+02  0.00000000000E+00 0.  1.
         11    1    3    3    0    0  0.19562735959E+01  0.19772438975E+02 -0.67862087148E+01  0.20995927662E+02  0.51100000000E-03 0. -1.
        -11    1    3    3    0    0  0.21961418829E+01  0.26571674797E+01  0.50183010924E+01  0.60882611885E+01  0.51100000000E-03 0.  1.
         12    1    3    3    0    0  0.73047865203E+01  0.19359114832E+02 -0.69388997520E+00  0.20703060558E+02  0.00000000000E+00 0. -1.
</event>
<event>
 7    1  0.2458979E-009  0.4778727E+02  0.7816164E-02  0.1312668E+00
        -11   -1    0    0    0    0  0.00000000000E+00  0.00000000000E+00  0.45593999997E+02  0.45594000000E+02  0.51100000000E-03 0. -1.
         11   -1    0    0    0    0 -0.00000000000E+00 -0.00000000000E+00 -0.45593999997E+02  0.45594000000E+02  0.51100000000E-03 0.  1.
    9900012    2    1    2    0    0 -0.35117376261E+02 -0.21294933934E+02  0.14032778207E+02  0.47787271999E+02  0.20000004354E+02 0.  0.
        -12    1    1    2    0    0  0.35117376261E+02  0.21294933934E+02 -0.14032778207E+02  0.43400728001E+02  0.00000000000E+00 0.  1.
         11    1    3    3    0    0 -0.18666173005E+02 -0.82949281600E+01  0.11890457306E+02  0.23635033806E+02  0.51100000000E-03 0. -1.
        -11    1    3    3    0    0 -0.14732247271E+02 -0.12383197446E+02 -0.22682336343E+01  0.19378533813E+02  0.51100000000E-03 0.  1.
         12    1    3    3    0    0 -0.17189559852E+01 -0.61680832819E+00  0.44105545361E+01  0.47737043802E+01  0.00000000000E+00 0. -1.
</event>
<event>
 7    1  0.2458979E-009  0.4778727E+02  0.7816164E-02  0.1312668E+00
        -11   -1    0    0    0    0  0.00000000000E+00  0.00000000000E+00  0.45593999997E+02  0.45594000000E+02  0.51100000000E-03 0.  1.
         11   -1    0    0    0    0 -0.00000000000E+00 -0.00000000000E+00 -0.45593999997E+02  0.45594000000E+02  0.51100000000E-03 0. -1.
    9900012    2    1    2    0    0  0.18900940685E+02  0.18433319048E+02 -0.34446923606E+02  0.47787270100E+02  0.19999995695E+02 0.  0.
        -12    1    1    2    0    0 -0.18900940685E+02 -0.18433319048E+02  0.34446923606E+02  0.43400729900E+02  0.00000000000E+00 0.  1.
         11    1    3    3    0    0  0.17922440599E+02  0.69393401469E+01 -0.27338754786E+02  0.33418196125E+02  0.51100000000E-03 0. -1.
        -11    1    3    3    0    0  0.10641052010E+01  0.67909218505E+01 -0.14750590819E+01  0.70302730399E+01  0.51100000000E-03 0.  1.
        -12    1    3    3    0    0 -0.85605115000E-01  0.47030570505E+01 -0.56331097378E+01  0.73388009357E+01  0.00000000000E+00 0.  1.
</event>
<event>
 7    1  0.2458979E-009  0.4778727E+02  0.7816164E-02  0.1312668E+00
        -11   -1    0    0    0    0  0.00000000000E+00  0.00000000000E+00  0.45593999997E+02  0.45594000000E+02  0.51100000000E-03 0. -1.
         11   -1    0    0    0    0 -0.00000000000E+00 -0.00000000000E+00 -0.45593999997E+02  0.45594000000E+02  0.51100000000E-03 0.  1.
    9900012    2    1    2    0    0  0.12901025425E+02 -0.15820970416E+02  0.38299914027E+02  0.47787274472E+02  0.20000015627E+02 0.  0.
        -12    1    1    2    0    0 -0.12901025425E+02  0.15820970416E+02 -0.38299914027E+02  0.43400725528E+02  0.00000000000E+00 0.  1.
         11    1    3    3    0    0  0.20038460465E+01 -0.80159123117E+01  0.96677227923E+01  0.12717512077E+02  0.51100000000E-03 0. -1.
        -11    1    3    3    0    0  0.12815004695E+02 -0.10608153225E+02  0.21632596426E+02  0.27289677327E+02  0.51100000000E-03 0.  1.
        -12    1    3    3    0    0 -0.19178253168E+01  0.28030951205E+01  0.69995948079E+01  0.77800850686E+01  0.00000000000E+00 0.  1.
</event>
<event>
 7    1  0.2458979E-009  0.4778727E+02  0.7816164E-02  0.1312668E+00
        -11   -1    0    0    0    0  0.00000000000E+00  0.00000000000E+00  0.45593999997E+02  0.45594000000E+02  0.51100000000E-03 0.  1.
         11   -1    0    0    0    0 -0.00000000000E+00 -0.00000000000E+00 -0.45593999997E+02  0.45594000000E+02  0.51100000000E-03 0. -1.
    9900012    2    1    2    0    0 -0.33982905494E+02  0.25671746023E+02 -0.83514576725E+01  0.47787271263E+02  0.20000000997E+02 0.  0.
        -12    1    1    2    0    0  0.33982905494E+02 -0.25671746023E+02  0.83514576725E+01  0.43400728737E+02  0.00000000000E+00 0.  1.
         11    1    3    3    0    0 -0.49706904411E+01  0.82969022421E+01  0.44971685575E+01  0.10666343121E+02  0.51100000000E-03 0.  1.
        -11    1    3    3    0    0 -0.90664577214E+01  0.83597082166E+01 -0.80061142651E+01  0.14703171187E+02  0.51100000000E-03 0. -1.
         12    1    3    3    0    0 -0.19945757331E+02  0.90151355639E+01 -0.48425119648E+01  0.22417756955E+02  0.00000000000E+00 0. -1.
</event>
<event>
 7    1  0.2458979E-009  0.4778727E+02  0.7816164E-02  0.1312668E+00
        -11   -1    0    0    0    0  0.00000000000E+00  0.00000000000E+00  0.45593999997E+02  0.45594000000E+02  0.51100000000E-03 0.  1.
         11   -1    0    0    0    0 -0.00000000000E+00 -0.00000000000E+00 -0.45593999997E+02  0.45594000000E+02  0.51100000000E-03 0. -1.
    9900012    2    1    2    0    0 -0.50996665434E+00 -0.27029043137E+02 -0.33952820583E+02  0.47787271153E+02  0.20000000497E+02 0.  0.
        -12    1    1    2    0    0  0.50996665434E+00  0.27029043137E+02  0.33952820583E+02  0.43400728847E+02  0.00000000000E+00 0.  1.
         11    1    3    3    0    0  0.38191828234E+01 -0.31592483293E+01 -0.82872558991E+01  0.96563770661E+01  0.51100000000E-03 0. -1.
        -11    1    3    3    0    0 -0.60601398939E+01 -0.22268729088E+02 -0.15754630058E+02  0.27943334792E+02  0.51100000000E-03 0.  1.
        -12    1    3    3    0    0  0.17309904162E+01 -0.16010657193E+01 -0.99109346252E+01  0.10187559296E+02  0.00000000000E+00 0.  1.
</event>
<event>
 7    1  0.2458979E-009  0.4778728E+02  0.7816164E-02  0.1312668E+00
        -11   -1    0    0    0    0  0.00000000000E+00  0.00000000000E+00  0.45593999997E+02  0.45594000000E+02  0.51100000000E-03 0.  1.
         11   -1    0    0    0    0 -0.00000000000E+00 -0.00000000000E+00 -0.45593999997E+02  0.45594000000E+02  0.51100000000E-03 0. -1.
    9900012    2    1    2    0    0 -0.34541533035E+02 -0.25896855486E+02 -0.44562119131E+01  0.47787280500E+02  0.20000043112E+02 0.  0.
        -12    1    1    2    0    0  0.34541533035E+02  0.25896855486E+02  0.44562119131E+01  0.43400719500E+02  0.00000000000E+00 0.  1.
         11    1    3    3    0    0 -0.31428892870E+01 -0.33711839526E+01 -0.14929456052E+01  0.48447415982E+01  0.51100000000E-03 0. -1.
        -11    1    3    3    0    0 -0.22975778536E+02 -0.10267907184E+02  0.55992089081E+01  0.25781145396E+02  0.51100000000E-03 0.  1.
        -12    1    3    3    0    0 -0.84228652116E+01 -0.12257764350E+02 -0.85624752160E+01  0.17161393506E+02  0.00000000000E+00 0.  1.
</event>
<event>
 7    1  0.2458979E-009  0.4778727E+02  0.7816164E-02  0.1312668E+00
        -11   -1    0    0    0    0  0.00000000000E+00  0.00000000000E+00  0.45593999997E+02  0.45594000000E+02  0.51100000000E-03 0. -1.
         11   -1    0    0    0    0 -0.00000000000E+00 -0.00000000000E+00 -0.45593999997E+02  0.45594000000E+02  0.51100000000E-03 0.  1.
    9900012    2    1    2    0    0 -0.26488611318E+02  0.34210959867E+02  0.34039659801E+01  0.47787270871E+02  0.19999999209E+02 0.  0.
        -12    1    1    2    0    0  0.26488611318E+02 -0.34210959867E+02 -0.34039659801E+01  0.43400729129E+02  0.00000000000E+00 0.  1.
         11    1    3    3    0    0 -0.23750204620E+02  0.18292099481E+02  0.34160163691E+01  0.30171879143E+02  0.51100000000E-03 0. -1.
        -11    1    3    3    0    0 -0.20051541679E+01  0.16441710402E+02 -0.53841194668E+00  0.16572277208E+02  0.51100000000E-03 0.  1.
        -12    1    3    3    0    0 -0.73325252955E+00 -0.52285001658E+00  0.52636155770E+00  0.10431145198E+01  0.00000000000E+00 0.  1.
</event>
<event>
 7    1  0.2458979E-009  0.4778727E+02  0.7816164E-02  0.1312668E+00
        -11   -1    0    0    0    0  0.00000000000E+00  0.00000000000E+00  0.45593999997E+02  0.45594000000E+02  0.51100000000E-03 0.  1.
         11   -1    0    0    0    0 -0.00000000000E+00 -0.00000000000E+00 -0.45593999997E+02  0.45594000000E+02  0.51100000000E-03 0. -1.
    9900012    2    1    2    0    0  0.23997352600E+02  0.25608458694E+02 -0.25533454434E+02  0.47787269778E+02  0.19999994225E+02 0.  0.
        -12    1    1    2    0    0 -0.23997352600E+02 -0.25608458694E+02  0.25533454434E+02  0.43400730222E+02  0.00000000000E+00 0.  1.
         11    1    3    3    0    0  0.28950199934E+01  0.31939710509E+00 -0.10734953608E+02  0.11123056437E+02  0.51100000000E-03 0. -1.
        -11    1    3    3    0    0  0.95933179938E+01  0.75966364318E+01 -0.35183083536E+01  0.12732601036E+02  0.51100000000E-03 0.  1.
         12    1    3    3    0    0  0.11509014613E+02  0.17692425157E+02 -0.11280192472E+02  0.23931612305E+02  0.00000000000E+00 0. -1.
</event>
<event>
 7    1  0.2610516E-009  0.4778730E+02  0.7816164E-02  0.1312668E+00
        -11   -1    0    0    0    0  0.00000000000E+00  0.00000000000E+00  0.45593999997E+02  0.45594000000E+02  0.51100000000E-03 0. -1.
         11   -1    0    0    0    0 -0.00000000000E+00 -0.00000000000E+00 -0.45593999997E+02  0.45594000000E+02  0.51100000000E-03 0.  1.
    9900012    2    1    2    0    0 -0.42865224003E+02 -0.27983905536E+01 -0.61937677258E+01  0.47787295200E+02  0.20000110133E+02 0.  0.
        -12    1    1    2    0    0  0.42865224003E+02  0.27983905536E+01  0.61937677258E+01  0.43400704800E+02  0.00000000000E+00 0.  1.
         11    1    3    3    0    0 -0.31061534264E+02  0.79441365191E+00 -0.61490527975E+00  0.31077775220E+02  0.51100000000E-03 0. -1.
        -11    1    3    3    0    0  0.20929699181E+00 -0.11966804992E+01  0.19745192303E+01  0.23183131582E+01  0.51100000000E-03 0.  1.
         12    1    3    3    0    0 -0.12012986731E+02 -0.23961237063E+01 -0.75533816763E+01  0.14391206821E+02  0.00000000000E+00 0. -1.
</event>
<event>
 7    1  0.2458979E-009  0.4778727E+02  0.7816164E-02  0.1312668E+00
        -11   -1    0    0    0    0  0.00000000000E+00  0.00000000000E+00  0.45593999997E+02  0.45594000000E+02  0.51100000000E-03 0.  1.
         11   -1    0    0    0    0 -0.00000000000E+00 -0.00000000000E+00 -0.45593999997E+02  0.45594000000E+02  0.51100000000E-03 0. -1.
    9900012    2    1    2    0    0  0.18694424616E+02 -0.39161655920E+02 -0.71166439852E+00  0.47787271062E+02  0.20000000079E+02 0.  0.
        -12    1    1    2    0    0 -0.18694424616E+02  0.39161655920E+02  0.71166439852E+00  0.43400728938E+02  0.00000000000E+00 0.  1.
         11    1    3    3    0    0  0.10676197068E+02 -0.24155115566E+02 -0.59371906457E+01  0.27068450729E+02  0.51100000000E-03 0. -1.
        -11    1    3    3    0    0  0.40359211650E+01 -0.84832599654E+00  0.43363841216E+01  0.59843582913E+01  0.51100000000E-03 0.  1.
        -12    1    3    3    0    0  0.39823063828E+01 -0.14158214358E+02  0.88914212557E+00  0.14734462042E+02  0.00000000000E+00 0.  1.
</event>
<event>
 7    1  0.2458979E-009  0.4778727E+02  0.7816164E-02  0.1312668E+00
        -11   -1    0    0    0    0  0.00000000000E+00  0.00000000000E+00  0.45593999997E+02  0.45594000000E+02  0.51100000000E-03 0. -1.
         11   -1    0    0    0    0 -0.00000000000E+00 -0.00000000000E+00 -0.45593999997E+02  0.45594000000E+02  0.51100000000E-03 0.  1.
    9900012    2    1    2    0    0  0.32339408161E+02 -0.71445384530E+01  0.28048908535E+02  0.47787273970E+02  0.20000013339E+02 0.  0.
        -12    1    1    2    0    0 -0.32339408161E+02  0.71445384530E+01 -0.28048908535E+02  0.43400726030E+02  0.00000000000E+00 0.  1.
         11    1    3    3    0    0  0.61785783386E+01 -0.35081860300E+01  0.54944937306E+01  0.89817404284E+01  0.51100000000E-03 0. -1.
        -11    1    3    3    0    0  0.16669555570E+02 -0.84974251310E+01  0.20836610514E+02  0.28004368494E+02  0.51100000000E-03 0.  1.
        -12    1    3    3    0    0  0.94912742522E+01  0.48610727079E+01  0.17178042904E+01  0.10801165047E+02  0.00000000000E+00 0.  1.
</event>
<event>
 7    1  0.2458979E-009  0.4778727E+02  0.7816164E-02  0.1312668E+00
        -11   -1    0    0    0    0  0.00000000000E+00  0.00000000000E+00  0.45593999997E+02  0.45594000000E+02  0.51100000000E-03 0. -1.
         11   -1    0    0    0    0 -0.00000000000E+00 -0.00000000000E+00 -0.45593999997E+02  0.45594000000E+02  0.51100000000E-03 0.  1.
    9900012    2    1    2    0    0  0.36897713156E+02  0.20128478335E+02  0.10817866978E+02  0.47787272793E+02  0.20000007970E+02 0.  0.
        -12    1    1    2    0    0 -0.36897713156E+02 -0.20128478335E+02 -0.10817866978E+02  0.43400727207E+02  0.00000000000E+00 0.  1.
         11    1    3    3    0    0  0.26154903512E+01 -0.21194435509E+01  0.37179381674E+01  0.50155652942E+01  0.51100000000E-03 0. -1.
        -11    1    3    3    0    0  0.32941455727E+02  0.17618593980E+02  0.64074590800E+01  0.37902636998E+02  0.51100000000E-03 0.  1.
        -12    1    3    3    0    0  0.13407670776E+01  0.46293279056E+01  0.69246973006E+00  0.48690705007E+01  0.00000000000E+00 0.  1.
</event>
<event>
 7    1  0.2458979E-009  0.4778727E+02  0.7816164E-02  0.1312668E+00
        -11   -1    0    0    0    0  0.00000000000E+00  0.00000000000E+00  0.45593999997E+02  0.45594000000E+02  0.51100000000E-03 0.  1.
         11   -1    0    0    0    0 -0.00000000000E+00 -0.00000000000E+00 -0.45593999997E+02  0.45594000000E+02  0.51100000000E-03 0. -1.
    9900012    2    1    2    0    0  0.27385363642E+02 -0.31554766249E+02 -0.11745726601E+02  0.47787268345E+02  0.19999987691E+02 0.  0.
        -12    1    1    2    0    0 -0.27385363642E+02  0.31554766249E+02  0.11745726601E+02  0.43400731655E+02  0.00000000000E+00 0.  1.
         11    1    3    3    0    0  0.19489056064E+02 -0.29190574133E+02 -0.23456932430E+01  0.35176912906E+02  0.51100000000E-03 0. -1.
        -11    1    3    3    0    0  0.47299369584E+01 -0.14181544020E+01 -0.68088329041E+01  0.84109257110E+01  0.51100000000E-03 0.  1.
         12    1    3    3    0    0  0.31663706188E+01 -0.94603771404E+00 -0.25912004534E+01  0.41994297282E+01  0.00000000000E+00 0. -1.
</event>
<event>
 7    1  0.2458979E-009  0.4778727E+02  0.7816164E-02  0.1312668E+00
        -11   -1    0    0    0    0  0.00000000000E+00  0.00000000000E+00  0.45593999997E+02  0.45594000000E+02  0.51100000000E-03 0.  1.
         11   -1    0    0    0    0 -0.00000000000E+00 -0.00000000000E+00 -0.45593999997E+02  0.45594000000E+02  0.51100000000E-03 0. -1.
    9900012    2    1    2    0    0  0.23545114688E+01  0.37853968563E+02  0.21098736281E+02  0.47787270365E+02  0.19999996901E+02 0.  0.
        -12    1    1    2    0    0 -0.23545114688E+01 -0.37853968563E+02 -0.21098736281E+02  0.43400729635E+02  0.00000000000E+00 0.  1.
         11    1    3    3    0    0 -0.39374148660E+01  0.26315406361E+02  0.14254652124E+02  0.30186072206E+02  0.51100000000E-03 0. -1.
        -11    1    3    3    0    0  0.40935076829E+01  0.21404449577E+01 -0.14852646023E+01  0.48522490627E+01  0.51100000000E-03 0.  1.
        -12    1    3    3    0    0  0.21984186518E+01  0.93981172439E+01  0.83293487590E+01  0.12748949096E+02  0.00000000000E+00 0.  1.
</event>
<event>
 7    1  0.2458979E-009  0.4778727E+02  0.7816164E-02  0.1312668E+00
        -11   -1    0    0    0    0  0.00000000000E+00  0.00000000000E+00  0.45593999997E+02  0.45594000000E+02  0.51100000000E-03 0.  1.
         11   -1    0    0    0    0 -0.00000000000E+00 -0.00000000000E+00 -0.45593999997E+02  0.45594000000E+02  0.51100000000E-03 0. -1.
    9900012    2    1    2    0    0 -0.36699748644E+02 -0.22967047947E+02 -0.30440289321E+01  0.47787274729E+02  0.20000016799E+02 0.  0.
        -12    1    1    2    0    0  0.36699748644E+02  0.22967047947E+02  0.30440289321E+01  0.43400725271E+02  0.00000000000E+00 0.  1.
         11    1    3    3    0    0 -0.29496804746E+02 -0.19700569129E+02 -0.13140677844E+01  0.35495079781E+02  0.51100000000E-03 0. -1.
        -11    1    3    3    0    0 -0.20021841955E+01 -0.96606080770E+00 -0.51826460105E+01  0.56393115686E+01  0.51100000000E-03 0.  1.
        -12    1    3    3    0    0 -0.52007597021E+01 -0.23004180100E+01  0.34526848628E+01  0.66528833796E+01  0.00000000000E+00 0.  1.
</event>
<event>
 7    1  0.2458979E-009  0.4778727E+02  0.7816164E-02  0.1312668E+00
        -11   -1    0    0    0    0  0.00000000000E+00  0.00000000000E+00  0.45593999997E+02  0.45594000000E+02  0.51100000000E-03 0.  1.
         11   -1    0    0    0    0 -0.00000000000E+00 -0.00000000000E+00 -0.45593999997E+02  0.45594000000E+02  0.51100000000E-03 0. -1.
    9900012    2    1    2    0    0 -0.26085328903E+02  0.32079408817E+02 -0.13194334894E+02  0.47787270429E+02  0.19999997193E+02 0.  0.
        -12    1    1    2    0    0  0.26085328903E+02 -0.32079408817E+02  0.13194334894E+02  0.43400729571E+02  0.00000000000E+00 0.  1.
         11    1    3    3    0    0  0.48512102039E+00  0.13412211258E+01  0.23911952336E+01  0.27842470111E+01  0.51100000000E-03 0. -1.
        -11    1    3    3    0    0 -0.16336527423E+02  0.26460459453E+02 -0.10750787421E+02  0.32903152936E+02  0.51100000000E-03 0.  1.
         12    1    3    3    0    0 -0.10233922501E+02  0.42777282377E+01 -0.48347427062E+01  0.12099870481E+02  0.00000000000E+00 0. -1.
</event>
<event>
 7    1  0.2458979E-009  0.4778725E+02  0.7816164E-02  0.1312668E+00
        -11   -1    0    0    0    0  0.00000000000E+00  0.00000000000E+00  0.45593999997E+02  0.45594000000E+02  0.51100000000E-03 0.  1.
         11   -1    0    0    0    0 -0.00000000000E+00 -0.00000000000E+00 -0.45593999997E+02  0.45594000000E+02  0.51100000000E-03 0. -1.
    9900012    2    1    2    0    0 -0.26961053566E+02  0.31079664986E+02  0.13812358591E+02  0.47787248452E+02  0.19999896994E+02 0.  0.
        -12    1    1    2    0    0  0.26961053566E+02 -0.31079664986E+02 -0.13812358591E+02  0.43400751548E+02  0.00000000000E+00 0.  1.
         11    1    3    3    0    0 -0.44364505100E+01  0.77263944530E+01  0.14544903552E+01  0.90274474147E+01  0.51100000000E-03 0. -1.
        -11    1    3    3    0    0 -0.22825169072E+02  0.22797647258E+02  0.65509546859E+01  0.32918628028E+02  0.51100000000E-03 0.  1.
        -12    1    3    3    0    0  0.30056601595E+00  0.55562327496E+00  0.58069135502E+01  0.58411730100E+01  0.00000000000E+00 0.  1.
</event>
<event>
 7    1  0.2458979E-009  0.4778727E+02  0.7816164E-02  0.1312668E+00
        -11   -1    0    0    0    0  0.00000000000E+00  0.00000000000E+00  0.45593999997E+02  0.45594000000E+02  0.51100000000E-03 0.  1.
         11   -1    0    0    0    0 -0.00000000000E+00 -0.00000000000E+00 -0.45593999997E+02  0.45594000000E+02  0.51100000000E-03 0. -1.
    9900012    2    1    2    0    0 -0.38642679414E+02 -0.19625779395E+02 -0.22793043086E+01  0.47787272849E+02  0.20000008226E+02 0.  0.
        -12    1    1    2    0    0  0.38642679414E+02  0.19625779395E+02  0.22793043086E+01  0.43400727151E+02  0.00000000000E+00 0.  1.
         11    1    3    3    0    0 -0.20237692689E+02 -0.11768778369E+02 -0.28471140549E+01  0.23583350237E+02  0.51100000000E-03 0. -1.
        -11    1    3    3    0    0  0.22938369480E+00  0.27401806599E+01  0.29241436256E+00  0.27652691277E+01  0.51100000000E-03 0.  1.
        -12    1    3    3    0    0 -0.18634370419E+02 -0.10597181686E+02  0.27539538372E+00  0.21438653484E+02  0.00000000000E+00 0.  1.
</event>
<event>
 7    1  0.2458979E-009  0.4778727E+02  0.7816164E-02  0.1312668E+00
        -11   -1    0    0    0    0  0.00000000000E+00  0.00000000000E+00  0.45593999997E+02  0.45594000000E+02  0.51100000000E-03 0. -1.
         11   -1    0    0    0    0 -0.00000000000E+00 -0.00000000000E+00 -0.45593999997E+02  0.45594000000E+02  0.51100000000E-03 0.  1.
    9900012    2    1    2    0    0  0.37110569355E+02 -0.21790746675E+02  0.56206790082E+01  0.47787273842E+02  0.20000012754E+02 0.  0.
        -12    1    1    2    0    0 -0.37110569355E+02  0.21790746675E+02 -0.56206790082E+01  0.43400726158E+02  0.00000000000E+00 0.  1.
         11    1    3    3    0    0  0.81043738048E+01 -0.34970688520E+01  0.31103901061E+00  0.88321634298E+01  0.51100000000E-03 0. -1.
        -11    1    3    3    0    0  0.13301062329E+02 -0.11877272183E+02 -0.57111579242E+01  0.18724454029E+02  0.51100000000E-03 0.  1.
        -12    1    3    3    0    0  0.15705133222E+02 -0.64164056407E+01  0.11020797922E+02  0.20230656383E+02  0.00000000000E+00 0.  1.
</event>
<event>
 7    1 -0.2458979E-009  0.4778727E+02  0.7816164E-02  0.1312668E+00
        -11   -1    0    0    0    0  0.00000000000E+00  0.00000000000E+00  0.45593999997E+02  0.45594000000E+02  0.51100000000E-03 0. -1.
         11   -1    0    0    0    0 -0.00000000000E+00 -0.00000000000E+00 -0.45593999997E+02  0.45594000000E+02  0.51100000000E-03 0.  1.
    9900012    2    1    2    0    0 -0.26258839307E+02 -0.29792674887E+02  0.17506936902E+02  0.47787274679E+02  0.20000016573E+02 0.  0.
        -12    1    1    2    0    0  0.26258839307E+02  0.29792674887E+02 -0.17506936902E+02  0.43400725321E+02  0.00000000000E+00 0.  1.
         11    1    3    3    0    0 -0.11455289363E+02 -0.12370150947E+02  0.73490024774E+01  0.18391631970E+02  0.51100000000E-03 0.  1.
        -11    1    3    3    0    0 -0.72748953099E+01 -0.10297528061E+02 -0.26857082488E+01  0.12890935381E+02  0.51100000000E-03 0. -1.
        -12    1    3    3    0    0 -0.75286546344E+01 -0.71249958790E+01  0.12843642674E+02  0.16504707329E+02  0.00000000000E+00 0.  1.
</event>
<event>
 7    1  0.2458979E-009  0.4778726E+02  0.7816164E-02  0.1312668E+00
        -11   -1    0    0    0    0  0.00000000000E+00  0.00000000000E+00  0.45593999997E+02  0.45594000000E+02  0.51100000000E-03 0. -1.
         11   -1    0    0    0    0 -0.00000000000E+00 -0.00000000000E+00 -0.45593999997E+02  0.45594000000E+02  0.51100000000E-03 0.  1.
    9900012    2    1    2    0    0  0.58133716368E+01 -0.40442268045E+02  0.14637344160E+02  0.47787260623E+02  0.19999952485E+02 0.  0.
        -12    1    1    2    0    0 -0.58133716368E+01  0.40442268045E+02 -0.14637344160E+02  0.43400739377E+02  0.00000000000E+00 0.  1.
         11    1    3    3    0    0 -0.10909231345E+01 -0.27437747343E+02  0.58070571113E+01  0.28066741975E+02  0.51100000000E-03 0. -1.
        -11    1    3    3    0    0  0.70955355689E+01 -0.94939802694E+01  0.10494406109E+02  0.15830819506E+02  0.51100000000E-03 0.  1.
        -12    1    3    3    0    0 -0.19124079770E+00 -0.35105404329E+01 -0.16641190605E+01  0.38896991427E+01  0.00000000000E+00 0.  1.
</event>
<event>
 7    1  0.2458979E-009  0.4778727E+02  0.7816164E-02  0.1312668E+00
        -11   -1    0    0    0    0  0.00000000000E+00  0.00000000000E+00  0.45593999997E+02  0.45594000000E+02  0.51100000000E-03 0.  1.
         11   -1    0    0    0    0 -0.00000000000E+00 -0.00000000000E+00 -0.45593999997E+02  0.45594000000E+02  0.51100000000E-03 0. -1.
    9900012    2    1    2    0    0  0.28372204330E+02  0.15669714201E+02 -0.28863497813E+02  0.47787269272E+02  0.19999991921E+02 0.  0.
        -12    1    1    2    0    0 -0.28372204330E+02 -0.15669714201E+02  0.28863497813E+02  0.43400730728E+02  0.00000000000E+00 0.  1.
         11    1    3    3    0    0  0.47221148426E+01  0.12307048980E+02 -0.12318598265E+02  0.18041887004E+02  0.51100000000E-03 0. -1.
        -11    1    3    3    0    0  0.12930857861E+02 -0.78849533026E+00 -0.10942729641E+02  0.16957952180E+02  0.51100000000E-03 0.  1.
         12    1    3    3    0    0  0.10719231627E+02  0.41511605515E+01 -0.56021699069E+01  0.12787430088E+02  0.00000000000E+00 0. -1.
</event>
<event>
 7    1  0.2458979E-009  0.4778727E+02  0.7816164E-02  0.1312668E+00
        -11   -1    0    0    0    0  0.00000000000E+00  0.00000000000E+00  0.45593999997E+02  0.45594000000E+02  0.51100000000E-03 0. -1.
         11   -1    0    0    0    0 -0.00000000000E+00 -0.00000000000E+00 -0.45593999997E+02  0.45594000000E+02  0.51100000000E-03 0.  1.
    9900012    2    1    2    0    0 -0.20857920415E+02  0.34443888621E+02  0.16192252943E+02  0.47787270021E+02  0.19999995332E+02 0.  0.
        -12    1    1    2    0    0  0.20857920415E+02 -0.34443888621E+02 -0.16192252943E+02  0.43400729979E+02  0.00000000000E+00 0.  1.
         11    1    3    3    0    0 -0.15089572267E+02  0.27964896621E+02  0.45727594401E+01  0.32103594244E+02  0.51100000000E-03 0. -1.
        -11    1    3    3    0    0 -0.22085460934E+01 -0.51178437946E+00  0.47206309386E+01  0.52367886932E+01  0.51100000000E-03 0.  1.
         12    1    3    3    0    0 -0.35598020548E+01  0.69907763799E+01  0.68988625639E+01  0.10446887084E+02  0.00000000000E+00 0. -1.
</event>
<event>
 7    1  0.2458979E-009  0.4778727E+02  0.7816164E-02  0.1312668E+00
        -11   -1    0    0    0    0  0.00000000000E+00  0.00000000000E+00  0.45593999997E+02  0.45594000000E+02  0.51100000000E-03 0. -1.
         11   -1    0    0    0    0 -0.00000000000E+00 -0.00000000000E+00 -0.45593999997E+02  0.45594000000E+02  0.51100000000E-03 0.  1.
    9900012    2    1    2    0    0 -0.36092554283E+02  0.19361487717E+02  0.14355617965E+02  0.47787269034E+02  0.19999990832E+02 0.  0.
        -12    1    1    2    0    0  0.36092554283E+02 -0.19361487717E+02 -0.14355617965E+02  0.43400730966E+02  0.00000000000E+00 0.  1.
         11    1    3    3    0    0 -0.49338200331E+01  0.64497864323E+01  0.14770868171E+01  0.82537331474E+01  0.51100000000E-03 0. -1.
        -11    1    3    3    0    0 -0.10262051286E+02  0.10265966895E+02 -0.59793003405E+00  0.14527811035E+02  0.51100000000E-03 0.  1.
        -12    1    3    3    0    0 -0.20896682964E+02  0.26457343898E+01  0.13476461182E+02  0.25005724851E+02  0.00000000000E+00 0.  1.
</event>
<event>
 7    1  0.2458979E-009  0.4778727E+02  0.7816164E-02  0.1312668E+00
        -11   -1    0    0    0    0  0.00000000000E+00  0.00000000000E+00  0.45593999997E+02  0.45594000000E+02  0.51100000000E-03 0. -1.
         11   -1    0    0    0    0 -0.00000000000E+00 -0.00000000000E+00 -0.45593999997E+02  0.45594000000E+02  0.51100000000E-03 0.  1.
    9900012    2    1    2    0    0 -0.15351619885E+02  0.35188901413E+02  0.20240853511E+02  0.47787272280E+02  0.20000005634E+02 0.  0.
        -12    1    1    2    0    0  0.15351619885E+02 -0.35188901413E+02 -0.20240853511E+02  0.43400727720E+02  0.00000000000E+00 0.  1.
         11    1    3    3    0    0 -0.16981683191E+02  0.34536339709E+02  0.20047108790E+02  0.43393811719E+02  0.51100000000E-03 0. -1.
        -11    1    3    3    0    0  0.30633341332E-01 -0.66620834483E+00 -0.15482102790E+01  0.16857423556E+01  0.51100000000E-03 0.  1.
         12    1    3    3    0    0  0.15994299644E+01  0.13187700494E+01  0.17419550003E+01  0.27077182050E+01  0.00000000000E+00 0. -1.
</event>
<event>
 7    1  0.2458979E-009  0.4778727E+02  0.7816164E-02  0.1312668E+00
        -11   -1    0    0    0    0  0.00000000000E+00  0.00000000000E+00  0.45593999997E+02  0.45594000000E+02  0.51100000000E-03 0.  1.
         11   -1    0    0    0    0 -0.00000000000E+00 -0.00000000000E+00 -0.45593999997E+02  0.45594000000E+02  0.51100000000E-03 0. -1.
    9900012    2    1    2    0    0 -0.55258933296E+01 -0.57026272419E+01 -0.42668110406E+02  0.47787273046E+02  0.20000009124E+02 0.  0.
        -12    1    1    2    0    0  0.55258933296E+01  0.57026272419E+01  0.42668110406E+02  0.43400726954E+02  0.00000000000E+00 0.  1.
         11    1    3    3    0    0 -0.13230705725E+01  0.73871586228E+00 -0.32961393476E+02  0.32996207009E+02  0.51100000000E-03 0. -1.
        -11    1    3    3    0    0 -0.18406534103E+01 -0.20823290721E+01  0.10307656010E+01  0.29642161403E+01  0.51100000000E-03 0.  1.
         12    1    3    3    0    0 -0.23621693468E+01 -0.43590140321E+01 -0.10737482531E+02  0.11826849896E+02  0.00000000000E+00 0. -1.
</event>
<event>
 7    1  0.2458979E-009  0.4778727E+02  0.7816164E-02  0.1312668E+00
        -11   -1    0    0    0    0  0.00000000000E+00  0.00000000000E+00  0.45593999997E+02  0.45594000000E+02  0.51100000000E-03 0.  1.
         11   -1    0    0    0    0 -0.00000000000E+00 -0.00000000000E+00 -0.45593999997E+02  0.45594000000E+02  0.51100000000E-03 0. -1.
    9900012    2    1    2    0    0 -0.37306868162E+02  0.89324148390E+01 -0.20298604248E+02  0.47787265199E+02  0.19999973347E+02 0.  0.
        -12    1    1    2    0    0  0.37306868162E+02 -0.89324148390E+01  0.20298604248E+02  0.43400734801E+02  0.00000000000E+00 0.  1.
         11    1    3    3    0    0 -0.44462405976E+01  0.77014664595E+01 -0.44872171251E+01  0.99607609583E+01  0.51100000000E-03 0. -1.
        -11    1    3    3    0    0 -0.27475091158E+02  0.15673963714E+01 -0.16937335070E+02  0.32314248948E+02  0.51100000000E-03 0.  1.
        -12    1    3    3    0    0 -0.53855364057E+01 -0.33644799201E+00  0.11259479472E+01  0.55122552923E+01  0.00000000000E+00 0.  1.
</event>
<event>
 7    1  0.2458979E-009  0.4778727E+02  0.7816164E-02  0.1312668E+00
        -11   -1    0    0    0    0  0.00000000000E+00  0.00000000000E+00  0.45593999997E+02  0.45594000000E+02  0.51100000000E-03 0.  1.
         11   -1    0    0    0    0 -0.00000000000E+00 -0.00000000000E+00 -0.45593999997E+02  0.45594000000E+02  0.51100000000E-03 0. -1.
    9900012    2    1    2    0    0 -0.37088098751E+02  0.22221371294E+02  0.37824375161E+01  0.47787271380E+02  0.20000001532E+02 0.  0.
        -12    1    1    2    0    0  0.37088098751E+02 -0.22221371294E+02 -0.37824375161E+01  0.43400728620E+02  0.00000000000E+00 0.  1.
         11    1    3    3    0    0 -0.33433261317E+02  0.17935119579E+02  0.67268166553E-01  0.37940163440E+02  0.51100000000E-03 0. -1.
        -11    1    3    3    0    0 -0.92385217888E+00 -0.18789384688E+01 -0.10639650907E+00  0.20964811223E+01  0.51100000000E-03 0.  1.
         12    1    3    3    0    0 -0.27309852556E+01  0.61651901832E+01  0.38215658586E+01  0.77506268181E+01  0.00000000000E+00 0. -1.
</event>
<event>
 7    1  0.2458979E-009  0.4778727E+02  0.7816164E-02  0.1312668E+00
        -11   -1    0    0    0    0  0.00000000000E+00  0.00000000000E+00  0.45593999997E+02  0.45594000000E+02  0.51100000000E-03 0. -1.
         11   -1    0    0    0    0 -0.00000000000E+00 -0.00000000000E+00 -0.45593999997E+02  0.45594000000E+02  0.51100000000E-03 0.  1.
    9900012    2    1    2    0    0 -0.36664591178E+02 -0.20714782283E+02  0.10499005526E+02  0.47787267652E+02  0.19999984532E+02 0.  0.
        -12    1    1    2    0    0  0.36664591178E+02  0.20714782283E+02 -0.10499005526E+02  0.43400732348E+02  0.00000000000E+00 0.  1.
         11    1    3    3    0    0 -0.27738987288E+02 -0.16135199476E+02  0.47775666157E+01  0.32444124598E+02  0.51100000000E-03 0. -1.
        -11    1    3    3    0    0 -0.26901290065E+01 -0.49099591500E-01  0.70281871658E+01  0.75255976467E+01  0.51100000000E-03 0.  1.
        -12    1    3    3    0    0 -0.62354748841E+01 -0.45304832156E+01 -0.13067482553E+01  0.78175454076E+01  0.00000000000E+00 0.  1.
</event>
<event>
 7    1  0.2458979E-009  0.4778727E+02  0.7816164E-02  0.1312668E+00
        -11   -1    0    0    0    0  0.00000000000E+00  0.00000000000E+00  0.45593999997E+02  0.45594000000E+02  0.51100000000E-03 0. -1.
         11   -1    0    0    0    0 -0.00000000000E+00 -0.00000000000E+00 -0.45593999997E+02  0.45594000000E+02  0.51100000000E-03 0.  1.
    9900012    2    1    2    0    0  0.35178164992E+02  0.19656444004E+02 -0.16116576675E+02  0.47787272738E+02  0.20000007723E+02 0.  0.
        -12    1    1    2    0    0 -0.35178164992E+02 -0.19656444004E+02  0.16116576675E+02  0.43400727262E+02  0.00000000000E+00 0.  1.
         11    1    3    3    0    0  0.39877737044E+01  0.50450922154E+01  0.29480648795E+01  0.70743467100E+01  0.51100000000E-03 0. -1.
        -11    1    3    3    0    0  0.89687885114E+01  0.15437571653E+01 -0.96605715940E+01  0.13272113522E+02  0.51100000000E-03 0.  1.
         12    1    3    3    0    0  0.22221602777E+02  0.13067594623E+02 -0.94040699604E+01  0.27440812507E+02  0.00000000000E+00 0. -1.
</event>
<event>
 7    1  0.2458979E-009  0.4778727E+02  0.7816164E-02  0.1312668E+00
        -11   -1    0    0    0    0  0.00000000000E+00  0.00000000000E+00  0.45593999997E+02  0.45594000000E+02  0.51100000000E-03 0.  1.
         11   -1    0    0    0    0 -0.00000000000E+00 -0.00000000000E+00 -0.45593999997E+02  0.45594000000E+02  0.51100000000E-03 0. -1.
    9900012    2    1    2    0    0  0.12578733109E+02  0.59525811735E+01 -0.41109186675E+02  0.47787274449E+02  0.20000015523E+02 0.  0.
        -12    1    1    2    0    0 -0.12578733109E+02 -0.59525811735E+01  0.41109186675E+02  0.43400725551E+02  0.00000000000E+00 0.  1.
         11    1    3    3    0    0  0.13121103229E+02  0.53524959156E+01 -0.20969885564E+02  0.25309062868E+02  0.51100000000E-03 0. -1.
        -11    1    3    3    0    0 -0.30811941642E+01 -0.33580581331E+01 -0.57323959230E+01  0.73232967428E+01  0.51100000000E-03 0.  1.
         12    1    3    3    0    0  0.25388240440E+01  0.39581433910E+01 -0.14406905189E+02  0.15154914838E+02  0.00000000000E+00 0. -1.
</event>
<event>
 7    1  0.2458979E-009  0.4778727E+02  0.7816164E-02  0.1312668E+00
        -11   -1    0    0    0    0  0.00000000000E+00  0.00000000000E+00  0.45593999997E+02  0.45594000000E+02  0.51100000000E-03 0.  1.
         11   -1    0    0    0    0 -0.00000000000E+00 -0.00000000000E+00 -0.45593999997E+02  0.45594000000E+02  0.51100000000E-03 0. -1.
    9900012    2    1    2    0    0  0.43100387007E+02 -0.25665892142E+01 -0.44036856680E+01  0.47787272036E+02  0.20000004519E+02 0.  0.
        -12    1    1    2    0    0 -0.43100387007E+02  0.25665892142E+01  0.44036856680E+01  0.43400727964E+02  0.00000000000E+00 0.  1.
         11    1    3    3    0    0  0.10454712984E+02 -0.75124255123E+01  0.36833088271E+01  0.13390456483E+02  0.51100000000E-03 0.  1.
        -11    1    3    3    0    0  0.25873224228E+02  0.37307149405E+01 -0.41461491909E+01  0.26467574866E+02  0.51100000000E-03 0. -1.
        -12    1    3    3    0    0  0.67724497959E+01  0.12151213576E+01 -0.39408453042E+01  0.79292406864E+01  0.00000000000E+00 0.  1.
</event>
<event>
 7    1  0.2458979E-009  0.4778726E+02  0.7816164E-02  0.1312668E+00
        -11   -1    0    0    0    0  0.00000000000E+00  0.00000000000E+00  0.45593999997E+02  0.45594000000E+02  0.51100000000E-03 0.  1.
         11   -1    0    0    0    0 -0.00000000000E+00 -0.00000000000E+00 -0.45593999997E+02  0.45594000000E+02  0.51100000000E-03 0. -1.
    9900012    2    1    2    0    0 -0.33912378382E+02  0.94946888103E+01 -0.25365831424E+02  0.47787263521E+02  0.19999965697E+02 0.  0.
        -12    1    1    2    0    0  0.33912378382E+02 -0.94946888103E+01  0.25365831424E+02  0.43400736479E+02  0.00000000000E+00 0.  1.
         11    1    3    3    0    0 -0.10995519499E+02  0.17345657267E+01 -0.18162021275E+02  0.21301858707E+02  0.51100000000E-03 0. -1.
        -11    1    3    3    0    0 -0.48173112334E+01  0.42021844271E+01  0.67336116117E+00  0.64279278927E+01  0.51100000000E-03 0.  1.
         12    1    3    3    0    0 -0.18099547649E+02  0.35579386565E+01 -0.78771713097E+01  0.20057476921E+02  0.00000000000E+00 0. -1.
</event>
<event>
 7    1  0.2458979E-009  0.4778727E+02  0.7816164E-02  0.1312668E+00
        -11   -1    0    0    0    0  0.00000000000E+00  0.00000000000E+00  0.45593999997E+02  0.45594000000E+02  0.51100000000E-03 0. -1.
         11   -1    0    0    0    0 -0.00000000000E+00 -0.00000000000E+00 -0.45593999997E+02  0.45594000000E+02  0.51100000000E-03 0.  1.
    9900012    2    1    2    0    0  0.11813092408E+02  0.13209411306E+02  0.39617996290E+02  0.47787270406E+02  0.19999997091E+02 0.  0.
        -12    1    1    2    0    0 -0.11813092408E+02 -0.13209411306E+02 -0.39617996290E+02  0.43400729594E+02  0.00000000000E+00 0.  1.
         11    1    3    3    0    0  0.89675405640E+01 -0.14809781976E+01  0.62805981663E+01  0.11047895446E+02  0.51100000000E-03 0.  1.
        -11    1    3    3    0    0  0.29462679203E+01  0.11038798618E+02  0.28279498017E+02  0.30500255375E+02  0.51100000000E-03 0. -1.
        -12    1    3    3    0    0 -0.10071607669E+00  0.36515908852E+01  0.50579001061E+01  0.62391195857E+01  0.00000000000E+00 0.  1.
</event>
<event>
 7    1  0.2458979E-009  0.4778727E+02  0.7816164E-02  0.1312668E+00
        -11   -1    0    0    0    0  0.00000000000E+00  0.00000000000E+00  0.45593999997E+02  0.45594000000E+02  0.51100000000E-03 0.  1.
         11   -1    0    0    0    0 -0.00000000000E+00 -0.00000000000E+00 -0.45593999997E+02  0.45594000000E+02  0.51100000000E-03 0. -1.
    9900012    2    1    2    0    0  0.15384175534E+02 -0.10508533007E+02 -0.39198486009E+02  0.47787269266E+02  0.19999991893E+02 0.  0.
        -12    1    1    2    0    0 -0.15384175534E+02  0.10508533007E+02  0.39198486009E+02  0.43400730734E+02  0.00000000000E+00 0.  1.
         11    1    3    3    0    0  0.93429431276E+01  0.62651081675E+00 -0.12454392443E+02  0.15581880294E+02  0.51100000000E-03 0. -1.
        -11    1    3    3    0    0 -0.29600496005E+01 -0.41146240815E+01 -0.14975238384E+02  0.15809800438E+02  0.51100000000E-03 0.  1.
        -12    1    3    3    0    0  0.90012820069E+01 -0.70204197421E+01 -0.11768855182E+02  0.16395588535E+02  0.00000000000E+00 0.  1.
</event>
<event>
 7    1  0.2458979E-009  0.4778727E+02  0.7816164E-02  0.1312668E+00
        -11   -1    0    0    0    0  0.00000000000E+00  0.00000000000E+00  0.45593999997E+02  0.45594000000E+02  0.51100000000E-03 0.  1.
         11   -1    0    0    0    0 -0.00000000000E+00 -0.00000000000E+00 -0.45593999997E+02  0.45594000000E+02  0.51100000000E-03 0. -1.
    9900012    2    1    2    0    0 -0.29374008579E+02 -0.15215557023E+02 -0.28094088253E+02  0.47787270164E+02  0.19999995986E+02 0.  0.
        -12    1    1    2    0    0  0.29374008579E+02  0.15215557023E+02  0.28094088253E+02  0.43400729836E+02  0.00000000000E+00 0.  1.
         11    1    3    3    0    0 -0.12482387260E+02  0.37765986845E+01 -0.78638234985E+01  0.15228670645E+02  0.51100000000E-03 0. -1.
        -11    1    3    3    0    0 -0.12940173975E+02 -0.13511791185E+02 -0.15706031961E+02  0.24427362603E+02  0.51100000000E-03 0.  1.
         12    1    3    3    0    0 -0.39514473441E+01 -0.54803645229E+01 -0.45242327932E+01  0.81312369160E+01  0.00000000000E+00 0. -1.
</event>
<event>
 7    1  0.2458979E-009  0.4778727E+02  0.7816164E-02  0.1312668E+00
        -11   -1    0    0    0    0  0.00000000000E+00  0.00000000000E+00  0.45593999997E+02  0.45594000000E+02  0.51100000000E-03 0.  1.
         11   -1    0    0    0    0 -0.00000000000E+00 -0.00000000000E+00 -0.45593999997E+02  0.45594000000E+02  0.51100000000E-03 0. -1.
    9900012    2    1    2    0    0 -0.24329180415E+02 -0.35321957499E+02  0.66387954964E+01  0.47787270664E+02  0.19999998264E+02 0.  0.
        -12    1    1    2    0    0  0.24329180415E+02  0.35321957499E+02 -0.66387954964E+01  0.43400729336E+02  0.00000000000E+00 0.  1.
         11    1    3    3    0    0 -0.54735302078E+01 -0.10444116070E+02  0.35783137073E+00  0.11796912180E+02  0.51100000000E-03 0. -1.
        -11    1    3    3    0    0 -0.15342376360E+02 -0.11214109192E+02 -0.28047790040E+01  0.19209673159E+02  0.51100000000E-03 0.  1.
        -12    1    3    3    0    0 -0.35132738478E+01 -0.13663732237E+02  0.90857431297E+01  0.16780685325E+02  0.00000000000E+00 0.  1.
</event>
<event>
 7    1  0.2458979E-009  0.4778727E+02  0.7816164E-02  0.1312668E+00
        -11   -1    0    0    0    0  0.00000000000E+00  0.00000000000E+00  0.45593999997E+02  0.45594000000E+02  0.51100000000E-03 0. -1.
         11   -1    0    0    0    0 -0.00000000000E+00 -0.00000000000E+00 -0.45593999997E+02  0.45594000000E+02  0.51100000000E-03 0.  1.
    9900012    2    1    2    0    0 -0.10842335660E+02 -0.37376531889E+02  0.19210987988E+02  0.47787269153E+02  0.19999991377E+02 0.  0.
        -12    1    1    2    0    0  0.10842335660E+02  0.37376531889E+02 -0.19210987988E+02  0.43400730847E+02  0.00000000000E+00 0.  1.
         11    1    3    3    0    0  0.55558320752E+01 -0.79394372643E+01  0.27961651553E+01  0.10085656843E+02  0.51100000000E-03 0. -1.
        -11    1    3    3    0    0 -0.12261745135E+02 -0.19100117067E+02  0.95721350686E+01  0.24633120707E+02  0.51100000000E-03 0.  1.
         12    1    3    3    0    0 -0.41364226000E+01 -0.10336977557E+02  0.68426877641E+01  0.13068491603E+02  0.00000000000E+00 0. -1.
</event>
<event>
 7    1  0.2458979E-009  0.4778728E+02  0.7816164E-02  0.1312668E+00
        -11   -1    0    0    0    0  0.00000000000E+00  0.00000000000E+00  0.45593999997E+02  0.45594000000E+02  0.51100000000E-03 0.  1.
         11   -1    0    0    0    0 -0.00000000000E+00 -0.00000000000E+00 -0.45593999997E+02  0.45594000000E+02  0.51100000000E-03 0. -1.
    9900012    2    1    2    0    0  0.36806359440E+02  0.80573817578E+01 -0.21540501034E+02  0.47787277877E+02  0.20000031152E+02 0.  0.
        -12    1    1    2    0    0 -0.36806359440E+02 -0.80573817578E+01  0.21540501034E+02  0.43400722123E+02  0.00000000000E+00 0.  1.
         11    1    3    3    0    0  0.37197814642E+02  0.70329241558E+01 -0.18603656180E+02  0.42180984576E+02  0.51100000000E-03 0. -1.
        -11    1    3    3    0    0 -0.20292499339E+01 -0.42406304911E+00 -0.17031945027E+00  0.20800706094E+01  0.51100000000E-03 0.  1.
         12    1    3    3    0    0  0.16377947322E+01  0.14485206512E+01 -0.27665254036E+01  0.35262226916E+01  0.00000000000E+00 0. -1.
</event>
<event>
 7    1  0.2458979E-009  0.4778727E+02  0.7816164E-02  0.1312668E+00
        -11   -1    0    0    0    0  0.00000000000E+00  0.00000000000E+00  0.45593999997E+02  0.45594000000E+02  0.51100000000E-03 0.  1.
         11   -1    0    0    0    0 -0.00000000000E+00 -0.00000000000E+00 -0.45593999997E+02  0.45594000000E+02  0.51100000000E-03 0. -1.
    9900012    2    1    2    0    0 -0.29544726704E+02  0.20717680459E+02 -0.24114525581E+02  0.47787268398E+02  0.19999987934E+02 0.  0.
        -12    1    1    2    0    0  0.29544726704E+02 -0.20717680459E+02  0.24114525581E+02  0.43400731602E+02  0.00000000000E+00 0.  1.
         11    1    3    3    0    0 -0.47742970784E+01  0.11863140132E+02 -0.12375565093E+02  0.17795578609E+02  0.51100000000E-03 0. -1.
        -11    1    3    3    0    0 -0.24725587122E+02  0.89656727784E+01 -0.12571199983E+02  0.29150866474E+02  0.51100000000E-03 0.  1.
        -12    1    3    3    0    0 -0.44842503364E-01 -0.11113245163E+00  0.83223949461E+00  0.84082331574E+00  0.00000000000E+00 0.  1.
</event>
<event>
 7    1  0.2458979E-009  0.4778727E+02  0.7816164E-02  0.1312668E+00
        -11   -1    0    0    0    0  0.00000000000E+00  0.00000000000E+00  0.45593999997E+02  0.45594000000E+02  0.51100000000E-03 0.  1.
         11   -1    0    0    0    0 -0.00000000000E+00 -0.00000000000E+00 -0.45593999997E+02  0.45594000000E+02  0.51100000000E-03 0. -1.
    9900012    2    1    2    0    0  0.10714325861E+02  0.17957583130E+02 -0.38030928789E+02  0.47787272874E+02  0.20000008341E+02 0.  0.
        -12    1    1    2    0    0 -0.10714325861E+02 -0.17957583130E+02  0.38030928789E+02  0.43400727126E+02  0.00000000000E+00 0.  1.
         11    1    3    3    0    0  0.13105938749E+02  0.15050093070E+02 -0.22800137684E+02  0.30300449016E+02  0.51100000000E-03 0. -1.
        -11    1    3    3    0    0 -0.29002597804E+01  0.15039979516E+01 -0.15608674047E+02  0.15946918900E+02  0.51100000000E-03 0.  1.
        -12    1    3    3    0    0  0.50864689313E+00  0.14034921089E+01  0.37788294217E+00  0.15399049580E+01  0.00000000000E+00 0.  1.
</event>
<event>
 7    1  0.2458979E-009  0.4778727E+02  0.7816164E-02  0.1312668E+00
        -11   -1    0    0    0    0  0.00000000000E+00  0.00000000000E+00  0.45593999997E+02  0.45594000000E+02  0.51100000000E-03 0.  1.
         11   -1    0    0    0    0 -0.00000000000E+00 -0.00000000000E+00 -0.45593999997E+02  0.45594000000E+02  0.51100000000E-03 0. -1.
    9900012    2    1    2    0    0  0.12431951431E+02 -0.30471522648E+02 -0.28294101632E+02  0.47787270789E+02  0.19999998835E+02 0.  0.
        -12    1    1    2    0    0 -0.12431951431E+02  0.30471522648E+02  0.28294101632E+02  0.43400729211E+02  0.00000000000E+00 0.  1.
         11    1    3    3    0    0  0.86241451451E+01 -0.28252348198E+02 -0.14571200174E+02  0.32937682568E+02  0.51100000000E-03 0. -1.
        -11    1    3    3    0    0  0.39776878978E+01 -0.28579430334E+01 -0.12870321205E+02  0.13770802721E+02  0.51100000000E-03 0.  1.
         12    1    3    3    0    0 -0.16988161241E+00  0.63876858351E+00 -0.85258025333E+00  0.10787854995E+01  0.00000000000E+00 0. -1.
</event>
<event>
 7    1  0.2458979E-009  0.4778727E+02  0.7816164E-02  0.1312668E+00
        -11   -1    0    0    0    0  0.00000000000E+00  0.00000000000E+00  0.45593999997E+02  0.45594000000E+02  0.51100000000E-03 0.  1.
         11   -1    0    0    0    0 -0.00000000000E+00 -0.00000000000E+00 -0.45593999997E+02  0.45594000000E+02  0.51100000000E-03 0. -1.
    9900012    2    1    2    0    0 -0.96240562117E+01  0.41238051683E+02  0.95091587686E+01  0.47787268842E+02  0.19999989958E+02 0.  0.
        -12    1    1    2    0    0  0.96240562117E+01 -0.41238051683E+02 -0.95091587686E+01  0.43400731158E+02  0.00000000000E+00 0.  1.
         11    1    3    3    0    0  0.17490153362E+01  0.16007407248E+02  0.10386134363E+02  0.19161626463E+02  0.51100000000E-03 0. -1.
        -11    1    3    3    0    0 -0.61443910458E+01  0.17589089349E+02 -0.35964567486E+01  0.18975355250E+02  0.51100000000E-03 0.  1.
         12    1    3    3    0    0 -0.52286805020E+01  0.76415550862E+01  0.27194811546E+01  0.96502871293E+01  0.00000000000E+00 0. -1.
</event>
<event>
 7    1  0.2458979E-009  0.4778727E+02  0.7816164E-02  0.1312668E+00
        -11   -1    0    0    0    0  0.00000000000E+00  0.00000000000E+00  0.45593999997E+02  0.45594000000E+02  0.51100000000E-03 0.  1.
         11   -1    0    0    0    0 -0.00000000000E+00 -0.00000000000E+00 -0.45593999997E+02  0.45594000000E+02  0.51100000000E-03 0. -1.
    9900012    2    1    2    0    0 -0.34686994130E+02  0.25967404859E+02 -0.24757873043E+01  0.47787271900E+02  0.20000003899E+02 0.  0.
        -12    1    1    2    0    0  0.34686994130E+02 -0.25967404859E+02  0.24757873043E+01  0.43400728100E+02  0.00000000000E+00 0.  1.
         11    1    3    3    0    0 -0.34358227324E+02  0.25969647657E+02 -0.26028760896E+01  0.43147251923E+02  0.51100000000E-03 0. -1.
        -11    1    3    3    0    0  0.45602502367E+00  0.10335688021E+01  0.20373698576E+01  0.23296135921E+01  0.51100000000E-03 0.  1.
         12    1    3    3    0    0 -0.78479182924E+00 -0.10358116005E+01 -0.19102810722E+01  0.23104063846E+01  0.00000000000E+00 0. -1.
</event>
<event>
 7    1  0.2458979E-009  0.4778727E+02  0.7816164E-02  0.1312668E+00
        -11   -1    0    0    0    0  0.00000000000E+00  0.00000000000E+00  0.45593999997E+02  0.45594000000E+02  0.51100000000E-03 0. -1.
         11   -1    0    0    0    0 -0.00000000000E+00 -0.00000000000E+00 -0.45593999997E+02  0.45594000000E+02  0.51100000000E-03 0.  1.
    9900012    2    1    2    0    0 -0.39451371014E+02  0.17960112327E+02  0.21557666317E+01  0.47787266833E+02  0.19999980799E+02 0.  0.
        -12    1    1    2    0    0  0.39451371014E+02 -0.17960112327E+02 -0.21557666317E+01  0.43400733167E+02  0.00000000000E+00 0.  1.
         11    1    3    3    0    0 -0.13416416042E+02  0.44780450206E+01 -0.52494253282E+01  0.15086735006E+02  0.51100000000E-03 0.  1.
        -11    1    3    3    0    0 -0.19587817253E+02  0.68863132853E+01  0.10103261363E+02  0.23090686127E+02  0.51100000000E-03 0. -1.
        -12    1    3    3    0    0 -0.64471377188E+01  0.65957540210E+01 -0.26980694026E+01  0.96098456997E+01  0.00000000000E+00 0.  1.
</event>
<event>
 7    1  0.2458979E-009  0.4778727E+02  0.7816164E-02  0.1312668E+00
        -11   -1    0    0    0    0  0.00000000000E+00  0.00000000000E+00  0.45593999997E+02  0.45594000000E+02  0.51100000000E-03 0.  1.
         11   -1    0    0    0    0 -0.00000000000E+00 -0.00000000000E+00 -0.45593999997E+02  0.45594000000E+02  0.51100000000E-03 0. -1.
    9900012    2    1    2    0    0  0.80857228124E+01 -0.40707649872E+02  0.12693763491E+02  0.47787270708E+02  0.19999998467E+02 0.  0.
        -12    1    1    2    0    0 -0.80857228124E+01  0.40707649872E+02 -0.12693763491E+02  0.43400729292E+02  0.00000000000E+00 0.  1.
         11    1    3    3    0    0  0.40833934763E+01 -0.43751601401E+01 -0.11444393361E+01  0.60931002117E+01  0.51100000000E-03 0. -1.
        -11    1    3    3    0    0 -0.23520507739E+01 -0.29325521418E+02  0.13105373741E+02  0.32206663448E+02  0.51100000000E-03 0.  1.
        -12    1    3    3    0    0  0.63543801100E+01 -0.70069683131E+01  0.73282908622E+00  0.94875070483E+01  0.00000000000E+00 0.  1.
</event>
<event>
 7    1  0.2458979E-009  0.4778727E+02  0.7816164E-02  0.1312668E+00
        -11   -1    0    0    0    0  0.00000000000E+00  0.00000000000E+00  0.45593999997E+02  0.45594000000E+02  0.51100000000E-03 0. -1.
         11   -1    0    0    0    0 -0.00000000000E+00 -0.00000000000E+00 -0.45593999997E+02  0.45594000000E+02  0.51100000000E-03 0.  1.
    9900012    2    1    2    0    0  0.69316015150E+01  0.35699683825E+02  0.23687733059E+02  0.47787271639E+02  0.20000002710E+02 0.  0.
        -12    1    1    2    0    0 -0.69316015150E+01 -0.35699683825E+02 -0.23687733059E+02  0.43400728361E+02  0.00000000000E+00 0.  1.
         11    1    3    3    0    0  0.49204291541E+00  0.37785674520E+01  0.26127229976E+01  0.46201731508E+01  0.51100000000E-03 0. -1.
        -11    1    3    3    0    0 -0.31456156137E+01  0.35879605336E+01 -0.22128332208E+01  0.52597518482E+01  0.51100000000E-03 0.  1.
        -12    1    3    3    0    0  0.95851742133E+01  0.28333155839E+02  0.23287843283E+02  0.37907346640E+02  0.00000000000E+00 0.  1.
</event>
<event>
 7    1  0.2458979E-009  0.4778727E+02  0.7816164E-02  0.1312668E+00
        -11   -1    0    0    0    0  0.00000000000E+00  0.00000000000E+00  0.45593999997E+02  0.45594000000E+02  0.51100000000E-03 0.  1.
         11   -1    0    0    0    0 -0.00000000000E+00 -0.00000000000E+00 -0.45593999997E+02  0.45594000000E+02  0.51100000000E-03 0. -1.
    9900012    2    1    2    0    0 -0.24769553254E+02 -0.34596226396E+02 -0.85553320750E+01  0.47787270097E+02  0.19999995679E+02 0.  0.
        -12    1    1    2    0    0  0.24769553254E+02  0.34596226396E+02  0.85553320750E+01  0.43400729903E+02  0.00000000000E+00 0.  1.
         11    1    3    3    0    0 -0.89174112828E+01 -0.54895896091E+01 -0.53003231195E+01  0.11736662366E+02  0.51100000000E-03 0. -1.
        -11    1    3    3    0    0 -0.84494175016E+01 -0.18268692933E+02  0.47450520767E+01  0.20679780392E+02  0.51100000000E-03 0.  1.
        -12    1    3    3    0    0 -0.74027244692E+01 -0.10837943854E+02 -0.80000610322E+01  0.15370827339E+02  0.00000000000E+00 0.  1.
</event>
<event>
 7    1  0.2458979E-009  0.4778727E+02  0.7816164E-02  0.1312668E+00
        -11   -1    0    0    0    0  0.00000000000E+00  0.00000000000E+00  0.45593999997E+02  0.45594000000E+02  0.51100000000E-03 0. -1.
         11   -1    0    0    0    0 -0.00000000000E+00 -0.00000000000E+00 -0.45593999997E+02  0.45594000000E+02  0.51100000000E-03 0.  1.
    9900012    2    1    2    0    0  0.20932705656E+02 -0.18135619003E+02  0.33414731829E+02  0.47787272518E+02  0.20000006720E+02 0.  0.
        -12    1    1    2    0    0 -0.20932705656E+02  0.18135619003E+02 -0.33414731829E+02  0.43400727482E+02  0.00000000000E+00 0.  1.
         11    1    3    3    0    0  0.86793176466E+01 -0.33789381397E+01  0.17296914412E+02  0.19645127289E+02  0.51100000000E-03 0. -1.
        -11    1    3    3    0    0  0.75688480882E+01 -0.16406741860E+02  0.11997804719E+02  0.21689074627E+02  0.51100000000E-03 0.  1.
        -12    1    3    3    0    0  0.46845399209E+01  0.16500609964E+01  0.41200126985E+01  0.64530706023E+01  0.00000000000E+00 0.  1.
</event>
<event>
 7    1  0.2458979E-009  0.4778727E+02  0.7816164E-02  0.1312668E+00
        -11   -1    0    0    0    0  0.00000000000E+00  0.00000000000E+00  0.45593999997E+02  0.45594000000E+02  0.51100000000E-03 0.  1.
         11   -1    0    0    0    0 -0.00000000000E+00 -0.00000000000E+00 -0.45593999997E+02  0.45594000000E+02  0.51100000000E-03 0. -1.
    9900012    2    1    2    0    0  0.44553032100E+01  0.17450994353E+02 -0.39487167392E+02  0.47787270522E+02  0.19999997616E+02 0.  0.
        -12    1    1    2    0    0 -0.44553032100E+01 -0.17450994353E+02  0.39487167392E+02  0.43400729478E+02  0.00000000000E+00 0.  1.
         11    1    3    3    0    0  0.63656671279E+01  0.17511619583E+02 -0.17263928725E+02  0.25401215989E+02  0.51100000000E-03 0. -1.
        -11    1    3    3    0    0 -0.32673663925E+00 -0.71259861309E+00 -0.11522652643E+02  0.11549289060E+02  0.51100000000E-03 0.  1.
         12    1    3    3    0    0 -0.15836272786E+01  0.65197338340E+00 -0.10700586024E+02  0.10836765473E+02  0.00000000000E+00 0. -1.
</event>
<event>
 7    1  0.2458979E-009  0.4778727E+02  0.7816164E-02  0.1312668E+00
        -11   -1    0    0    0    0  0.00000000000E+00  0.00000000000E+00  0.45593999997E+02  0.45594000000E+02  0.51100000000E-03 0. -1.
         11   -1    0    0    0    0 -0.00000000000E+00 -0.00000000000E+00 -0.45593999997E+02  0.45594000000E+02  0.51100000000E-03 0.  1.
    9900012    2    1    2    0    0  0.39395413393E+02 -0.24551779525E+01 -0.18044308189E+02  0.47787267827E+02  0.19999985329E+02 0.  0.
        -12    1    1    2    0    0 -0.39395413393E+02  0.24551779525E+01  0.18044308189E+02  0.43400732173E+02  0.00000000000E+00 0.  1.
         11    1    3    3    0    0  0.24328209407E+02  0.48007199358E+00 -0.10505526605E+02  0.26503930493E+02  0.51100000000E-03 0. -1.
        -11    1    3    3    0    0 -0.63883186909E+00 -0.39711622293E+00  0.24061951409E+01  0.25210281174E+01  0.51100000000E-03 0.  1.
        -12    1    3    3    0    0  0.15706035855E+02 -0.25381337231E+01 -0.99449767240E+01  0.18762309216E+02  0.00000000000E+00 0.  1.
</event>
<event>
 7    1  0.2458979E-009  0.4778727E+02  0.7816164E-02  0.1312668E+00
        -11   -1    0    0    0    0  0.00000000000E+00  0.00000000000E+00  0.45593999997E+02  0.45594000000E+02  0.51100000000E-03 0.  1.
         11   -1    0    0    0    0 -0.00000000000E+00 -0.00000000000E+00 -0.45593999997E+02  0.45594000000E+02  0.51100000000E-03 0. -1.
    9900012    2    1    2    0    0 -0.22917888211E+02 -0.28189459482E+01 -0.36748433591E+02  0.47787269273E+02  0.19999991923E+02 0.  0.
        -12    1    1    2    0    0  0.22917888211E+02  0.28189459482E+01  0.36748433591E+02  0.43400730727E+02  0.00000000000E+00 0.  1.
         11    1    3    3    0    0 -0.45526868512E+01  0.17626083004E+01 -0.21484097220E+02  0.22031799273E+02  0.51100000000E-03 0. -1.
        -11    1    3    3    0    0 -0.10090180073E+02 -0.64595313541E+01 -0.68275084594E+01  0.13789566754E+02  0.51100000000E-03 0.  1.
        -12    1    3    3    0    0 -0.82750212860E+01  0.18779771055E+01 -0.84368279107E+01  0.11965903246E+02  0.00000000000E+00 0.  1.
</event>
<event>
 7    1  0.2458979E-009  0.4778727E+02  0.7816164E-02  0.1312668E+00
        -11   -1    0    0    0    0  0.00000000000E+00  0.00000000000E+00  0.45593999997E+02  0.45594000000E+02  0.51100000000E-03 0.  1.
         11   -1    0    0    0    0 -0.00000000000E+00 -0.00000000000E+00 -0.45593999997E+02  0.45594000000E+02  0.51100000000E-03 0. -1.
    9900012    2    1    2    0    0 -0.36168857030E+02 -0.44113162604E+01 -0.23579180005E+02  0.47787266599E+02  0.19999979731E+02 0.  0.
        -12    1    1    2    0    0  0.36168857030E+02  0.44113162604E+01  0.23579180005E+02  0.43400733401E+02  0.00000000000E+00 0.  1.
         11    1    3    3    0    0 -0.28566147996E+01  0.27684073552E+00 -0.36443307254E+01  0.46387536692E+01  0.51100000000E-03 0. -1.
        -11    1    3    3    0    0 -0.22361088536E+02 -0.94537599427E+01 -0.19598135376E+02  0.31200621277E+02  0.51100000000E-03 0.  1.
        -12    1    3    3    0    0 -0.10951153694E+02  0.47656029467E+01 -0.33671390343E+00  0.11947891652E+02  0.00000000000E+00 0.  1.
</event>
<event>
 7    1  0.2458979E-009  0.4778726E+02  0.7816164E-02  0.1312668E+00
        -11   -1    0    0    0    0  0.00000000000E+00  0.00000000000E+00  0.45593999997E+02  0.45594000000E+02  0.51100000000E-03 0. -1.
         11   -1    0    0    0    0 -0.00000000000E+00 -0.00000000000E+00 -0.45593999997E+02  0.45594000000E+02  0.51100000000E-03 0.  1.
    9900012    2    1    2    0    0 -0.35964151375E+02  0.23883979705E+02 -0.44451636239E+01  0.47787260947E+02  0.19999953963E+02 0.  0.
        -12    1    1    2    0    0  0.35964151375E+02 -0.23883979705E+02  0.44451636239E+01  0.43400739053E+02  0.00000000000E+00 0.  1.
         11    1    3    3    0    0 -0.17390291542E+02  0.30256405984E+01  0.22095522937E+01  0.17789290670E+02  0.51100000000E-03 0. -1.
        -11    1    3    3    0    0 -0.10399101623E+02  0.15757354539E+02 -0.75231359805E+01  0.20323216081E+02  0.51100000000E-03 0.  1.
        -12    1    3    3    0    0 -0.81747582096E+01  0.51009845672E+01  0.86842006293E+00  0.96747541956E+01  0.00000000000E+00 0.  1.
</event>
<event>
 7    1  0.2458979E-009  0.4778727E+02  0.7816164E-02  0.1312668E+00
        -11   -1    0    0    0    0  0.00000000000E+00  0.00000000000E+00  0.45593999997E+02  0.45594000000E+02  0.51100000000E-03 0. -1.
         11   -1    0    0    0    0 -0.00000000000E+00 -0.00000000000E+00 -0.45593999997E+02  0.45594000000E+02  0.51100000000E-03 0.  1.
    9900012    2    1    2    0    0  0.12957634060E+02 -0.81720759160E+01  0.40607145237E+02  0.47787270173E+02  0.19999996026E+02 0.  0.
        -12    1    1    2    0    0 -0.12957634060E+02  0.81720759160E+01 -0.40607145237E+02  0.43400729827E+02  0.00000000000E+00 0.  1.
         11    1    3    3    0    0  0.36116271015E+01 -0.82565533391E+01  0.32022078731E+02  0.33266019448E+02  0.51100000000E-03 0. -1.
        -11    1    3    3    0    0  0.47949735550E+01  0.43939025144E+00  0.19352907269E-01  0.48151022817E+01  0.51100000000E-03 0.  1.
         12    1    3    3    0    0  0.45510334032E+01 -0.35491282838E+00  0.85657135988E+01  0.97061484437E+01  0.00000000000E+00 0. -1.
</event>
<event>
 7    1  0.2458979E-009  0.4778728E+02  0.7816164E-02  0.1312668E+00
        -11   -1    0    0    0    0  0.00000000000E+00  0.00000000000E+00  0.45593999997E+02  0.45594000000E+02  0.51100000000E-03 0.  1.
         11   -1    0    0    0    0 -0.00000000000E+00 -0.00000000000E+00 -0.45593999997E+02  0.45594000000E+02  0.51100000000E-03 0. -1.
    9900012    2    1    2    0    0  0.13823039834E+02 -0.72476782533E+01 -0.40497128589E+02  0.47787277722E+02  0.20000030446E+02 0.  0.
        -12    1    1    2    0    0 -0.13823039834E+02  0.72476782533E+01  0.40497128589E+02  0.43400722278E+02  0.00000000000E+00 0.  1.
         11    1    3    3    0    0  0.69577877016E+01  0.17555032793E+01 -0.15371762960E+02  0.16964188699E+02  0.51100000000E-03 0. -1.
        -11    1    3    3    0    0 -0.33545551826E+01 -0.51781668874E+01 -0.50472864050E+01  0.79712955724E+01  0.51100000000E-03 0.  1.
        -12    1    3    3    0    0  0.10219807315E+02 -0.38250146453E+01 -0.20078079224E+02  0.22851793451E+02  0.00000000000E+00 0.  1.
</event>
<event>
 7    1  0.2458979E-009  0.4778728E+02  0.7816164E-02  0.1312668E+00
        -11   -1    0    0    0    0  0.00000000000E+00  0.00000000000E+00  0.45593999997E+02  0.45594000000E+02  0.51100000000E-03 0.  1.
         11   -1    0    0    0    0 -0.00000000000E+00 -0.00000000000E+00 -0.45593999997E+02  0.45594000000E+02  0.51100000000E-03 0. -1.
    9900012    2    1    2    0    0  0.13036120011E+01  0.37433029226E+02 -0.21924672781E+02  0.47787281597E+02  0.20000048115E+02 0.  0.
        -12    1    1    2    0    0 -0.13036120011E+01 -0.37433029226E+02  0.21924672781E+02  0.43400718403E+02  0.00000000000E+00 0.  1.
         11    1    3    3    0    0  0.26995638749E+01  0.28201681095E+02 -0.25010300681E+02  0.37790707880E+02  0.51100000000E-03 0. -1.
        -11    1    3    3    0    0 -0.11486191836E+01  0.74136297350E+01  0.16861498809E+01  0.76892349137E+01  0.51100000000E-03 0.  1.
         12    1    3    3    0    0 -0.24733269024E+00  0.18177183962E+01  0.13994780188E+01  0.23073388032E+01  0.00000000000E+00 0. -1.
</event>
<event>
 7    1  0.2458979E-009  0.4778727E+02  0.7816164E-02  0.1312668E+00
        -11   -1    0    0    0    0  0.00000000000E+00  0.00000000000E+00  0.45593999997E+02  0.45594000000E+02  0.51100000000E-03 0. -1.
         11   -1    0    0    0    0 -0.00000000000E+00 -0.00000000000E+00 -0.45593999997E+02  0.45594000000E+02  0.51100000000E-03 0.  1.
    9900012    2    1    2    0    0  0.98129903839E+01 -0.36752000153E+02  0.20895426917E+02  0.47787272338E+02  0.20000005897E+02 0.  0.
        -12    1    1    2    0    0 -0.98129903839E+01  0.36752000153E+02 -0.20895426917E+02  0.43400727662E+02  0.00000000000E+00 0.  1.
         11    1    3    3    0    0  0.12728081410E+02 -0.27497238883E+02  0.10298503800E+02  0.32002521515E+02  0.51100000000E-03 0. -1.
        -11    1    3    3    0    0 -0.48032388338E+01 -0.45256944627E+01  0.62577592138E+01  0.90946448145E+01  0.51100000000E-03 0.  1.
        -12    1    3    3    0    0  0.18881478080E+01 -0.47290668079E+01  0.43391639036E+01  0.66901060081E+01  0.00000000000E+00 0.  1.
</event>
<event>
 7    1  0.2458979E-009  0.4778727E+02  0.7816164E-02  0.1312668E+00
        -11   -1    0    0    0    0  0.00000000000E+00  0.00000000000E+00  0.45593999997E+02  0.45594000000E+02  0.51100000000E-03 0.  1.
         11   -1    0    0    0    0 -0.00000000000E+00 -0.00000000000E+00 -0.45593999997E+02  0.45594000000E+02  0.51100000000E-03 0. -1.
    9900012    2    1    2    0    0 -0.94857940762E+01 -0.46143283390E-02 -0.42351420446E+02  0.47787272767E+02  0.20000007855E+02 0.  0.
        -12    1    1    2    0    0  0.94857940762E+01  0.46143283390E-02  0.42351420446E+02  0.43400727233E+02  0.00000000000E+00 0.  1.
         11    1    3    3    0    0 -0.97189581069E+01 -0.36146782255E+01 -0.42467062623E+02  0.43714705231E+02  0.51100000000E-03 0. -1.
        -11    1    3    3    0    0  0.25005050094E+00  0.37920804876E+01 -0.84835263845E-01  0.38012625482E+01  0.51100000000E-03 0.  1.
         12    1    3    3    0    0 -0.16886470165E-01 -0.18201659041E+00  0.20047744093E+00  0.27130498776E+00  0.00000000000E+00 0. -1.
</event>
<event>
 7    1  0.2458979E-009  0.4778727E+02  0.7816164E-02  0.1312668E+00
        -11   -1    0    0    0    0  0.00000000000E+00  0.00000000000E+00  0.45593999997E+02  0.45594000000E+02  0.51100000000E-03 0.  1.
         11   -1    0    0    0    0 -0.00000000000E+00 -0.00000000000E+00 -0.45593999997E+02  0.45594000000E+02  0.51100000000E-03 0. -1.
    9900012    2    1    2    0    0 -0.82525369335E+01 -0.32742622920E+02 -0.27266091946E+02  0.47787268537E+02  0.19999988566E+02 0.  0.
        -12    1    1    2    0    0  0.82525369335E+01  0.32742622920E+02  0.27266091946E+02  0.43400731463E+02  0.00000000000E+00 0.  1.
         11    1    3    3    0    0 -0.29852570020E+00 -0.25766047257E+01 -0.11914187807E+02  0.12193271951E+02  0.51100000000E-03 0. -1.
        -11    1    3    3    0    0 -0.39468216151E+01 -0.19083193483E+02 -0.55405011195E+01  0.20259388621E+02  0.51100000000E-03 0.  1.
         12    1    3    3    0    0 -0.40071896183E+01 -0.11082824712E+02 -0.98114030191E+01  0.15334607965E+02  0.00000000000E+00 0. -1.
</event>
<event>
 7    1  0.2458979E-009  0.4778728E+02  0.7816164E-02  0.1312668E+00
        -11   -1    0    0    0    0  0.00000000000E+00  0.00000000000E+00  0.45593999997E+02  0.45594000000E+02  0.51100000000E-03 0.  1.
         11   -1    0    0    0    0 -0.00000000000E+00 -0.00000000000E+00 -0.45593999997E+02  0.45594000000E+02  0.51100000000E-03 0. -1.
    9900012    2    1    2    0    0  0.22913611316E+02 -0.31892451665E+02 -0.18478647469E+02  0.47787280317E+02  0.20000042277E+02 0.  0.
        -12    1    1    2    0    0 -0.22913611316E+02  0.31892451665E+02  0.18478647469E+02  0.43400719683E+02  0.00000000000E+00 0.  1.
         11    1    3    3    0    0  0.19684888777E+02 -0.17790262234E+02 -0.73676554740E+01  0.27536714109E+02  0.51100000000E-03 0. -1.
        -11    1    3    3    0    0 -0.11179105290E+00 -0.11599380182E+02 -0.45208869852E+01  0.12449760529E+02  0.51100000000E-03 0.  1.
         12    1    3    3    0    0  0.33405135924E+01 -0.25028092494E+01 -0.65901050093E+01  0.78008056785E+01  0.00000000000E+00 0. -1.
</event>
<event>
 7    1  0.2458979E-009  0.4778727E+02  0.7816164E-02  0.1312668E+00
        -11   -1    0    0    0    0  0.00000000000E+00  0.00000000000E+00  0.45593999997E+02  0.45594000000E+02  0.51100000000E-03 0.  1.
         11   -1    0    0    0    0 -0.00000000000E+00 -0.00000000000E+00 -0.45593999997E+02  0.45594000000E+02  0.51100000000E-03 0. -1.
    9900012    2    1    2    0    0 -0.38177975751E+02 -0.21901704099E+01 -0.20524830533E+02  0.47787270199E+02  0.19999996145E+02 0.  0.
        -12    1    1    2    0    0  0.38177975751E+02  0.21901704099E+01  0.20524830533E+02  0.43400729801E+02  0.00000000000E+00 0.  1.
         11    1    3    3    0    0 -0.29150134163E+02 -0.20637082122E+01 -0.81656997817E+01  0.30342509232E+02  0.51100000000E-03 0. -1.
        -11    1    3    3    0    0  0.27340456940E+00 -0.25388560042E+01 -0.37893776489E+01  0.45694554485E+01  0.51100000000E-03 0.  1.
         12    1    3    3    0    0 -0.93012461570E+01  0.24123938065E+01 -0.85697531029E+01  0.12875305519E+02  0.00000000000E+00 0. -1.
</event>
<event>
 7    1  0.2458979E-009  0.4778727E+02  0.7816164E-02  0.1312668E+00
        -11   -1    0    0    0    0  0.00000000000E+00  0.00000000000E+00  0.45593999997E+02  0.45594000000E+02  0.51100000000E-03 0.  1.
         11   -1    0    0    0    0 -0.00000000000E+00 -0.00000000000E+00 -0.45593999997E+02  0.45594000000E+02  0.51100000000E-03 0. -1.
    9900012    2    1    2    0    0 -0.18790724895E+02  0.48996600941E+01 -0.38813983158E+02  0.47787270747E+02  0.19999998642E+02 0.  0.
        -12    1    1    2    0    0  0.18790724895E+02 -0.48996600941E+01  0.38813983158E+02  0.43400729253E+02  0.00000000000E+00 0.  1.
         11    1    3    3    0    0 -0.14795042528E+02 -0.16042979021E+01 -0.24859495400E+02  0.28973463151E+02  0.51100000000E-03 0. -1.
        -11    1    3    3    0    0 -0.30237089115E+01  0.82361083483E+01 -0.60344623153E+01  0.10648522527E+02  0.51100000000E-03 0.  1.
        -12    1    3    3    0    0 -0.97197345587E+00 -0.17321503521E+01 -0.79200254424E+01  0.81652850684E+01  0.00000000000E+00 0.  1.
</event>
<event>
 7    1  0.2458979E-009  0.4778727E+02  0.7816164E-02  0.1312668E+00
        -11   -1    0    0    0    0  0.00000000000E+00  0.00000000000E+00  0.45593999997E+02  0.45594000000E+02  0.51100000000E-03 0.  1.
         11   -1    0    0    0    0 -0.00000000000E+00 -0.00000000000E+00 -0.45593999997E+02  0.45594000000E+02  0.51100000000E-03 0. -1.
    9900012    2    1    2    0    0 -0.25895484605E+02 -0.26367822574E+02 -0.22754884058E+02  0.47787274906E+02  0.20000017605E+02 0.  0.
        -12    1    1    2    0    0  0.25895484605E+02  0.26367822574E+02  0.22754884058E+02  0.43400725094E+02  0.00000000000E+00 0.  1.
         11    1    3    3    0    0  0.80832804083E+00 -0.46719596069E+01 -0.43387768136E+01  0.64269421414E+01  0.51100000000E-03 0. -1.
        -11    1    3    3    0    0 -0.12441151155E+02 -0.18135151565E+02 -0.13750592995E+02  0.25937323924E+02  0.51100000000E-03 0.  1.
        -12    1    3    3    0    0 -0.14262661491E+02 -0.35607114020E+01 -0.46655142499E+01  0.15423008841E+02  0.00000000000E+00 0.  1.
</event>
<event>
 7    1  0.2458979E-009  0.4778727E+02  0.7816164E-02  0.1312668E+00
        -11   -1    0    0    0    0  0.00000000000E+00  0.00000000000E+00  0.45593999997E+02  0.45594000000E+02  0.51100000000E-03 0. -1.
         11   -1    0    0    0    0 -0.00000000000E+00 -0.00000000000E+00 -0.45593999997E+02  0.45594000000E+02  0.51100000000E-03 0.  1.
    9900012    2    1    2    0    0  0.14933693727E+02  0.27210528821E+02  0.30334722922E+02  0.47787268419E+02  0.19999988028E+02 0.  0.
        -12    1    1    2    0    0 -0.14933693727E+02 -0.27210528821E+02 -0.30334722922E+02  0.43400731581E+02  0.00000000000E+00 0.  1.
         11    1    3    3    0    0  0.47226440849E+01  0.13893220983E+02  0.80992362117E+01  0.16760745327E+02  0.51100000000E-03 0. -1.
        -11    1    3    3    0    0  0.78966834634E+01  0.61351622935E+01  0.21160680448E+02  0.23404534248E+02  0.51100000000E-03 0.  1.
        -12    1    3    3    0    0  0.23143661793E+01  0.71821455441E+01  0.10748062616E+01  0.76219888434E+01  0.00000000000E+00 0.  1.
</event>
<event>
 7    1  0.2458979E-009  0.4778726E+02  0.7816164E-02  0.1312668E+00
        -11   -1    0    0    0    0  0.00000000000E+00  0.00000000000E+00  0.45593999997E+02  0.45594000000E+02  0.51100000000E-03 0.  1.
         11   -1    0    0    0    0 -0.00000000000E+00 -0.00000000000E+00 -0.45593999997E+02  0.45594000000E+02  0.51100000000E-03 0. -1.
    9900012    2    1    2    0    0 -0.32190078220E+02 -0.18223786631E+02 -0.22700579100E+02  0.47787264678E+02  0.19999970975E+02 0.  0.
        -12    1    1    2    0    0  0.32190078220E+02  0.18223786631E+02  0.22700579100E+02  0.43400735322E+02  0.00000000000E+00 0.  1.
         11    1    3    3    0    0 -0.14685003703E+02 -0.34167117399E+01 -0.15430583567E+02  0.21573737792E+02  0.51100000000E-03 0. -1.
        -11    1    3    3    0    0 -0.85318827849E+01 -0.87766695215E+01  0.14474184858E+01  0.12325500894E+02  0.51100000000E-03 0.  1.
        -12    1    3    3    0    0 -0.89731917327E+01 -0.60304053696E+01 -0.87174140185E+01  0.13888025992E+02  0.00000000000E+00 0.  1.
</event>
<event>
 7    1  0.2458979E-009  0.4778727E+02  0.7816164E-02  0.1312668E+00
        -11   -1    0    0    0    0  0.00000000000E+00  0.00000000000E+00  0.45593999997E+02  0.45594000000E+02  0.51100000000E-03 0. -1.
         11   -1    0    0    0    0 -0.00000000000E+00 -0.00000000000E+00 -0.45593999997E+02  0.45594000000E+02  0.51100000000E-03 0.  1.
    9900012    2    1    2    0    0  0.19729318236E+02 -0.34214898968E+02  0.17992165251E+02  0.47787270515E+02  0.19999997586E+02 0.  0.
        -12    1    1    2    0    0 -0.19729318236E+02  0.34214898968E+02 -0.17992165251E+02  0.43400729485E+02  0.00000000000E+00 0.  1.
         11    1    3    3    0    0 -0.18457719221E+01  0.12299583288E+01  0.98282708462E+00  0.24260298469E+01  0.51100000000E-03 0. -1.
        -11    1    3    3    0    0  0.11787911021E+02 -0.15461163242E+02  0.49967712335E+01  0.20074116121E+02  0.51100000000E-03 0.  1.
         12    1    3    3    0    0  0.97871791369E+01 -0.19983694055E+02  0.12012566933E+02  0.25287124547E+02  0.00000000000E+00 0. -1.
</event>
<event>
 7    1  0.2458979E-009  0.4778724E+02  0.7816164E-02  0.1312668E+00
        -11   -1    0    0    0    0  0.00000000000E+00  0.00000000000E+00  0.45593999997E+02  0.45594000000E+02  0.51100000000E-03 0.  1.
         11   -1    0    0    0    0 -0.00000000000E+00 -0.00000000000E+00 -0.45593999997E+02  0.45594000000E+02  0.51100000000E-03 0. -1.
    9900012    2    1    2    0    0  0.13556161639E+02  0.18466304085E+02 -0.36862614622E+02  0.47787236623E+02  0.19999843058E+02 0.  0.
        -12    1    1    2    0    0 -0.13556161639E+02 -0.18466304085E+02  0.36862614622E+02  0.43400763377E+02  0.00000000000E+00 0.  1.
         11    1    3    3    0    0 -0.22151285620E+01  0.12193932785E+01 -0.27909699280E+01  0.37660626540E+01  0.51100000000E-03 0. -1.
        -11    1    3    3    0    0  0.41121288475E+01  0.14949651855E+02 -0.15151938479E+02  0.21679089791E+02  0.51100000000E-03 0.  1.
        -12    1    3    3    0    0  0.11659161354E+02  0.22972589517E+01 -0.18919706215E+02  0.22342084178E+02  0.00000000000E+00 0.  1.
</event>
<event>
 7    1  0.2458979E-009  0.4778726E+02  0.7816164E-02  0.1312668E+00
        -11   -1    0    0    0    0  0.00000000000E+00  0.00000000000E+00  0.45593999997E+02  0.45594000000E+02  0.51100000000E-03 0.  1.
         11   -1    0    0    0    0 -0.00000000000E+00 -0.00000000000E+00 -0.45593999997E+02  0.45594000000E+02  0.51100000000E-03 0. -1.
    9900012    2    1    2    0    0  0.40488190373E+02 -0.75466624874E+01 -0.13688641777E+02  0.47787255904E+02  0.19999930970E+02 0.  0.
        -12    1    1    2    0    0 -0.40488190373E+02  0.75466624874E+01  0.13688641777E+02  0.43400744096E+02  0.00000000000E+00 0.  1.
         11    1    3    3    0    0  0.36948574816E+02 -0.70835284686E+01 -0.83963116567E+01  0.38547005152E+02  0.51100000000E-03 0. -1.
        -11    1    3    3    0    0  0.43270899522E+01 -0.36981033241E+00 -0.64869044880E+01  0.78064330673E+01  0.51100000000E-03 0.  1.
         12    1    3    3    0    0 -0.78747439522E+00 -0.93323686318E-01  0.11945743679E+01  0.14338176850E+01  0.00000000000E+00 0. -1.
</event>
<event>
 7    1  0.2458979E-009  0.4778727E+02  0.7816164E-02  0.1312668E+00
        -11   -1    0    0    0    0  0.00000000000E+00  0.00000000000E+00  0.45593999997E+02  0.45594000000E+02  0.51100000000E-03 0.  1.
         11   -1    0    0    0    0 -0.00000000000E+00 -0.00000000000E+00 -0.45593999997E+02  0.45594000000E+02  0.51100000000E-03 0. -1.
    9900012    2    1    2    0    0  0.19631695760E+02  0.68743359683E+01 -0.38091510303E+02  0.47787272696E+02  0.20000007528E+02 0.  0.
        -12    1    1    2    0    0 -0.19631695760E+02 -0.68743359683E+01  0.38091510303E+02  0.43400727304E+02  0.00000000000E+00 0.  1.
         11    1    3    3    0    0  0.32529126390E+01 -0.37460936236E+00 -0.10178188068E+02  0.10691926180E+02  0.51100000000E-03 0. -1.
        -11    1    3    3    0    0  0.12926603283E+02 -0.45741978997E+00 -0.25026116120E+02  0.28171134049E+02  0.51100000000E-03 0.  1.
        -12    1    3    3    0    0  0.34521798387E+01  0.77063651206E+01 -0.28872061140E+01  0.89242124670E+01  0.00000000000E+00 0.  1.
</event>
<event>
 7    1  0.2458979E-009  0.4778727E+02  0.7816164E-02  0.1312668E+00
        -11   -1    0    0    0    0  0.00000000000E+00  0.00000000000E+00  0.45593999997E+02  0.45594000000E+02  0.51100000000E-03 0.  1.
         11   -1    0    0    0    0 -0.00000000000E+00 -0.00000000000E+00 -0.45593999997E+02  0.45594000000E+02  0.51100000000E-03 0. -1.
    9900012    2    1    2    0    0 -0.13899410739E+02  0.32325813481E+02 -0.25406125557E+02  0.47787273602E+02  0.20000011660E+02 0.  0.
        -12    1    1    2    0    0  0.13899410739E+02 -0.32325813481E+02  0.25406125557E+02  0.43400726398E+02  0.00000000000E+00 0.  1.
         11    1    3    3    0    0 -0.10064215437E+02  0.17355313064E+02 -0.12191105951E+02  0.23475910813E+02  0.51100000000E-03 0. -1.
        -11    1    3    3    0    0  0.33431987076E+01  0.12093341179E+02 -0.94648572423E+01  0.15716532739E+02  0.51100000000E-03 0.  1.
        -12    1    3    3    0    0 -0.71783940095E+01  0.28771592385E+01 -0.37501623632E+01  0.85948300501E+01  0.00000000000E+00 0.  1.
</event>
<event>
 7    1  0.2458979E-009  0.4778727E+02  0.7816164E-02  0.1312668E+00
        -11   -1    0    0    0    0  0.00000000000E+00  0.00000000000E+00  0.45593999997E+02  0.45594000000E+02  0.51100000000E-03 0.  1.
         11   -1    0    0    0    0 -0.00000000000E+00 -0.00000000000E+00 -0.45593999997E+02  0.45594000000E+02  0.51100000000E-03 0. -1.
    9900012    2    1    2    0    0  0.38067852252E+02  0.19743400075E+02 -0.66827991046E+01  0.47787273906E+02  0.20000013046E+02 0.  0.
        -12    1    1    2    0    0 -0.38067852252E+02 -0.19743400075E+02  0.66827991046E+01  0.43400726094E+02  0.00000000000E+00 0.  1.
         11    1    3    3    0    0  0.83471759401E+01  0.11452263525E+02  0.22088132558E+01  0.14342543089E+02  0.51100000000E-03 0. -1.
        -11    1    3    3    0    0  0.93549370987E+01  0.37603152890E+01 -0.74406638306E+01  0.12530694222E+02  0.51100000000E-03 0.  1.
         12    1    3    3    0    0  0.20365739214E+02  0.45308212613E+01 -0.14509485299E+01  0.20914036594E+02  0.00000000000E+00 0. -1.
</event>
<event>
 7    1  0.2458979E-009  0.4778727E+02  0.7816164E-02  0.1312668E+00
        -11   -1    0    0    0    0  0.00000000000E+00  0.00000000000E+00  0.45593999997E+02  0.45594000000E+02  0.51100000000E-03 0. -1.
         11   -1    0    0    0    0 -0.00000000000E+00 -0.00000000000E+00 -0.45593999997E+02  0.45594000000E+02  0.51100000000E-03 0.  1.
    9900012    2    1    2    0    0 -0.35724352254E+02 -0.15731870996E+02  0.18971083778E+02  0.47787272717E+02  0.20000007624E+02 0.  0.
        -12    1    1    2    0    0  0.35724352254E+02  0.15731870996E+02 -0.18971083778E+02  0.43400727283E+02  0.00000000000E+00 0.  1.
         11    1    3    3    0    0 -0.30231029595E+02 -0.19961018255E+02  0.16713389590E+02  0.39896049829E+02  0.51100000000E-03 0. -1.
        -11    1    3    3    0    0 -0.49441229684E+01  0.31119570352E+01  0.28643469322E+01  0.65063900993E+01  0.51100000000E-03 0.  1.
         12    1    3    3    0    0 -0.54919969108E+00  0.11171902243E+01 -0.60665274436E+00  0.13848327878E+01  0.00000000000E+00 0. -1.
</event>
<event>
 7    1  0.2458979E-009  0.4778727E+02  0.7816164E-02  0.1312668E+00
        -11   -1    0    0    0    0  0.00000000000E+00  0.00000000000E+00  0.45593999997E+02  0.45594000000E+02  0.51100000000E-03 0. -1.
         11   -1    0    0    0    0 -0.00000000000E+00 -0.00000000000E+00 -0.45593999997E+02  0.45594000000E+02  0.51100000000E-03 0.  1.
    9900012    2    1    2    0    0  0.33593806078E+02 -0.18431396793E+02 -0.20380457646E+02  0.47787271338E+02  0.20000001338E+02 0.  0.
        -12    1    1    2    0    0 -0.33593806078E+02  0.18431396793E+02  0.20380457646E+02  0.43400728662E+02  0.00000000000E+00 0.  1.
         11    1    3    3    0    0  0.33534768311E+02 -0.11198057735E+02 -0.17966962545E+02  0.39658402969E+02  0.51100000000E-03 0. -1.
        -11    1    3    3    0    0 -0.11354718917E+01 -0.19399038368E+01 -0.16142736298E+00  0.22535710257E+01  0.51100000000E-03 0.  1.
         12    1    3    3    0    0  0.11945096583E+01 -0.52934352219E+01 -0.22520677381E+01  0.58752973430E+01  0.00000000000E+00 0. -1.
</event>
<event>
 7    1  0.2458979E-009  0.4778727E+02  0.7816164E-02  0.1312668E+00
        -11   -1    0    0    0    0  0.00000000000E+00  0.00000000000E+00  0.45593999997E+02  0.45594000000E+02  0.51100000000E-03 0. -1.
         11   -1    0    0    0    0 -0.00000000000E+00 -0.00000000000E+00 -0.45593999997E+02  0.45594000000E+02  0.51100000000E-03 0.  1.
    9900012    2    1    2    0    0  0.24584082799E+02  0.10391235014E+02  0.34223799888E+02  0.47787269926E+02  0.19999994901E+02 0.  0.
        -12    1    1    2    0    0 -0.24584082799E+02 -0.10391235014E+02 -0.34223799888E+02  0.43400730074E+02  0.00000000000E+00 0.  1.
         11    1    3    3    0    0 -0.31611925360E+00 -0.64637245789E+00 -0.16158762687E+01  0.17688372208E+01  0.51100000000E-03 0. -1.
        -11    1    3    3    0    0  0.42866306158E+01 -0.16224319057E+01  0.44444465829E+01  0.63844023224E+01  0.51100000000E-03 0.  1.
         12    1    3    3    0    0  0.20613571437E+02  0.12660039378E+02  0.31395229574E+02  0.39634030383E+02  0.00000000000E+00 0. -1.
</event>
<event>
 7    1  0.2458979E-009  0.4778727E+02  0.7816164E-02  0.1312668E+00
        -11   -1    0    0    0    0  0.00000000000E+00  0.00000000000E+00  0.45593999997E+02  0.45594000000E+02  0.51100000000E-03 0.  1.
         11   -1    0    0    0    0 -0.00000000000E+00 -0.00000000000E+00 -0.45593999997E+02  0.45594000000E+02  0.51100000000E-03 0. -1.
    9900012    2    1    2    0    0  0.13899908126E+02 -0.40269633923E+02  0.82929119754E+01  0.47787271305E+02  0.20000001188E+02 0.  0.
        -12    1    1    2    0    0 -0.13899908126E+02  0.40269633923E+02 -0.82929119754E+01  0.43400728695E+02  0.00000000000E+00 0.  1.
         11    1    3    3    0    0 -0.15140207772E+00 -0.22503365582E+01 -0.40935709431E+01  0.46737843918E+01  0.51100000000E-03 0.  1.
        -11    1    3    3    0    0  0.30824132435E+01 -0.14896102171E+02  0.78634761120E+01  0.17123941956E+02  0.51100000000E-03 0. -1.
         12    1    3    3    0    0  0.10968896960E+02 -0.23123195194E+02  0.45230068064E+01  0.25989544957E+02  0.00000000000E+00 0. -1.
</event>
<event>
 7    1  0.2458979E-009  0.4778727E+02  0.7816164E-02  0.1312668E+00
        -11   -1    0    0    0    0  0.00000000000E+00  0.00000000000E+00  0.45593999997E+02  0.45594000000E+02  0.51100000000E-03 0.  1.
         11   -1    0    0    0    0 -0.00000000000E+00 -0.00000000000E+00 -0.45593999997E+02  0.45594000000E+02  0.51100000000E-03 0. -1.
    9900012    2    1    2    0    0 -0.12431659835E+02 -0.38380569069E+02 -0.16000286255E+02  0.47787269493E+02  0.19999992925E+02 0.  0.
        -12    1    1    2    0    0  0.12431659835E+02  0.38380569069E+02  0.16000286255E+02  0.43400730507E+02  0.00000000000E+00 0.  1.
         11    1    3    3    0    0 -0.86479643796E+01 -0.20753631143E+02 -0.78546422521E+01  0.23815874931E+02  0.51100000000E-03 0. -1.
        -11    1    3    3    0    0 -0.43771641333E+01 -0.87401529022E+00 -0.53648178517E+01  0.69788780918E+01  0.51100000000E-03 0.  1.
        -12    1    3    3    0    0  0.59346867747E+00 -0.16752922636E+02 -0.27808261511E+01  0.16992516470E+02  0.00000000000E+00 0.  1.
</event>
<event>
 7    1  0.2458979E-009  0.4778726E+02  0.7816164E-02  0.1312668E+00
        -11   -1    0    0    0    0  0.00000000000E+00  0.00000000000E+00  0.45593999997E+02  0.45594000000E+02  0.51100000000E-03 0. -1.
         11   -1    0    0    0    0 -0.00000000000E+00 -0.00000000000E+00 -0.45593999997E+02  0.45594000000E+02  0.51100000000E-03 0.  1.
    9900012    2    1    2    0    0  0.39349252059E+02 -0.10042458560E+02  0.15310446872E+02  0.47787258129E+02  0.19999941112E+02 0.  0.
        -12    1    1    2    0    0 -0.39349252059E+02  0.10042458560E+02 -0.15310446872E+02  0.43400741871E+02  0.00000000000E+00 0.  1.
         11    1    3    3    0    0  0.53155213806E+01  0.17902115077E+01  0.79389367132E+01  0.97204084887E+01  0.51100000000E-03 0. -1.
        -11    1    3    3    0    0  0.97442295726E+01 -0.81133781782E+01  0.12363028379E+01  0.12739912103E+02  0.51100000000E-03 0.  1.
        -12    1    3    3    0    0  0.24289501106E+02 -0.37192918896E+01  0.61352073213E+01  0.25326937537E+02  0.00000000000E+00 0.  1.
</event>
<event>
 7    1  0.2458979E-009  0.4778727E+02  0.7816164E-02  0.1312668E+00
        -11   -1    0    0    0    0  0.00000000000E+00  0.00000000000E+00  0.45593999997E+02  0.45594000000E+02  0.51100000000E-03 0.  1.
         11   -1    0    0    0    0 -0.00000000000E+00 -0.00000000000E+00 -0.45593999997E+02  0.45594000000E+02  0.51100000000E-03 0. -1.
    9900012    2    1    2    0    0  0.22870952963E+02  0.76091691334E+01 -0.36092148532E+02  0.47787272701E+02  0.20000007555E+02 0.  0.
        -12    1    1    2    0    0 -0.22870952963E+02 -0.76091691334E+01  0.36092148532E+02  0.43400727299E+02  0.00000000000E+00 0.  1.
         11    1    3    3    0    0  0.74902587643E+01  0.83358315820E+01 -0.44395822565E+01  0.12054043114E+02  0.51100000000E-03 0. -1.
        -11    1    3    3    0    0  0.87017257597E+01 -0.31875069159E+01 -0.15127485338E+02  0.17740378926E+02  0.51100000000E-03 0.  1.
         12    1    3    3    0    0  0.66789684394E+01  0.24608444674E+01 -0.16525080938E+02  0.17992850662E+02  0.00000000000E+00 0. -1.
</event>
<event>
 7    1  0.2458979E-009  0.4778727E+02  0.7816164E-02  0.1312668E+00
        -11   -1    0    0    0    0  0.00000000000E+00  0.00000000000E+00  0.45593999997E+02  0.45594000000E+02  0.51100000000E-03 0. -1.
         11   -1    0    0    0    0 -0.00000000000E+00 -0.00000000000E+00 -0.45593999997E+02  0.45594000000E+02  0.51100000000E-03 0.  1.
    9900012    2    1    2    0    0 -0.20914072164E+02  0.66219378184E+01  0.37448294293E+02  0.47787271660E+02  0.20000002808E+02 0.  0.
        -12    1    1    2    0    0  0.20914072164E+02 -0.66219378184E+01 -0.37448294293E+02  0.43400728340E+02  0.00000000000E+00 0.  1.
         11    1    3    3    0    0  0.17471063232E+01  0.71931831488E+00  0.10772220123E+02  0.10936659727E+02  0.51100000000E-03 0. -1.
        -11    1    3    3    0    0 -0.23108669988E+02  0.70114547399E+01  0.25966192927E+02  0.35460038093E+02  0.51100000000E-03 0.  1.
        -12    1    3    3    0    0  0.44749150108E+00 -0.11088352363E+01  0.70988124268E+00  0.13905738397E+01  0.00000000000E+00 0.  1.
</event>
<event>
 7    1  0.2458979E-009  0.4778727E+02  0.7816164E-02  0.1312668E+00
        -11   -1    0    0    0    0  0.00000000000E+00  0.00000000000E+00  0.45593999997E+02  0.45594000000E+02  0.51100000000E-03 0.  1.
         11   -1    0    0    0    0 -0.00000000000E+00 -0.00000000000E+00 -0.45593999997E+02  0.45594000000E+02  0.51100000000E-03 0. -1.
    9900012    2    1    2    0    0 -0.43185437699E+01  0.32713342780E+02 -0.28192382919E+02  0.47787273384E+02  0.20000010667E+02 0.  0.
        -12    1    1    2    0    0  0.43185437699E+01 -0.32713342780E+02  0.28192382919E+02  0.43400726616E+02  0.00000000000E+00 0.  1.
         11    1    3    3    0    0 -0.35768579874E+01  0.18422470926E+02 -0.15973169515E+02  0.24643934197E+02  0.51100000000E-03 0. -1.
        -11    1    3    3    0    0 -0.39903410458E+01 -0.19057316995E+00 -0.56340538689E+01  0.69066419520E+01  0.51100000000E-03 0.  1.
        -12    1    3    3    0    0  0.32486552633E+01  0.14481445023E+02 -0.65851595353E+01  0.16236697235E+02  0.00000000000E+00 0.  1.
</event>
<event>
 7    1  0.2458979E-009  0.4778727E+02  0.7816164E-02  0.1312668E+00
        -11   -1    0    0    0    0  0.00000000000E+00  0.00000000000E+00  0.45593999997E+02  0.45594000000E+02  0.51100000000E-03 0.  1.
         11   -1    0    0    0    0 -0.00000000000E+00 -0.00000000000E+00 -0.45593999997E+02  0.45594000000E+02  0.51100000000E-03 0. -1.
    9900012    2    1    2    0    0  0.63395732919E+00  0.36865456664E+02 -0.22894534977E+02  0.47787268109E+02  0.19999986615E+02 0.  0.
        -12    1    1    2    0    0 -0.63395732919E+00 -0.36865456664E+02  0.22894534977E+02  0.43400731891E+02  0.00000000000E+00 0.  1.
         11    1    3    3    0    0 -0.11076575669E+01  0.29143303093E+01 -0.10198582056E+02  0.10664487922E+02  0.51100000000E-03 0. -1.
        -11    1    3    3    0    0 -0.81135154376E+00  0.36134636515E+01 -0.40198612162E+01  0.54657749082E+01  0.51100000000E-03 0.  1.
         12    1    3    3    0    0  0.25529664398E+01  0.30337662703E+02 -0.86760917045E+01  0.31657005278E+02  0.00000000000E+00 0. -1.
</event>
<event>
 7    1  0.2458979E-009  0.4778727E+02  0.7816164E-02  0.1312668E+00
        -11   -1    0    0    0    0  0.00000000000E+00  0.00000000000E+00  0.45593999997E+02  0.45594000000E+02  0.51100000000E-03 0. -1.
         11   -1    0    0    0    0 -0.00000000000E+00 -0.00000000000E+00 -0.45593999997E+02  0.45594000000E+02  0.51100000000E-03 0.  1.
    9900012    2    1    2    0    0  0.10073117421E+01  0.21674587734E+02  0.37587511448E+02  0.47787269047E+02  0.19999990893E+02 0.  0.
        -12    1    1    2    0    0 -0.10073117421E+01 -0.21674587734E+02 -0.37587511448E+02  0.43400730953E+02  0.00000000000E+00 0.  1.
         11    1    3    3    0    0  0.66511844992E+01  0.15293592031E+02  0.27929012898E+02  0.32529401688E+02  0.51100000000E-03 0. -1.
        -11    1    3    3    0    0 -0.21367247047E+01  0.74616394093E+01  0.82496053377E+01  0.11326854975E+02  0.51100000000E-03 0.  1.
         12    1    3    3    0    0 -0.35071480525E+01 -0.10806437058E+01  0.14088932125E+01  0.39310123842E+01  0.00000000000E+00 0. -1.
</event>
<event>
 7    1  0.2458979E-009  0.4778723E+02  0.7816164E-02  0.1312668E+00
        -11   -1    0    0    0    0  0.00000000000E+00  0.00000000000E+00  0.45593999997E+02  0.45594000000E+02  0.51100000000E-03 0.  1.
         11   -1    0    0    0    0 -0.00000000000E+00 -0.00000000000E+00 -0.45593999997E+02  0.45594000000E+02  0.51100000000E-03 0. -1.
    9900012    2    1    2    0    0 -0.24385835511E+02 -0.22794004725E+02 -0.27737903808E+02  0.47787228894E+02  0.19999807816E+02 0.  0.
        -12    1    1    2    0    0  0.24385835511E+02  0.22794004725E+02  0.27737903808E+02  0.43400771106E+02  0.00000000000E+00 0.  1.
         11    1    3    3    0    0 -0.42732391479E+01 -0.14266715226E+01 -0.59015425337E+01  0.74245652389E+01  0.51100000000E-03 0. -1.
        -11    1    3    3    0    0 -0.11735235693E+02 -0.35644769275E+01 -0.20059156721E+01  0.12427588281E+02  0.51100000000E-03 0.  1.
        -12    1    3    3    0    0 -0.83773606696E+01 -0.17802856275E+02 -0.19830445603E+02  0.27935075374E+02  0.00000000000E+00 0.  1.
</event>
<event>
 7    1  0.2458979E-009  0.4778727E+02  0.7816164E-02  0.1312668E+00
        -11   -1    0    0    0    0  0.00000000000E+00  0.00000000000E+00  0.45593999997E+02  0.45594000000E+02  0.51100000000E-03 0.  1.
         11   -1    0    0    0    0 -0.00000000000E+00 -0.00000000000E+00 -0.45593999997E+02  0.45594000000E+02  0.51100000000E-03 0. -1.
    9900012    2    1    2    0    0 -0.19312855791E+02 -0.36746081813E+02 -0.12663422875E+02  0.47787271823E+02  0.20000003550E+02 0.  0.
        -12    1    1    2    0    0  0.19312855791E+02  0.36746081813E+02  0.12663422875E+02  0.43400728177E+02  0.00000000000E+00 0.  1.
         11    1    3    3    0    0 -0.27306527509E-01 -0.96854799392E+01 -0.62844304132E+01  0.11545706266E+02  0.51100000000E-03 0. -1.
        -11    1    3    3    0    0 -0.19226150688E+02 -0.17248100350E+02 -0.53266318430E+01  0.26372615399E+02  0.51100000000E-03 0.  1.
        -12    1    3    3    0    0 -0.59398575343E-01 -0.98125015238E+01 -0.10523606191E+01  0.98689501578E+01  0.00000000000E+00 0.  1.
</event>
<event>
 7    1  0.2458979E-009  0.4778727E+02  0.7816164E-02  0.1312668E+00
        -11   -1    0    0    0    0  0.00000000000E+00  0.00000000000E+00  0.45593999997E+02  0.45594000000E+02  0.51100000000E-03 0.  1.
         11   -1    0    0    0    0 -0.00000000000E+00 -0.00000000000E+00 -0.45593999997E+02  0.45594000000E+02  0.51100000000E-03 0. -1.
    9900012    2    1    2    0    0  0.14108850086E+02 -0.27920841793E+02 -0.30083057831E+02  0.47787269296E+02  0.19999992026E+02 0.  0.
        -12    1    1    2    0    0 -0.14108850086E+02  0.27920841793E+02  0.30083057831E+02  0.43400730704E+02  0.00000000000E+00 0.  1.
         11    1    3    3    0    0  0.37844592390E+00 -0.12164258137E+02 -0.41152223521E+01  0.12847079536E+02  0.51100000000E-03 0. -1.
        -11    1    3    3    0    0  0.63870186739E+00 -0.56116014482E+01 -0.24044797351E+01  0.61383657391E+01  0.51100000000E-03 0.  1.
         12    1    3    3    0    0  0.13091702295E+02 -0.10144982208E+02 -0.23563355744E+02  0.28801824020E+02  0.00000000000E+00 0. -1.
</event>
<event>
 7    1  0.2458979E-009  0.4778727E+02  0.7816164E-02  0.1312668E+00
        -11   -1    0    0    0    0  0.00000000000E+00  0.00000000000E+00  0.45593999997E+02  0.45594000000E+02  0.51100000000E-03 0. -1.
         11   -1    0    0    0    0 -0.00000000000E+00 -0.00000000000E+00 -0.45593999997E+02  0.45594000000E+02  0.51100000000E-03 0.  1.
    9900012    2    1    2    0    0  0.18916937764E+02  0.33228133197E+02  0.20534451574E+02  0.47787273375E+02  0.20000010627E+02 0.  0.
        -12    1    1    2    0    0 -0.18916937764E+02 -0.33228133197E+02 -0.20534451574E+02  0.43400726625E+02  0.00000000000E+00 0.  1.
         11    1    3    3    0    0 -0.15665427831E+01  0.69824386618E+01  0.87649586451E+01  0.11315167090E+02  0.51100000000E-03 0.  1.
        -11    1    3    3    0    0  0.18350843287E+02  0.19678893384E+02  0.62278342442E+01  0.27618801817E+02  0.51100000000E-03 0. -1.
         12    1    3    3    0    0  0.21326372602E+01  0.65668011509E+01  0.55416586842E+01  0.88533044685E+01  0.00000000000E+00 0. -1.
</event>
<event>
 7    1  0.2458979E-009  0.4778727E+02  0.7816164E-02  0.1312668E+00
        -11   -1    0    0    0    0  0.00000000000E+00  0.00000000000E+00  0.45593999997E+02  0.45594000000E+02  0.51100000000E-03 0. -1.
         11   -1    0    0    0    0 -0.00000000000E+00 -0.00000000000E+00 -0.45593999997E+02  0.45594000000E+02  0.51100000000E-03 0.  1.
    9900012    2    1    2    0    0  0.30849916505E+01 -0.16586831413E+01  0.43259156069E+02  0.47787274349E+02  0.20000015065E+02 0.  0.
        -12    1    1    2    0    0 -0.30849916505E+01  0.16586831413E+01 -0.43259156069E+02  0.43400725651E+02  0.00000000000E+00 0.  1.
         11    1    3    3    0    0 -0.32176352768E+01  0.31803912893E+01  0.16249249548E+02  0.16867310890E+02  0.51100000000E-03 0. -1.
        -11    1    3    3    0    0  0.15624796019E+01 -0.66130236985E+01  0.52714372841E+01  0.86000858277E+01  0.51100000000E-03 0.  1.
        -12    1    3    3    0    0  0.47401473253E+01  0.17739492680E+01  0.21738469237E+02  0.22319877630E+02  0.00000000000E+00 0.  1.
</event>
<event>
 7    1  0.2458979E-009  0.4778727E+02  0.7816164E-02  0.1312668E+00
        -11   -1    0    0    0    0  0.00000000000E+00  0.00000000000E+00  0.45593999997E+02  0.45594000000E+02  0.51100000000E-03 0.  1.
         11   -1    0    0    0    0 -0.00000000000E+00 -0.00000000000E+00 -0.45593999997E+02  0.45594000000E+02  0.51100000000E-03 0. -1.
    9900012    2    1    2    0    0  0.16274898036E+02 -0.39585846255E+02  0.71911058292E+01  0.47787268061E+02  0.19999986396E+02 0.  0.
        -12    1    1    2    0    0 -0.16274898036E+02  0.39585846255E+02 -0.71911058292E+01  0.43400731939E+02  0.00000000000E+00 0.  1.
         11    1    3    3    0    0  0.17186770596E+02 -0.32653187737E+02  0.48757090954E+01  0.37220804563E+02  0.51100000000E-03 0. -1.
        -11    1    3    3    0    0 -0.32847755694E+01 -0.34004520364E+00  0.79817257469E+00  0.33974197565E+01  0.51100000000E-03 0.  1.
        -12    1    3    3    0    0  0.23729030090E+01 -0.65926133149E+01  0.15172241591E+01  0.71690437409E+01  0.00000000000E+00 0.  1.
</event>
<event>
 7    1  0.2458979E-009  0.4778727E+02  0.7816164E-02  0.1312668E+00
        -11   -1    0    0    0    0  0.00000000000E+00  0.00000000000E+00  0.45593999997E+02  0.45594000000E+02  0.51100000000E-03 0.  1.
         11   -1    0    0    0    0 -0.00000000000E+00 -0.00000000000E+00 -0.45593999997E+02  0.45594000000E+02  0.51100000000E-03 0. -1.
    9900012    2    1    2    0    0  0.99351894434E+01 -0.19520113766E+02 -0.37468391926E+02  0.47787271616E+02  0.20000002605E+02 0.  0.
        -12    1    1    2    0    0 -0.99351894434E+01  0.19520113766E+02  0.37468391926E+02  0.43400728384E+02  0.00000000000E+00 0.  1.
         11    1    3    3    0    0  0.20223714737E+01 -0.16097143347E+02 -0.19792480520E+02  0.25591996712E+02  0.51100000000E-03 0. -1.
        -11    1    3    3    0    0  0.75775774575E+00  0.88220507668E+00 -0.12096792748E+02  0.12152566710E+02  0.51100000000E-03 0.  1.
         12    1    3    3    0    0  0.71550602239E+01 -0.43051754964E+01 -0.55791186583E+01  0.10042708194E+02  0.00000000000E+00 0. -1.
</event>
<event>
 7    1  0.2458979E-009  0.4778727E+02  0.7816164E-02  0.1312668E+00
        -11   -1    0    0    0    0  0.00000000000E+00  0.00000000000E+00  0.45593999997E+02  0.45594000000E+02  0.51100000000E-03 0. -1.
         11   -1    0    0    0    0 -0.00000000000E+00 -0.00000000000E+00 -0.45593999997E+02  0.45594000000E+02  0.51100000000E-03 0.  1.
    9900012    2    1    2    0    0 -0.23861292973E+02  0.31971017472E+02  0.17091395525E+02  0.47787273491E+02  0.20000011154E+02 0.  0.
        -12    1    1    2    0    0  0.23861292973E+02 -0.31971017472E+02 -0.17091395525E+02  0.43400726509E+02  0.00000000000E+00 0.  1.
         11    1    3    3    0    0 -0.17704417333E+02  0.18183655281E+02  0.10097393344E+02  0.27313898753E+02  0.51100000000E-03 0. -1.
        -11    1    3    3    0    0  0.11979479353E+01  0.32666341195E+00 -0.22459797560E+01  0.25663619320E+01  0.51100000000E-03 0.  1.
         12    1    3    3    0    0 -0.73548235747E+01  0.13460698779E+02  0.92399819372E+01  0.17907012806E+02  0.00000000000E+00 0. -1.
</event>
<event>
 7    1  0.2458979E-009  0.4778727E+02  0.7816164E-02  0.1312668E+00
        -11   -1    0    0    0    0  0.00000000000E+00  0.00000000000E+00  0.45593999997E+02  0.45594000000E+02  0.51100000000E-03 0.  1.
         11   -1    0    0    0    0 -0.00000000000E+00 -0.00000000000E+00 -0.45593999997E+02  0.45594000000E+02  0.51100000000E-03 0. -1.
    9900012    2    1    2    0    0 -0.35321358731E+02 -0.19282783106E+02 -0.16254203542E+02  0.47787271438E+02  0.20000001795E+02 0.  0.
        -12    1    1    2    0    0  0.35321358731E+02  0.19282783106E+02  0.16254203542E+02  0.43400728562E+02  0.00000000000E+00 0.  1.
         11    1    3    3    0    0 -0.78966491780E+01 -0.17050699280E+01 -0.95509159472E+01  0.12509369584E+02  0.51100000000E-03 0. -1.
        -11    1    3    3    0    0 -0.19831019312E+02 -0.14890154127E+02 -0.89018540597E-03  0.24798911629E+02  0.51100000000E-03 0.  1.
        -12    1    3    3    0    0 -0.75936902405E+01 -0.26875590509E+01 -0.67023974090E+01  0.10478990226E+02  0.00000000000E+00 0.  1.
</event>
<event>
 7    1  0.2458979E-009  0.4778727E+02  0.7816164E-02  0.1312668E+00
        -11   -1    0    0    0    0  0.00000000000E+00  0.00000000000E+00  0.45593999997E+02  0.45594000000E+02  0.51100000000E-03 0.  1.
         11   -1    0    0    0    0 -0.00000000000E+00 -0.00000000000E+00 -0.45593999997E+02  0.45594000000E+02  0.51100000000E-03 0. -1.
    9900012    2    1    2    0    0  0.52856452041E+01  0.32248111598E+02 -0.28561242773E+02  0.47787270334E+02  0.19999996760E+02 0.  0.
        -12    1    1    2    0    0 -0.52856452041E+01 -0.32248111598E+02  0.28561242773E+02  0.43400729666E+02  0.00000000000E+00 0.  1.
         11    1    3    3    0    0  0.35255374290E+01  0.41530635979E+01  0.21526710523E+00  0.54519438367E+01  0.51100000000E-03 0.  1.
        -11    1    3    3    0    0  0.26412781847E+01  0.22387376031E+02 -0.28783067976E+02  0.36560032253E+02  0.51100000000E-03 0. -1.
        -12    1    3    3    0    0 -0.88117040957E+00  0.57076719689E+01  0.65580979269E-02  0.57752942439E+01  0.00000000000E+00 0.  1.
</event>
<event>
 7    1  0.2458979E-009  0.4778728E+02  0.7816164E-02  0.1312668E+00
        -11   -1    0    0    0    0  0.00000000000E+00  0.00000000000E+00  0.45593999997E+02  0.45594000000E+02  0.51100000000E-03 0. -1.
         11   -1    0    0    0    0 -0.00000000000E+00 -0.00000000000E+00 -0.45593999997E+02  0.45594000000E+02  0.51100000000E-03 0.  1.
    9900012    2    1    2    0    0  0.16970986708E+02 -0.11786044529E+02  0.38166705170E+02  0.47787278589E+02  0.20000034397E+02 0.  0.
        -12    1    1    2    0    0 -0.16970986708E+02  0.11786044529E+02 -0.38166705170E+02  0.43400721411E+02  0.00000000000E+00 0.  1.
         11    1    3    3    0    0  0.27574398245E+01  0.39124864667E+01  0.11175878671E+02  0.12157766615E+02  0.51100000000E-03 0. -1.
        -11    1    3    3    0    0  0.12388674240E+02 -0.12970280779E+02  0.15586667070E+02  0.23762399364E+02  0.51100000000E-03 0.  1.
         12    1    3    3    0    0  0.18248726431E+01 -0.27282502173E+01  0.11404159429E+02  0.11867112610E+02  0.00000000000E+00 0. -1.
</event>
<event>
 7    1  0.2458979E-009  0.4778727E+02  0.7816164E-02  0.1312668E+00
        -11   -1    0    0    0    0  0.00000000000E+00  0.00000000000E+00  0.45593999997E+02  0.45594000000E+02  0.51100000000E-03 0. -1.
         11   -1    0    0    0    0 -0.00000000000E+00 -0.00000000000E+00 -0.45593999997E+02  0.45594000000E+02  0.51100000000E-03 0.  1.
    9900012    2    1    2    0    0  0.94870147263E+00  0.31399620655E+02  0.29946406352E+02  0.47787268841E+02  0.19999989954E+02 0.  0.
        -12    1    1    2    0    0 -0.94870147263E+00 -0.31399620655E+02 -0.29946406352E+02  0.43400731159E+02  0.00000000000E+00 0.  1.
         11    1    3    3    0    0 -0.25565548056E+01  0.31948073882E+02  0.21567184222E+02  0.38631060466E+02  0.51100000000E-03 0. -1.
        -11    1    3    3    0    0  0.16686330099E+01 -0.77337434604E+00  0.40383669881E+01  0.44374375706E+01  0.51100000000E-03 0.  1.
         12    1    3    3    0    0  0.18366232683E+01  0.22492111876E+00  0.43408551419E+01  0.47187708042E+01  0.00000000000E+00 0. -1.
</event>
<event>
 7    1  0.2458979E-009  0.4778727E+02  0.7816164E-02  0.1312668E+00
        -11   -1    0    0    0    0  0.00000000000E+00  0.00000000000E+00  0.45593999997E+02  0.45594000000E+02  0.51100000000E-03 0.  1.
         11   -1    0    0    0    0 -0.00000000000E+00 -0.00000000000E+00 -0.45593999997E+02  0.45594000000E+02  0.51100000000E-03 0. -1.
    9900012    2    1    2    0    0  0.16775455419E+02  0.30659332786E+02 -0.25733491434E+02  0.47787272209E+02  0.20000005311E+02 0.  0.
        -12    1    1    2    0    0 -0.16775455419E+02 -0.30659332786E+02  0.25733491434E+02  0.43400727791E+02  0.00000000000E+00 0.  1.
         11    1    3    3    0    0  0.82273290613E+01  0.23063497266E+02 -0.15064672846E+02  0.28749925528E+02  0.51100000000E-03 0. -1.
        -11    1    3    3    0    0  0.27353459413E+00  0.66018389935E+01 -0.17597514062E+01  0.68378230851E+01  0.51100000000E-03 0.  1.
         12    1    3    3    0    0  0.82745917635E+01  0.99399652664E+00 -0.89090671812E+01  0.12199523597E+02  0.00000000000E+00 0. -1.
</event>
<event>
 7    1  0.2458979E-009  0.4778727E+02  0.7816164E-02  0.1312668E+00
        -11   -1    0    0    0    0  0.00000000000E+00  0.00000000000E+00  0.45593999997E+02  0.45594000000E+02  0.51100000000E-03 0. -1.
         11   -1    0    0    0    0 -0.00000000000E+00 -0.00000000000E+00 -0.45593999997E+02  0.45594000000E+02  0.51100000000E-03 0.  1.
    9900012    2    1    2    0    0 -0.17635463964E+02 -0.37449294085E+02  0.13044714193E+02  0.47787265156E+02  0.19999973150E+02 0.  0.
        -12    1    1    2    0    0  0.17635463964E+02  0.37449294085E+02 -0.13044714193E+02  0.43400734844E+02  0.00000000000E+00 0.  1.
         11    1    3    3    0    0 -0.17065885446E+02 -0.20182578362E+02  0.45086651012E+01  0.26812478003E+02  0.51100000000E-03 0. -1.
        -11    1    3    3    0    0  0.41600003331E+00 -0.82702224668E+01  0.85802537221E+01  0.11924361194E+02  0.51100000000E-03 0.  1.
         12    1    3    3    0    0 -0.98557855048E+00 -0.89964932562E+01 -0.44204630705E-01  0.90504259589E+01  0.00000000000E+00 0. -1.
</event>
<event>
 7    1  0.2458979E-009  0.4778727E+02  0.7816164E-02  0.1312668E+00
        -11   -1    0    0    0    0  0.00000000000E+00  0.00000000000E+00  0.45593999997E+02  0.45594000000E+02  0.51100000000E-03 0.  1.
         11   -1    0    0    0    0 -0.00000000000E+00 -0.00000000000E+00 -0.45593999997E+02  0.45594000000E+02  0.51100000000E-03 0. -1.
    9900012    2    1    2    0    0  0.33375997245E+00  0.29501835651E+02 -0.31830073960E+02  0.47787270619E+02  0.19999998061E+02 0.  0.
        -12    1    1    2    0    0 -0.33375997245E+00 -0.29501835651E+02  0.31830073960E+02  0.43400729381E+02  0.00000000000E+00 0.  1.
         11    1    3    3    0    0 -0.82746281943E+00  0.44653139545E+01 -0.15729214534E+02  0.16371680229E+02  0.51100000000E-03 0. -1.
        -11    1    3    3    0    0 -0.34347079775E+01  0.83242395453E+01 -0.23932940914E+01  0.93176198552E+01  0.51100000000E-03 0.  1.
         12    1    3    3    0    0  0.45959307693E+01  0.16712282151E+02 -0.13707565335E+02  0.22097970535E+02  0.00000000000E+00 0. -1.
</event>
<event>
 7    1  0.2458979E-009  0.4778728E+02  0.7816164E-02  0.1312668E+00
        -11   -1    0    0    0    0  0.00000000000E+00  0.00000000000E+00  0.45593999997E+02  0.45594000000E+02  0.51100000000E-03 0. -1.
         11   -1    0    0    0    0 -0.00000000000E+00 -0.00000000000E+00 -0.45593999997E+02  0.45594000000E+02  0.51100000000E-03 0.  1.
    9900012    2    1    2    0    0 -0.26849193324E+02  0.25569183723E+02  0.22560142991E+02  0.47787281225E+02  0.20000046417E+02 0.  0.
        -12    1    1    2    0    0  0.26849193324E+02 -0.25569183723E+02 -0.22560142991E+02  0.43400718775E+02  0.00000000000E+00 0.  1.
         11    1    3    3    0    0 -0.88250978508E+01  0.19009480792E+02  0.17187845209E+02  0.27104699504E+02  0.51100000000E-03 0. -1.
        -11    1    3    3    0    0 -0.12635158988E+02  0.20669047015E+01  0.46830523299E+01  0.13632692950E+02  0.51100000000E-03 0.  1.
         12    1    3    3    0    0 -0.53889364855E+01  0.44927982295E+01  0.68924545282E+00  0.70498887701E+01  0.00000000000E+00 0. -1.
</event>
<event>
 7    1  0.2458979E-009  0.4778727E+02  0.7816164E-02  0.1312668E+00
        -11   -1    0    0    0    0  0.00000000000E+00  0.00000000000E+00  0.45593999997E+02  0.45594000000E+02  0.51100000000E-03 0. -1.
         11   -1    0    0    0    0 -0.00000000000E+00 -0.00000000000E+00 -0.45593999997E+02  0.45594000000E+02  0.51100000000E-03 0.  1.
    9900012    2    1    2    0    0  0.29407718616E+02  0.35759735964E+01  0.31717845153E+02  0.47787271867E+02  0.20000003748E+02 0.  0.
        -12    1    1    2    0    0 -0.29407718616E+02 -0.35759735964E+01 -0.31717845153E+02  0.43400728133E+02  0.00000000000E+00 0.  1.
         11    1    3    3    0    0  0.16425732545E+02 -0.15894194986E+01  0.24494816474E+02  0.29535182043E+02  0.51100000000E-03 0. -1.
        -11    1    3    3    0    0  0.13378366394E+02  0.23511701436E+01  0.44822492708E+01  0.14303819323E+02  0.51100000000E-03 0.  1.
        -12    1    3    3    0    0 -0.39638032335E+00  0.28142229514E+01  0.27407794081E+01  0.39482705005E+01  0.00000000000E+00 0.  1.
</event>
<event>
 7    1  0.2458979E-009  0.4778729E+02  0.7816164E-02  0.1312668E+00
        -11   -1    0    0    0    0  0.00000000000E+00  0.00000000000E+00  0.45593999997E+02  0.45594000000E+02  0.51100000000E-03 0.  1.
         11   -1    0    0    0    0 -0.00000000000E+00 -0.00000000000E+00 -0.45593999997E+02  0.45594000000E+02  0.51100000000E-03 0. -1.
    9900012    2    1    2    0    0 -0.17435804793E+02 -0.10721311226E+02 -0.38270981831E+02  0.47787287408E+02  0.20000074607E+02 0.  0.
        -12    1    1    2    0    0  0.17435804793E+02  0.10721311226E+02  0.38270981831E+02  0.43400712592E+02  0.00000000000E+00 0.  1.
         11    1    3    3    0    0 -0.36894769721E+01 -0.28703418180E+01 -0.68398231294E+01  0.82845810505E+01  0.51100000000E-03 0. -1.
        -11    1    3    3    0    0 -0.87547367090E+01 -0.10591492320E+02 -0.30858256831E+02  0.33779537287E+02  0.51100000000E-03 0.  1.
        -12    1    3    3    0    0 -0.49915911116E+01  0.27405229117E+01 -0.57290187112E+00  0.57231690705E+01  0.00000000000E+00 0.  1.
</event>
<event>
 7    1  0.2458979E-009  0.4778727E+02  0.7816164E-02  0.1312668E+00
        -11   -1    0    0    0    0  0.00000000000E+00  0.00000000000E+00  0.45593999997E+02  0.45594000000E+02  0.51100000000E-03 0. -1.
         11   -1    0    0    0    0 -0.00000000000E+00 -0.00000000000E+00 -0.45593999997E+02  0.45594000000E+02  0.51100000000E-03 0.  1.
    9900012    2    1    2    0    0 -0.37953404931E+02  0.18230478518E+02 -0.10526718789E+02  0.47787273033E+02  0.20000009066E+02 0.  0.
        -12    1    1    2    0    0  0.37953404931E+02 -0.18230478518E+02  0.10526718789E+02  0.43400726967E+02  0.00000000000E+00 0.  1.
         11    1    3    3    0    0 -0.74392677355E+01  0.38554916546E+01 -0.10311307023E+02  0.13286480841E+02  0.51100000000E-03 0. -1.
        -11    1    3    3    0    0 -0.18031049372E+02  0.99570508129E+01  0.31523250162E+01  0.20837436398E+02  0.51100000000E-03 0.  1.
         12    1    3    3    0    0 -0.12483087823E+02  0.44179360503E+01 -0.33677367816E+01  0.13663355795E+02  0.00000000000E+00 0. -1.
</event>
<event>
 7    1  0.2458979E-009  0.4778728E+02  0.7816164E-02  0.1312668E+00
        -11   -1    0    0    0    0  0.00000000000E+00  0.00000000000E+00  0.45593999997E+02  0.45594000000E+02  0.51100000000E-03 0.  1.
         11   -1    0    0    0    0 -0.00000000000E+00 -0.00000000000E+00 -0.45593999997E+02  0.45594000000E+02  0.51100000000E-03 0. -1.
    9900012    2    1    2    0    0 -0.19669664951E+02 -0.14459654375E+02 -0.35883778006E+02  0.47787275952E+02  0.20000022376E+02 0.  0.
        -12    1    1    2    0    0  0.19669664951E+02  0.14459654375E+02  0.35883778006E+02  0.43400724048E+02  0.00000000000E+00 0.  1.
         11    1    3    3    0    0  0.72212417920E+00  0.16086117221E+00  0.11646658813E+01  0.13797777079E+01  0.51100000000E-03 0. -1.
        -11    1    3    3    0    0 -0.16226280754E+01 -0.19641290295E+01 -0.13516491001E+02  0.13754499408E+02  0.51100000000E-03 0.  1.
         12    1    3    3    0    0 -0.18769161055E+02 -0.12656386517E+02 -0.23531952886E+02  0.32652998836E+02  0.00000000000E+00 0. -1.
</event>
<event>
 7    1  0.2458979E-009  0.4778727E+02  0.7816164E-02  0.1312668E+00
        -11   -1    0    0    0    0  0.00000000000E+00  0.00000000000E+00  0.45593999997E+02  0.45594000000E+02  0.51100000000E-03 0. -1.
         11   -1    0    0    0    0 -0.00000000000E+00 -0.00000000000E+00 -0.45593999997E+02  0.45594000000E+02  0.51100000000E-03 0.  1.
    9900012    2    1    2    0    0 -0.29120810795E+02  0.27600464383E+02  0.16547390897E+02  0.47787269580E+02  0.19999993321E+02 0.  0.
        -12    1    1    2    0    0  0.29120810795E+02 -0.27600464383E+02 -0.16547390897E+02  0.43400730420E+02  0.00000000000E+00 0.  1.
         11    1    3    3    0    0 -0.11648731794E+02  0.45444373370E+01  0.20443984114E+01  0.12669823528E+02  0.51100000000E-03 0. -1.
        -11    1    3    3    0    0 -0.15319380909E+02  0.22976418367E+02  0.16509168951E+02  0.32173776466E+02  0.51100000000E-03 0.  1.
        -12    1    3    3    0    0 -0.21526980930E+01  0.79608679213E-01 -0.20061764646E+01  0.29436695855E+01  0.00000000000E+00 0.  1.
</event>
<event>
 7    1  0.2458979E-009  0.4778727E+02  0.7816164E-02  0.1312668E+00
        -11   -1    0    0    0    0  0.00000000000E+00  0.00000000000E+00  0.45593999997E+02  0.45594000000E+02  0.51100000000E-03 0. -1.
         11   -1    0    0    0    0 -0.00000000000E+00 -0.00000000000E+00 -0.45593999997E+02  0.45594000000E+02  0.51100000000E-03 0.  1.
    9900012    2    1    2    0    0 -0.21022382796E+02 -0.31190803209E+02  0.21652171507E+02  0.47787270579E+02  0.19999997878E+02 0.  0.
        -12    1    1    2    0    0  0.21022382796E+02  0.31190803209E+02 -0.21652171507E+02  0.43400729421E+02  0.00000000000E+00 0.  1.
         11    1    3    3    0    0 -0.11178598656E+02 -0.27235994489E+02  0.94454537089E+01  0.30918878695E+02  0.51100000000E-03 0. -1.
        -11    1    3    3    0    0 -0.46572151416E+01 -0.19968792691E+00  0.78291502932E+01  0.91118122631E+01  0.51100000000E-03 0.  1.
         12    1    3    3    0    0 -0.51865689989E+01 -0.37551207936E+01  0.43775675052E+01  0.77565796211E+01  0.00000000000E+00 0. -1.
</event>
<event>
 7    1  0.2458979E-009  0.4778727E+02  0.7816164E-02  0.1312668E+00
        -11   -1    0    0    0    0  0.00000000000E+00  0.00000000000E+00  0.45593999997E+02  0.45594000000E+02  0.51100000000E-03 0.  1.
         11   -1    0    0    0    0 -0.00000000000E+00 -0.00000000000E+00 -0.45593999997E+02  0.45594000000E+02  0.51100000000E-03 0. -1.
    9900012    2    1    2    0    0 -0.39834253013E+02 -0.87114994858E+01 -0.14864903932E+02  0.47787270683E+02  0.19999998350E+02 0.  0.
        -12    1    1    2    0    0  0.39834253013E+02  0.87114994858E+01  0.14864903932E+02  0.43400729317E+02  0.00000000000E+00 0.  1.
         11    1    3    3    0    0 -0.20619765330E+02 -0.59974314490E+01 -0.56637267725E+01  0.22208595351E+02  0.51100000000E-03 0. -1.
        -11    1    3    3    0    0  0.28720169058E+00  0.22463594786E+01 -0.43120720019E+01  0.48705832226E+01  0.51100000000E-03 0.  1.
        -12    1    3    3    0    0 -0.19501689373E+02 -0.49604275155E+01 -0.48891051574E+01  0.20708092109E+02  0.00000000000E+00 0.  1.
</event>
<event>
 7    1  0.2458979E-009  0.4778727E+02  0.7816164E-02  0.1312668E+00
        -11   -1    0    0    0    0  0.00000000000E+00  0.00000000000E+00  0.45593999997E+02  0.45594000000E+02  0.51100000000E-03 0.  1.
         11   -1    0    0    0    0 -0.00000000000E+00 -0.00000000000E+00 -0.45593999997E+02  0.45594000000E+02  0.51100000000E-03 0. -1.
    9900012    2    1    2    0    0  0.29297193041E+02 -0.25825231687E+02 -0.18930276924E+02  0.47787268483E+02  0.19999988321E+02 0.  0.
        -12    1    1    2    0    0 -0.29297193041E+02  0.25825231687E+02  0.18930276924E+02  0.43400731517E+02  0.00000000000E+00 0.  1.
         11    1    3    3    0    0  0.13978852423E+02 -0.15495705666E+02 -0.11325819115E+02  0.23744460155E+02  0.51100000000E-03 0. -1.
        -11    1    3    3    0    0  0.15194392544E+02 -0.55550812011E+01 -0.14362003832E+01  0.16241649046E+02  0.51100000000E-03 0.  1.
        -12    1    3    3    0    0  0.12394807352E+00 -0.47744448205E+01 -0.61682574262E+01  0.78011592820E+01  0.00000000000E+00 0.  1.
</event>
<event>
 7    1  0.2458979E-009  0.4778727E+02  0.7816164E-02  0.1312668E+00
        -11   -1    0    0    0    0  0.00000000000E+00  0.00000000000E+00  0.45593999997E+02  0.45594000000E+02  0.51100000000E-03 0. -1.
         11   -1    0    0    0    0 -0.00000000000E+00 -0.00000000000E+00 -0.45593999997E+02  0.45594000000E+02  0.51100000000E-03 0.  1.
    9900012    2    1    2    0    0 -0.25597563928E+02 -0.23609250466E+02  0.25903495325E+02  0.47787273547E+02  0.20000011409E+02 0.  0.
        -12    1    1    2    0    0  0.25597563928E+02  0.23609250466E+02 -0.25903495325E+02  0.43400726453E+02  0.00000000000E+00 0.  1.
         11    1    3    3    0    0 -0.31627976510E+00 -0.92883940407E+01  0.30859838933E+01  0.97927316718E+01  0.51100000000E-03 0. -1.
        -11    1    3    3    0    0 -0.77256384845E+01 -0.10954034006E+01  0.28741723737E+01  0.83154233625E+01  0.51100000000E-03 0.  1.
         12    1    3    3    0    0 -0.17555645678E+02 -0.13225453024E+02  0.19943339058E+02  0.29679118513E+02  0.00000000000E+00 0. -1.
</event>
<event>
 7    1  0.2458979E-009  0.4778724E+02  0.7816164E-02  0.1312668E+00
        -11   -1    0    0    0    0  0.00000000000E+00  0.00000000000E+00  0.45593999997E+02  0.45594000000E+02  0.51100000000E-03 0.  1.
         11   -1    0    0    0    0 -0.00000000000E+00 -0.00000000000E+00 -0.45593999997E+02  0.45594000000E+02  0.51100000000E-03 0. -1.
    9900012    2    1    2    0    0 -0.85662632674E+01  0.34207620734E+02 -0.25299879903E+02  0.47787238419E+02  0.19999851249E+02 0.  0.
        -12    1    1    2    0    0  0.85662632674E+01 -0.34207620734E+02  0.25299879903E+02  0.43400761581E+02  0.00000000000E+00 0.  1.
         11    1    3    3    0    0 -0.10231663672E+02  0.31534700077E+02 -0.26632723563E+02  0.42525594823E+02  0.51100000000E-03 0. -1.
        -11    1    3    3    0    0  0.13781644063E+01  0.37383100444E+01  0.97760332145E+00  0.41024392298E+01  0.51100000000E-03 0.  1.
         12    1    3    3    0    0  0.28723599822E+00 -0.10653893874E+01  0.35524033802E+00  0.11592043664E+01  0.00000000000E+00 0. -1.
</event>
<event>
 7    1  0.2458979E-009  0.4778727E+02  0.7816164E-02  0.1312668E+00
        -11   -1    0    0    0    0  0.00000000000E+00  0.00000000000E+00  0.45593999997E+02  0.45594000000E+02  0.51100000000E-03 0.  1.
         11   -1    0    0    0    0 -0.00000000000E+00 -0.00000000000E+00 -0.45593999997E+02  0.45594000000E+02  0.51100000000E-03 0. -1.
    9900012    2    1    2    0    0 -0.18628279208E+01 -0.35233891478E+02 -0.25273026755E+02  0.47787272841E+02  0.20000008192E+02 0.  0.
        -12    1    1    2    0    0  0.18628279208E+01  0.35233891478E+02  0.25273026755E+02  0.43400727159E+02  0.00000000000E+00 0.  1.
         11    1    3    3    0    0 -0.14143841203E+01 -0.24303815957E+00  0.22955778906E+01  0.27072547164E+01  0.51100000000E-03 0. -1.
        -11    1    3    3    0    0  0.29820300242E+01 -0.13516896624E+02 -0.92700067954E+01  0.16659292412E+02  0.51100000000E-03 0.  1.
         12    1    3    3    0    0 -0.34304738246E+01 -0.21473956694E+02 -0.18298597850E+02  0.28420725713E+02  0.00000000000E+00 0. -1.
</event>
<event>
 7    1  0.2458979E-009  0.4778727E+02  0.7816164E-02  0.1312668E+00
        -11   -1    0    0    0    0  0.00000000000E+00  0.00000000000E+00  0.45593999997E+02  0.45594000000E+02  0.51100000000E-03 0. -1.
         11   -1    0    0    0    0 -0.00000000000E+00 -0.00000000000E+00 -0.45593999997E+02  0.45594000000E+02  0.51100000000E-03 0.  1.
    9900012    2    1    2    0    0 -0.39141749782E+02 -0.12069949856E+02  0.14347922975E+02  0.47787272365E+02  0.20000006023E+02 0.  0.
        -12    1    1    2    0    0  0.39141749782E+02  0.12069949856E+02 -0.14347922975E+02  0.43400727635E+02  0.00000000000E+00 0.  1.
         11    1    3    3    0    0  0.98701958282E+00 -0.23053357316E+00 -0.17799198159E+01  0.20482842082E+01  0.51100000000E-03 0. -1.
        -11    1    3    3    0    0 -0.29835410319E+02 -0.11510035758E+02  0.15174585534E+02  0.35396337077E+02  0.51100000000E-03 0.  1.
        -12    1    3    3    0    0 -0.10293359045E+02 -0.32938052407E+00  0.95325725702E+00  0.10342651080E+02  0.00000000000E+00 0.  1.
</event>
<event>
 7    1  0.2458979E-009  0.4778727E+02  0.7816164E-02  0.1312668E+00
        -11   -1    0    0    0    0  0.00000000000E+00  0.00000000000E+00  0.45593999997E+02  0.45594000000E+02  0.51100000000E-03 0.  1.
         11   -1    0    0    0    0 -0.00000000000E+00 -0.00000000000E+00 -0.45593999997E+02  0.45594000000E+02  0.51100000000E-03 0. -1.
    9900012    2    1    2    0    0  0.30388881783E+02  0.27357193982E+02 -0.14550707470E+02  0.47787270899E+02  0.19999999337E+02 0.  0.
        -12    1    1    2    0    0 -0.30388881783E+02 -0.27357193982E+02  0.14550707470E+02  0.43400729101E+02  0.00000000000E+00 0.  1.
         11    1    3    3    0    0  0.18939114603E+02  0.19948867235E+02 -0.10622769399E+02  0.29487125934E+02  0.51100000000E-03 0. -1.
        -11    1    3    3    0    0  0.74718508455E-01 -0.24440448471E+01 -0.19389494410E+01  0.31206510965E+01  0.51100000000E-03 0.  1.
        -12    1    3    3    0    0  0.11375048672E+02  0.98523715944E+01 -0.19889886298E+01  0.15179493868E+02  0.00000000000E+00 0.  1.
</event>
<event>
 7    1  0.2458979E-009  0.4778728E+02  0.7816164E-02  0.1312668E+00
        -11   -1    0    0    0    0  0.00000000000E+00  0.00000000000E+00  0.45593999997E+02  0.45594000000E+02  0.51100000000E-03 0.  1.
         11   -1    0    0    0    0 -0.00000000000E+00 -0.00000000000E+00 -0.45593999997E+02  0.45594000000E+02  0.51100000000E-03 0. -1.
    9900012    2    1    2    0    0 -0.38027253995E+02  0.19257695098E+02 -0.81665195160E+01  0.47787275260E+02  0.20000019222E+02 0.  0.
        -12    1    1    2    0    0  0.38027253995E+02 -0.19257695098E+02  0.81665195160E+01  0.43400724740E+02  0.00000000000E+00 0.  1.
         11    1    3    3    0    0 -0.69442720420E+01  0.29812866672E+01 -0.94952038767E+01  0.12135480267E+02  0.51100000000E-03 0. -1.
        -11    1    3    3    0    0 -0.89355598257E+01  0.33158925094E+01  0.28437771025E+01  0.99461772054E+01  0.51100000000E-03 0.  1.
         12    1    3    3    0    0 -0.22147422128E+02  0.12960515922E+02 -0.15150927418E+01  0.25705617788E+02  0.00000000000E+00 0. -1.
</event>
<event>
 7    1  0.2458979E-009  0.4778727E+02  0.7816164E-02  0.1312668E+00
        -11   -1    0    0    0    0  0.00000000000E+00  0.00000000000E+00  0.45593999997E+02  0.45594000000E+02  0.51100000000E-03 0.  1.
         11   -1    0    0    0    0 -0.00000000000E+00 -0.00000000000E+00 -0.45593999997E+02  0.45594000000E+02  0.51100000000E-03 0. -1.
    9900012    2    1    2    0    0 -0.36656132764E+02  0.14363149052E+02 -0.18266124350E+02  0.47787269377E+02  0.19999992398E+02 0.  0.
        -12    1    1    2    0    0  0.36656132764E+02 -0.14363149052E+02  0.18266124350E+02  0.43400730623E+02  0.00000000000E+00 0.  1.
         11    1    3    3    0    0 -0.99239467655E+01 -0.97536338043E+00 -0.35812773451E+01  0.10595357512E+02  0.51100000000E-03 0. -1.
        -11    1    3    3    0    0 -0.68967389320E+01  0.10133033181E+02 -0.52014066478E+00  0.12268411303E+02  0.51100000000E-03 0.  1.
        -12    1    3    3    0    0 -0.19835447066E+02  0.52054792513E+01 -0.14164706340E+02  0.24923500561E+02  0.00000000000E+00 0.  1.
</event>
<event>
 7    1  0.2458979E-009  0.4778727E+02  0.7816164E-02  0.1312668E+00
        -11   -1    0    0    0    0  0.00000000000E+00  0.00000000000E+00  0.45593999997E+02  0.45594000000E+02  0.51100000000E-03 0. -1.
         11   -1    0    0    0    0 -0.00000000000E+00 -0.00000000000E+00 -0.45593999997E+02  0.45594000000E+02  0.51100000000E-03 0.  1.
    9900012    2    1    2    0    0  0.21904568035E+02  0.86398139374E+01  0.36457742079E+02  0.47787269094E+02  0.19999991107E+02 0.  0.
        -12    1    1    2    0    0 -0.21904568035E+02 -0.86398139374E+01 -0.36457742079E+02  0.43400730906E+02  0.00000000000E+00 0.  1.
         11    1    3    3    0    0  0.82569289533E+01  0.61297100244E+01  0.88460944602E+01  0.13564792965E+02  0.51100000000E-03 0. -1.
        -11    1    3    3    0    0  0.14294705654E+02  0.19768090003E+01  0.12512241272E+02  0.19099805378E+02  0.51100000000E-03 0.  1.
        -12    1    3    3    0    0 -0.64706657299E+00  0.53329491271E+00  0.15099406347E+02  0.15122670751E+02  0.00000000000E+00 0.  1.
</event>
<event>
 7    1  0.2458979E-009  0.4778727E+02  0.7816164E-02  0.1312668E+00
        -11   -1    0    0    0    0  0.00000000000E+00  0.00000000000E+00  0.45593999997E+02  0.45594000000E+02  0.51100000000E-03 0. -1.
         11   -1    0    0    0    0 -0.00000000000E+00 -0.00000000000E+00 -0.45593999997E+02  0.45594000000E+02  0.51100000000E-03 0.  1.
    9900012    2    1    2    0    0  0.19189205997E+02 -0.92554835958E+01  0.37811815882E+02  0.47787273927E+02  0.20000013141E+02 0.  0.
        -12    1    1    2    0    0 -0.19189205997E+02  0.92554835958E+01 -0.37811815882E+02  0.43400726073E+02  0.00000000000E+00 0.  1.
         11    1    3    3    0    0  0.16532245300E+02 -0.28544225576E+01  0.28918274530E+02  0.33432461244E+02  0.51100000000E-03 0. -1.
        -11    1    3    3    0    0 -0.14937158027E+01 -0.69194087794E+01  0.53592288906E+01  0.88786676545E+01  0.51100000000E-03 0.  1.
        -12    1    3    3    0    0  0.41506765002E+01  0.51834774124E+00  0.35343124614E+01  0.54761450277E+01  0.00000000000E+00 0.  1.
</event>
<event>
 7    1  0.2458979E-009  0.4778728E+02  0.7816164E-02  0.1312668E+00
        -11   -1    0    0    0    0  0.00000000000E+00  0.00000000000E+00  0.45593999997E+02  0.45594000000E+02  0.51100000000E-03 0. -1.
         11   -1    0    0    0    0 -0.00000000000E+00 -0.00000000000E+00 -0.45593999997E+02  0.45594000000E+02  0.51100000000E-03 0.  1.
    9900012    2    1    2    0    0  0.22675518386E+02 -0.34455599338E+02 -0.13500190326E+02  0.47787278823E+02  0.20000035468E+02 0.  0.
        -12    1    1    2    0    0 -0.22675518386E+02  0.34455599338E+02  0.13500190326E+02  0.43400721177E+02  0.00000000000E+00 0.  1.
         11    1    3    3    0    0  0.26030942155E+02 -0.27787355857E+02 -0.10386951996E+02  0.39466895838E+02  0.51100000000E-03 0. -1.
        -11    1    3    3    0    0 -0.15491593900E+01 -0.47195126069E+01 -0.26270644776E+01  0.56191780621E+01  0.51100000000E-03 0.  1.
         12    1    3    3    0    0 -0.18062643792E+01 -0.19487308740E+01 -0.48617385180E+00  0.27012049239E+01  0.00000000000E+00 0. -1.
</event>
<event>
 7    1  0.2940071E-009  0.4778727E+02  0.7816164E-02  0.1312668E+00
        -11   -1    0    0    0    0  0.00000000000E+00  0.00000000000E+00  0.45593999997E+02  0.45594000000E+02  0.51100000000E-03 0. -1.
         11   -1    0    0    0    0 -0.00000000000E+00 -0.00000000000E+00 -0.45593999997E+02  0.45594000000E+02  0.51100000000E-03 0.  1.
    9900012    2    1    2    0    0  0.21568411529E+02  0.13763506095E+02  0.35056997464E+02  0.47787267897E+02  0.19999985651E+02 0.  0.
        -12    1    1    2    0    0 -0.21568411529E+02 -0.13763506095E+02 -0.35056997464E+02  0.43400732103E+02  0.00000000000E+00 0.  1.
         11    1    3    3    0    0  0.93151518237E+01  0.22944621928E+01  0.20063823975E+02  0.22239461392E+02  0.51100000000E-03 0. -1.
        -11    1    3    3    0    0 -0.17237413778E+01  0.48754650915E+01  0.29356412143E+01  0.59463798900E+01  0.51100000000E-03 0.  1.
        -12    1    3    3    0    0  0.13977001083E+02  0.65935788102E+01  0.12057532274E+02  0.19601426615E+02  0.00000000000E+00 0.  1.
</event>
<event>
 7    1  0.2458979E-009  0.4778732E+02  0.7816164E-02  0.1312668E+00
        -11   -1    0    0    0    0  0.00000000000E+00  0.00000000000E+00  0.45593999997E+02  0.45594000000E+02  0.51100000000E-03 0.  1.
         11   -1    0    0    0    0 -0.00000000000E+00 -0.00000000000E+00 -0.45593999997E+02  0.45594000000E+02  0.51100000000E-03 0. -1.
    9900012    2    1    2    0    0 -0.29135717855E+02 -0.27061865391E+02 -0.17389209932E+02  0.47787317569E+02  0.20000212124E+02 0.  0.
        -12    1    1    2    0    0  0.29135717855E+02  0.27061865391E+02  0.17389209932E+02  0.43400682431E+02  0.00000000000E+00 0.  1.
         11    1    3    3    0    0  0.75263949677E+00 -0.52485708193E+01  0.10883626750E+01  0.54128084606E+01  0.51100000000E-03 0. -1.
        -11    1    3    3    0    0 -0.28851840907E+01 -0.43309479103E+01  0.14230607485E+00  0.52059243482E+01  0.51100000000E-03 0.  1.
         12    1    3    3    0    0 -0.27003173261E+02 -0.17482346662E+02 -0.18619878682E+02  0.37168584761E+02  0.00000000000E+00 0. -1.
</event>
<event>
 7    1  0.2458979E-009  0.4778727E+02  0.7816164E-02  0.1312668E+00
        -11   -1    0    0    0    0  0.00000000000E+00  0.00000000000E+00  0.45593999997E+02  0.45594000000E+02  0.51100000000E-03 0. -1.
         11   -1    0    0    0    0 -0.00000000000E+00 -0.00000000000E+00 -0.45593999997E+02  0.45594000000E+02  0.51100000000E-03 0.  1.
    9900012    2    1    2    0    0 -0.16214227491E+02 -0.40219566134E+02  0.17630848141E+01  0.47787272573E+02  0.20000006968E+02 0.  0.
        -12    1    1    2    0    0  0.16214227491E+02  0.40219566134E+02 -0.17630848141E+01  0.43400727427E+02  0.00000000000E+00 0.  1.
         11    1    3    3    0    0 -0.12121337362E+02 -0.14753577551E+02 -0.62941115566E+01  0.20104992180E+02  0.51100000000E-03 0. -1.
        -11    1    3    3    0    0 -0.22810317835E+00 -0.98526175213E+01  0.58129674113E+01  0.11441883301E+02  0.51100000000E-03 0.  1.
         12    1    3    3    0    0 -0.38647869508E+01 -0.15613371062E+02  0.22442289594E+01  0.16240397092E+02  0.00000000000E+00 0. -1.
</event>
<event>
 7    1  0.2458979E-009  0.4778727E+02  0.7816164E-02  0.1312668E+00
        -11   -1    0    0    0    0  0.00000000000E+00  0.00000000000E+00  0.45593999997E+02  0.45594000000E+02  0.51100000000E-03 0. -1.
         11   -1    0    0    0    0 -0.00000000000E+00 -0.00000000000E+00 -0.45593999997E+02  0.45594000000E+02  0.51100000000E-03 0.  1.
    9900012    2    1    2    0    0 -0.33973330985E+02 -0.26662567670E+02  0.43062236436E+01  0.47787270800E+02  0.19999998886E+02 0.  0.
        -12    1    1    2    0    0  0.33973330985E+02  0.26662567670E+02 -0.43062236436E+01  0.43400729200E+02  0.00000000000E+00 0.  1.
         11    1    3    3    0    0 -0.22703364040E+02 -0.22056603340E+02  0.96798892711E+01  0.33100404018E+02  0.51100000000E-03 0. -1.
        -11    1    3    3    0    0 -0.21209562629E+01  0.61298243754E+00 -0.32706903532E+01  0.39460890240E+01  0.51100000000E-03 0.  1.
         12    1    3    3    0    0 -0.91490106826E+01 -0.52189467678E+01 -0.21029752743E+01  0.10740777758E+02  0.00000000000E+00 0. -1.
</event>
<event>
 7    1  0.2458979E-009  0.4778727E+02  0.7816164E-02  0.1312668E+00
        -11   -1    0    0    0    0  0.00000000000E+00  0.00000000000E+00  0.45593999997E+02  0.45594000000E+02  0.51100000000E-03 0.  1.
         11   -1    0    0    0    0 -0.00000000000E+00 -0.00000000000E+00 -0.45593999997E+02  0.45594000000E+02  0.51100000000E-03 0. -1.
    9900012    2    1    2    0    0 -0.42251033136E+02 -0.66236026365E+01 -0.73892761813E+01  0.47787270566E+02  0.19999997816E+02 0.  0.
        -12    1    1    2    0    0  0.42251033136E+02  0.66236026365E+01  0.73892761813E+01  0.43400729434E+02  0.00000000000E+00 0.  1.
         11    1    3    3    0    0 -0.22744686468E+02  0.24660547611E+01 -0.73071006307E+01  0.24016575703E+02  0.51100000000E-03 0. -1.
        -11    1    3    3    0    0 -0.10520240489E+02 -0.99395937031E+01 -0.17930874366E+01  0.14583763086E+02  0.51100000000E-03 0.  1.
         12    1    3    3    0    0 -0.89861061784E+01  0.84993630548E+00  0.17109118859E+01  0.91869317759E+01  0.00000000000E+00 0. -1.
</event>
<event>
 7    1  0.2458979E-009  0.4778727E+02  0.7816164E-02  0.1312668E+00
        -11   -1    0    0    0    0  0.00000000000E+00  0.00000000000E+00  0.45593999997E+02  0.45594000000E+02  0.51100000000E-03 0.  1.
         11   -1    0    0    0    0 -0.00000000000E+00 -0.00000000000E+00 -0.45593999997E+02  0.45594000000E+02  0.51100000000E-03 0. -1.
    9900012    2    1    2    0    0 -0.38017119712E+02 -0.19682366600E+02 -0.71362826557E+01  0.47787268712E+02  0.19999989367E+02 0.  0.
        -12    1    1    2    0    0  0.38017119712E+02  0.19682366600E+02  0.71362826557E+01  0.43400731288E+02  0.00000000000E+00 0.  1.
         11    1    3    3    0    0 -0.90779357686E+01 -0.11606873780E+02 -0.90630791322E+01  0.17299359537E+02  0.51100000000E-03 0. -1.
        -11    1    3    3    0    0 -0.58383114266E+00 -0.49754838238E+00  0.81087436379E+00  0.11162126549E+01  0.51100000000E-03 0.  1.
         12    1    3    3    0    0 -0.28355352801E+02 -0.75779444371E+01  0.11159221127E+01  0.29371696521E+02  0.00000000000E+00 0. -1.
</event>
<event>
 7    1  0.2458979E-009  0.4778727E+02  0.7816164E-02  0.1312668E+00
        -11   -1    0    0    0    0  0.00000000000E+00  0.00000000000E+00  0.45593999997E+02  0.45594000000E+02  0.51100000000E-03 0.  1.
         11   -1    0    0    0    0 -0.00000000000E+00 -0.00000000000E+00 -0.45593999997E+02  0.45594000000E+02  0.51100000000E-03 0. -1.
    9900012    2    1    2    0    0 -0.33417019204E+02  0.12576606032E+02 -0.24672963821E+02  0.47787270335E+02  0.19999996764E+02 0.  0.
        -12    1    1    2    0    0  0.33417019204E+02 -0.12576606032E+02  0.24672963821E+02  0.43400729665E+02  0.00000000000E+00 0.  1.
         11    1    3    3    0    0 -0.25636772346E+02  0.15448788315E+02 -0.16594291134E+02  0.34223963172E+02  0.51100000000E-03 0. -1.
        -11    1    3    3    0    0 -0.22810685462E+01  0.16853630311E+01 -0.76311127324E-01  0.28371721675E+01  0.51100000000E-03 0.  1.
         12    1    3    3    0    0 -0.54991783119E+01 -0.45575453142E+01 -0.80023615598E+01  0.10726134995E+02  0.00000000000E+00 0. -1.
</event>
<event>
 7    1  0.2458979E-009  0.4778727E+02  0.7816164E-02  0.1312668E+00
        -11   -1    0    0    0    0  0.00000000000E+00  0.00000000000E+00  0.45593999997E+02  0.45594000000E+02  0.51100000000E-03 0.  1.
         11   -1    0    0    0    0 -0.00000000000E+00 -0.00000000000E+00 -0.45593999997E+02  0.45594000000E+02  0.51100000000E-03 0. -1.
    9900012    2    1    2    0    0  0.25101140106E+02  0.10942531523E+02 -0.33672200345E+02  0.47787270664E+02  0.19999998268E+02 0.  0.
        -12    1    1    2    0    0 -0.25101140106E+02 -0.10942531523E+02  0.33672200345E+02  0.43400729336E+02  0.00000000000E+00 0.  1.
         11    1    3    3    0    0  0.22749910950E+02  0.11375949700E+02 -0.31518171243E+02  0.40501429587E+02  0.51100000000E-03 0. -1.
        -11    1    3    3    0    0  0.38302070870E+01 -0.21498634941E+01 -0.38095252941E+00  0.44088007965E+01  0.51100000000E-03 0.  1.
         12    1    3    3    0    0 -0.14789779310E+01  0.17164453164E+01 -0.17730765726E+01  0.28770402807E+01  0.00000000000E+00 0. -1.
</event>
<event>
 7    1  0.2458979E-009  0.4778729E+02  0.7816164E-02  0.1312668E+00
        -11   -1    0    0    0    0  0.00000000000E+00  0.00000000000E+00  0.45593999997E+02  0.45594000000E+02  0.51100000000E-03 0. -1.
         11   -1    0    0    0    0 -0.00000000000E+00 -0.00000000000E+00 -0.45593999997E+02  0.45594000000E+02  0.51100000000E-03 0.  1.
    9900012    2    1    2    0    0 -0.28955350008E+02 -0.15939176065E+02 -0.28127430763E+02  0.47787285847E+02  0.20000067489E+02 0.  0.
        -12    1    1    2    0    0  0.28955350008E+02  0.15939176065E+02  0.28127430763E+02  0.43400714153E+02  0.00000000000E+00 0.  1.
         11    1    3    3    0    0 -0.51085785135E+01 -0.78435552665E+01 -0.15938313330E+02  0.18483743282E+02  0.51100000000E-03 0. -1.
        -11    1    3    3    0    0 -0.11764700548E+02  0.49146529605E+00 -0.45040100402E+01  0.12606975206E+02  0.51100000000E-03 0.  1.
         12    1    3    3    0    0 -0.12082070946E+02 -0.85870860946E+01 -0.76851073927E+01  0.16696567359E+02  0.00000000000E+00 0. -1.
</event>
<event>
 7    1  0.2458979E-009  0.4778727E+02  0.7816164E-02  0.1312668E+00
        -11   -1    0    0    0    0  0.00000000000E+00  0.00000000000E+00  0.45593999997E+02  0.45594000000E+02  0.51100000000E-03 0. -1.
         11   -1    0    0    0    0 -0.00000000000E+00 -0.00000000000E+00 -0.45593999997E+02  0.45594000000E+02  0.51100000000E-03 0.  1.
    9900012    2    1    2    0    0 -0.87512742469E+01 -0.36773768671E+02  0.21324362346E+02  0.47787270828E+02  0.19999999012E+02 0.  0.
        -12    1    1    2    0    0  0.87512742469E+01  0.36773768671E+02 -0.21324362346E+02  0.43400729172E+02  0.00000000000E+00 0.  1.
         11    1    3    3    0    0  0.59658639773E+01 -0.14255335234E+02  0.55600124733E+01  0.16423149960E+02  0.51100000000E-03 0. -1.
        -11    1    3    3    0    0 -0.65256820777E+01 -0.70893617943E+01  0.60175120454E+01  0.11360194924E+02  0.51100000000E-03 0.  1.
         12    1    3    3    0    0 -0.81914561465E+01 -0.15429071642E+02  0.97468378277E+01  0.20003925944E+02  0.00000000000E+00 0. -1.
</event>
<event>
 7    1  0.2458979E-009  0.4778730E+02  0.7816164E-02  0.1312668E+00
        -11   -1    0    0    0    0  0.00000000000E+00  0.00000000000E+00  0.45593999997E+02  0.45594000000E+02  0.51100000000E-03 0.  1.
         11   -1    0    0    0    0 -0.00000000000E+00 -0.00000000000E+00 -0.45593999997E+02  0.45594000000E+02  0.51100000000E-03 0. -1.
    9900012    2    1    2    0    0 -0.38974351291E+02  0.18832415215E+02  0.31560120262E+01  0.47787304922E+02  0.20000154459E+02 0.  0.
        -12    1    1    2    0    0  0.38974351291E+02 -0.18832415215E+02 -0.31560120262E+01  0.43400695078E+02  0.00000000000E+00 0.  1.
         11    1    3    3    0    0 -0.96450969790E+01  0.81389409505E+01 -0.72779002568E+01  0.14568393458E+02  0.51100000000E-03 0. -1.
        -11    1    3    3    0    0 -0.21242187104E+02  0.56585158713E+01  0.66275577271E+01  0.22960266473E+02  0.51100000000E-03 0.  1.
         12    1    3    3    0    0 -0.80870672076E+01  0.50349583927E+01  0.38063545558E+01  0.10258644991E+02  0.00000000000E+00 0. -1.
</event>
<event>
 7    1  0.2458979E-009  0.4778727E+02  0.7816164E-02  0.1312668E+00
        -11   -1    0    0    0    0  0.00000000000E+00  0.00000000000E+00  0.45593999997E+02  0.45594000000E+02  0.51100000000E-03 0.  1.
         11   -1    0    0    0    0 -0.00000000000E+00 -0.00000000000E+00 -0.45593999997E+02  0.45594000000E+02  0.51100000000E-03 0. -1.
    9900012    2    1    2    0    0 -0.27238630880E+02 -0.97077880937E+01 -0.32364161803E+02  0.47787272690E+02  0.20000007501E+02 0.  0.
        -12    1    1    2    0    0  0.27238630880E+02  0.97077880937E+01  0.32364161803E+02  0.43400727310E+02  0.00000000000E+00 0.  1.
         11    1    3    3    0    0 -0.40897927026E+01 -0.12035272980E+01 -0.53642100064E+01  0.68519801197E+01  0.51100000000E-03 0. -1.
        -11    1    3    3    0    0 -0.87289788909E+01  0.10365350276E+01 -0.20775478563E+02  0.22558590096E+02  0.51100000000E-03 0.  1.
        -12    1    3    3    0    0 -0.14419859287E+02 -0.95407958232E+01 -0.62244732337E+01  0.18376702474E+02  0.00000000000E+00 0.  1.
</event>
<event>
 7    1  0.2458979E-009  0.4778727E+02  0.7816164E-02  0.1312668E+00
        -11   -1    0    0    0    0  0.00000000000E+00  0.00000000000E+00  0.45593999997E+02  0.45594000000E+02  0.51100000000E-03 0. -1.
         11   -1    0    0    0    0 -0.00000000000E+00 -0.00000000000E+00 -0.45593999997E+02  0.45594000000E+02  0.51100000000E-03 0.  1.
    9900012    2    1    2    0    0 -0.19435536254E+02  0.35058919866E+02 -0.16635959511E+02  0.47787273272E+02  0.20000010159E+02 0.  0.
        -12    1    1    2    0    0  0.19435536254E+02 -0.35058919866E+02  0.16635959511E+02  0.43400726728E+02  0.00000000000E+00 0.  1.
         11    1    3    3    0    0 -0.15264642149E+02  0.20576422490E+02 -0.14124895051E+02  0.29255958758E+02  0.51100000000E-03 0. -1.
        -11    1    3    3    0    0 -0.86228931102E+00  0.11229279487E+02  0.26717297647E+01  0.11574903924E+02  0.51100000000E-03 0.  1.
        -12    1    3    3    0    0 -0.33086047936E+01  0.32532178883E+01 -0.51827942253E+01  0.69564105896E+01  0.00000000000E+00 0.  1.
</event>
<event>
 7    1  0.2458979E-009  0.4778727E+02  0.7816164E-02  0.1312668E+00
        -11   -1    0    0    0    0  0.00000000000E+00  0.00000000000E+00  0.45593999997E+02  0.45594000000E+02  0.51100000000E-03 0.  1.
         11   -1    0    0    0    0 -0.00000000000E+00 -0.00000000000E+00 -0.45593999997E+02  0.45594000000E+02  0.51100000000E-03 0. -1.
    9900012    2    1    2    0    0  0.27592815250E+02 -0.32305096883E+02  0.88679365266E+01  0.47787273782E+02  0.20000012482E+02 0.  0.
        -12    1    1    2    0    0 -0.27592815250E+02  0.32305096883E+02 -0.88679365266E+01  0.43400726218E+02  0.00000000000E+00 0.  1.
         11    1    3    3    0    0  0.15720720051E+02 -0.83005008887E+01 -0.14175980599E+01  0.17833926613E+02  0.51100000000E-03 0. -1.
        -11    1    3    3    0    0  0.85923480665E+01 -0.10594195858E+02  0.84000340225E+01  0.16019550650E+02  0.51100000000E-03 0.  1.
         12    1    3    3    0    0  0.32797471319E+01 -0.13410400136E+02  0.18855005640E+01  0.13933796519E+02  0.00000000000E+00 0. -1.
</event>
<event>
 7    1  0.2458979E-009  0.4778728E+02  0.7816164E-02  0.1312668E+00
        -11   -1    0    0    0    0  0.00000000000E+00  0.00000000000E+00  0.45593999997E+02  0.45594000000E+02  0.51100000000E-03 0.  1.
         11   -1    0    0    0    0 -0.00000000000E+00 -0.00000000000E+00 -0.45593999997E+02  0.45594000000E+02  0.51100000000E-03 0. -1.
    9900012    2    1    2    0    0 -0.38660695061E+02 -0.17877130081E+02 -0.83295507289E+01  0.47787279524E+02  0.20000038661E+02 0.  0.
        -12    1    1    2    0    0  0.38660695061E+02  0.17877130081E+02  0.83295507289E+01  0.43400720476E+02  0.00000000000E+00 0.  1.
         11    1    3    3    0    0 -0.18034972862E+01 -0.40558650170E+01 -0.57930853492E+01  0.72981149361E+01  0.51100000000E-03 0. -1.
        -11    1    3    3    0    0 -0.22032071212E+02 -0.35905024118E+01 -0.26236785080E+01  0.22476377791E+02  0.51100000000E-03 0.  1.
         12    1    3    3    0    0 -0.14825126563E+02 -0.10230762652E+02  0.87213128204E-01  0.18012786797E+02  0.00000000000E+00 0. -1.
</event>
<event>
 7    1  0.2458979E-009  0.4778727E+02  0.7816164E-02  0.1312668E+00
        -11   -1    0    0    0    0  0.00000000000E+00  0.00000000000E+00  0.45593999997E+02  0.45594000000E+02  0.51100000000E-03 0. -1.
         11   -1    0    0    0    0 -0.00000000000E+00 -0.00000000000E+00 -0.45593999997E+02  0.45594000000E+02  0.51100000000E-03 0.  1.
    9900012    2    1    2    0    0 -0.29534048733E+02 -0.11464285545E+02  0.29663667890E+02  0.47787273389E+02  0.20000010691E+02 0.  0.
        -12    1    1    2    0    0  0.29534048733E+02  0.11464285545E+02 -0.29663667890E+02  0.43400726611E+02  0.00000000000E+00 0.  1.
         11    1    3    3    0    0 -0.19160933586E+02 -0.13670123894E+02  0.24634987958E+02  0.34071928256E+02  0.51100000000E-03 0. -1.
        -11    1    3    3    0    0 -0.65642125951E+00  0.28508127973E+01  0.18947237759E+01  0.34853982446E+01  0.51100000000E-03 0.  1.
         12    1    3    3    0    0 -0.97166938882E+01 -0.64497444830E+00  0.31339561564E+01  0.10229946889E+02  0.00000000000E+00 0. -1.
</event>
<event>
 7    1  0.2458979E-009  0.4778727E+02  0.7816164E-02  0.1312668E+00
        -11   -1    0    0    0    0  0.00000000000E+00  0.00000000000E+00  0.45593999997E+02  0.45594000000E+02  0.51100000000E-03 0.  1.
         11   -1    0    0    0    0 -0.00000000000E+00 -0.00000000000E+00 -0.45593999997E+02  0.45594000000E+02  0.51100000000E-03 0. -1.
    9900012    2    1    2    0    0  0.10741925819E+02  0.17801740783E+02 -0.38096362651E+02  0.47787265070E+02  0.19999972762E+02 0.  0.
        -12    1    1    2    0    0 -0.10741925819E+02 -0.17801740783E+02  0.38096362651E+02  0.43400734930E+02  0.00000000000E+00 0.  1.
         11    1    3    3    0    0  0.17886210310E+01 -0.22317510123E+01 -0.53244810573E+01  0.60440033557E+01  0.51100000000E-03 0.  1.
        -11    1    3    3    0    0  0.72853261017E+01  0.19351591740E+02 -0.19739362827E+02  0.28586754352E+02  0.51100000000E-03 0. -1.
        -12    1    3    3    0    0  0.16679786868E+01  0.68190005501E+00 -0.13032518767E+02  0.13156507363E+02  0.00000000000E+00 0.  1.
</event>
<event>
 7    1  0.2458979E-009  0.4778728E+02  0.7816164E-02  0.1312668E+00
        -11   -1    0    0    0    0  0.00000000000E+00  0.00000000000E+00  0.45593999997E+02  0.45594000000E+02  0.51100000000E-03 0. -1.
         11   -1    0    0    0    0 -0.00000000000E+00 -0.00000000000E+00 -0.45593999997E+02  0.45594000000E+02  0.51100000000E-03 0.  1.
    9900012    2    1    2    0    0 -0.19572840577E+02  0.32088823651E+02  0.21698711997E+02  0.47787276574E+02  0.20000025213E+02 0.  0.
        -12    1    1    2    0    0  0.19572840577E+02 -0.32088823651E+02 -0.21698711997E+02  0.43400723426E+02  0.00000000000E+00 0.  1.
         11    1    3    3    0    0  0.37007191889E+00  0.66488280924E+01  0.60632982507E+01  0.90059676974E+01  0.51100000000E-03 0. -1.
        -11    1    3    3    0    0 -0.16457847501E+01  0.13590403507E+02  0.58864061629E+01  0.14901592288E+02  0.51100000000E-03 0.  1.
         12    1    3    3    0    0 -0.18297127746E+02  0.11849592051E+02  0.97490075832E+01  0.23879716589E+02  0.00000000000E+00 0. -1.
</event>
<event>
 7    1  0.2458979E-009  0.4778723E+02  0.7816164E-02  0.1312668E+00
        -11   -1    0    0    0    0  0.00000000000E+00  0.00000000000E+00  0.45593999997E+02  0.45594000000E+02  0.51100000000E-03 0.  1.
         11   -1    0    0    0    0 -0.00000000000E+00 -0.00000000000E+00 -0.45593999997E+02  0.45594000000E+02  0.51100000000E-03 0. -1.
    9900012    2    1    2    0    0 -0.27037857721E+02 -0.11149162309E+02  0.32066759123E+02  0.47787232599E+02  0.19999824713E+02 0.  0.
        -12    1    1    2    0    0  0.27037857721E+02  0.11149162309E+02 -0.32066759123E+02  0.43400767401E+02  0.00000000000E+00 0.  1.
         11    1    3    3    0    0 -0.52218944087E+01  0.31508370696E+01  0.32985418964E+01  0.69337099996E+01  0.51100000000E-03 0. -1.
        -11    1    3    3    0    0 -0.10281822794E+02 -0.93447701031E+01  0.23370784092E+02  0.27188860910E+02  0.51100000000E-03 0.  1.
        -12    1    3    3    0    0 -0.11534140518E+02 -0.49552292751E+01  0.53974331346E+01  0.13664661690E+02  0.00000000000E+00 0.  1.
</event>
<event>
 7    1  0.2458979E-009  0.4778727E+02  0.7816164E-02  0.1312668E+00
        -11   -1    0    0    0    0  0.00000000000E+00  0.00000000000E+00  0.45593999997E+02  0.45594000000E+02  0.51100000000E-03 0.  1.
         11   -1    0    0    0    0 -0.00000000000E+00 -0.00000000000E+00 -0.45593999997E+02  0.45594000000E+02  0.51100000000E-03 0. -1.
    9900012    2    1    2    0    0 -0.16603203441E+01 -0.60408753391E+01 -0.42946185950E+02  0.47787265834E+02  0.19999976243E+02 0.  0.
        -12    1    1    2    0    0  0.16603203441E+01  0.60408753391E+01  0.42946185950E+02  0.43400734166E+02  0.00000000000E+00 0.  1.
         11    1    3    3    0    0 -0.47592526568E+01 -0.10277313396E+02 -0.29715174120E+02  0.31800396692E+02  0.51100000000E-03 0. -1.
        -11    1    3    3    0    0  0.54870432726E+01  0.29938914326E+01 -0.86246242466E+01  0.10651533854E+02  0.51100000000E-03 0.  1.
        -12    1    3    3    0    0 -0.23881109598E+01  0.12425466247E+01 -0.46063875831E+01  0.53353352881E+01  0.00000000000E+00 0.  1.
</event>
<event>
 7    1  0.2458979E-009  0.4778726E+02  0.7816164E-02  0.1312668E+00
        -11   -1    0    0    0    0  0.00000000000E+00  0.00000000000E+00  0.45593999997E+02  0.45594000000E+02  0.51100000000E-03 0.  1.
         11   -1    0    0    0    0 -0.00000000000E+00 -0.00000000000E+00 -0.45593999997E+02  0.45594000000E+02  0.51100000000E-03 0. -1.
    9900012    2    1    2    0    0 -0.10014872841E+02 -0.37543322830E+02 -0.19334564692E+02  0.47787260848E+02  0.19999953509E+02 0.  0.
        -12    1    1    2    0    0  0.10014872841E+02  0.37543322830E+02  0.19334564692E+02  0.43400739152E+02  0.00000000000E+00 0.  1.
         11    1    3    3    0    0  0.25732616336E-01 -0.18234095099E+02 -0.82480201185E+01  0.20012813954E+02  0.51100000000E-03 0. -1.
        -11    1    3    3    0    0 -0.40236205039E+01 -0.32182953529E+01 -0.91310090366E+01  0.10484382348E+02  0.51100000000E-03 0.  1.
        -12    1    3    3    0    0 -0.60169849538E+01 -0.16090932378E+02 -0.19555355373E+01  0.17290064545E+02  0.00000000000E+00 0.  1.
</event>
<event>
 7    1  0.2458979E-009  0.4778726E+02  0.7816164E-02  0.1312668E+00
        -11   -1    0    0    0    0  0.00000000000E+00  0.00000000000E+00  0.45593999997E+02  0.45594000000E+02  0.51100000000E-03 0.  1.
         11   -1    0    0    0    0 -0.00000000000E+00 -0.00000000000E+00 -0.45593999997E+02  0.45594000000E+02  0.51100000000E-03 0. -1.
    9900012    2    1    2    0    0  0.32432928094E+02  0.26614968215E+02 -0.11107339499E+02  0.47787258663E+02  0.19999943550E+02 0.  0.
        -12    1    1    2    0    0 -0.32432928094E+02 -0.26614968215E+02  0.11107339499E+02  0.43400741337E+02  0.00000000000E+00 0.  1.
         11    1    3    3    0    0  0.13201955913E+02  0.13673986378E+02 -0.71486982869E+01  0.20306979855E+02  0.51100000000E-03 0. -1.
        -11    1    3    3    0    0  0.36086249463E+01  0.69523873971E+00  0.45797571824E+01  0.58719423549E+01  0.51100000000E-03 0.  1.
        -12    1    3    3    0    0  0.15622347235E+02  0.12245743098E+02 -0.85383983945E+01  0.21608336453E+02  0.00000000000E+00 0.  1.
</event>
<event>
 7    1  0.2458979E-009  0.4778726E+02  0.7816164E-02  0.1312668E+00
        -11   -1    0    0    0    0  0.00000000000E+00  0.00000000000E+00  0.45593999997E+02  0.45594000000E+02  0.51100000000E-03 0. -1.
         11   -1    0    0    0    0 -0.00000000000E+00 -0.00000000000E+00 -0.45593999997E+02  0.45594000000E+02  0.51100000000E-03 0.  1.
    9900012    2    1    2    0    0 -0.71245315577E+01  0.28898125267E+02  0.31587397210E+02  0.47787259726E+02  0.19999948395E+02 0.  0.
        -12    1    1    2    0    0  0.71245315577E+01 -0.28898125267E+02 -0.31587397210E+02  0.43400740274E+02  0.00000000000E+00 0.  1.
         11    1    3    3    0    0 -0.70935238787E+01  0.12272596328E+02  0.22968455674E+02  0.26990454941E+02  0.51100000000E-03 0. -1.
        -11    1    3    3    0    0  0.59199416461E+00  0.13307227529E+02  0.10473397910E+02  0.16944758058E+02  0.51100000000E-03 0.  1.
         12    1    3    3    0    0 -0.62300184361E+00  0.33183014097E+01 -0.18544563740E+01  0.38520467269E+01  0.00000000000E+00 0. -1.
</event>
<event>
 7    1  0.2458979E-009  0.4778727E+02  0.7816164E-02  0.1312668E+00
        -11   -1    0    0    0    0  0.00000000000E+00  0.00000000000E+00  0.45593999997E+02  0.45594000000E+02  0.51100000000E-03 0. -1.
         11   -1    0    0    0    0 -0.00000000000E+00 -0.00000000000E+00 -0.45593999997E+02  0.45594000000E+02  0.51100000000E-03 0.  1.
    9900012    2    1    2    0    0  0.36983019339E+02 -0.21581299983E+02  0.70800312289E+01  0.47787273386E+02  0.20000010677E+02 0.  0.
        -12    1    1    2    0    0 -0.36983019339E+02  0.21581299983E+02 -0.70800312289E+01  0.43400726614E+02  0.00000000000E+00 0.  1.
         11    1    3    3    0    0  0.48090672768E+01 -0.20612488403E+01 -0.66181144640E+00  0.52738856175E+01  0.51100000000E-03 0. -1.
        -11    1    3    3    0    0  0.24219954764E+02 -0.12719476965E+02 -0.29950828754E+01  0.27520207571E+02  0.51100000000E-03 0.  1.
        -12    1    3    3    0    0  0.79539972980E+01 -0.68005741780E+01  0.10736925551E+02  0.14993180198E+02  0.00000000000E+00 0.  1.
</event>
<event>
 7    1  0.2458979E-009  0.4778727E+02  0.7816164E-02  0.1312668E+00
        -11   -1    0    0    0    0  0.00000000000E+00  0.00000000000E+00  0.45593999997E+02  0.45594000000E+02  0.51100000000E-03 0. -1.
         11   -1    0    0    0    0 -0.00000000000E+00 -0.00000000000E+00 -0.45593999997E+02  0.45594000000E+02  0.51100000000E-03 0.  1.
    9900012    2    1    2    0    0  0.19062984433E+01 -0.40264905912E+02 -0.16084978994E+02  0.47787272228E+02  0.20000005398E+02 0.  0.
        -12    1    1    2    0    0 -0.19062984433E+01  0.40264905912E+02  0.16084978994E+02  0.43400727772E+02  0.00000000000E+00 0.  1.
         11    1    3    3    0    0 -0.43569770081E+01 -0.73634571386E+01  0.31151711102E+01  0.91053852740E+01  0.51100000000E-03 0. -1.
        -11    1    3    3    0    0  0.35859674297E+01 -0.24543396378E+02 -0.14163723735E+02  0.28563062484E+02  0.51100000000E-03 0.  1.
         12    1    3    3    0    0  0.26773080217E+01 -0.83580523957E+01 -0.50364263693E+01  0.10118824471E+02  0.00000000000E+00 0. -1.
</event>
<event>
 7    1  0.2458979E-009  0.4778727E+02  0.7816164E-02  0.1312668E+00
        -11   -1    0    0    0    0  0.00000000000E+00  0.00000000000E+00  0.45593999997E+02  0.45594000000E+02  0.51100000000E-03 0.  1.
         11   -1    0    0    0    0 -0.00000000000E+00 -0.00000000000E+00 -0.45593999997E+02  0.45594000000E+02  0.51100000000E-03 0. -1.
    9900012    2    1    2    0    0  0.17055651213E+02  0.27126732692E+02 -0.29272321388E+02  0.47787266547E+02  0.19999979495E+02 0.  0.
        -12    1    1    2    0    0 -0.17055651213E+02 -0.27126732692E+02  0.29272321388E+02  0.43400733453E+02  0.00000000000E+00 0.  1.
         11    1    3    3    0    0  0.94160317119E+01  0.17945606802E+01 -0.81336220020E+01  0.12571312913E+02  0.51100000000E-03 0. -1.
        -11    1    3    3    0    0  0.73089900710E+01  0.21350452928E+02 -0.12738420642E+02  0.25913906243E+02  0.51100000000E-03 0.  1.
         12    1    3    3    0    0  0.33062943032E+00  0.39817190836E+01 -0.84002787437E+01  0.93020473904E+01  0.00000000000E+00 0. -1.
</event>
<event>
 7    1  0.2458979E-009  0.4778727E+02  0.7816164E-02  0.1312668E+00
        -11   -1    0    0    0    0  0.00000000000E+00  0.00000000000E+00  0.45593999997E+02  0.45594000000E+02  0.51100000000E-03 0. -1.
         11   -1    0    0    0    0 -0.00000000000E+00 -0.00000000000E+00 -0.45593999997E+02  0.45594000000E+02  0.51100000000E-03 0.  1.
    9900012    2    1    2    0    0  0.61040133028E+01  0.29328888949E+00  0.42968337715E+02  0.47787273707E+02  0.20000012138E+02 0.  0.
        -12    1    1    2    0    0 -0.61040133028E+01 -0.29328888949E+00 -0.42968337715E+02  0.43400726293E+02  0.00000000000E+00 0.  1.
         11    1    3    3    0    0  0.77422455572E+01  0.11549367717E+01  0.29084295810E+02  0.30119304578E+02  0.51100000000E-03 0. -1.
        -11    1    3    3    0    0 -0.32446109381E+01  0.28973585959E+01  0.14595965832E+01  0.45883122626E+01  0.51100000000E-03 0.  1.
         12    1    3    3    0    0  0.16063786837E+01 -0.37590064781E+01  0.12424445322E+02  0.13079656866E+02  0.00000000000E+00 0. -1.
</event>
<event>
 7    1  0.2458979E-009  0.4778727E+02  0.7816164E-02  0.1312668E+00
        -11   -1    0    0    0    0  0.00000000000E+00  0.00000000000E+00  0.45593999997E+02  0.45594000000E+02  0.51100000000E-03 0.  1.
         11   -1    0    0    0    0 -0.00000000000E+00 -0.00000000000E+00 -0.45593999997E+02  0.45594000000E+02  0.51100000000E-03 0. -1.
    9900012    2    1    2    0    0  0.39837995303E+02 -0.16128057772E+02 -0.60368313039E+01  0.47787269021E+02  0.19999990776E+02 0.  0.
        -12    1    1    2    0    0 -0.39837995303E+02  0.16128057772E+02  0.60368313039E+01  0.43400730979E+02  0.00000000000E+00 0.  1.
         11    1    3    3    0    0  0.95929791098E+01 -0.33572262073E+01  0.45961496505E+01  0.11154407554E+02  0.51100000000E-03 0. -1.
        -11    1    3    3    0    0  0.24724241698E+02 -0.56895906209E+01 -0.10985966087E+02  0.27646898924E+02  0.51100000000E-03 0.  1.
        -12    1    3    3    0    0  0.55207744958E+01 -0.70812409437E+01  0.35298513301E+00  0.89859625439E+01  0.00000000000E+00 0.  1.
</event>
<event>
 7    1  0.2458979E-009  0.4778727E+02  0.7816164E-02  0.1312668E+00
        -11   -1    0    0    0    0  0.00000000000E+00  0.00000000000E+00  0.45593999997E+02  0.45594000000E+02  0.51100000000E-03 0.  1.
         11   -1    0    0    0    0 -0.00000000000E+00 -0.00000000000E+00 -0.45593999997E+02  0.45594000000E+02  0.51100000000E-03 0. -1.
    9900012    2    1    2    0    0 -0.10214393391E+02 -0.36959220014E+01 -0.42019398959E+02  0.47787267741E+02  0.19999984936E+02 0.  0.
        -12    1    1    2    0    0  0.10214393391E+02  0.36959220014E+01  0.42019398959E+02  0.43400732259E+02  0.00000000000E+00 0.  1.
         11    1    3    3    0    0 -0.27384864200E+01  0.78335480904E+01 -0.20272753862E+02  0.21905440717E+02  0.51100000000E-03 0. -1.
        -11    1    3    3    0    0 -0.28421088061E+01 -0.45248069740E+01 -0.59924289636E+01  0.80287399859E+01  0.51100000000E-03 0.  1.
         12    1    3    3    0    0 -0.46337981648E+01 -0.70046631179E+01 -0.15754216133E+02  0.17853087038E+02  0.00000000000E+00 0. -1.
</event>
<event>
 7    1  0.2698479E-009  0.4778727E+02  0.7816164E-02  0.1312668E+00
        -11   -1    0    0    0    0  0.00000000000E+00  0.00000000000E+00  0.45593999997E+02  0.45594000000E+02  0.51100000000E-03 0.  1.
         11   -1    0    0    0    0 -0.00000000000E+00 -0.00000000000E+00 -0.45593999997E+02  0.45594000000E+02  0.51100000000E-03 0. -1.
    9900012    2    1    2    0    0 -0.42478476758E+02 -0.88724381214E+01  0.69426674364E+00  0.47787272446E+02  0.20000006390E+02 0.  0.
        -12    1    1    2    0    0  0.42478476758E+02  0.88724381214E+01 -0.69426674364E+00  0.43400727554E+02  0.00000000000E+00 0.  1.
         11    1    3    3    0    0 -0.12505266462E+02 -0.34014860492E+01  0.27817761427E+01  0.13254813292E+02  0.51100000000E-03 0. -1.
        -11    1    3    3    0    0 -0.23920949803E+02  0.27949921558E+01 -0.33064713295E-01  0.24083706405E+02  0.51100000000E-03 0.  1.
        -12    1    3    3    0    0 -0.60522604924E+01 -0.82659442281E+01 -0.20544446857E+01  0.10448752749E+02  0.00000000000E+00 0.  1.
</event>
<event>
 7    1  0.2458979E-009  0.4778728E+02  0.7816164E-02  0.1312668E+00
        -11   -1    0    0    0    0  0.00000000000E+00  0.00000000000E+00  0.45593999997E+02  0.45594000000E+02  0.51100000000E-03 0. -1.
         11   -1    0    0    0    0 -0.00000000000E+00 -0.00000000000E+00 -0.45593999997E+02  0.45594000000E+02  0.51100000000E-03 0.  1.
    9900012    2    1    2    0    0  0.17139504237E+01  0.43206674258E+02  0.37240528956E+01  0.47787275393E+02  0.20000019825E+02 0.  0.
        -12    1    1    2    0    0 -0.17139504237E+01 -0.43206674258E+02 -0.37240528956E+01  0.43400724607E+02  0.00000000000E+00 0.  1.
         11    1    3    3    0    0  0.55085458670E+01  0.32003357307E+02  0.93547864877E+00  0.32487444914E+02  0.51100000000E-03 0. -1.
        -11    1    3    3    0    0 -0.52065634976E+01  0.76675760212E+01  0.53590893449E+01  0.10706066708E+02  0.51100000000E-03 0.  1.
        -12    1    3    3    0    0  0.14119680543E+01  0.35357409300E+01 -0.25705150981E+01  0.45937637706E+01  0.00000000000E+00 0.  1.
</event>
<event>
 7    1  0.2458979E-009  0.4778727E+02  0.7816164E-02  0.1312668E+00
        -11   -1    0    0    0    0  0.00000000000E+00  0.00000000000E+00  0.45593999997E+02  0.45594000000E+02  0.51100000000E-03 0.  1.
         11   -1    0    0    0    0 -0.00000000000E+00 -0.00000000000E+00 -0.45593999997E+02  0.45594000000E+02  0.51100000000E-03 0. -1.
    9900012    2    1    2    0    0 -0.16953303740E+02  0.38192218910E+02 -0.11728737929E+02  0.47787269749E+02  0.19999994092E+02 0.  0.
        -12    1    1    2    0    0  0.16953303740E+02 -0.38192218910E+02  0.11728737929E+02  0.43400730251E+02  0.00000000000E+00 0.  1.
         11    1    3    3    0    0 -0.10830847277E+02  0.23339725039E+02  0.14248128320E+01  0.25769751832E+02  0.51100000000E-03 0. -1.
        -11    1    3    3    0    0  0.95380399620E+00  0.90610531849E+00  0.34350508862E+00  0.13596929500E+01  0.51100000000E-03 0.  1.
         12    1    3    3    0    0 -0.70762604593E+01  0.13946388552E+02 -0.13497055849E+02  0.20657824966E+02  0.00000000000E+00 0. -1.
</event>
<event>
 7    1  0.2458979E-009  0.4778728E+02  0.7816164E-02  0.1312668E+00
        -11   -1    0    0    0    0  0.00000000000E+00  0.00000000000E+00  0.45593999997E+02  0.45594000000E+02  0.51100000000E-03 0.  1.
         11   -1    0    0    0    0 -0.00000000000E+00 -0.00000000000E+00 -0.45593999997E+02  0.45594000000E+02  0.51100000000E-03 0. -1.
    9900012    2    1    2    0    0 -0.36014938832E+01 -0.37528472841E+02 -0.21500368051E+02  0.47787275833E+02  0.20000021831E+02 0.  0.
        -12    1    1    2    0    0  0.36014938832E+01  0.37528472841E+02  0.21500368051E+02  0.43400724167E+02  0.00000000000E+00 0.  1.
         11    1    3    3    0    0 -0.24152506553E+01 -0.21370725370E+02 -0.11936540291E+02  0.24597201730E+02  0.51100000000E-03 0. -1.
        -11    1    3    3    0    0  0.25041458389E+01 -0.19137456617E+01 -0.77475883910E+01  0.83641075422E+01  0.51100000000E-03 0.  1.
        -12    1    3    3    0    0 -0.36903890669E+01 -0.14244001809E+02 -0.18162393685E+01  0.14825966560E+02  0.00000000000E+00 0.  1.
</event>
<event>
 7    1  0.2458979E-009  0.4778727E+02  0.7816164E-02  0.1312668E+00
        -11   -1    0    0    0    0  0.00000000000E+00  0.00000000000E+00  0.45593999997E+02  0.45594000000E+02  0.51100000000E-03 0. -1.
         11   -1    0    0    0    0 -0.00000000000E+00 -0.00000000000E+00 -0.45593999997E+02  0.45594000000E+02  0.51100000000E-03 0.  1.
    9900012    2    1    2    0    0 -0.15957250282E+02  0.83581403132E+01  0.39485833001E+02  0.47787270123E+02  0.19999995800E+02 0.  0.
        -12    1    1    2    0    0  0.15957250282E+02 -0.83581403132E+01 -0.39485833001E+02  0.43400729877E+02  0.00000000000E+00 0.  1.
         11    1    3    3    0    0  0.10610245552E+01  0.21614672167E+01  0.17185114406E+02  0.17352978737E+02  0.51100000000E-03 0. -1.
        -11    1    3    3    0    0 -0.14744219162E+02  0.84512688025E+01  0.15879411752E+02  0.23258797495E+02  0.51100000000E-03 0.  1.
        -12    1    3    3    0    0 -0.22740556752E+01 -0.22545957060E+01  0.64213068428E+01  0.71754938910E+01  0.00000000000E+00 0.  1.
</event>
<event>
 7    1  0.2458979E-009  0.4778727E+02  0.7816164E-02  0.1312668E+00
        -11   -1    0    0    0    0  0.00000000000E+00  0.00000000000E+00  0.45593999997E+02  0.45594000000E+02  0.51100000000E-03 0.  1.
         11   -1    0    0    0    0 -0.00000000000E+00 -0.00000000000E+00 -0.45593999997E+02  0.45594000000E+02  0.51100000000E-03 0. -1.
    9900012    2    1    2    0    0 -0.34283376876E+02 -0.17439029178E+02  0.20103573270E+02  0.47787270434E+02  0.19999997215E+02 0.  0.
        -12    1    1    2    0    0  0.34283376876E+02  0.17439029178E+02 -0.20103573270E+02  0.43400729566E+02  0.00000000000E+00 0.  1.
         11    1    3    3    0    0 -0.28273940019E+02 -0.14409423165E+02  0.12861139241E+02  0.34241145760E+02  0.51100000000E-03 0. -1.
        -11    1    3    3    0    0  0.19776475529E+01  0.11936215715E+01  0.22453314185E+01  0.32213872384E+01  0.51100000000E-03 0.  1.
        -12    1    3    3    0    0 -0.79870844100E+01 -0.42232275846E+01  0.49971026108E+01  0.10324737435E+02  0.00000000000E+00 0.  1.
</event>
<event>
 7    1  0.2458979E-009  0.4778727E+02  0.7816164E-02  0.1312668E+00
        -11   -1    0    0    0    0  0.00000000000E+00  0.00000000000E+00  0.45593999997E+02  0.45594000000E+02  0.51100000000E-03 0.  1.
         11   -1    0    0    0    0 -0.00000000000E+00 -0.00000000000E+00 -0.45593999997E+02  0.45594000000E+02  0.51100000000E-03 0. -1.
    9900012    2    1    2    0    0 -0.22853086605E+02  0.29236734138E+02 -0.22507174930E+02  0.47787272889E+02  0.20000008411E+02 0.  0.
        -12    1    1    2    0    0  0.22853086605E+02 -0.29236734138E+02  0.22507174930E+02  0.43400727111E+02  0.00000000000E+00 0.  1.
         11    1    3    3    0    0 -0.60708102270E+01  0.74637506243E+01 -0.36031362908E+01  0.10273504835E+02  0.51100000000E-03 0. -1.
        -11    1    3    3    0    0 -0.14385680411E+02  0.24656499252E+02 -0.17640788150E+02  0.33557237120E+02  0.51100000000E-03 0.  1.
        -12    1    3    3    0    0 -0.23965959664E+01 -0.28835157386E+01 -0.12632504889E+01  0.39565309349E+01  0.00000000000E+00 0.  1.
</event>
<event>
 7    1  0.2458979E-009  0.4778727E+02  0.7816164E-02  0.1312668E+00
        -11   -1    0    0    0    0  0.00000000000E+00  0.00000000000E+00  0.45593999997E+02  0.45594000000E+02  0.51100000000E-03 0.  1.
         11   -1    0    0    0    0 -0.00000000000E+00 -0.00000000000E+00 -0.45593999997E+02  0.45594000000E+02  0.51100000000E-03 0. -1.
    9900012    2    1    2    0    0 -0.19348010376E+02  0.12059295290E+02 -0.36930358935E+02  0.47787268215E+02  0.19999987097E+02 0.  0.
        -12    1    1    2    0    0  0.19348010376E+02 -0.12059295290E+02  0.36930358935E+02  0.43400731785E+02  0.00000000000E+00 0.  1.
         11    1    3    3    0    0 -0.10333104856E+02  0.92499793346E+01 -0.19224419393E+02  0.23704714192E+02  0.51100000000E-03 0. -1.
        -11    1    3    3    0    0 -0.47605485545E+00  0.11437015414E+01  0.21067322083E+01  0.24439726471E+01  0.51100000000E-03 0.  1.
        -12    1    3    3    0    0 -0.85388506648E+01  0.16656144143E+01 -0.19812671750E+02  0.21638581375E+02  0.00000000000E+00 0.  1.
</event>
<event>
 7    1  0.2458979E-009  0.4778727E+02  0.7816164E-02  0.1312668E+00
        -11   -1    0    0    0    0  0.00000000000E+00  0.00000000000E+00  0.45593999997E+02  0.45594000000E+02  0.51100000000E-03 0. -1.
         11   -1    0    0    0    0 -0.00000000000E+00 -0.00000000000E+00 -0.45593999997E+02  0.45594000000E+02  0.51100000000E-03 0.  1.
    9900012    2    1    2    0    0  0.19111239468E+02 -0.18368898778E+02  0.34365201940E+02  0.47787273961E+02  0.20000013299E+02 0.  0.
        -12    1    1    2    0    0 -0.19111239468E+02  0.18368898778E+02 -0.34365201940E+02  0.43400726039E+02  0.00000000000E+00 0.  1.
         11    1    3    3    0    0  0.74047861720E+01 -0.47041335307E+01  0.23217041033E+01  0.90746923216E+01  0.51100000000E-03 0. -1.
        -11    1    3    3    0    0  0.56072266320E+01 -0.29124153937E+01  0.21678127836E+02  0.22580176719E+02  0.51100000000E-03 0.  1.
        -12    1    3    3    0    0  0.60992266636E+01 -0.10752349853E+02  0.10365370001E+02  0.16132404921E+02  0.00000000000E+00 0.  1.
</event>
<event>
 7    1  0.2458979E-009  0.4778727E+02  0.7816164E-02  0.1312668E+00
        -11   -1    0    0    0    0  0.00000000000E+00  0.00000000000E+00  0.45593999997E+02  0.45594000000E+02  0.51100000000E-03 0.  1.
         11   -1    0    0    0    0 -0.00000000000E+00 -0.00000000000E+00 -0.45593999997E+02  0.45594000000E+02  0.51100000000E-03 0. -1.
    9900012    2    1    2    0    0  0.33598408509E+02 -0.96448117767E+01 -0.25724464182E+02  0.47787268370E+02  0.19999987808E+02 0.  0.
        -12    1    1    2    0    0 -0.33598408509E+02  0.96448117767E+01  0.25724464182E+02  0.43400731630E+02  0.00000000000E+00 0.  1.
         11    1    3    3    0    0  0.72841579418E+01 -0.52210004934E+00 -0.10201931443E+02  0.12546352092E+02  0.51100000000E-03 0. -1.
        -11    1    3    3    0    0  0.27076583494E+02 -0.10833542710E+02 -0.16058989734E+02  0.33292614390E+02  0.51100000000E-03 0.  1.
        -12    1    3    3    0    0 -0.76233292751E+00  0.17108309829E+01  0.53645699403E+00  0.19483018890E+01  0.00000000000E+00 0.  1.
</event>
<event>
 7    1  0.2458979E-009  0.4778727E+02  0.7816164E-02  0.1312668E+00
        -11   -1    0    0    0    0  0.00000000000E+00  0.00000000000E+00  0.45593999997E+02  0.45594000000E+02  0.51100000000E-03 0.  1.
         11   -1    0    0    0    0 -0.00000000000E+00 -0.00000000000E+00 -0.45593999997E+02  0.45594000000E+02  0.51100000000E-03 0. -1.
    9900012    2    1    2    0    0 -0.13675187199E+02 -0.24711081427E+02 -0.32954135348E+02  0.47787270435E+02  0.19999997222E+02 0.  0.
        -12    1    1    2    0    0  0.13675187199E+02  0.24711081427E+02  0.32954135348E+02  0.43400729565E+02  0.00000000000E+00 0.  1.
         11    1    3    3    0    0 -0.28990912277E+01 -0.47807228814E+01 -0.10470942529E+02  0.11870159178E+02  0.51100000000E-03 0. -1.
        -11    1    3    3    0    0  0.23751010779E+01 -0.12888338756E+01 -0.90445901635E+01  0.94396403202E+01  0.51100000000E-03 0.  1.
        -12    1    3    3    0    0 -0.13151197050E+02 -0.18641524670E+02 -0.13438602655E+02  0.26477470937E+02  0.00000000000E+00 0.  1.
</event>
<event>
 7    1  0.2458979E-009  0.4778727E+02  0.7816164E-02  0.1312668E+00
        -11   -1    0    0    0    0  0.00000000000E+00  0.00000000000E+00  0.45593999997E+02  0.45594000000E+02  0.51100000000E-03 0.  1.
         11   -1    0    0    0    0 -0.00000000000E+00 -0.00000000000E+00 -0.45593999997E+02  0.45594000000E+02  0.51100000000E-03 0. -1.
    9900012    2    1    2    0    0 -0.25223800168E+02  0.13468430092E+02 -0.32649418737E+02  0.47787271343E+02  0.20000001361E+02 0.  0.
        -12    1    1    2    0    0  0.25223800168E+02 -0.13468430092E+02  0.32649418737E+02  0.43400728657E+02  0.00000000000E+00 0.  1.
         11    1    3    3    0    0 -0.81282035179E+01  0.82511685898E+01 -0.15663910593E+02  0.19480954054E+02  0.51100000000E-03 0. -1.
        -11    1    3    3    0    0 -0.10960327807E+01 -0.23455727123E+01  0.12676539742E+01  0.28826977061E+01  0.51100000000E-03 0.  1.
         12    1    3    3    0    0 -0.15999563869E+02  0.75628342150E+01 -0.18253162118E+02  0.25423619583E+02  0.00000000000E+00 0. -1.
</event>
<event>
 7    1  0.2458979E-009  0.4778725E+02  0.7816164E-02  0.1312668E+00
        -11   -1    0    0    0    0  0.00000000000E+00  0.00000000000E+00  0.45593999997E+02  0.45594000000E+02  0.51100000000E-03 0. -1.
         11   -1    0    0    0    0 -0.00000000000E+00 -0.00000000000E+00 -0.45593999997E+02  0.45594000000E+02  0.51100000000E-03 0.  1.
    9900012    2    1    2    0    0  0.32253480306E+02  0.18802298196E+02  0.22131688512E+02  0.47787250632E+02  0.19999906930E+02 0.  0.
        -12    1    1    2    0    0 -0.32253480306E+02 -0.18802298196E+02 -0.22131688512E+02  0.43400749368E+02  0.00000000000E+00 0.  1.
         11    1    3    3    0    0  0.18688384369E+02  0.98240588241E+01  0.19289137235E+01  0.21201145028E+02  0.51100000000E-03 0. -1.
        -11    1    3    3    0    0  0.13671387538E+02  0.71377231985E+01  0.17677856564E+02  0.23459764334E+02  0.51100000000E-03 0.  1.
        -12    1    3    3    0    0 -0.10629160034E+00  0.18405161733E+01  0.25249182252E+01  0.31263412693E+01  0.00000000000E+00 0.  1.
</event>
<event>
 7    1  0.2458979E-009  0.4778727E+02  0.7816164E-02  0.1312668E+00
        -11   -1    0    0    0    0  0.00000000000E+00  0.00000000000E+00  0.45593999997E+02  0.45594000000E+02  0.51100000000E-03 0.  1.
         11   -1    0    0    0    0 -0.00000000000E+00 -0.00000000000E+00 -0.45593999997E+02  0.45594000000E+02  0.51100000000E-03 0. -1.
    9900012    2    1    2    0    0  0.26399338275E+02 -0.24714760921E+02 -0.23997471021E+02  0.47787273230E+02  0.20000009963E+02 0.  0.
        -12    1    1    2    0    0 -0.26399338275E+02  0.24714760921E+02  0.23997471021E+02  0.43400726770E+02  0.00000000000E+00 0.  1.
         11    1    3    3    0    0  0.73826825893E+01 -0.13902875988E+02 -0.93088537817E+01  0.18287939248E+02  0.51100000000E-03 0. -1.
        -11    1    3    3    0    0  0.19073235497E+02 -0.89402846169E+01 -0.79655218140E+01  0.22520358331E+02  0.51100000000E-03 0.  1.
        -12    1    3    3    0    0 -0.56579810686E-01 -0.18716003159E+01 -0.67230954256E+01  0.69789756497E+01  0.00000000000E+00 0.  1.
</event>
<event>
 7    1  0.2458979E-009  0.4778728E+02  0.7816164E-02  0.1312668E+00
        -11   -1    0    0    0    0  0.00000000000E+00  0.00000000000E+00  0.45593999997E+02  0.45594000000E+02  0.51100000000E-03 0. -1.
         11   -1    0    0    0    0 -0.00000000000E+00 -0.00000000000E+00 -0.45593999997E+02  0.45594000000E+02  0.51100000000E-03 0.  1.
    9900012    2    1    2    0    0 -0.27513495260E+02  0.12533301048E+02  0.31137541617E+02  0.47787279332E+02  0.20000037785E+02 0.  0.
        -12    1    1    2    0    0  0.27513495260E+02 -0.12533301048E+02 -0.31137541617E+02  0.43400720668E+02  0.00000000000E+00 0.  1.
         11    1    3    3    0    0 -0.12129624017E+01  0.89532792762E+01  0.47695665792E+01  0.10216714403E+02  0.51100000000E-03 0. -1.
        -11    1    3    3    0    0 -0.17341665771E+02  0.24777290084E+01  0.15057551630E+02  0.23099834937E+02  0.51100000000E-03 0.  1.
        -12    1    3    3    0    0 -0.89588670865E+01  0.11022927634E+01  0.11310423408E+02  0.14470729991E+02  0.00000000000E+00 0.  1.
</event>
<event>
 7    1  0.2458979E-009  0.4778726E+02  0.7816164E-02  0.1312668E+00
        -11   -1    0    0    0    0  0.00000000000E+00  0.00000000000E+00  0.45593999997E+02  0.45594000000E+02  0.51100000000E-03 0.  1.
         11   -1    0    0    0    0 -0.00000000000E+00 -0.00000000000E+00 -0.45593999997E+02  0.45594000000E+02  0.51100000000E-03 0. -1.
    9900012    2    1    2    0    0 -0.50794869349E+01 -0.98708505007E+01 -0.41956992434E+02  0.47787261628E+02  0.19999957068E+02 0.  0.
        -12    1    1    2    0    0  0.50794869349E+01  0.98708505007E+01  0.41956992434E+02  0.43400738372E+02  0.00000000000E+00 0.  1.
         11    1    3    3    0    0 -0.64453577001E+01 -0.75593767445E+01 -0.23601288230E+02  0.25606788534E+02  0.51100000000E-03 0. -1.
        -11    1    3    3    0    0  0.56334243277E+01 -0.46613884942E+01 -0.86940177909E+01  0.11360015755E+02  0.51100000000E-03 0.  1.
        -12    1    3    3    0    0 -0.42675535625E+01  0.23499147380E+01 -0.96616864126E+01  0.10820457339E+02  0.00000000000E+00 0.  1.
</event>
<event>
 7    1  0.2458979E-009  0.4778727E+02  0.7816164E-02  0.1312668E+00
        -11   -1    0    0    0    0  0.00000000000E+00  0.00000000000E+00  0.45593999997E+02  0.45594000000E+02  0.51100000000E-03 0.  1.
         11   -1    0    0    0    0 -0.00000000000E+00 -0.00000000000E+00 -0.45593999997E+02  0.45594000000E+02  0.51100000000E-03 0. -1.
    9900012    2    1    2    0    0 -0.19782237930E+02  0.88546923185E+00 -0.38619972379E+02  0.47787271207E+02  0.20000000739E+02 0.  0.
        -12    1    1    2    0    0  0.19782237930E+02 -0.88546923185E+00  0.38619972379E+02  0.43400728793E+02  0.00000000000E+00 0.  1.
         11    1    3    3    0    0  0.20362095088E+01  0.97228561876E+00 -0.98557317205E+01  0.10110733727E+02  0.51100000000E-03 0.  1.
        -11    1    3    3    0    0 -0.12959136859E+02  0.52520459625E+01 -0.16989470332E+02  0.22003756892E+02  0.51100000000E-03 0. -1.
         12    1    3    3    0    0 -0.88593105792E+01 -0.53388623494E+01 -0.11774770326E+02  0.15672780588E+02  0.00000000000E+00 0. -1.
</event>
<event>
 7    1  0.2458979E-009  0.4778727E+02  0.7816164E-02  0.1312668E+00
        -11   -1    0    0    0    0  0.00000000000E+00  0.00000000000E+00  0.45593999997E+02  0.45594000000E+02  0.51100000000E-03 0.  1.
         11   -1    0    0    0    0 -0.00000000000E+00 -0.00000000000E+00 -0.45593999997E+02  0.45594000000E+02  0.51100000000E-03 0. -1.
    9900012    2    1    2    0    0 -0.29848648292E+02 -0.11241389081E+02 -0.29433190255E+02  0.47787270491E+02  0.19999997475E+02 0.  0.
        -12    1    1    2    0    0  0.29848648292E+02  0.11241389081E+02  0.29433190255E+02  0.43400729509E+02  0.00000000000E+00 0.  1.
         11    1    3    3    0    0 -0.28214197414E+02 -0.76760046862E+01 -0.22306521508E+02  0.36776934154E+02  0.51100000000E-03 0. -1.
        -11    1    3    3    0    0  0.88274426339E+00  0.17561730322E+01 -0.28742725447E+00  0.19864530805E+01  0.51100000000E-03 0.  1.
         12    1    3    3    0    0 -0.25171951408E+01 -0.53215574274E+01 -0.68392414926E+01  0.90238832563E+01  0.00000000000E+00 0. -1.
</event>
<event>
 7    1  0.2458979E-009  0.4778727E+02  0.7816164E-02  0.1312668E+00
        -11   -1    0    0    0    0  0.00000000000E+00  0.00000000000E+00  0.45593999997E+02  0.45594000000E+02  0.51100000000E-03 0.  1.
         11   -1    0    0    0    0 -0.00000000000E+00 -0.00000000000E+00 -0.45593999997E+02  0.45594000000E+02  0.51100000000E-03 0. -1.
    9900012    2    1    2    0    0  0.49161021841E+01 -0.42641061138E+02 -0.64183446936E+01  0.47787270694E+02  0.19999998404E+02 0.  0.
        -12    1    1    2    0    0 -0.49161021841E+01  0.42641061138E+02  0.64183446936E+01  0.43400729306E+02  0.00000000000E+00 0.  1.
         11    1    3    3    0    0  0.11558059528E+00 -0.17569120756E+02 -0.56069963180E+01  0.18442499044E+02  0.51100000000E-03 0. -1.
        -11    1    3    3    0    0  0.70862884626E+01 -0.13245402551E+02  0.51822103392E+01  0.15890609717E+02  0.51100000000E-03 0.  1.
        -12    1    3    3    0    0 -0.22857668738E+01 -0.11826537831E+02 -0.59935587148E+01  0.13454161933E+02  0.00000000000E+00 0.  1.
</event>
<event>
 7    1  0.2458979E-009  0.4778727E+02  0.7816164E-02  0.1312668E+00
        -11   -1    0    0    0    0  0.00000000000E+00  0.00000000000E+00  0.45593999997E+02  0.45594000000E+02  0.51100000000E-03 0.  1.
         11   -1    0    0    0    0 -0.00000000000E+00 -0.00000000000E+00 -0.45593999997E+02  0.45594000000E+02  0.51100000000E-03 0. -1.
    9900012    2    1    2    0    0 -0.92777897253E+01 -0.24951578059E+02 -0.34277757541E+02  0.47787270837E+02  0.19999999054E+02 0.  0.
        -12    1    1    2    0    0  0.92777897253E+01  0.24951578059E+02  0.34277757541E+02  0.43400729163E+02  0.00000000000E+00 0.  1.
         11    1    3    3    0    0 -0.44647736688E+01 -0.22711838018E+01  0.95110821901E+00  0.50987338507E+01  0.51100000000E-03 0. -1.
        -11    1    3    3    0    0 -0.16023217626E+01 -0.48675443646E+00 -0.21537227981E+01  0.27281655127E+01  0.51100000000E-03 0.  1.
         12    1    3    3    0    0 -0.32106942939E+01 -0.22193639821E+02 -0.33075142962E+02  0.39960371474E+02  0.00000000000E+00 0. -1.
</event>
<event>
 7    1  0.2458979E-009  0.4778729E+02  0.7816164E-02  0.1312668E+00
        -11   -1    0    0    0    0  0.00000000000E+00  0.00000000000E+00  0.45593999997E+02  0.45594000000E+02  0.51100000000E-03 0.  1.
         11   -1    0    0    0    0 -0.00000000000E+00 -0.00000000000E+00 -0.45593999997E+02  0.45594000000E+02  0.51100000000E-03 0. -1.
    9900012    2    1    2    0    0  0.18547733478E+01  0.39321230670E+02 -0.18276278845E+02  0.47787288784E+02  0.20000080883E+02 0.  0.
        -12    1    1    2    0    0 -0.18547733478E+01 -0.39321230670E+02  0.18276278845E+02  0.43400711216E+02  0.00000000000E+00 0.  1.
         11    1    3    3    0    0  0.94390287464E+00  0.53154926418E+01 -0.71544411144E+01  0.89627809625E+01  0.51100000000E-03 0. -1.
        -11    1    3    3    0    0  0.22752222805E+01  0.15833121565E+01  0.24022913990E+01  0.36680400812E+01  0.51100000000E-03 0.  1.
        -12    1    3    3    0    0 -0.13643518074E+01  0.32422425872E+02 -0.13524129129E+02  0.35156467741E+02  0.00000000000E+00 0.  1.
</event>
<event>
 7    1  0.2458979E-009  0.4778728E+02  0.7816164E-02  0.1312668E+00
        -11   -1    0    0    0    0  0.00000000000E+00  0.00000000000E+00  0.45593999997E+02  0.45594000000E+02  0.51100000000E-03 0.  1.
         11   -1    0    0    0    0 -0.00000000000E+00 -0.00000000000E+00 -0.45593999997E+02  0.45594000000E+02  0.51100000000E-03 0. -1.
    9900012    2    1    2    0    0 -0.22667156798E+02  0.18561658956E+02 -0.32020111639E+02  0.47787277311E+02  0.20000028573E+02 0.  0.
        -12    1    1    2    0    0  0.22667156798E+02 -0.18561658956E+02  0.32020111639E+02  0.43400722689E+02  0.00000000000E+00 0.  1.
         11    1    3    3    0    0 -0.11427759351E+02  0.16278589849E+02 -0.24451508313E+02  0.31519239050E+02  0.51100000000E-03 0. -1.
        -11    1    3    3    0    0 -0.79956794394E+01 -0.22250019349E+01 -0.66581408830E+01  0.10640129867E+02  0.51100000000E-03 0.  1.
         12    1    3    3    0    0 -0.32437180075E+01  0.45080710420E+01 -0.91046244337E+00  0.56279083941E+01  0.00000000000E+00 0. -1.
</event>
<event>
 7    1  0.2458979E-009  0.4778727E+02  0.7816164E-02  0.1312668E+00
        -11   -1    0    0    0    0  0.00000000000E+00  0.00000000000E+00  0.45593999997E+02  0.45594000000E+02  0.51100000000E-03 0.  1.
         11   -1    0    0    0    0 -0.00000000000E+00 -0.00000000000E+00 -0.45593999997E+02  0.45594000000E+02  0.51100000000E-03 0. -1.
    9900012    2    1    2    0    0  0.17496878252E+02  0.10926042699E+02 -0.38185129243E+02  0.47787271286E+02  0.20000001100E+02 0.  0.
        -12    1    1    2    0    0 -0.17496878252E+02 -0.10926042699E+02  0.38185129243E+02  0.43400728714E+02  0.00000000000E+00 0.  1.
         11    1    3    3    0    0  0.94503558957E+01 -0.44260173841E+01 -0.19679859374E+02  0.22275451100E+02  0.51100000000E-03 0. -1.
        -11    1    3    3    0    0  0.25328635921E+01  0.24745558748E+01 -0.33584306601E+01  0.48803566994E+01  0.51100000000E-03 0.  1.
         12    1    3    3    0    0  0.55136587642E+01  0.12877504208E+02 -0.15146839209E+02  0.20631463487E+02  0.00000000000E+00 0. -1.
</event>
<event>
 7    1  0.2458979E-009  0.4778726E+02  0.7816164E-02  0.1312668E+00
        -11   -1    0    0    0    0  0.00000000000E+00  0.00000000000E+00  0.45593999997E+02  0.45594000000E+02  0.51100000000E-03 0.  1.
         11   -1    0    0    0    0 -0.00000000000E+00 -0.00000000000E+00 -0.45593999997E+02  0.45594000000E+02  0.51100000000E-03 0. -1.
    9900012    2    1    2    0    0  0.31445788909E+02  0.23424591539E+02 -0.18603082767E+02  0.47787264783E+02  0.19999971453E+02 0.  0.
        -12    1    1    2    0    0 -0.31445788909E+02 -0.23424591539E+02  0.18603082767E+02  0.43400735217E+02  0.00000000000E+00 0.  1.
         11    1    3    3    0    0  0.12715393652E+02  0.12046454650E+02 -0.14396388823E+02  0.22672765971E+02  0.51100000000E-03 0. -1.
        -11    1    3    3    0    0  0.14686515767E+02  0.28159942576E+01 -0.55080263844E+00  0.14964189014E+02  0.51100000000E-03 0.  1.
        -12    1    3    3    0    0  0.40438794908E+01  0.85621426312E+01 -0.36558913054E+01  0.10150309799E+02  0.00000000000E+00 0.  1.
</event>
<event>
 7    1  0.2458979E-009  0.4778727E+02  0.7816164E-02  0.1312668E+00
        -11   -1    0    0    0    0  0.00000000000E+00  0.00000000000E+00  0.45593999997E+02  0.45594000000E+02  0.51100000000E-03 0.  1.
         11   -1    0    0    0    0 -0.00000000000E+00 -0.00000000000E+00 -0.45593999997E+02  0.45594000000E+02  0.51100000000E-03 0. -1.
    9900012    2    1    2    0    0 -0.16954766108E+01  0.29614310678E+02 -0.31681876445E+02  0.47787270364E+02  0.19999996898E+02 0.  0.
        -12    1    1    2    0    0  0.16954766108E+01 -0.29614310678E+02  0.31681876445E+02  0.43400729636E+02  0.00000000000E+00 0.  1.
         11    1    3    3    0    0 -0.42904145016E+01  0.64378684252E+01 -0.17884432000E+02  0.19486064628E+02  0.51100000000E-03 0. -1.
        -11    1    3    3    0    0 -0.26201478717E+01  0.11309830031E+02 -0.50281379089E+01  0.12651466370E+02  0.51100000000E-03 0.  1.
         12    1    3    3    0    0  0.52150857625E+01  0.11866612221E+02 -0.87693065360E+01  0.15649739367E+02  0.00000000000E+00 0. -1.
</event>
<event>
 7    1  0.2458979E-009  0.4778726E+02  0.7816164E-02  0.1312668E+00
        -11   -1    0    0    0    0  0.00000000000E+00  0.00000000000E+00  0.45593999997E+02  0.45594000000E+02  0.51100000000E-03 0.  1.
         11   -1    0    0    0    0 -0.00000000000E+00 -0.00000000000E+00 -0.45593999997E+02  0.45594000000E+02  0.51100000000E-03 0. -1.
    9900012    2    1    2    0    0  0.18332352483E+02  0.29956001042E+02 -0.25498760176E+02  0.47787263641E+02  0.19999966247E+02 0.  0.
        -12    1    1    2    0    0 -0.18332352483E+02 -0.29956001042E+02  0.25498760176E+02  0.43400736359E+02  0.00000000000E+00 0.  1.
         11    1    3    3    0    0  0.17860028565E+02  0.23978676334E+02 -0.24715743316E+02  0.38792080468E+02  0.51100000000E-03 0. -1.
        -11    1    3    3    0    0 -0.85643263807E+00 -0.12209404224E+01  0.48090690502E+00  0.15669856703E+01  0.51100000000E-03 0.  1.
         12    1    3    3    0    0  0.13287565556E+01  0.71982651302E+01 -0.12639237647E+01  0.74281975035E+01  0.00000000000E+00 0. -1.
</event>
<event>
 7    1  0.2458979E-009  0.4778727E+02  0.7816164E-02  0.1312668E+00
        -11   -1    0    0    0    0  0.00000000000E+00  0.00000000000E+00  0.45593999997E+02  0.45594000000E+02  0.51100000000E-03 0. -1.
         11   -1    0    0    0    0 -0.00000000000E+00 -0.00000000000E+00 -0.45593999997E+02  0.45594000000E+02  0.51100000000E-03 0.  1.
    9900012    2    1    2    0    0  0.12035081399E+02  0.18734471060E+02  0.37253182175E+02  0.47787272214E+02  0.20000005335E+02 0.  0.
        -12    1    1    2    0    0 -0.12035081399E+02 -0.18734471060E+02 -0.37253182175E+02  0.43400727786E+02  0.00000000000E+00 0.  1.
         11    1    3    3    0    0  0.39730415666E+00  0.61215015253E+01  0.21796518625E+00  0.61382522431E+01  0.51100000000E-03 0.  1.
        -11    1    3    3    0    0 -0.28165067028E+00  0.27987548338E+01  0.22882125982E+01  0.36260547259E+01  0.51100000000E-03 0. -1.
         12    1    3    3    0    0  0.11919427912E+02  0.98142147010E+01  0.34747004390E+02  0.38022965245E+02  0.00000000000E+00 0. -1.
</event>
<event>
 7    1  0.2458979E-009  0.4778728E+02  0.7816164E-02  0.1312668E+00
        -11   -1    0    0    0    0  0.00000000000E+00  0.00000000000E+00  0.45593999997E+02  0.45594000000E+02  0.51100000000E-03 0.  1.
         11   -1    0    0    0    0 -0.00000000000E+00 -0.00000000000E+00 -0.45593999997E+02  0.45594000000E+02  0.51100000000E-03 0. -1.
    9900012    2    1    2    0    0 -0.10988964735E+02  0.18783734426E+02 -0.37550447353E+02  0.47787284322E+02  0.20000060537E+02 0.  0.
        -12    1    1    2    0    0  0.10988964735E+02 -0.18783734426E+02  0.37550447353E+02  0.43400715678E+02  0.00000000000E+00 0.  1.
         11    1    3    3    0    0 -0.68220656177E+00  0.97745833454E+01 -0.60784575741E+01  0.11530634506E+02  0.51100000000E-03 0. -1.
        -11    1    3    3    0    0 -0.12713428596E+02  0.61378340240E+01 -0.26560835866E+02  0.30079598989E+02  0.51100000000E-03 0.  1.
        -12    1    3    3    0    0  0.24066704223E+01  0.28713170567E+01 -0.49111539131E+01  0.61770508271E+01  0.00000000000E+00 0.  1.
</event>
<event>
 7    1  0.2458979E-009  0.4778729E+02  0.7816164E-02  0.1312668E+00
        -11   -1    0    0    0    0  0.00000000000E+00  0.00000000000E+00  0.45593999997E+02  0.45594000000E+02  0.51100000000E-03 0.  1.
         11   -1    0    0    0    0 -0.00000000000E+00 -0.00000000000E+00 -0.45593999997E+02  0.45594000000E+02  0.51100000000E-03 0. -1.
    9900012    2    1    2    0    0  0.99222293988E+01  0.41003836139E+02  0.10191003079E+02  0.47787288507E+02  0.20000079620E+02 0.  0.
        -12    1    1    2    0    0 -0.99222293988E+01 -0.41003836139E+02 -0.10191003079E+02  0.43400711493E+02  0.00000000000E+00 0.  1.
         11    1    3    3    0    0 -0.33767276115E+01  0.17743568526E+02  0.15482682954E+01  0.18128255524E+02  0.51100000000E-03 0. -1.
        -11    1    3    3    0    0  0.13348363655E+02  0.17893490510E+02  0.42528784712E+01  0.22725377675E+02  0.51100000000E-03 0.  1.
         12    1    3    3    0    0 -0.49406644945E-01  0.53667771031E+01  0.43898563120E+01  0.69336553081E+01  0.00000000000E+00 0. -1.
</event>
<event>
 7    1  0.2458979E-009  0.4778726E+02  0.7816164E-02  0.1312668E+00
        -11   -1    0    0    0    0  0.00000000000E+00  0.00000000000E+00  0.45593999997E+02  0.45594000000E+02  0.51100000000E-03 0.  1.
         11   -1    0    0    0    0 -0.00000000000E+00 -0.00000000000E+00 -0.45593999997E+02  0.45594000000E+02  0.51100000000E-03 0. -1.
    9900012    2    1    2    0    0 -0.35696443496E+02 -0.61748092955E+01 -0.23901042413E+02  0.47787260646E+02  0.19999952588E+02 0.  0.
        -12    1    1    2    0    0  0.35696443496E+02  0.61748092955E+01  0.23901042413E+02  0.43400739354E+02  0.00000000000E+00 0.  1.
         11    1    3    3    0    0 -0.20626522301E+02 -0.30209593585E+01 -0.21129823028E+02  0.29682470233E+02  0.51100000000E-03 0. -1.
        -11    1    3    3    0    0 -0.26555093731E+01 -0.42990186253E+01  0.84632514250E+00  0.51234322167E+01  0.51100000000E-03 0.  1.
        -12    1    3    3    0    0 -0.12414411822E+02  0.11451686883E+01 -0.36175445276E+01  0.12981358196E+02  0.00000000000E+00 0.  1.
</event>
<event>
 7    1  0.2458979E-009  0.4778726E+02  0.7816164E-02  0.1312668E+00
        -11   -1    0    0    0    0  0.00000000000E+00  0.00000000000E+00  0.45593999997E+02  0.45594000000E+02  0.51100000000E-03 0.  1.
         11   -1    0    0    0    0 -0.00000000000E+00 -0.00000000000E+00 -0.45593999997E+02  0.45594000000E+02  0.51100000000E-03 0. -1.
    9900012    2    1    2    0    0 -0.30743541979E+02 -0.98985759027E+01 -0.28990975067E+02  0.47787264826E+02  0.19999971646E+02 0.  0.
        -12    1    1    2    0    0  0.30743541979E+02  0.98985759027E+01  0.28990975067E+02  0.43400735174E+02  0.00000000000E+00 0.  1.
         11    1    3    3    0    0 -0.13511930759E+02 -0.12841360211E+02 -0.13467850879E+02  0.22996865275E+02  0.51100000000E-03 0. -1.
        -11    1    3    3    0    0 -0.14792295800E+01  0.31328493154E+01 -0.38770880247E+01  0.51994881283E+01  0.51100000000E-03 0.  1.
         12    1    3    3    0    0 -0.15752381640E+02 -0.19006500713E+00 -0.11646036164E+02  0.19590911423E+02  0.00000000000E+00 0. -1.
</event>
<event>
 7    1  0.2458979E-009  0.4778727E+02  0.7816164E-02  0.1312668E+00
        -11   -1    0    0    0    0  0.00000000000E+00  0.00000000000E+00  0.45593999997E+02  0.45594000000E+02  0.51100000000E-03 0.  1.
         11   -1    0    0    0    0 -0.00000000000E+00 -0.00000000000E+00 -0.45593999997E+02  0.45594000000E+02  0.51100000000E-03 0. -1.
    9900012    2    1    2    0    0  0.31227382749E+02 -0.30139883616E+02  0.24707405794E+00  0.47787273470E+02  0.20000011059E+02 0.  0.
        -12    1    1    2    0    0 -0.31227382749E+02  0.30139883616E+02 -0.24707405794E+00  0.43400726530E+02  0.00000000000E+00 0.  1.
         11    1    3    3    0    0  0.16219572224E+02 -0.96714225803E+01 -0.46868569961E+00  0.18889960413E+02  0.51100000000E-03 0. -1.
        -11    1    3    3    0    0  0.57385767930E+01 -0.13319636863E+02  0.64378133178E+01  0.15867874159E+02  0.51100000000E-03 0.  1.
        -12    1    3    3    0    0  0.92692337321E+01 -0.71488241731E+01 -0.57220535602E+01  0.13029438898E+02  0.00000000000E+00 0.  1.
</event>
<event>
 7    1  0.2458979E-009  0.4778727E+02  0.7816164E-02  0.1312668E+00
        -11   -1    0    0    0    0  0.00000000000E+00  0.00000000000E+00  0.45593999997E+02  0.45594000000E+02  0.51100000000E-03 0.  1.
         11   -1    0    0    0    0 -0.00000000000E+00 -0.00000000000E+00 -0.45593999997E+02  0.45594000000E+02  0.51100000000E-03 0. -1.
    9900012    2    1    2    0    0 -0.30597433107E+02 -0.30164290771E+02  0.61266659508E+01  0.47787269751E+02  0.19999994104E+02 0.  0.
        -12    1    1    2    0    0  0.30597433107E+02  0.30164290771E+02 -0.61266659508E+01  0.43400730249E+02  0.00000000000E+00 0.  1.
         11    1    3    3    0    0 -0.60311670486E+01 -0.10298860008E+02  0.81513382669E+01  0.14452882385E+02  0.51100000000E-03 0. -1.
        -11    1    3    3    0    0 -0.14515232311E+02 -0.50566256569E+01 -0.66374212297E+00  0.15385122227E+02  0.51100000000E-03 0.  1.
         12    1    3    3    0    0 -0.10051033748E+02 -0.14808805106E+02 -0.13609301931E+01  0.17949265140E+02  0.00000000000E+00 0. -1.
</event>
<event>
 7    1  0.2458979E-009  0.4778727E+02  0.7816164E-02  0.1312668E+00
        -11   -1    0    0    0    0  0.00000000000E+00  0.00000000000E+00  0.45593999997E+02  0.45594000000E+02  0.51100000000E-03 0.  1.
         11   -1    0    0    0    0 -0.00000000000E+00 -0.00000000000E+00 -0.45593999997E+02  0.45594000000E+02  0.51100000000E-03 0. -1.
    9900012    2    1    2    0    0  0.11152387270E+02 -0.32359842381E+02 -0.26684980179E+02  0.47787270653E+02  0.19999998213E+02 0.  0.
        -12    1    1    2    0    0 -0.11152387270E+02  0.32359842381E+02  0.26684980179E+02  0.43400729347E+02  0.00000000000E+00 0.  1.
         11    1    3    3    0    0 -0.31527577405E+01 -0.15535397139E+01 -0.45237629859E+01  0.57286821195E+01  0.51100000000E-03 0.  1.
        -11    1    3    3    0    0  0.12105008354E+02 -0.13325020402E+02 -0.12954495659E+02  0.22178961969E+02  0.51100000000E-03 0. -1.
         12    1    3    3    0    0  0.22001366561E+01 -0.17481282265E+02 -0.92067215346E+01  0.19879626564E+02  0.00000000000E+00 0. -1.
</event>
<event>
 7    1  0.2458979E-009  0.4778727E+02  0.7816164E-02  0.1312668E+00
        -11   -1    0    0    0    0  0.00000000000E+00  0.00000000000E+00  0.45593999997E+02  0.45594000000E+02  0.51100000000E-03 0. -1.
         11   -1    0    0    0    0 -0.00000000000E+00 -0.00000000000E+00 -0.45593999997E+02  0.45594000000E+02  0.51100000000E-03 0.  1.
    9900012    2    1    2    0    0  0.35633546300E+02 -0.20314498129E+02  0.14184323440E+02  0.47787268582E+02  0.19999988774E+02 0.  0.
        -12    1    1    2    0    0 -0.35633546300E+02  0.20314498129E+02 -0.14184323440E+02  0.43400731418E+02  0.00000000000E+00 0.  1.
         11    1    3    3    0    0  0.33181909102E+02 -0.16485517286E+02  0.53750376726E+01  0.37439316261E+02  0.51100000000E-03 0. -1.
        -11    1    3    3    0    0  0.12000475354E+01 -0.38981431599E+01  0.58239988279E+01  0.71101755809E+01  0.51100000000E-03 0.  1.
         12    1    3    3    0    0  0.12515896630E+01  0.69162317012E-01  0.29852869397E+01  0.32377767408E+01  0.00000000000E+00 0. -1.
</event>
<event>
 7    1  0.2458979E-009  0.4778727E+02  0.7816164E-02  0.1312668E+00
        -11   -1    0    0    0    0  0.00000000000E+00  0.00000000000E+00  0.45593999997E+02  0.45594000000E+02  0.51100000000E-03 0. -1.
         11   -1    0    0    0    0 -0.00000000000E+00 -0.00000000000E+00 -0.45593999997E+02  0.45594000000E+02  0.51100000000E-03 0.  1.
    9900012    2    1    2    0    0 -0.17908777533E+02 -0.38805543722E+02  0.75517354071E+01  0.47787271389E+02  0.20000001572E+02 0.  0.
        -12    1    1    2    0    0  0.17908777533E+02  0.38805543722E+02 -0.75517354071E+01  0.43400728611E+02  0.00000000000E+00 0.  1.
         11    1    3    3    0    0 -0.33874033987E+01 -0.17471401584E+01  0.14223298672E+01  0.40681719519E+01  0.51100000000E-03 0. -1.
        -11    1    3    3    0    0 -0.17961298069E+02 -0.31814806205E+02  0.75076758826E+01  0.37298194589E+02  0.51100000000E-03 0.  1.
        -12    1    3    3    0    0  0.34399239344E+01 -0.52435973590E+01 -0.13782703427E+01  0.64209048486E+01  0.00000000000E+00 0.  1.
</event>
<event>
 7    1  0.2458979E-009  0.4778727E+02  0.7816164E-02  0.1312668E+00
        -11   -1    0    0    0    0  0.00000000000E+00  0.00000000000E+00  0.45593999997E+02  0.45594000000E+02  0.51100000000E-03 0. -1.
         11   -1    0    0    0    0 -0.00000000000E+00 -0.00000000000E+00 -0.45593999997E+02  0.45594000000E+02  0.51100000000E-03 0.  1.
    9900012    2    1    2    0    0 -0.18511173614E+02 -0.35438116692E+02  0.16884889650E+02  0.47787272337E+02  0.20000005892E+02 0.  0.
        -12    1    1    2    0    0  0.18511173614E+02  0.35438116692E+02 -0.16884889650E+02  0.43400727663E+02  0.00000000000E+00 0.  1.
         11    1    3    3    0    0 -0.92880401293E+01 -0.29677600367E+02  0.17387127341E+02  0.35627796036E+02  0.51100000000E-03 0. -1.
        -11    1    3    3    0    0 -0.52899841645E+01 -0.56358393030E+01 -0.19410086098E+01  0.79695753836E+01  0.51100000000E-03 0.  1.
         12    1    3    3    0    0 -0.39331493202E+01 -0.12467702160E+00  0.14387709192E+01  0.41899009168E+01  0.00000000000E+00 0. -1.
</event>
<event>
 7    1  0.2458979E-009  0.4778726E+02  0.7816164E-02  0.1312668E+00
        -11   -1    0    0    0    0  0.00000000000E+00  0.00000000000E+00  0.45593999997E+02  0.45594000000E+02  0.51100000000E-03 0.  1.
         11   -1    0    0    0    0 -0.00000000000E+00 -0.00000000000E+00 -0.45593999997E+02  0.45594000000E+02  0.51100000000E-03 0. -1.
    9900012    2    1    2    0    0  0.31826632034E+02 -0.29505884254E+02 -0.30472411480E+00  0.47787256124E+02  0.19999931973E+02 0.  0.
        -12    1    1    2    0    0 -0.31826632034E+02  0.29505884254E+02  0.30472411480E+00  0.43400743876E+02  0.00000000000E+00 0.  1.
         11    1    3    3    0    0  0.20569402570E+02 -0.18503446881E+02 -0.53394875675E+01  0.28177792609E+02  0.51100000000E-03 0. -1.
        -11    1    3    3    0    0  0.49304944636E+01 -0.84546800211E+01  0.75280295067E+01  0.12347575407E+02  0.51100000000E-03 0.  1.
        -12    1    3    3    0    0  0.63267350000E+01 -0.25477573515E+01 -0.24932660540E+01  0.72618881084E+01  0.00000000000E+00 0.  1.
</event>
<event>
 7    1  0.2458979E-009  0.4778727E+02  0.7816164E-02  0.1312668E+00
        -11   -1    0    0    0    0  0.00000000000E+00  0.00000000000E+00  0.45593999997E+02  0.45594000000E+02  0.51100000000E-03 0.  1.
         11   -1    0    0    0    0 -0.00000000000E+00 -0.00000000000E+00 -0.45593999997E+02  0.45594000000E+02  0.51100000000E-03 0. -1.
    9900012    2    1    2    0    0 -0.32280592361E+02 -0.15007388845E+01 -0.28971268422E+02  0.47787271269E+02  0.20000001024E+02 0.  0.
        -12    1    1    2    0    0  0.32280592361E+02  0.15007388845E+01  0.28971268422E+02  0.43400728731E+02  0.00000000000E+00 0.  1.
         11    1    3    3    0    0 -0.13382873361E+02  0.26302466504E+01 -0.15837594626E+02  0.20900930616E+02  0.51100000000E-03 0. -1.
        -11    1    3    3    0    0 -0.74988094728E+01 -0.72692950712E+01 -0.19749178127E+01  0.10628974314E+02  0.51100000000E-03 0.  1.
        -12    1    3    3    0    0 -0.11398909528E+02  0.31383095362E+01 -0.11158755984E+02  0.16257366339E+02  0.00000000000E+00 0.  1.
</event>
<event>
 7    1  0.2458979E-009  0.4778728E+02  0.7816164E-02  0.1312668E+00
        -11   -1    0    0    0    0  0.00000000000E+00  0.00000000000E+00  0.45593999997E+02  0.45594000000E+02  0.51100000000E-03 0.  1.
         11   -1    0    0    0    0 -0.00000000000E+00 -0.00000000000E+00 -0.45593999997E+02  0.45594000000E+02  0.51100000000E-03 0. -1.
    9900012    2    1    2    0    0 -0.24988620088E+02 -0.34267849238E+02 -0.92144576668E+01  0.47787275866E+02  0.20000021983E+02 0.  0.
        -12    1    1    2    0    0  0.24988620088E+02  0.34267849238E+02  0.92144576668E+01  0.43400724134E+02  0.00000000000E+00 0.  1.
         11    1    3    3    0    0 -0.11634212347E+02 -0.16606457366E+02 -0.42527009131E+01  0.20717499572E+02  0.51100000000E-03 0. -1.
        -11    1    3    3    0    0 -0.11623387200E+02 -0.53027734432E+01  0.17581164488E+01  0.12896259531E+02  0.51100000000E-03 0.  1.
        -12    1    3    3    0    0 -0.17310205406E+01 -0.12358618429E+02 -0.67198732025E+01  0.14173516763E+02  0.00000000000E+00 0.  1.
</event>
<event>
 7    1  0.2458979E-009  0.4778727E+02  0.7816164E-02  0.1312668E+00
        -11   -1    0    0    0    0  0.00000000000E+00  0.00000000000E+00  0.45593999997E+02  0.45594000000E+02  0.51100000000E-03 0.  1.
         11   -1    0    0    0    0 -0.00000000000E+00 -0.00000000000E+00 -0.45593999997E+02  0.45594000000E+02  0.51100000000E-03 0. -1.
    9900012    2    1    2    0    0  0.38281051244E+02  0.19336673146E+02 -0.66541086411E+01  0.47787274494E+02  0.20000015727E+02 0.  0.
        -12    1    1    2    0    0 -0.38281051244E+02 -0.19336673146E+02  0.66541086411E+01  0.43400725506E+02  0.00000000000E+00 0.  1.
         11    1    3    3    0    0  0.12886523568E+02  0.89486462099E+01  0.68348828774E+01  0.17113047153E+02  0.51100000000E-03 0. -1.
        -11    1    3    3    0    0  0.12213537488E+02  0.37178484774E+01 -0.66589743961E+01  0.14399126208E+02  0.51100000000E-03 0.  1.
         12    1    3    3    0    0  0.13180990188E+02  0.66701784583E+01 -0.68300171225E+01  0.16275101133E+02  0.00000000000E+00 0. -1.
</event>
<event>
 7    1  0.2458979E-009  0.4778727E+02  0.7816164E-02  0.1312668E+00
        -11   -1    0    0    0    0  0.00000000000E+00  0.00000000000E+00  0.45593999997E+02  0.45594000000E+02  0.51100000000E-03 0.  1.
         11   -1    0    0    0    0 -0.00000000000E+00 -0.00000000000E+00 -0.45593999997E+02  0.45594000000E+02  0.51100000000E-03 0. -1.
    9900012    2    1    2    0    0 -0.28578565023E+02  0.20293372604E+02 -0.25594294902E+02  0.47787270952E+02  0.19999999578E+02 0.  0.
        -12    1    1    2    0    0  0.28578565023E+02 -0.20293372604E+02  0.25594294902E+02  0.43400729048E+02  0.00000000000E+00 0.  1.
         11    1    3    3    0    0 -0.18495127899E+02  0.50472148806E+01 -0.15852884963E+02  0.24876858643E+02  0.51100000000E-03 0. -1.
        -11    1    3    3    0    0  0.15407647048E+00  0.74630628095E+01 -0.58209372848E+01  0.94659578064E+01  0.51100000000E-03 0.  1.
         12    1    3    3    0    0 -0.10237513594E+02  0.77830949141E+01 -0.39204726540E+01  0.13444454502E+02  0.00000000000E+00 0. -1.
</event>
<event>
 7    1  0.2458979E-009  0.4778727E+02  0.7816164E-02  0.1312668E+00
        -11   -1    0    0    0    0  0.00000000000E+00  0.00000000000E+00  0.45593999997E+02  0.45594000000E+02  0.51100000000E-03 0. -1.
         11   -1    0    0    0    0 -0.00000000000E+00 -0.00000000000E+00 -0.45593999997E+02  0.45594000000E+02  0.51100000000E-03 0.  1.
    9900012    2    1    2    0    0 -0.30250067099E+02 -0.89159803955E+01  0.29817141698E+02  0.47787271839E+02  0.20000003622E+02 0.  0.
        -12    1    1    2    0    0  0.30250067099E+02  0.89159803955E+01 -0.29817141698E+02  0.43400728161E+02  0.00000000000E+00 0.  1.
         11    1    3    3    0    0 -0.22340638363E+01 -0.77789276676E+00  0.38905233829E+01  0.45532769337E+01  0.51100000000E-03 0. -1.
        -11    1    3    3    0    0 -0.70406314892E+01  0.10537499965E+01  0.17395018158E+02  0.18795412679E+02  0.51100000000E-03 0.  1.
        -12    1    3    3    0    0 -0.20975371773E+02 -0.91918376252E+01  0.85316001573E+01  0.24438582226E+02  0.00000000000E+00 0.  1.
</event>
<event>
 7    1  0.2458979E-009  0.4778727E+02  0.7816164E-02  0.1312668E+00
        -11   -1    0    0    0    0  0.00000000000E+00  0.00000000000E+00  0.45593999997E+02  0.45594000000E+02  0.51100000000E-03 0. -1.
         11   -1    0    0    0    0 -0.00000000000E+00 -0.00000000000E+00 -0.45593999997E+02  0.45594000000E+02  0.51100000000E-03 0.  1.
    9900012    2    1    2    0    0 -0.26465084517E+02 -0.20983023040E+02  0.27256838357E+02  0.47787271992E+02  0.20000004322E+02 0.  0.
        -12    1    1    2    0    0  0.26465084517E+02  0.20983023040E+02 -0.27256838357E+02  0.43400728008E+02  0.00000000000E+00 0.  1.
         11    1    3    3    0    0 -0.23195269578E+02 -0.19012300479E+02  0.19538281249E+02  0.35794308692E+02  0.51100000000E-03 0. -1.
        -11    1    3    3    0    0  0.11868307192E+00 -0.41242637527E+01  0.11307405014E+01  0.42781084040E+01  0.51100000000E-03 0.  1.
         12    1    3    3    0    0 -0.33884980107E+01  0.21535411922E+01  0.65878166060E+01  0.77148548962E+01  0.00000000000E+00 0. -1.
</event>
<event>
 7    1  0.2458979E-009  0.4778726E+02  0.7816164E-02  0.1312668E+00
        -11   -1    0    0    0    0  0.00000000000E+00  0.00000000000E+00  0.45593999997E+02  0.45594000000E+02  0.51100000000E-03 0.  1.
         11   -1    0    0    0    0 -0.00000000000E+00 -0.00000000000E+00 -0.45593999997E+02  0.45594000000E+02  0.51100000000E-03 0. -1.
    9900012    2    1    2    0    0  0.29025719379E+01  0.10807978838E+02 -0.41933119202E+02  0.47787264794E+02  0.19999971503E+02 0.  0.
        -12    1    1    2    0    0 -0.29025719379E+01 -0.10807978838E+02  0.41933119202E+02  0.43400735206E+02  0.00000000000E+00 0.  1.
         11    1    3    3    0    0  0.15752445664E+01 -0.40855636578E+00  0.14309770974E+01  0.21670277945E+01  0.51100000000E-03 0. -1.
        -11    1    3    3    0    0 -0.17587123973E+01 -0.51646465252E+00 -0.87974103905E+01  0.89863360094E+01  0.51100000000E-03 0.  1.
         12    1    3    3    0    0  0.30860397689E+01  0.11732999856E+02 -0.34566685908E+02  0.36633900990E+02  0.00000000000E+00 0. -1.
</event>
<event>
 7    1  0.2458979E-009  0.4778728E+02  0.7816164E-02  0.1312668E+00
        -11   -1    0    0    0    0  0.00000000000E+00  0.00000000000E+00  0.45593999997E+02  0.45594000000E+02  0.51100000000E-03 0.  1.
         11   -1    0    0    0    0 -0.00000000000E+00 -0.00000000000E+00 -0.45593999997E+02  0.45594000000E+02  0.51100000000E-03 0. -1.
    9900012    2    1    2    0    0 -0.32906100432E+02  0.27265719512E+02  0.75757296055E+01  0.47787278978E+02  0.20000036173E+02 0.  0.
        -12    1    1    2    0    0  0.32906100432E+02 -0.27265719512E+02 -0.75757296055E+01  0.43400721022E+02  0.00000000000E+00 0.  1.
         11    1    3    3    0    0 -0.72386079202E+01  0.72290612906E+01 -0.65146197688E+01  0.12128356969E+02  0.51100000000E-03 0. -1.
        -11    1    3    3    0    0 -0.22651773964E+02  0.16070377292E+02  0.11843436645E+02  0.30193159520E+02  0.51100000000E-03 0.  1.
         12    1    3    3    0    0 -0.30157185486E+01  0.39662809292E+01  0.22469127297E+01  0.54657624892E+01  0.00000000000E+00 0. -1.
</event>
<event>
 7    1  0.2458979E-009  0.4778727E+02  0.7816164E-02  0.1312668E+00
        -11   -1    0    0    0    0  0.00000000000E+00  0.00000000000E+00  0.45593999997E+02  0.45594000000E+02  0.51100000000E-03 0. -1.
         11   -1    0    0    0    0 -0.00000000000E+00 -0.00000000000E+00 -0.45593999997E+02  0.45594000000E+02  0.51100000000E-03 0.  1.
    9900012    2    1    2    0    0 -0.40478570876E+02  0.73212892352E+01  0.13838609923E+02  0.47787273038E+02  0.20000009088E+02 0.  0.
        -12    1    1    2    0    0  0.40478570876E+02 -0.73212892352E+01 -0.13838609923E+02  0.43400726962E+02  0.00000000000E+00 0.  1.
         11    1    3    3    0    0 -0.13312802707E+02  0.12978838450E+01  0.68652327846E+01  0.15034847516E+02  0.51100000000E-03 0. -1.
        -11    1    3    3    0    0 -0.41878445824E+01 -0.13292934049E+01  0.74192367441E+01  0.86226525691E+01  0.51100000000E-03 0.  1.
        -12    1    3    3    0    0 -0.22977923587E+02  0.73526987951E+01 -0.44585960580E+00  0.24129772952E+02  0.00000000000E+00 0.  1.
</event>
<event>
 7    1  0.2458979E-009  0.4778728E+02  0.7816164E-02  0.1312668E+00
        -11   -1    0    0    0    0  0.00000000000E+00  0.00000000000E+00  0.45593999997E+02  0.45594000000E+02  0.51100000000E-03 0.  1.
         11   -1    0    0    0    0 -0.00000000000E+00 -0.00000000000E+00 -0.45593999997E+02  0.45594000000E+02  0.51100000000E-03 0. -1.
    9900012    2    1    2    0    0 -0.38628063144E+02  0.12135429384E+02 -0.15627753998E+02  0.47787278767E+02  0.20000035208E+02 0.  0.
        -12    1    1    2    0    0  0.38628063144E+02 -0.12135429384E+02  0.15627753998E+02  0.43400721233E+02  0.00000000000E+00 0.  1.
         11    1    3    3    0    0 -0.88579302563E+01  0.16628772965E+01 -0.83112569657E+01  0.12259897305E+02  0.51100000000E-03 0. -1.
        -11    1    3    3    0    0 -0.23671252438E+02  0.13947254384E+02 -0.40006794564E+01  0.27764357244E+02  0.51100000000E-03 0.  1.
        -12    1    3    3    0    0 -0.60988804497E+01 -0.34747022969E+01 -0.33158175760E+01  0.77630242167E+01  0.00000000000E+00 0.  1.
</event>
<event>
 7    1  0.2458979E-009  0.4778727E+02  0.7816164E-02  0.1312668E+00
        -11   -1    0    0    0    0  0.00000000000E+00  0.00000000000E+00  0.45593999997E+02  0.45594000000E+02  0.51100000000E-03 0.  1.
         11   -1    0    0    0    0 -0.00000000000E+00 -0.00000000000E+00 -0.45593999997E+02  0.45594000000E+02  0.51100000000E-03 0. -1.
    9900012    2    1    2    0    0  0.41010345635E+02  0.68940684304E+01 -0.12419605254E+02  0.47787271628E+02  0.20000002659E+02 0.  0.
        -12    1    1    2    0    0 -0.41010345635E+02 -0.68940684304E+01  0.12419605254E+02  0.43400728372E+02  0.00000000000E+00 0.  1.
         11    1    3    3    0    0  0.91763555465E+00  0.16361447212E+01 -0.16857208556E+01  0.25220387832E+01  0.51100000000E-03 0.  1.
        -11    1    3    3    0    0  0.23200684523E+02  0.11395921082E+02 -0.81814136549E+01  0.27112253859E+02  0.51100000000E-03 0. -1.
        -12    1    3    3    0    0  0.16892025557E+02 -0.61379973726E+01 -0.25524707438E+01  0.18152978986E+02  0.00000000000E+00 0.  1.
</event>
<event>
 7    1  0.2458979E-009  0.4778727E+02  0.7816164E-02  0.1312668E+00
        -11   -1    0    0    0    0  0.00000000000E+00  0.00000000000E+00  0.45593999997E+02  0.45594000000E+02  0.51100000000E-03 0.  1.
         11   -1    0    0    0    0 -0.00000000000E+00 -0.00000000000E+00 -0.45593999997E+02  0.45594000000E+02  0.51100000000E-03 0. -1.
    9900012    2    1    2    0    0  0.25691392437E+02  0.34881038476E+02 -0.26246779950E+01  0.47787269302E+02  0.19999992055E+02 0.  0.
        -12    1    1    2    0    0 -0.25691392437E+02 -0.34881038476E+02  0.26246779950E+01  0.43400730698E+02  0.00000000000E+00 0.  1.
         11    1    3    3    0    0  0.35031176748E+01  0.13181578951E+02 -0.65203027598E+01  0.15117546277E+02  0.51100000000E-03 0. -1.
        -11    1    3    3    0    0  0.12278449298E+02  0.69169998772E+01  0.46970940829E+01  0.14854894734E+02  0.51100000000E-03 0.  1.
         12    1    3    3    0    0  0.99098254646E+01  0.14782459648E+02 -0.80146931809E+00  0.17814828291E+02  0.00000000000E+00 0. -1.
</event>
<event>
 7    1  0.2458979E-009  0.4778727E+02  0.7816164E-02  0.1312668E+00
        -11   -1    0    0    0    0  0.00000000000E+00  0.00000000000E+00  0.45593999997E+02  0.45594000000E+02  0.51100000000E-03 0.  1.
         11   -1    0    0    0    0 -0.00000000000E+00 -0.00000000000E+00 -0.45593999997E+02  0.45594000000E+02  0.51100000000E-03 0. -1.
    9900012    2    1    2    0    0  0.23250292391E+02  0.18254846834E+02 -0.31777475952E+02  0.47787268358E+02  0.19999987751E+02 0.  0.
        -12    1    1    2    0    0 -0.23250292391E+02 -0.18254846834E+02  0.31777475952E+02  0.43400731642E+02  0.00000000000E+00 0.  1.
         11    1    3    3    0    0  0.19840808976E+02  0.47732935257E+01 -0.22954379140E+02  0.30713930942E+02  0.51100000000E-03 0. -1.
        -11    1    3    3    0    0  0.36930328932E+01  0.10481882705E+02 -0.49492169410E+01  0.12165652699E+02  0.51100000000E-03 0.  1.
        -12    1    3    3    0    0 -0.28354947821E+00  0.29996706033E+01 -0.38738798702E+01  0.49076847172E+01  0.00000000000E+00 0.  1.
</event>
<event>
 7    1  0.2458979E-009  0.4778727E+02  0.7816164E-02  0.1312668E+00
        -11   -1    0    0    0    0  0.00000000000E+00  0.00000000000E+00  0.45593999997E+02  0.45594000000E+02  0.51100000000E-03 0. -1.
         11   -1    0    0    0    0 -0.00000000000E+00 -0.00000000000E+00 -0.45593999997E+02  0.45594000000E+02  0.51100000000E-03 0.  1.
    9900012    2    1    2    0    0 -0.24264803975E+02  0.33196458790E+02  0.13886616354E+02  0.47787266113E+02  0.19999977517E+02 0.  0.
        -12    1    1    2    0    0  0.24264803975E+02 -0.33196458790E+02 -0.13886616354E+02  0.43400733887E+02  0.00000000000E+00 0.  1.
         11    1    3    3    0    0 -0.12976649637E+02  0.21963633270E+02  0.13567731481E+02  0.28894254793E+02  0.51100000000E-03 0. -1.
        -11    1    3    3    0    0 -0.55611314059E+01  0.81670409611E+01 -0.44479971428E+01  0.10835655006E+02  0.51100000000E-03 0.  1.
         12    1    3    3    0    0 -0.57270229320E+01  0.30657845594E+01  0.47668820152E+01  0.80573563143E+01  0.00000000000E+00 0. -1.
</event>
<event>
 7    1  0.2458979E-009  0.4778727E+02  0.7816164E-02  0.1312668E+00
        -11   -1    0    0    0    0  0.00000000000E+00  0.00000000000E+00  0.45593999997E+02  0.45594000000E+02  0.51100000000E-03 0.  1.
         11   -1    0    0    0    0 -0.00000000000E+00 -0.00000000000E+00 -0.45593999997E+02  0.45594000000E+02  0.51100000000E-03 0. -1.
    9900012    2    1    2    0    0 -0.11433382374E+02  0.17326788371E+02 -0.38114082777E+02  0.47787272659E+02  0.20000007363E+02 0.  0.
        -12    1    1    2    0    0  0.11433382374E+02 -0.17326788371E+02  0.38114082777E+02  0.43400727341E+02  0.00000000000E+00 0.  1.
         11    1    3    3    0    0 -0.40784491391E+01  0.37248576676E+01 -0.24591328862E+02  0.25204003005E+02  0.51100000000E-03 0. -1.
        -11    1    3    3    0    0  0.52095498245E-01  0.48827909425E+01 -0.16881043860E-01  0.48830980494E+01  0.51100000000E-03 0.  1.
         12    1    3    3    0    0 -0.74070287326E+01  0.87191397605E+01 -0.13505872871E+02  0.17700171604E+02  0.00000000000E+00 0. -1.
</event>
<event>
 7    1  0.2458979E-009  0.4778727E+02  0.7816164E-02  0.1312668E+00
        -11   -1    0    0    0    0  0.00000000000E+00  0.00000000000E+00  0.45593999997E+02  0.45594000000E+02  0.51100000000E-03 0. -1.
         11   -1    0    0    0    0 -0.00000000000E+00 -0.00000000000E+00 -0.45593999997E+02  0.45594000000E+02  0.51100000000E-03 0.  1.
    9900012    2    1    2    0    0 -0.37532286344E+02  0.14360565056E+02  0.16392841941E+02  0.47787267128E+02  0.19999982144E+02 0.  0.
        -12    1    1    2    0    0  0.37532286344E+02 -0.14360565056E+02 -0.16392841941E+02  0.43400732872E+02  0.00000000000E+00 0.  1.
         11    1    3    3    0    0 -0.94757495628E+00  0.43099387356E+01 -0.12175418320E+01  0.45777591217E+01  0.51100000000E-03 0. -1.
        -11    1    3    3    0    0 -0.19233166257E+02 -0.23569171489E+00  0.97053473913E+01  0.21544465719E+02  0.51100000000E-03 0.  1.
         12    1    3    3    0    0 -0.17351545131E+02  0.10286318035E+02  0.79050363817E+01  0.21665042288E+02  0.00000000000E+00 0. -1.
</event>
<event>
 7    1  0.2458979E-009  0.4778727E+02  0.7816164E-02  0.1312668E+00
        -11   -1    0    0    0    0  0.00000000000E+00  0.00000000000E+00  0.45593999997E+02  0.45594000000E+02  0.51100000000E-03 0. -1.
         11   -1    0    0    0    0 -0.00000000000E+00 -0.00000000000E+00 -0.45593999997E+02  0.45594000000E+02  0.51100000000E-03 0.  1.
    9900012    2    1    2    0    0 -0.14214674453E+01 -0.13461934104E+02  0.41235653038E+02  0.47787270501E+02  0.19999997524E+02 0.  0.
        -12    1    1    2    0    0  0.14214674453E+01  0.13461934104E+02 -0.41235653038E+02  0.43400729499E+02  0.00000000000E+00 0.  1.
         11    1    3    3    0    0  0.82477473004E+01 -0.95427120148E+01  0.15537306836E+02  0.20012410952E+02  0.51100000000E-03 0. -1.
        -11    1    3    3    0    0 -0.74535469006E+01 -0.35923709224E+01  0.19427490749E+02  0.21116057570E+02  0.51100000000E-03 0.  1.
         12    1    3    3    0    0 -0.22156678451E+01 -0.32685116703E+00  0.62708554527E+01  0.66588019789E+01  0.00000000000E+00 0. -1.
</event>
<event>
 7    1  0.2458979E-009  0.4778727E+02  0.7816164E-02  0.1312668E+00
        -11   -1    0    0    0    0  0.00000000000E+00  0.00000000000E+00  0.45593999997E+02  0.45594000000E+02  0.51100000000E-03 0.  1.
         11   -1    0    0    0    0 -0.00000000000E+00 -0.00000000000E+00 -0.45593999997E+02  0.45594000000E+02  0.51100000000E-03 0. -1.
    9900012    2    1    2    0    0  0.28256158873E+02 -0.17948245163E+02 -0.27623783005E+02  0.47787269520E+02  0.19999993050E+02 0.  0.
        -12    1    1    2    0    0 -0.28256158873E+02  0.17948245163E+02  0.27623783005E+02  0.43400730480E+02  0.00000000000E+00 0.  1.
         11    1    3    3    0    0  0.39913029473E+01 -0.39679156344E+01 -0.31609886721E+01  0.64549750848E+01  0.51100000000E-03 0.  1.
        -11    1    3    3    0    0  0.21115337207E+02 -0.62748964819E+01 -0.90486940774E+01  0.23814085244E+02  0.51100000000E-03 0. -1.
        -12    1    3    3    0    0  0.31495187187E+01 -0.77054330471E+01 -0.15414100255E+02  0.17518209191E+02  0.00000000000E+00 0.  1.
</event>
<event>
 7    1  0.2458979E-009  0.4778727E+02  0.7816164E-02  0.1312668E+00
        -11   -1    0    0    0    0  0.00000000000E+00  0.00000000000E+00  0.45593999997E+02  0.45594000000E+02  0.51100000000E-03 0.  1.
         11   -1    0    0    0    0 -0.00000000000E+00 -0.00000000000E+00 -0.45593999997E+02  0.45594000000E+02  0.51100000000E-03 0. -1.
    9900012    2    1    2    0    0 -0.32929000902E+02 -0.39251320624E+01 -0.27998168970E+02  0.47787271576E+02  0.20000002422E+02 0.  0.
        -12    1    1    2    0    0  0.32929000902E+02  0.39251320624E+01  0.27998168970E+02  0.43400728424E+02  0.00000000000E+00 0.  1.
         11    1    3    3    0    0 -0.30549301257E+01 -0.21158198217E+00 -0.33329533128E+01  0.45261399729E+01  0.51100000000E-03 0. -1.
        -11    1    3    3    0    0 -0.28658018802E+02  0.25635778299E+01 -0.22449366450E+02  0.36494219093E+02  0.51100000000E-03 0.  1.
        -12    1    3    3    0    0 -0.12160519745E+01 -0.62771279101E+01 -0.22158492067E+01  0.67669125095E+01  0.00000000000E+00 0.  1.
</event>
<event>
 7    1  0.2458979E-009  0.4778726E+02  0.7816164E-02  0.1312668E+00
        -11   -1    0    0    0    0  0.00000000000E+00  0.00000000000E+00  0.45593999997E+02  0.45594000000E+02  0.51100000000E-03 0.  1.
         11   -1    0    0    0    0 -0.00000000000E+00 -0.00000000000E+00 -0.45593999997E+02  0.45594000000E+02  0.51100000000E-03 0. -1.
    9900012    2    1    2    0    0  0.29278064754E+02 -0.31725841500E+02 -0.44598429722E+01  0.47787259293E+02  0.19999946419E+02 0.  0.
        -12    1    1    2    0    0 -0.29278064754E+02  0.31725841500E+02  0.44598429722E+01  0.43400740707E+02  0.00000000000E+00 0.  1.
         11    1    3    3    0    0  0.42498623414E+01 -0.18782066134E+02 -0.18813516014E+01  0.19348561246E+02  0.51100000000E-03 0. -1.
        -11    1    3    3    0    0  0.15558007739E+02 -0.92172557797E+01 -0.75160126577E+00  0.18099014162E+02  0.51100000000E-03 0.  1.
         12    1    3    3    0    0  0.94701946733E+01 -0.37265195862E+01 -0.18268901051E+01  0.10339683885E+02  0.00000000000E+00 0. -1.
</event>
<event>
 7    1  0.2458979E-009  0.4778727E+02  0.7816164E-02  0.1312668E+00
        -11   -1    0    0    0    0  0.00000000000E+00  0.00000000000E+00  0.45593999997E+02  0.45594000000E+02  0.51100000000E-03 0.  1.
         11   -1    0    0    0    0 -0.00000000000E+00 -0.00000000000E+00 -0.45593999997E+02  0.45594000000E+02  0.51100000000E-03 0. -1.
    9900012    2    1    2    0    0  0.85808276133E+01 -0.34277184426E+02 -0.25200548914E+02  0.47787266823E+02  0.19999980753E+02 0.  0.
        -12    1    1    2    0    0 -0.85808276133E+01  0.34277184426E+02  0.25200548914E+02  0.43400733177E+02  0.00000000000E+00 0.  1.
         11    1    3    3    0    0  0.11681244519E+02 -0.12304902886E+02 -0.12226557374E+02  0.20912934132E+02  0.51100000000E-03 0. -1.
        -11    1    3    3    0    0  0.12570186676E+01 -0.29753469789E+01 -0.46945970992E+01  0.56984232697E+01  0.51100000000E-03 0.  1.
         12    1    3    3    0    0 -0.43574355729E+01 -0.18996934562E+02 -0.82793944404E+01  0.21175909421E+02  0.00000000000E+00 0. -1.
</event>
<event>
 7    1  0.2458979E-009  0.4778727E+02  0.7816164E-02  0.1312668E+00
        -11   -1    0    0    0    0  0.00000000000E+00  0.00000000000E+00  0.45593999997E+02  0.45594000000E+02  0.51100000000E-03 0.  1.
         11   -1    0    0    0    0 -0.00000000000E+00 -0.00000000000E+00 -0.45593999997E+02  0.45594000000E+02  0.51100000000E-03 0. -1.
    9900012    2    1    2    0    0 -0.31442819690E+02 -0.20901949955E+02  0.21402831804E+02  0.47787266928E+02  0.19999981231E+02 0.  0.
        -12    1    1    2    0    0  0.31442819690E+02  0.20901949955E+02 -0.21402831804E+02  0.43400733072E+02  0.00000000000E+00 0.  1.
         11    1    3    3    0    0 -0.22170098390E+02 -0.16130924879E+02  0.76014412225E+01  0.28451747028E+02  0.51100000000E-03 0. -1.
        -11    1    3    3    0    0  0.10770200135E+01  0.10495765222E+01  0.26444352307E+01  0.30421408475E+01  0.51100000000E-03 0.  1.
        -12    1    3    3    0    0 -0.10349741314E+02 -0.58206015985E+01  0.11156955351E+02  0.16293379052E+02  0.00000000000E+00 0.  1.
</event>
<event>
 7    1  0.2458979E-009  0.4778727E+02  0.7816164E-02  0.1312668E+00
        -11   -1    0    0    0    0  0.00000000000E+00  0.00000000000E+00  0.45593999997E+02  0.45594000000E+02  0.51100000000E-03 0.  1.
         11   -1    0    0    0    0 -0.00000000000E+00 -0.00000000000E+00 -0.45593999997E+02  0.45594000000E+02  0.51100000000E-03 0. -1.
    9900012    2    1    2    0    0  0.24320756541E+02  0.21897353201E+02 -0.28506668555E+02  0.47787269269E+02  0.19999991903E+02 0.  0.
        -12    1    1    2    0    0 -0.24320756541E+02 -0.21897353201E+02  0.28506668555E+02  0.43400730731E+02  0.00000000000E+00 0.  1.
         11    1    3    3    0    0  0.17164488180E+02  0.23345309978E+02 -0.16578202510E+02  0.33383528142E+02  0.51100000000E-03 0. -1.
        -11    1    3    3    0    0  0.56635788265E+01  0.35500255854E+00 -0.76247072721E+01  0.95046469259E+01  0.51100000000E-03 0.  1.
         12    1    3    3    0    0  0.14926895340E+01 -0.18029593358E+01 -0.43037587732E+01  0.48990942010E+01  0.00000000000E+00 0. -1.
</event>
<event>
 7    1  0.2458979E-009  0.4778727E+02  0.7816164E-02  0.1312668E+00
        -11   -1    0    0    0    0  0.00000000000E+00  0.00000000000E+00  0.45593999997E+02  0.45594000000E+02  0.51100000000E-03 0.  1.
         11   -1    0    0    0    0 -0.00000000000E+00 -0.00000000000E+00 -0.45593999997E+02  0.45594000000E+02  0.51100000000E-03 0. -1.
    9900012    2    1    2    0    0  0.28023315229E+02  0.18978672706E+02 -0.27168488852E+02  0.47787274192E+02  0.20000014352E+02 0.  0.
        -12    1    1    2    0    0 -0.28023315229E+02 -0.18978672706E+02  0.27168488852E+02  0.43400725808E+02  0.00000000000E+00 0.  1.
         11    1    3    3    0    0  0.35709876835E+01  0.71521119898E+00 -0.47145947382E+01  0.59574225888E+01  0.51100000000E-03 0. -1.
        -11    1    3    3    0    0  0.43719616706E+01 -0.30289452763E+01 -0.68189963861E+01  0.86479633620E+01  0.51100000000E-03 0.  1.
        -12    1    3    3    0    0  0.20080365875E+02  0.21292406783E+02 -0.15634897728E+02  0.33181888242E+02  0.00000000000E+00 0.  1.
</event>
<event>
 7    1  0.2458979E-009  0.4778727E+02  0.7816164E-02  0.1312668E+00
        -11   -1    0    0    0    0  0.00000000000E+00  0.00000000000E+00  0.45593999997E+02  0.45594000000E+02  0.51100000000E-03 0.  1.
         11   -1    0    0    0    0 -0.00000000000E+00 -0.00000000000E+00 -0.45593999997E+02  0.45594000000E+02  0.51100000000E-03 0. -1.
    9900012    2    1    2    0    0  0.22707105085E+02  0.20299997670E+02 -0.30917969272E+02  0.47787270160E+02  0.19999995966E+02 0.  0.
        -12    1    1    2    0    0 -0.22707105085E+02 -0.20299997670E+02  0.30917969272E+02  0.43400729840E+02  0.00000000000E+00 0.  1.
         11    1    3    3    0    0  0.68087593667E+01 -0.22751991758E+01 -0.32769021450E+01  0.78913765169E+01  0.51100000000E-03 0. -1.
        -11    1    3    3    0    0  0.19726068136E+00  0.44769442177E+01 -0.23596447592E+01  0.50645695726E+01  0.51100000000E-03 0.  1.
         12    1    3    3    0    0  0.15701085037E+02  0.18098252628E+02 -0.25281422368E+02  0.34831324070E+02  0.00000000000E+00 0. -1.
</event>
<event>
 7    1  0.2458979E-009  0.4778726E+02  0.7816164E-02  0.1312668E+00
        -11   -1    0    0    0    0  0.00000000000E+00  0.00000000000E+00  0.45593999997E+02  0.45594000000E+02  0.51100000000E-03 0.  1.
         11   -1    0    0    0    0 -0.00000000000E+00 -0.00000000000E+00 -0.45593999997E+02  0.45594000000E+02  0.51100000000E-03 0. -1.
    9900012    2    1    2    0    0  0.21151549561E+01  0.43104190506E+02 -0.46020848079E+01  0.47787259174E+02  0.19999945879E+02 0.  0.
        -12    1    1    2    0    0 -0.21151549561E+01 -0.43104190506E+02  0.46020848079E+01  0.43400740826E+02  0.00000000000E+00 0.  1.
         11    1    3    3    0    0  0.27365500081E+01  0.25994557692E+02 -0.68975521670E+01  0.27032979150E+02  0.51100000000E-03 0. -1.
        -11    1    3    3    0    0  0.73296654071E+00  0.14632188505E+02  0.62228094776E+01  0.15917334527E+02  0.51100000000E-03 0.  1.
         12    1    3    3    0    0 -0.13543615926E+01  0.24774443085E+01 -0.39273421185E+01  0.48369454970E+01  0.00000000000E+00 0. -1.
</event>
<event>
 7    1  0.2458979E-009  0.4778727E+02  0.7816164E-02  0.1312668E+00
        -11   -1    0    0    0    0  0.00000000000E+00  0.00000000000E+00  0.45593999997E+02  0.45594000000E+02  0.51100000000E-03 0.  1.
         11   -1    0    0    0    0 -0.00000000000E+00 -0.00000000000E+00 -0.45593999997E+02  0.45594000000E+02  0.51100000000E-03 0. -1.
    9900012    2    1    2    0    0  0.11129953601E+02  0.40381414810E+02  0.11361733867E+02  0.47787268144E+02  0.19999986775E+02 0.  0.
        -12    1    1    2    0    0 -0.11129953601E+02 -0.40381414810E+02 -0.11361733867E+02  0.43400731856E+02  0.00000000000E+00 0.  1.
         11    1    3    3    0    0  0.68741542287E+01  0.50840401246E+01  0.50682964185E+01  0.99392700534E+01  0.51100000000E-03 0.  1.
        -11    1    3    3    0    0  0.35995791307E+01  0.35748440417E+02  0.49256099013E+01  0.36265267065E+02  0.51100000000E-03 0. -1.
         12    1    3    3    0    0  0.65622024175E+00 -0.45106573148E+00  0.13678275471E+01  0.15827310253E+01  0.00000000000E+00 0. -1.
</event>
<event>
 7    1  0.2458979E-009  0.4778727E+02  0.7816164E-02  0.1312668E+00
        -11   -1    0    0    0    0  0.00000000000E+00  0.00000000000E+00  0.45593999997E+02  0.45594000000E+02  0.51100000000E-03 0.  1.
         11   -1    0    0    0    0 -0.00000000000E+00 -0.00000000000E+00 -0.45593999997E+02  0.45594000000E+02  0.51100000000E-03 0. -1.
    9900012    2    1    2    0    0  0.36317565833E+02  0.23643304670E+02 -0.23773880545E+01  0.47787269387E+02  0.19999992443E+02 0.  0.
        -12    1    1    2    0    0 -0.36317565833E+02 -0.23643304670E+02  0.23773880545E+01  0.43400730613E+02  0.00000000000E+00 0.  1.
         11    1    3    3    0    0  0.62627966346E+01  0.70105857172E+01 -0.26439229624E+01  0.97653091439E+01  0.51100000000E-03 0. -1.
        -11    1    3    3    0    0  0.33199724055E+01  0.58344120244E+01  0.55483287358E+01  0.87089914723E+01  0.51100000000E-03 0.  1.
        -12    1    3    3    0    0  0.26734796793E+02  0.10798306929E+02 -0.52817938280E+01  0.29312968771E+02  0.00000000000E+00 0.  1.
</event>
<event>
 7    1  0.2458979E-009  0.4778728E+02  0.7816164E-02  0.1312668E+00
        -11   -1    0    0    0    0  0.00000000000E+00  0.00000000000E+00  0.45593999997E+02  0.45594000000E+02  0.51100000000E-03 0.  1.
         11   -1    0    0    0    0 -0.00000000000E+00 -0.00000000000E+00 -0.45593999997E+02  0.45594000000E+02  0.51100000000E-03 0. -1.
    9900012    2    1    2    0    0  0.39681465311E+02  0.16232657069E+01 -0.17503390107E+02  0.47787281734E+02  0.20000048736E+02 0.  0.
        -12    1    1    2    0    0 -0.39681465311E+02 -0.16232657069E+01  0.17503390107E+02  0.43400718266E+02  0.00000000000E+00 0.  1.
         11    1    3    3    0    0  0.49581642170E+01 -0.64295175972E+01 -0.45995649814E+01  0.93315640283E+01  0.51100000000E-03 0. -1.
        -11    1    3    3    0    0  0.18064206714E+02  0.20641480570E+01 -0.39023796675E+01  0.18595828531E+02  0.51100000000E-03 0.  1.
         12    1    3    3    0    0  0.16659094380E+02  0.59886352471E+01 -0.90014454581E+01  0.19859889175E+02  0.00000000000E+00 0. -1.
</event>
<event>
 7    1  0.2458979E-009  0.4778727E+02  0.7816164E-02  0.1312668E+00
        -11   -1    0    0    0    0  0.00000000000E+00  0.00000000000E+00  0.45593999997E+02  0.45594000000E+02  0.51100000000E-03 0. -1.
         11   -1    0    0    0    0 -0.00000000000E+00 -0.00000000000E+00 -0.45593999997E+02  0.45594000000E+02  0.51100000000E-03 0.  1.
    9900012    2    1    2    0    0 -0.30817328402E+02 -0.21963727881E+02 -0.21248768396E+02  0.47787271543E+02  0.20000002273E+02 0.  0.
        -12    1    1    2    0    0  0.30817328402E+02  0.21963727881E+02  0.21248768396E+02  0.43400728457E+02  0.00000000000E+00 0.  1.
         11    1    3    3    0    0 -0.23540488457E+02 -0.12901203013E+02 -0.62972933089E+01  0.27572659271E+02  0.51100000000E-03 0. -1.
        -11    1    3    3    0    0 -0.70641647920E+00 -0.78615736452E+00 -0.67654216680E+01  0.68474811610E+01  0.51100000000E-03 0.  1.
        -12    1    3    3    0    0 -0.65704234655E+01 -0.82763675027E+01 -0.81860534195E+01  0.13367131111E+02  0.00000000000E+00 0.  1.
</event>
<event>
 7    1  0.2458979E-009  0.4778727E+02  0.7816164E-02  0.1312668E+00
        -11   -1    0    0    0    0  0.00000000000E+00  0.00000000000E+00  0.45593999997E+02  0.45594000000E+02  0.51100000000E-03 0.  1.
         11   -1    0    0    0    0 -0.00000000000E+00 -0.00000000000E+00 -0.45593999997E+02  0.45594000000E+02  0.51100000000E-03 0. -1.
    9900012    2    1    2    0    0 -0.40181971459E+02 -0.21155102669E+01 -0.16265207739E+02  0.47787271932E+02  0.20000004048E+02 0.  0.
        -12    1    1    2    0    0  0.40181971459E+02  0.21155102669E+01  0.16265207739E+02  0.43400728068E+02  0.00000000000E+00 0.  1.
         11    1    3    3    0    0 -0.39617066208E+02 -0.61167244445E+01 -0.15693038000E+02  0.43048782733E+02  0.51100000000E-03 0. -1.
        -11    1    3    3    0    0  0.34677842607E+00  0.26213124167E+01 -0.12822130155E+01  0.29386399135E+01  0.51100000000E-03 0.  1.
         12    1    3    3    0    0 -0.91168367712E+00  0.13799017609E+01  0.71004327649E+00  0.17998492857E+01  0.00000000000E+00 0. -1.
</event>
<event>
 7    1  0.2458979E-009  0.4778727E+02  0.7816164E-02  0.1312668E+00
        -11   -1    0    0    0    0  0.00000000000E+00  0.00000000000E+00  0.45593999997E+02  0.45594000000E+02  0.51100000000E-03 0. -1.
         11   -1    0    0    0    0 -0.00000000000E+00 -0.00000000000E+00 -0.45593999997E+02  0.45594000000E+02  0.51100000000E-03 0.  1.
    9900012    2    1    2    0    0 -0.28080499875E+02  0.31611402626E+02  0.97891844556E+01  0.47787269804E+02  0.19999994345E+02 0.  0.
        -12    1    1    2    0    0  0.28080499875E+02 -0.31611402626E+02 -0.97891844556E+01  0.43400730196E+02  0.00000000000E+00 0.  1.
         11    1    3    3    0    0 -0.23746288537E+02  0.14722830737E+02  0.52386718203E+01  0.28426952824E+02  0.51100000000E-03 0. -1.
        -11    1    3    3    0    0  0.19772589226E+01  0.36435688364E+01  0.10630480550E+01  0.42796282713E+01  0.51100000000E-03 0.  1.
        -12    1    3    3    0    0 -0.63114702610E+01  0.13245003053E+02  0.34874645803E+01  0.15080688709E+02  0.00000000000E+00 0.  1.
</event>
<event>
 7    1  0.2458979E-009  0.4778727E+02  0.7816164E-02  0.1312668E+00
        -11   -1    0    0    0    0  0.00000000000E+00  0.00000000000E+00  0.45593999997E+02  0.45594000000E+02  0.51100000000E-03 0.  1.
         11   -1    0    0    0    0 -0.00000000000E+00 -0.00000000000E+00 -0.45593999997E+02  0.45594000000E+02  0.51100000000E-03 0. -1.
    9900012    2    1    2    0    0  0.22782916129E+02  0.12860037015E+02 -0.34629202497E+02  0.47787268613E+02  0.19999988912E+02 0.  0.
        -12    1    1    2    0    0 -0.22782916129E+02 -0.12860037015E+02  0.34629202497E+02  0.43400731387E+02  0.00000000000E+00 0.  1.
         11    1    3    3    0    0  0.12210060087E+02 -0.14934281766E+01 -0.67083856170E+01  0.14011364420E+02  0.51100000000E-03 0. -1.
        -11    1    3    3    0    0  0.25686179733E+01  0.90112086712E+01 -0.13153097486E+02  0.16149416514E+02  0.51100000000E-03 0.  1.
         12    1    3    3    0    0  0.80042380679E+01  0.53422565206E+01 -0.14767719394E+02  0.17626487678E+02  0.00000000000E+00 0. -1.
</event>
<event>
 7    1  0.2458979E-009  0.4778727E+02  0.7816164E-02  0.1312668E+00
        -11   -1    0    0    0    0  0.00000000000E+00  0.00000000000E+00  0.45593999997E+02  0.45594000000E+02  0.51100000000E-03 0.  1.
         11   -1    0    0    0    0 -0.00000000000E+00 -0.00000000000E+00 -0.45593999997E+02  0.45594000000E+02  0.51100000000E-03 0. -1.
    9900012    2    1    2    0    0 -0.13069066037E+02  0.24146457154E+01 -0.41315764002E+02  0.47787270097E+02  0.19999995681E+02 0.  0.
        -12    1    1    2    0    0  0.13069066037E+02 -0.24146457154E+01  0.41315764002E+02  0.43400729903E+02  0.00000000000E+00 0.  1.
         11    1    3    3    0    0  0.46606366858E+00  0.35216460514E+01 -0.20716078153E+02  0.21018446673E+02  0.51100000000E-03 0. -1.
        -11    1    3    3    0    0 -0.59096509843E+00  0.32807928443E+01 -0.29948990941E+01  0.44813237196E+01  0.51100000000E-03 0.  1.
        -12    1    3    3    0    0 -0.12944164607E+02 -0.43877931803E+01 -0.17604786756E+02  0.22287499705E+02  0.00000000000E+00 0.  1.
</event>
<event>
 7    1  0.2458979E-009  0.4778728E+02  0.7816164E-02  0.1312668E+00
        -11   -1    0    0    0    0  0.00000000000E+00  0.00000000000E+00  0.45593999997E+02  0.45594000000E+02  0.51100000000E-03 0.  1.
         11   -1    0    0    0    0 -0.00000000000E+00 -0.00000000000E+00 -0.45593999997E+02  0.45594000000E+02  0.51100000000E-03 0. -1.
    9900012    2    1    2    0    0 -0.14522495710E+02 -0.69138284831E+01 -0.40310283246E+02  0.47787276028E+02  0.20000022721E+02 0.  0.
        -12    1    1    2    0    0  0.14522495710E+02  0.69138284831E+01  0.40310283246E+02  0.43400723972E+02  0.00000000000E+00 0.  1.
         11    1    3    3    0    0 -0.57674013367E+01 -0.75068158192E+01 -0.78107245327E+01  0.12272840743E+02  0.51100000000E-03 0. -1.
        -11    1    3    3    0    0 -0.10833500198E+02  0.10404259067E+00 -0.31170025787E+02  0.32999182705E+02  0.51100000000E-03 0.  1.
        -12    1    3    3    0    0  0.20784058245E+01  0.48894474543E+00 -0.13295329262E+01  0.25152525792E+01  0.00000000000E+00 0.  1.
</event>
<event>
 7    1  0.2458979E-009  0.4778725E+02  0.7816164E-02  0.1312668E+00
        -11   -1    0    0    0    0  0.00000000000E+00  0.00000000000E+00  0.45593999997E+02  0.45594000000E+02  0.51100000000E-03 0.  1.
         11   -1    0    0    0    0 -0.00000000000E+00 -0.00000000000E+00 -0.45593999997E+02  0.45594000000E+02  0.51100000000E-03 0. -1.
    9900012    2    1    2    0    0 -0.31078317368E+02 -0.27276823064E+02 -0.13180981370E+02  0.47787249353E+02  0.19999901098E+02 0.  0.
        -12    1    1    2    0    0  0.31078317368E+02  0.27276823064E+02  0.13180981370E+02  0.43400750647E+02  0.00000000000E+00 0.  1.
         11    1    3    3    0    0 -0.23362058832E+02 -0.22968426590E+02 -0.11826159203E+02  0.34830912343E+02  0.51100000000E-03 0. -1.
        -11    1    3    3    0    0 -0.27022217911E+01  0.28995824197E+01  0.46064332347E+00  0.39902096874E+01  0.51100000000E-03 0.  1.
         12    1    3    3    0    0 -0.50140367447E+01 -0.72079788936E+01 -0.18154654910E+01  0.89661273222E+01  0.00000000000E+00 0. -1.
</event>
<event>
 7    1  0.2458979E-009  0.4778727E+02  0.7816164E-02  0.1312668E+00
        -11   -1    0    0    0    0  0.00000000000E+00  0.00000000000E+00  0.45593999997E+02  0.45594000000E+02  0.51100000000E-03 0. -1.
         11   -1    0    0    0    0 -0.00000000000E+00 -0.00000000000E+00 -0.45593999997E+02  0.45594000000E+02  0.51100000000E-03 0.  1.
    9900012    2    1    2    0    0 -0.28786952414E+02 -0.32398157993E+02  0.23009260256E+01  0.47787268080E+02  0.19999986482E+02 0.  0.
        -12    1    1    2    0    0  0.28786952414E+02  0.32398157993E+02 -0.23009260256E+01  0.43400731920E+02  0.00000000000E+00 0.  1.
         11    1    3    3    0    0 -0.99540420252E+01 -0.20391382324E+02  0.69824954928E+01  0.23741244055E+02  0.51100000000E-03 0. -1.
        -11    1    3    3    0    0 -0.88682903915E+00 -0.37040342153E+01 -0.90943038885E+00  0.39157884399E+01  0.51100000000E-03 0.  1.
         12    1    3    3    0    0 -0.17946081350E+02 -0.83027414540E+01 -0.37721390784E+01  0.20130235585E+02  0.00000000000E+00 0. -1.
</event>
<event>
 7    1  0.2458979E-009  0.4778727E+02  0.7816164E-02  0.1312668E+00
        -11   -1    0    0    0    0  0.00000000000E+00  0.00000000000E+00  0.45593999997E+02  0.45594000000E+02  0.51100000000E-03 0. -1.
         11   -1    0    0    0    0 -0.00000000000E+00 -0.00000000000E+00 -0.45593999997E+02  0.45594000000E+02  0.51100000000E-03 0.  1.
    9900012    2    1    2    0    0 -0.23010232918E+02  0.31271924258E+02  0.19396365098E+02  0.47787273684E+02  0.20000012035E+02 0.  0.
        -12    1    1    2    0    0  0.23010232918E+02 -0.31271924258E+02 -0.19396365098E+02  0.43400726316E+02  0.00000000000E+00 0.  1.
         11    1    3    3    0    0 -0.64313213690E+01  0.33843918735E+01 -0.24412775664E+01  0.76665402446E+01  0.51100000000E-03 0. -1.
        -11    1    3    3    0    0 -0.68884114222E+01  0.98286136484E+01  0.13311288378E+02  0.17923232318E+02  0.51100000000E-03 0.  1.
         12    1    3    3    0    0 -0.96905001266E+01  0.18058918736E+02  0.85263542867E+01  0.22197501122E+02  0.00000000000E+00 0. -1.
</event>
<event>
 7    1  0.2458979E-009  0.4778728E+02  0.7816164E-02  0.1312668E+00
        -11   -1    0    0    0    0  0.00000000000E+00  0.00000000000E+00  0.45593999997E+02  0.45594000000E+02  0.51100000000E-03 0.  1.
         11   -1    0    0    0    0 -0.00000000000E+00 -0.00000000000E+00 -0.45593999997E+02  0.45594000000E+02  0.51100000000E-03 0. -1.
    9900012    2    1    2    0    0  0.39949678875E+02 -0.15610025094E+02 -0.66311748408E+01  0.47787283354E+02  0.20000056123E+02 0.  0.
        -12    1    1    2    0    0 -0.39949678875E+02  0.15610025094E+02  0.66311748408E+01  0.43400716646E+02  0.00000000000E+00 0.  1.
         11    1    3    3    0    0 -0.51596763000E+00 -0.11050142659E+01  0.25744602286E+01  0.28487058207E+01  0.51100000000E-03 0.  1.
        -11    1    3    3    0    0  0.32509806378E+02 -0.14114623087E+02 -0.10276647110E+02  0.36901484681E+02  0.51100000000E-03 0. -1.
        -12    1    3    3    0    0  0.79558401269E+01 -0.39038774122E+00  0.10710120401E+01  0.80370928515E+01  0.00000000000E+00 0.  1.
</event>
<event>
 7    1  0.2458979E-009  0.4778727E+02  0.7816164E-02  0.1312668E+00
        -11   -1    0    0    0    0  0.00000000000E+00  0.00000000000E+00  0.45593999997E+02  0.45594000000E+02  0.51100000000E-03 0.  1.
         11   -1    0    0    0    0 -0.00000000000E+00 -0.00000000000E+00 -0.45593999997E+02  0.45594000000E+02  0.51100000000E-03 0. -1.
    9900012    2    1    2    0    0  0.33400062505E+02 -0.26011731686E+02 -0.95628858697E+01  0.47787272508E+02  0.20000006675E+02 0.  0.
        -12    1    1    2    0    0 -0.33400062505E+02  0.26011731686E+02  0.95628858697E+01  0.43400727492E+02  0.00000000000E+00 0.  1.
         11    1    3    3    0    0  0.83335222009E+01 -0.25210265448E+01 -0.19510663545E+01  0.89224339333E+01  0.51100000000E-03 0. -1.
        -11    1    3    3    0    0  0.17095926509E+02 -0.84304813146E+01 -0.10217565418E+02  0.21627352166E+02  0.51100000000E-03 0.  1.
        -12    1    3    3    0    0  0.79706137952E+01 -0.15060223827E+02  0.26057459029E+01  0.17237486409E+02  0.00000000000E+00 0.  1.
</event>
<event>
 7    1  0.2458979E-009  0.4778727E+02  0.7816164E-02  0.1312668E+00
        -11   -1    0    0    0    0  0.00000000000E+00  0.00000000000E+00  0.45593999997E+02  0.45594000000E+02  0.51100000000E-03 0. -1.
         11   -1    0    0    0    0 -0.00000000000E+00 -0.00000000000E+00 -0.45593999997E+02  0.45594000000E+02  0.51100000000E-03 0.  1.
    9900012    2    1    2    0    0 -0.91075248547E+01 -0.22970028936E+02  0.35679884434E+02  0.47787269689E+02  0.19999993819E+02 0.  0.
        -12    1    1    2    0    0  0.91075248547E+01  0.22970028936E+02 -0.35679884434E+02  0.43400730311E+02  0.00000000000E+00 0.  1.
         11    1    3    3    0    0  0.26338392165E+01 -0.99836803459E+01  0.54179427276E+01  0.11660406765E+02  0.51100000000E-03 0. -1.
        -11    1    3    3    0    0 -0.22908708688E+00  0.13173420932E+01  0.26367679107E+01  0.29564195169E+01  0.51100000000E-03 0.  1.
         12    1    3    3    0    0 -0.11512276984E+02 -0.14303690683E+02  0.27625173796E+02  0.33170443407E+02  0.00000000000E+00 0. -1.
</event>
<event>
 7    1  0.2458979E-009  0.4778727E+02  0.7816164E-02  0.1312668E+00
        -11   -1    0    0    0    0  0.00000000000E+00  0.00000000000E+00  0.45593999997E+02  0.45594000000E+02  0.51100000000E-03 0.  1.
         11   -1    0    0    0    0 -0.00000000000E+00 -0.00000000000E+00 -0.45593999997E+02  0.45594000000E+02  0.51100000000E-03 0. -1.
    9900012    2    1    2    0    0 -0.42550990030E+02 -0.10285365139E+01 -0.84840432809E+01  0.47787266938E+02  0.19999981279E+02 0.  0.
        -12    1    1    2    0    0  0.42550990030E+02  0.10285365139E+01  0.84840432809E+01  0.43400733062E+02  0.00000000000E+00 0.  1.
         11    1    3    3    0    0 -0.58781892027E+01 -0.42348221486E+01 -0.65743204263E+01  0.97830729458E+01  0.51100000000E-03 0. -1.
        -11    1    3    3    0    0  0.42075267866E+00  0.51038061444E+00 -0.41888394785E+00  0.78293372075E+00  0.51100000000E-03 0.  1.
         12    1    3    3    0    0 -0.37093553506E+02  0.26959050203E+01 -0.14908389068E+01  0.37221260272E+02  0.00000000000E+00 0. -1.
</event>
<event>
 7    1  0.2458979E-009  0.4778725E+02  0.7816164E-02  0.1312668E+00
        -11   -1    0    0    0    0  0.00000000000E+00  0.00000000000E+00  0.45593999997E+02  0.45594000000E+02  0.51100000000E-03 0.  1.
         11   -1    0    0    0    0 -0.00000000000E+00 -0.00000000000E+00 -0.45593999997E+02  0.45594000000E+02  0.51100000000E-03 0. -1.
    9900012    2    1    2    0    0  0.55273262467E+01 -0.38249593599E+02 -0.19749479919E+02  0.47787254581E+02  0.19999924935E+02 0.  0.
        -12    1    1    2    0    0 -0.55273262467E+01  0.38249593599E+02  0.19749479919E+02  0.43400745419E+02  0.00000000000E+00 0.  1.
         11    1    3    3    0    0  0.34460467600E+01 -0.28149013988E+01  0.26848013916E+01  0.51968323940E+01  0.51100000000E-03 0.  1.
        -11    1    3    3    0    0 -0.15457056521E+01 -0.18032103230E+01 -0.13819242586E+01  0.27478151956E+01  0.51100000000E-03 0. -1.
         12    1    3    3    0    0  0.36269851388E+01 -0.33631481877E+02 -0.21052357052E+02  0.39842606991E+02  0.00000000000E+00 0. -1.
</event>
<event>
 7    1  0.2458979E-009  0.4778727E+02  0.7816164E-02  0.1312668E+00
        -11   -1    0    0    0    0  0.00000000000E+00  0.00000000000E+00  0.45593999997E+02  0.45594000000E+02  0.51100000000E-03 0. -1.
         11   -1    0    0    0    0 -0.00000000000E+00 -0.00000000000E+00 -0.45593999997E+02  0.45594000000E+02  0.51100000000E-03 0.  1.
    9900012    2    1    2    0    0 -0.13684975320E+01 -0.12581369319E+02  0.41514572214E+02  0.47787270219E+02  0.19999996234E+02 0.  0.
        -12    1    1    2    0    0  0.13684975320E+01  0.12581369319E+02 -0.41514572214E+02  0.43400729781E+02  0.00000000000E+00 0.  1.
         11    1    3    3    0    0  0.45043470500E+01 -0.64868191500E+00  0.22192037633E+01  0.50630816878E+01  0.51100000000E-03 0. -1.
        -11    1    3    3    0    0 -0.15806586252E+01 -0.12354086946E+02  0.29495090818E+02  0.32016906917E+02  0.51100000000E-03 0.  1.
        -12    1    3    3    0    0 -0.42921859568E+01  0.42139954118E+00  0.98002776332E+01  0.10707281613E+02  0.00000000000E+00 0.  1.
</event>
<event>
 7    1  0.2458979E-009  0.4778727E+02  0.7816164E-02  0.1312668E+00
        -11   -1    0    0    0    0  0.00000000000E+00  0.00000000000E+00  0.45593999997E+02  0.45594000000E+02  0.51100000000E-03 0.  1.
         11   -1    0    0    0    0 -0.00000000000E+00 -0.00000000000E+00 -0.45593999997E+02  0.45594000000E+02  0.51100000000E-03 0. -1.
    9900012    2    1    2    0    0  0.73722482846E+00  0.43679926222E+01 -0.43174074524E+02  0.47787267622E+02  0.19999984395E+02 0.  0.
        -12    1    1    2    0    0 -0.73722482846E+00 -0.43679926222E+01  0.43174074524E+02  0.43400732378E+02  0.00000000000E+00 0.  1.
         11    1    3    3    0    0  0.56554555257E+00 -0.77657252463E+00 -0.82996739578E+01  0.83550879543E+01  0.51100000000E-03 0. -1.
        -11    1    3    3    0    0  0.75709323254E+01  0.61765000747E+01 -0.26318070607E+02  0.28073279292E+02  0.51100000000E-03 0.  1.
        -12    1    3    3    0    0 -0.73992530495E+01 -0.10319349278E+01 -0.85563299587E+01  0.11358900376E+02  0.00000000000E+00 0.  1.
</event>
<event>
 7    1  0.2458979E-009  0.4778727E+02  0.7816164E-02  0.1312668E+00
        -11   -1    0    0    0    0  0.00000000000E+00  0.00000000000E+00  0.45593999997E+02  0.45594000000E+02  0.51100000000E-03 0.  1.
         11   -1    0    0    0    0 -0.00000000000E+00 -0.00000000000E+00 -0.45593999997E+02  0.45594000000E+02  0.51100000000E-03 0. -1.
    9900012    2    1    2    0    0 -0.13585627950E+02 -0.72897519405E+01 -0.40569857605E+02  0.47787272861E+02  0.20000008281E+02 0.  0.
        -12    1    1    2    0    0  0.13585627950E+02  0.72897519405E+01  0.40569857605E+02  0.43400727139E+02  0.00000000000E+00 0.  1.
         11    1    3    3    0    0 -0.70379254797E+01 -0.61352998691E+01 -0.18240210588E+02  0.20490963426E+02  0.51100000000E-03 0. -1.
        -11    1    3    3    0    0  0.28272870828E+01  0.18281418958E+01 -0.14019862853E+02  0.14418467662E+02  0.51100000000E-03 0.  1.
        -12    1    3    3    0    0 -0.93749895529E+01 -0.29825939672E+01 -0.83097841640E+01  0.12877841773E+02  0.00000000000E+00 0.  1.
</event>
<event>
 7    1  0.2458979E-009  0.4778727E+02  0.7816164E-02  0.1312668E+00
        -11   -1    0    0    0    0  0.00000000000E+00  0.00000000000E+00  0.45593999997E+02  0.45594000000E+02  0.51100000000E-03 0.  1.
         11   -1    0    0    0    0 -0.00000000000E+00 -0.00000000000E+00 -0.45593999997E+02  0.45594000000E+02  0.51100000000E-03 0. -1.
    9900012    2    1    2    0    0  0.52702847868E+01  0.17102202559E+00 -0.43079209356E+02  0.47787269257E+02  0.19999991851E+02 0.  0.
        -12    1    1    2    0    0 -0.52702847868E+01 -0.17102202559E+00  0.43079209356E+02  0.43400730743E+02  0.00000000000E+00 0.  1.
         11    1    3    3    0    0 -0.10285120909E+01  0.36357665979E+01 -0.30824649945E+02  0.31055364760E+02  0.51100000000E-03 0. -1.
        -11    1    3    3    0    0  0.17436194901E+01 -0.54348522269E+01 -0.94262254557E+01  0.11019598643E+02  0.51100000000E-03 0.  1.
         12    1    3    3    0    0  0.45551773876E+01  0.19701076546E+01 -0.28283339550E+01  0.57123058535E+01  0.00000000000E+00 0. -1.
</event>
<event>
 7    1  0.2458979E-009  0.4778727E+02  0.7816164E-02  0.1312668E+00
        -11   -1    0    0    0    0  0.00000000000E+00  0.00000000000E+00  0.45593999997E+02  0.45594000000E+02  0.51100000000E-03 0.  1.
         11   -1    0    0    0    0 -0.00000000000E+00 -0.00000000000E+00 -0.45593999997E+02  0.45594000000E+02  0.51100000000E-03 0. -1.
    9900012    2    1    2    0    0 -0.29533113445E+02  0.29116036493E+02 -0.12793567541E+02  0.47787265660E+02  0.19999975450E+02 0.  0.
        -12    1    1    2    0    0  0.29533113445E+02 -0.29116036493E+02  0.12793567541E+02  0.43400734340E+02  0.00000000000E+00 0.  1.
         11    1    3    3    0    0 -0.16732641411E+02  0.23847341626E+02 -0.29057988968E+01  0.29276623076E+02  0.51100000000E-03 0. -1.
        -11    1    3    3    0    0 -0.12347681155E+02  0.64022370736E+01 -0.10203213840E+02  0.17249911373E+02  0.51100000000E-03 0.  1.
         12    1    3    3    0    0 -0.45279087901E+00 -0.11335422067E+01  0.31544519597E+00  0.12607312109E+01  0.00000000000E+00 0. -1.
</event>
<event>
 7    1  0.2458979E-009  0.4778729E+02  0.7816164E-02  0.1312668E+00
        -11   -1    0    0    0    0  0.00000000000E+00  0.00000000000E+00  0.45593999997E+02  0.45594000000E+02  0.51100000000E-03 0. -1.
         11   -1    0    0    0    0 -0.00000000000E+00 -0.00000000000E+00 -0.45593999997E+02  0.45594000000E+02  0.51100000000E-03 0.  1.
    9900012    2    1    2    0    0  0.33351679966E+01 -0.27017579520E+02  0.33801610077E+02  0.47787288111E+02  0.20000077811E+02 0.  0.
        -12    1    1    2    0    0 -0.33351679966E+01  0.27017579520E+02 -0.33801610077E+02  0.43400711889E+02  0.00000000000E+00 0.  1.
         11    1    3    3    0    0  0.94125370975E+01 -0.11987408256E+02  0.19807097061E+02  0.24992296925E+02  0.51100000000E-03 0. -1.
        -11    1    3    3    0    0 -0.39412962562E+01 -0.18345543736E+01  0.52730629476E+01  0.68340763121E+01  0.51100000000E-03 0.  1.
         12    1    3    3    0    0 -0.21360728447E+01 -0.13195616890E+02  0.87214500684E+01  0.15960914874E+02  0.00000000000E+00 0. -1.
</event>
<event>
 7    1  0.2458979E-009  0.4778727E+02  0.7816164E-02  0.1312668E+00
        -11   -1    0    0    0    0  0.00000000000E+00  0.00000000000E+00  0.45593999997E+02  0.45594000000E+02  0.51100000000E-03 0. -1.
         11   -1    0    0    0    0 -0.00000000000E+00 -0.00000000000E+00 -0.45593999997E+02  0.45594000000E+02  0.51100000000E-03 0.  1.
    9900012    2    1    2    0    0  0.31552605252E+01  0.35783419266E+02  0.24355994020E+02  0.47787271803E+02  0.20000003460E+02 0.  0.
        -12    1    1    2    0    0 -0.31552605252E+01 -0.35783419266E+02 -0.24355994020E+02  0.43400728197E+02  0.00000000000E+00 0.  1.
         11    1    3    3    0    0  0.32443394983E+00  0.51159252595E+01  0.14556815344E+00  0.51282686159E+01  0.51100000000E-03 0. -1.
        -11    1    3    3    0    0  0.86408800972E+01  0.84878477005E+01  0.69924146774E+01  0.13985786740E+02  0.51100000000E-03 0.  1.
        -12    1    3    3    0    0 -0.58100535219E+01  0.22179646306E+02  0.17218011189E+02  0.28673216448E+02  0.00000000000E+00 0.  1.
</event>
<event>
 7    1  0.2458979E-009  0.4778728E+02  0.7816164E-02  0.1312668E+00
        -11   -1    0    0    0    0  0.00000000000E+00  0.00000000000E+00  0.45593999997E+02  0.45594000000E+02  0.51100000000E-03 0.  1.
         11   -1    0    0    0    0 -0.00000000000E+00 -0.00000000000E+00 -0.45593999997E+02  0.45594000000E+02  0.51100000000E-03 0. -1.
    9900012    2    1    2    0    0  0.18661359934E+02  0.25876014099E+02 -0.29424621330E+02  0.47787276497E+02  0.20000024859E+02 0.  0.
        -12    1    1    2    0    0 -0.18661359934E+02 -0.25876014099E+02  0.29424621330E+02  0.43400723503E+02  0.00000000000E+00 0.  1.
         11    1    3    3    0    0 -0.13009370673E+01  0.38199311181E+01 -0.18258096246E+01  0.44292089640E+01  0.51100000000E-03 0. -1.
        -11    1    3    3    0    0  0.19786198242E+02  0.19369126821E+02 -0.29187664916E+02  0.40231536115E+02  0.51100000000E-03 0.  1.
        -12    1    3    3    0    0  0.17609875893E+00  0.26869561599E+01  0.15888532109E+01  0.31265314174E+01  0.00000000000E+00 0.  1.
</event>
<event>
 7    1  0.2458979E-009  0.4778727E+02  0.7816164E-02  0.1312668E+00
        -11   -1    0    0    0    0  0.00000000000E+00  0.00000000000E+00  0.45593999997E+02  0.45594000000E+02  0.51100000000E-03 0.  1.
         11   -1    0    0    0    0 -0.00000000000E+00 -0.00000000000E+00 -0.45593999997E+02  0.45594000000E+02  0.51100000000E-03 0. -1.
    9900012    2    1    2    0    0  0.27811348285E+02  0.38906251519E+01 -0.33091011298E+02  0.47787273207E+02  0.20000009858E+02 0.  0.
        -12    1    1    2    0    0 -0.27811348285E+02 -0.38906251519E+01  0.33091011298E+02  0.43400726793E+02  0.00000000000E+00 0.  1.
         11    1    3    3    0    0  0.23766083081E+01  0.19071733818E+01  0.19642159210E+01  0.36254271202E+01  0.51100000000E-03 0.  1.
        -11    1    3    3    0    0  0.25715955084E+02  0.26000562303E+01 -0.34960335259E+02  0.43477530749E+02  0.51100000000E-03 0. -1.
         12    1    3    3    0    0 -0.28121510803E+00 -0.61660446016E+00 -0.94891959530E-01  0.68431533759E+00  0.00000000000E+00 0. -1.
</event>
<event>
 7    1  0.2458979E-009  0.4778727E+02  0.7816164E-02  0.1312668E+00
        -11   -1    0    0    0    0  0.00000000000E+00  0.00000000000E+00  0.45593999997E+02  0.45594000000E+02  0.51100000000E-03 0. -1.
         11   -1    0    0    0    0 -0.00000000000E+00 -0.00000000000E+00 -0.45593999997E+02  0.45594000000E+02  0.51100000000E-03 0.  1.
    9900012    2    1    2    0    0  0.75755202098E+01  0.37402509540E+02  0.20670918264E+02  0.47787273183E+02  0.20000009750E+02 0.  0.
        -12    1    1    2    0    0 -0.75755202098E+01 -0.37402509540E+02 -0.20670918264E+02  0.43400726817E+02  0.00000000000E+00 0.  1.
         11    1    3    3    0    0  0.49448221158E+00  0.21187263280E+02  0.13569380988E+02  0.25164910860E+02  0.51100000000E-03 0. -1.
        -11    1    3    3    0    0  0.26964605792E+01  0.33374213818E+01 -0.33693719919E+01  0.54554513118E+01  0.51100000000E-03 0.  1.
        -12    1    3    3    0    0  0.43845774190E+01  0.12877824878E+02  0.10470909268E+02  0.17166911011E+02  0.00000000000E+00 0.  1.
</event>
<event>
 7    1  0.2458979E-009  0.4778727E+02  0.7816164E-02  0.1312668E+00
        -11   -1    0    0    0    0  0.00000000000E+00  0.00000000000E+00  0.45593999997E+02  0.45594000000E+02  0.51100000000E-03 0. -1.
         11   -1    0    0    0    0 -0.00000000000E+00 -0.00000000000E+00 -0.45593999997E+02  0.45594000000E+02  0.51100000000E-03 0.  1.
    9900012    2    1    2    0    0 -0.39649651955E+02 -0.11256678317E+02 -0.13594692135E+02  0.47787270040E+02  0.19999995418E+02 0.  0.
        -12    1    1    2    0    0  0.39649651955E+02  0.11256678317E+02  0.13594692135E+02  0.43400729960E+02  0.00000000000E+00 0.  1.
         11    1    3    3    0    0 -0.10847035054E+02 -0.10149037596E+02 -0.34104233993E+01  0.15241132556E+02  0.51100000000E-03 0.  1.
        -11    1    3    3    0    0 -0.17059551391E+02  0.46553064472E+01 -0.74162665084E+01  0.19175536002E+02  0.51100000000E-03 0. -1.
         12    1    3    3    0    0 -0.11743065510E+02 -0.57629471687E+01 -0.27680022272E+01  0.13370601481E+02  0.00000000000E+00 0. -1.
</event>
<event>
 7    1  0.2458979E-009  0.4778727E+02  0.7816164E-02  0.1312668E+00
        -11   -1    0    0    0    0  0.00000000000E+00  0.00000000000E+00  0.45593999997E+02  0.45594000000E+02  0.51100000000E-03 0.  1.
         11   -1    0    0    0    0 -0.00000000000E+00 -0.00000000000E+00 -0.45593999997E+02  0.45594000000E+02  0.51100000000E-03 0. -1.
    9900012    2    1    2    0    0 -0.40312304366E+02  0.29447921755E+01 -0.15807263390E+02  0.47787271203E+02  0.20000000722E+02 0.  0.
        -12    1    1    2    0    0  0.40312304366E+02 -0.29447921755E+01  0.15807263390E+02  0.43400728797E+02  0.00000000000E+00 0.  1.
         11    1    3    3    0    0 -0.38972748754E+02 -0.24283652820E+01 -0.14200285325E+02  0.41550213080E+02  0.51100000000E-03 0. -1.
        -11    1    3    3    0    0 -0.18920469701E+01  0.45296458330E+01 -0.17646382804E+01  0.52164625592E+01  0.51100000000E-03 0.  1.
         12    1    3    3    0    0  0.55249135831E+00  0.84351162448E+00  0.15766021508E+00  0.10205955639E+01  0.00000000000E+00 0. -1.
</event>
<event>
 7    1  0.2458979E-009  0.4778727E+02  0.7816164E-02  0.1312668E+00
        -11   -1    0    0    0    0  0.00000000000E+00  0.00000000000E+00  0.45593999997E+02  0.45594000000E+02  0.51100000000E-03 0.  1.
         11   -1    0    0    0    0 -0.00000000000E+00 -0.00000000000E+00 -0.45593999997E+02  0.45594000000E+02  0.51100000000E-03 0. -1.
    9900012    2    1    2    0    0 -0.28065799898E+02  0.61186075572E+01 -0.32534544981E+02  0.47787273054E+02  0.20000009161E+02 0.  0.
        -12    1    1    2    0    0  0.28065799898E+02 -0.61186075572E+01  0.32534544981E+02  0.43400726946E+02  0.00000000000E+00 0.  1.
         11    1    3    3    0    0 -0.20038174369E+02  0.64328653614E+01 -0.20788059281E+02  0.29581304868E+02  0.51100000000E-03 0. -1.
        -11    1    3    3    0    0 -0.15341402638E+01 -0.25321574111E+01  0.14766505905E+01  0.33084595707E+01  0.51100000000E-03 0.  1.
         12    1    3    3    0    0 -0.64934852653E+01  0.22178996069E+01 -0.13223136291E+02  0.14897508614E+02  0.00000000000E+00 0. -1.
</event>
<event>
 7    1  0.2458979E-009  0.4778727E+02  0.7816164E-02  0.1312668E+00
        -11   -1    0    0    0    0  0.00000000000E+00  0.00000000000E+00  0.45593999997E+02  0.45594000000E+02  0.51100000000E-03 0.  1.
         11   -1    0    0    0    0 -0.00000000000E+00 -0.00000000000E+00 -0.45593999997E+02  0.45594000000E+02  0.51100000000E-03 0. -1.
    9900012    2    1    2    0    0  0.36143512555E+02  0.21574301588E+02 -0.10574462965E+02  0.47787271252E+02  0.20000000948E+02 0.  0.
        -12    1    1    2    0    0 -0.36143512555E+02 -0.21574301588E+02  0.10574462965E+02  0.43400728748E+02  0.00000000000E+00 0.  1.
         11    1    3    3    0    0  0.59517392749E+01  0.19826172154E+01 -0.67138702881E+01  0.91885812793E+01  0.51100000000E-03 0. -1.
        -11    1    3    3    0    0  0.11542745034E+02  0.14117604623E+02  0.18810964411E+01  0.18332491574E+02  0.51100000000E-03 0.  1.
         12    1    3    3    0    0  0.18649028246E+02  0.54740797490E+01 -0.57416891182E+01  0.20266198399E+02  0.00000000000E+00 0. -1.
</event>
<event>
 7    1  0.2458979E-009  0.4778727E+02  0.7816164E-02  0.1312668E+00
        -11   -1    0    0    0    0  0.00000000000E+00  0.00000000000E+00  0.45593999997E+02  0.45594000000E+02  0.51100000000E-03 0.  1.
         11   -1    0    0    0    0 -0.00000000000E+00 -0.00000000000E+00 -0.45593999997E+02  0.45594000000E+02  0.51100000000E-03 0. -1.
    9900012    2    1    2    0    0  0.11696276504E+02  0.14737816524E+02 -0.39110318656E+02  0.47787272526E+02  0.20000006753E+02 0.  0.
        -12    1    1    2    0    0 -0.11696276504E+02 -0.14737816524E+02  0.39110318656E+02  0.43400727474E+02  0.00000000000E+00 0.  1.
         11    1    3    3    0    0  0.10263522791E+02  0.36721784292E+01 -0.88338341482E+01  0.14030731289E+02  0.51100000000E-03 0. -1.
        -11    1    3    3    0    0 -0.26296300603E+01  0.89149292117E+01 -0.13706137250E+02  0.16560468462E+02  0.51100000000E-03 0.  1.
         12    1    3    3    0    0  0.40623837730E+01  0.21507088834E+01 -0.16570347257E+02  0.17196072774E+02  0.00000000000E+00 0. -1.
</event>
<event>
 7    1  0.2458979E-009  0.4778727E+02  0.7816164E-02  0.1312668E+00
        -11   -1    0    0    0    0  0.00000000000E+00  0.00000000000E+00  0.45593999997E+02  0.45594000000E+02  0.51100000000E-03 0. -1.
         11   -1    0    0    0    0 -0.00000000000E+00 -0.00000000000E+00 -0.45593999997E+02  0.45594000000E+02  0.51100000000E-03 0.  1.
    9900012    2    1    2    0    0 -0.18046525924E+02 -0.24141327384E+02  0.31227274013E+02  0.47787269268E+02  0.19999991903E+02 0.  0.
        -12    1    1    2    0    0  0.18046525924E+02  0.24141327384E+02 -0.31227274013E+02  0.43400730732E+02  0.00000000000E+00 0.  1.
         11    1    3    3    0    0 -0.11449100652E+02 -0.56593421697E+01  0.54538052707E+01  0.13887190203E+02  0.51100000000E-03 0. -1.
        -11    1    3    3    0    0 -0.58863986694E+01 -0.19529700681E+02  0.22393489479E+02  0.30290712591E+02  0.51100000000E-03 0.  1.
        -12    1    3    3    0    0 -0.71102660246E+00  0.10477154669E+01  0.33799792631E+01  0.36093664746E+01  0.00000000000E+00 0.  1.
</event>
<event>
 7    1  0.2458979E-009  0.4778727E+02  0.7816164E-02  0.1312668E+00
        -11   -1    0    0    0    0  0.00000000000E+00  0.00000000000E+00  0.45593999997E+02  0.45594000000E+02  0.51100000000E-03 0.  1.
         11   -1    0    0    0    0 -0.00000000000E+00 -0.00000000000E+00 -0.45593999997E+02  0.45594000000E+02  0.51100000000E-03 0. -1.
    9900012    2    1    2    0    0  0.27492180690E+02 -0.12633054873E+02 -0.31116061873E+02  0.47787269811E+02  0.19999994374E+02 0.  0.
        -12    1    1    2    0    0 -0.27492180690E+02  0.12633054873E+02  0.31116061873E+02  0.43400730189E+02  0.00000000000E+00 0.  1.
         11    1    3    3    0    0  0.10216480854E+02 -0.54963333552E+00 -0.41827013582E+01  0.11053215313E+02  0.51100000000E-03 0. -1.
        -11    1    3    3    0    0  0.11968992708E+02 -0.65034213669E+01 -0.25487211142E+02  0.28898948216E+02  0.51100000000E-03 0.  1.
        -12    1    3    3    0    0  0.53067071283E+01 -0.55800001701E+01 -0.14461493726E+01  0.78351062821E+01  0.00000000000E+00 0.  1.
</event>
<event>
 7    1  0.2458979E-009  0.4778726E+02  0.7816164E-02  0.1312668E+00
        -11   -1    0    0    0    0  0.00000000000E+00  0.00000000000E+00  0.45593999997E+02  0.45594000000E+02  0.51100000000E-03 0.  1.
         11   -1    0    0    0    0 -0.00000000000E+00 -0.00000000000E+00 -0.45593999997E+02  0.45594000000E+02  0.51100000000E-03 0. -1.
    9900012    2    1    2    0    0 -0.27137348647E+02  0.33417188000E+02  0.55208471684E+01  0.47787263844E+02  0.19999967170E+02 0.  0.
        -12    1    1    2    0    0  0.27137348647E+02 -0.33417188000E+02 -0.55208471684E+01  0.43400736156E+02  0.00000000000E+00 0.  1.
         11    1    3    3    0    0 -0.20404099259E+02  0.15598228573E+02  0.62178800874E+01  0.26425253722E+02  0.51100000000E-03 0. -1.
        -11    1    3    3    0    0  0.10906310820E+01 -0.62743487898E+00 -0.40856263394E+00  0.13229037650E+01  0.51100000000E-03 0.  1.
         12    1    3    3    0    0 -0.78238804698E+01  0.18446394306E+02 -0.28847028497E+00  0.20039106357E+02  0.00000000000E+00 0. -1.
</event>
<event>
 7    1  0.2458979E-009  0.4778727E+02  0.7816164E-02  0.1312668E+00
        -11   -1    0    0    0    0  0.00000000000E+00  0.00000000000E+00  0.45593999997E+02  0.45594000000E+02  0.51100000000E-03 0.  1.
         11   -1    0    0    0    0 -0.00000000000E+00 -0.00000000000E+00 -0.45593999997E+02  0.45594000000E+02  0.51100000000E-03 0. -1.
    9900012    2    1    2    0    0  0.11566037449E+02  0.36924671051E+02 -0.19657529123E+02  0.47787274134E+02  0.20000014085E+02 0.  0.
        -12    1    1    2    0    0 -0.11566037449E+02 -0.36924671051E+02  0.19657529123E+02  0.43400725866E+02  0.00000000000E+00 0.  1.
         11    1    3    3    0    0  0.93127283245E+01  0.25750745929E+02 -0.18981392133E+02  0.33318479442E+02  0.51100000000E-03 0. -1.
        -11    1    3    3    0    0 -0.30930605815E+01  0.67802261655E+01 -0.11121260489E+01  0.75349396298E+01  0.51100000000E-03 0.  1.
         12    1    3    3    0    0  0.53463697065E+01  0.43936989563E+01  0.43598905886E+00  0.69338550616E+01  0.00000000000E+00 0. -1.
</event>
<event>
 7    1  0.2458979E-009  0.4778727E+02  0.7816164E-02  0.1312668E+00
        -11   -1    0    0    0    0  0.00000000000E+00  0.00000000000E+00  0.45593999997E+02  0.45594000000E+02  0.51100000000E-03 0. -1.
         11   -1    0    0    0    0 -0.00000000000E+00 -0.00000000000E+00 -0.45593999997E+02  0.45594000000E+02  0.51100000000E-03 0.  1.
    9900012    2    1    2    0    0  0.18712435869E+02  0.14488046306E+02  0.36380827954E+02  0.47787269769E+02  0.19999994187E+02 0.  0.
        -12    1    1    2    0    0 -0.18712435869E+02 -0.14488046306E+02 -0.36380827954E+02  0.43400730231E+02  0.00000000000E+00 0.  1.
         11    1    3    3    0    0 -0.53098748144E+00  0.66390758243E+01  0.22956396925E+01  0.70448021523E+01  0.51100000000E-03 0. -1.
        -11    1    3    3    0    0  0.72822365485E+01  0.11907860883E+01  0.60445214783E+01  0.95386152464E+01  0.51100000000E-03 0.  1.
         12    1    3    3    0    0  0.11961186802E+02  0.66581843936E+01  0.28040666783E+02  0.31203852371E+02  0.00000000000E+00 0. -1.
</event>
<event>
 7    1  0.2458979E-009  0.4778727E+02  0.7816164E-02  0.1312668E+00
        -11   -1    0    0    0    0  0.00000000000E+00  0.00000000000E+00  0.45593999997E+02  0.45594000000E+02  0.51100000000E-03 0. -1.
         11   -1    0    0    0    0 -0.00000000000E+00 -0.00000000000E+00 -0.45593999997E+02  0.45594000000E+02  0.51100000000E-03 0.  1.
    9900012    2    1    2    0    0 -0.19460533827E+02  0.18555240550E+02  0.34067786681E+02  0.47787269384E+02  0.19999992428E+02 0.  0.
        -12    1    1    2    0    0  0.19460533827E+02 -0.18555240550E+02 -0.34067786681E+02  0.43400730616E+02  0.00000000000E+00 0.  1.
         11    1    3    3    0    0 -0.11649269125E+02  0.37684345637E+00  0.81377168218E+01  0.14215129879E+02  0.51100000000E-03 0. -1.
        -11    1    3    3    0    0 -0.32335378235E+01  0.11812409214E+02  0.99778830163E+01  0.15797054411E+02  0.51100000000E-03 0.  1.
         12    1    3    3    0    0 -0.45777268785E+01  0.63659878791E+01  0.15952186843E+02  0.17775085094E+02  0.00000000000E+00 0. -1.
</event>
<event>
 7    1  0.2458979E-009  0.4778727E+02  0.7816164E-02  0.1312668E+00
        -11   -1    0    0    0    0  0.00000000000E+00  0.00000000000E+00  0.45593999997E+02  0.45594000000E+02  0.51100000000E-03 0. -1.
         11   -1    0    0    0    0 -0.00000000000E+00 -0.00000000000E+00 -0.45593999997E+02  0.45594000000E+02  0.51100000000E-03 0.  1.
    9900012    2    1    2    0    0 -0.24113250594E+02 -0.16641267141E+02  0.32019408264E+02  0.47787272681E+02  0.20000007460E+02 0.  0.
        -12    1    1    2    0    0  0.24113250594E+02  0.16641267141E+02 -0.32019408264E+02  0.43400727319E+02  0.00000000000E+00 0.  1.
         11    1    3    3    0    0 -0.17122502947E+02 -0.58470368067E+01  0.23568835680E+02  0.29712925843E+02  0.51100000000E-03 0. -1.
        -11    1    3    3    0    0 -0.80142337780E+01 -0.10168643047E+02  0.41293609192E+01  0.13589733858E+02  0.51100000000E-03 0.  1.
        -12    1    3    3    0    0  0.10234861317E+01 -0.62558728681E+00  0.43212116652E+01  0.44846129789E+01  0.00000000000E+00 0.  1.
</event>
<event>
 7    1  0.2458979E-009  0.4778727E+02  0.7816164E-02  0.1312668E+00
        -11   -1    0    0    0    0  0.00000000000E+00  0.00000000000E+00  0.45593999997E+02  0.45594000000E+02  0.51100000000E-03 0.  1.
         11   -1    0    0    0    0 -0.00000000000E+00 -0.00000000000E+00 -0.45593999997E+02  0.45594000000E+02  0.51100000000E-03 0. -1.
    9900012    2    1    2    0    0 -0.21494206061E+02 -0.16966010919E+02 -0.33671603670E+02  0.47787270577E+02  0.19999997869E+02 0.  0.
        -12    1    1    2    0    0  0.21494206061E+02  0.16966010919E+02  0.33671603670E+02  0.43400729423E+02  0.00000000000E+00 0.  1.
         11    1    3    3    0    0 -0.11553381345E+02 -0.12612275499E+02 -0.19097006308E+02  0.25636804871E+02  0.51100000000E-03 0. -1.
        -11    1    3    3    0    0 -0.24832960350E+01  0.35553657002E+01 -0.49821720484E+00  0.43652726265E+01  0.51100000000E-03 0.  1.
        -12    1    3    3    0    0 -0.74575286808E+01 -0.79091011205E+01 -0.14076380157E+02  0.17785193080E+02  0.00000000000E+00 0.  1.
</event>
<event>
 7    1  0.2458979E-009  0.4778728E+02  0.7816164E-02  0.1312668E+00
        -11   -1    0    0    0    0  0.00000000000E+00  0.00000000000E+00  0.45593999997E+02  0.45594000000E+02  0.51100000000E-03 0.  1.
         11   -1    0    0    0    0 -0.00000000000E+00 -0.00000000000E+00 -0.45593999997E+02  0.45594000000E+02  0.51100000000E-03 0. -1.
    9900012    2    1    2    0    0  0.19088940352E+02  0.27618749802E+02 -0.27503447192E+02  0.47787278902E+02  0.20000035825E+02 0.  0.
        -12    1    1    2    0    0 -0.19088940352E+02 -0.27618749802E+02  0.27503447192E+02  0.43400721098E+02  0.00000000000E+00 0.  1.
         11    1    3    3    0    0  0.72868372254E+01  0.10839631133E+02 -0.21083954504E+02  0.24801789001E+02  0.51100000000E-03 0. -1.
        -11    1    3    3    0    0 -0.10622431843E+00  0.33998851561E+01 -0.34223249281E+01  0.48252265082E+01  0.51100000000E-03 0.  1.
         12    1    3    3    0    0  0.11908327445E+02  0.13379233512E+02 -0.29971677603E+01  0.18160263393E+02  0.00000000000E+00 0. -1.
</event>
<event>
 7    1  0.2458979E-009  0.4778727E+02  0.7816164E-02  0.1312668E+00
        -11   -1    0    0    0    0  0.00000000000E+00  0.00000000000E+00  0.45593999997E+02  0.45594000000E+02  0.51100000000E-03 0. -1.
         11   -1    0    0    0    0 -0.00000000000E+00 -0.00000000000E+00 -0.45593999997E+02  0.45594000000E+02  0.51100000000E-03 0.  1.
    9900012    2    1    2    0    0  0.14293074968E+02 -0.29536898877E+02  0.28406037217E+02  0.47787270309E+02  0.19999996648E+02 0.  0.
        -12    1    1    2    0    0 -0.14293074968E+02  0.29536898877E+02 -0.28406037217E+02  0.43400729691E+02  0.00000000000E+00 0.  1.
         11    1    3    3    0    0  0.11644218366E+02 -0.76232615748E+01  0.62661773489E+01  0.15263253821E+02  0.51100000000E-03 0. -1.
        -11    1    3    3    0    0  0.34356655919E+01 -0.18039884113E+02  0.12807798213E+02  0.22389303522E+02  0.51100000000E-03 0.  1.
         12    1    3    3    0    0 -0.78680899000E+00 -0.38737531894E+01  0.93320616558E+01  0.10134712966E+02  0.00000000000E+00 0. -1.
</event>
<event>
 7    1  0.2458979E-009  0.4778727E+02  0.7816164E-02  0.1312668E+00
        -11   -1    0    0    0    0  0.00000000000E+00  0.00000000000E+00  0.45593999997E+02  0.45594000000E+02  0.51100000000E-03 0. -1.
         11   -1    0    0    0    0 -0.00000000000E+00 -0.00000000000E+00 -0.45593999997E+02  0.45594000000E+02  0.51100000000E-03 0.  1.
    9900012    2    1    2    0    0 -0.14806250281E+02 -0.40783349535E+02 -0.10567333522E+01  0.47787270374E+02  0.19999996945E+02 0.  0.
        -12    1    1    2    0    0  0.14806250281E+02  0.40783349535E+02  0.10567333522E+01  0.43400729626E+02  0.00000000000E+00 0.  1.
         11    1    3    3    0    0 -0.10230524187E+02 -0.26208497487E+02  0.29552391470E+01  0.28289263058E+02  0.51100000000E-03 0. -1.
        -11    1    3    3    0    0 -0.27333770182E+01  0.84098440221E+00 -0.26735212877E+01  0.39148845482E+01  0.51100000000E-03 0.  1.
        -12    1    3    3    0    0 -0.18423490755E+01 -0.15415836450E+02 -0.13384512115E+01  0.15583122769E+02  0.00000000000E+00 0.  1.
</event>
<event>
 7    1  0.2458979E-009  0.4778727E+02  0.7816164E-02  0.1312668E+00
        -11   -1    0    0    0    0  0.00000000000E+00  0.00000000000E+00  0.45593999997E+02  0.45594000000E+02  0.51100000000E-03 0.  1.
         11   -1    0    0    0    0 -0.00000000000E+00 -0.00000000000E+00 -0.45593999997E+02  0.45594000000E+02  0.51100000000E-03 0. -1.
    9900012    2    1    2    0    0  0.42250774835E+02  0.77690803288E+01  0.61754840346E+01  0.47787272053E+02  0.20000004597E+02 0.  0.
        -12    1    1    2    0    0 -0.42250774835E+02 -0.77690803288E+01 -0.61754840346E+01  0.43400727947E+02  0.00000000000E+00 0.  1.
         11    1    3    3    0    0  0.47697755071E+01 -0.25625430707E+00 -0.87858943247E+00  0.48567833295E+01  0.51100000000E-03 0.  1.
        -11    1    3    3    0    0  0.32180237269E+02 -0.55504342933E+00  0.42658382303E+01  0.32466492265E+02  0.51100000000E-03 0. -1.
        -12    1    3    3    0    0  0.53007620585E+01  0.85803780652E+01  0.27882352367E+01  0.10463996458E+02  0.00000000000E+00 0.  1.
</event>
<event>
 7    1  0.2458979E-009  0.4778727E+02  0.7816164E-02  0.1312668E+00
        -11   -1    0    0    0    0  0.00000000000E+00  0.00000000000E+00  0.45593999997E+02  0.45594000000E+02  0.51100000000E-03 0.  1.
         11   -1    0    0    0    0 -0.00000000000E+00 -0.00000000000E+00 -0.45593999997E+02  0.45594000000E+02  0.51100000000E-03 0. -1.
    9900012    2    1    2    0    0 -0.22019682982E+02  0.17942997695E+02 -0.32814715169E+02  0.47787272627E+02  0.20000007215E+02 0.  0.
        -12    1    1    2    0    0  0.22019682982E+02 -0.17942997695E+02  0.32814715169E+02  0.43400727373E+02  0.00000000000E+00 0.  1.
         11    1    3    3    0    0 -0.13183094558E+02  0.51593322040E+01 -0.50017510228E+01  0.15014333301E+02  0.51100000000E-03 0. -1.
        -11    1    3    3    0    0 -0.45971930964E+01  0.10838284883E+02 -0.24060777624E+02  0.26786631436E+02  0.51100000000E-03 0.  1.
         12    1    3    3    0    0 -0.42393953275E+01  0.19453806082E+01 -0.37521865218E+01  0.59863078895E+01  0.00000000000E+00 0. -1.
</event>
<event>
 7    1  0.2458979E-009  0.4778728E+02  0.7816164E-02  0.1312668E+00
        -11   -1    0    0    0    0  0.00000000000E+00  0.00000000000E+00  0.45593999997E+02  0.45594000000E+02  0.51100000000E-03 0. -1.
         11   -1    0    0    0    0 -0.00000000000E+00 -0.00000000000E+00 -0.45593999997E+02  0.45594000000E+02  0.51100000000E-03 0.  1.
    9900012    2    1    2    0    0  0.19479348937E+02 -0.37568574936E+02 -0.96322215076E+01  0.47787279396E+02  0.20000038079E+02 0.  0.
        -12    1    1    2    0    0 -0.19479348937E+02  0.37568574936E+02  0.96322215076E+01  0.43400720604E+02  0.00000000000E+00 0.  1.
         11    1    3    3    0    0  0.17394756054E+02 -0.15969064483E+02 -0.10029511418E+02  0.25655012341E+02  0.51100000000E-03 0. -1.
        -11    1    3    3    0    0 -0.50650403491E+00 -0.15415071315E+02  0.26778153451E+00  0.15425714804E+02  0.51100000000E-03 0.  1.
         12    1    3    3    0    0  0.25910969179E+01 -0.61844391376E+01  0.12950837634E+00  0.67065522516E+01  0.00000000000E+00 0. -1.
</event>
<event>
 7    1  0.2458979E-009  0.4778727E+02  0.7816164E-02  0.1312668E+00
        -11   -1    0    0    0    0  0.00000000000E+00  0.00000000000E+00  0.45593999997E+02  0.45594000000E+02  0.51100000000E-03 0. -1.
         11   -1    0    0    0    0 -0.00000000000E+00 -0.00000000000E+00 -0.45593999997E+02  0.45594000000E+02  0.51100000000E-03 0.  1.
    9900012    2    1    2    0    0  0.43345430474E+02 -0.16031651334E+01 -0.14923725574E+01  0.47787266628E+02  0.19999979862E+02 0.  0.
        -12    1    1    2    0    0 -0.43345430474E+02  0.16031651334E+01  0.14923725574E+01  0.43400733372E+02  0.00000000000E+00 0.  1.
         11    1    3    3    0    0  0.40385830874E+02 -0.14574899589E+01 -0.43121863665E+01  0.40641537420E+02  0.51100000000E-03 0. -1.
        -11    1    3    3    0    0 -0.13859638179E+01 -0.51079948727E+00 -0.60958261542E+00  0.15979371223E+01  0.51100000000E-03 0.  1.
        -12    1    3    3    0    0  0.43455634180E+01  0.36512431277E+00  0.34293964245E+01  0.55477920851E+01  0.00000000000E+00 0.  1.
</event>
<event>
 7    1  0.2458979E-009  0.4778728E+02  0.7816164E-02  0.1312668E+00
        -11   -1    0    0    0    0  0.00000000000E+00  0.00000000000E+00  0.45593999997E+02  0.45594000000E+02  0.51100000000E-03 0. -1.
         11   -1    0    0    0    0 -0.00000000000E+00 -0.00000000000E+00 -0.45593999997E+02  0.45594000000E+02  0.51100000000E-03 0.  1.
    9900012    2    1    2    0    0  0.15191035990E+02  0.40043121054E+02 -0.70287498951E+01  0.47787280613E+02  0.20000043628E+02 0.  0.
        -12    1    1    2    0    0 -0.15191035990E+02 -0.40043121054E+02  0.70287498951E+01  0.43400719387E+02  0.00000000000E+00 0.  1.
         11    1    3    3    0    0 -0.32451953075E+01  0.33804885804E+01 -0.24847210260E+01  0.53040394478E+01  0.51100000000E-03 0.  1.
        -11    1    3    3    0    0  0.17675267332E+02  0.34360322852E+02 -0.16053258175E+01  0.38673297415E+02  0.51100000000E-03 0. -1.
        -12    1    3    3    0    0  0.76096396561E+00  0.23023096221E+01 -0.29387030517E+01  0.38099437501E+01  0.00000000000E+00 0.  1.
</event>
<event>
 7    1  0.2458979E-009  0.4778727E+02  0.7816164E-02  0.1312668E+00
        -11   -1    0    0    0    0  0.00000000000E+00  0.00000000000E+00  0.45593999997E+02  0.45594000000E+02  0.51100000000E-03 0.  1.
         11   -1    0    0    0    0 -0.00000000000E+00 -0.00000000000E+00 -0.45593999997E+02  0.45594000000E+02  0.51100000000E-03 0. -1.
    9900012    2    1    2    0    0 -0.41741462800E+02  0.10567656373E+02  0.54404064196E+01  0.47787273049E+02  0.20000009137E+02 0.  0.
        -12    1    1    2    0    0  0.41741462800E+02 -0.10567656373E+02 -0.54404064196E+01  0.43400726951E+02  0.00000000000E+00 0.  1.
         11    1    3    3    0    0 -0.24685841942E+02  0.66126460326E+00  0.16563190792E+01  0.24750180937E+02  0.51100000000E-03 0. -1.
        -11    1    3    3    0    0 -0.13513811204E+00  0.15930226816E+01 -0.26686630131E+01  0.31109076026E+01  0.51100000000E-03 0.  1.
         12    1    3    3    0    0 -0.16920482746E+02  0.83133690886E+01  0.64527503535E+01  0.19926184509E+02  0.00000000000E+00 0. -1.
</event>
<event>
 7    1  0.2458979E-009  0.4778726E+02  0.7816164E-02  0.1312668E+00
        -11   -1    0    0    0    0  0.00000000000E+00  0.00000000000E+00  0.45593999997E+02  0.45594000000E+02  0.51100000000E-03 0.  1.
         11   -1    0    0    0    0 -0.00000000000E+00 -0.00000000000E+00 -0.45593999997E+02  0.45594000000E+02  0.51100000000E-03 0. -1.
    9900012    2    1    2    0    0 -0.26195328185E+02 -0.35371536900E+01 -0.34422625382E+02  0.47787264832E+02  0.19999971676E+02 0.  0.
        -12    1    1    2    0    0  0.26195328185E+02  0.35371536900E+01  0.34422625382E+02  0.43400735168E+02  0.00000000000E+00 0.  1.
         11    1    3    3    0    0 -0.79427099355E+01 -0.34221330784E+01 -0.33411576708E+01  0.92715139415E+01  0.51100000000E-03 0.  1.
        -11    1    3    3    0    0 -0.14312790503E+02  0.58193501620E+01 -0.23391856454E+02  0.28033903704E+02  0.51100000000E-03 0. -1.
        -12    1    3    3    0    0 -0.39398277465E+01 -0.59343707736E+01 -0.76896112570E+01  0.10481847186E+02  0.00000000000E+00 0.  1.
</event>
<event>
 7    1  0.2458979E-009  0.4778727E+02  0.7816164E-02  0.1312668E+00
        -11   -1    0    0    0    0  0.00000000000E+00  0.00000000000E+00  0.45593999997E+02  0.45594000000E+02  0.51100000000E-03 0. -1.
         11   -1    0    0    0    0 -0.00000000000E+00 -0.00000000000E+00 -0.45593999997E+02  0.45594000000E+02  0.51100000000E-03 0.  1.
    9900012    2    1    2    0    0 -0.12903245069E+02 -0.41368479058E+02  0.24038404253E+01  0.47787271415E+02  0.20000001690E+02 0.  0.
        -12    1    1    2    0    0  0.12903245069E+02  0.41368479058E+02 -0.24038404253E+01  0.43400728585E+02  0.00000000000E+00 0.  1.
         11    1    3    3    0    0 -0.10313681856E+02 -0.83504995239E+01 -0.30977741454E+01  0.13627144992E+02  0.51100000000E-03 0. -1.
        -11    1    3    3    0    0 -0.33509204226E+01 -0.25732119026E+02  0.65413803544E+01  0.26761171022E+02  0.51100000000E-03 0.  1.
        -12    1    3    3    0    0  0.76135720902E+00 -0.72858605079E+01 -0.10397657837E+01  0.73989554010E+01  0.00000000000E+00 0.  1.
</event>
<event>
 7    1  0.2458979E-009  0.4778727E+02  0.7816164E-02  0.1312668E+00
        -11   -1    0    0    0    0  0.00000000000E+00  0.00000000000E+00  0.45593999997E+02  0.45594000000E+02  0.51100000000E-03 0.  1.
         11   -1    0    0    0    0 -0.00000000000E+00 -0.00000000000E+00 -0.45593999997E+02  0.45594000000E+02  0.51100000000E-03 0. -1.
    9900012    2    1    2    0    0 -0.38400512680E+02  0.57186238219E+01 -0.19399003582E+02  0.47787269908E+02  0.19999994820E+02 0.  0.
        -12    1    1    2    0    0  0.38400512680E+02 -0.57186238219E+01  0.19399003582E+02  0.43400730092E+02  0.00000000000E+00 0.  1.
         11    1    3    3    0    0 -0.24127514909E+02  0.82531536369E+01 -0.10580497798E+02  0.27607941874E+02  0.51100000000E-03 0. -1.
        -11    1    3    3    0    0 -0.33352648807E+01 -0.46581218716E+01 -0.67387102244E+01  0.88449028793E+01  0.51100000000E-03 0.  1.
        -12    1    3    3    0    0 -0.10937732891E+02  0.21235920566E+01 -0.20797955590E+01  0.11334425155E+02  0.00000000000E+00 0.  1.
</event>
<event>
 7    1  0.2458979E-009  0.4778727E+02  0.7816164E-02  0.1312668E+00
        -11   -1    0    0    0    0  0.00000000000E+00  0.00000000000E+00  0.45593999997E+02  0.45594000000E+02  0.51100000000E-03 0.  1.
         11   -1    0    0    0    0 -0.00000000000E+00 -0.00000000000E+00 -0.45593999997E+02  0.45594000000E+02  0.51100000000E-03 0. -1.
    9900012    2    1    2    0    0 -0.12166401575E+02  0.33857241521E+02 -0.24275277116E+02  0.47787271783E+02  0.20000003369E+02 0.  0.
        -12    1    1    2    0    0  0.12166401575E+02 -0.33857241521E+02  0.24275277116E+02  0.43400728217E+02  0.00000000000E+00 0.  1.
         11    1    3    3    0    0  0.19706494171E+01  0.17460881390E+02 -0.13232819893E+02  0.21997121644E+02  0.51100000000E-03 0. -1.
        -11    1    3    3    0    0 -0.33903932033E+01 -0.14892734118E+00 -0.52909664749E+00  0.34346599467E+01  0.51100000000E-03 0.  1.
         12    1    3    3    0    0 -0.10746657789E+02  0.16545287472E+02 -0.10513360575E+02  0.22355490192E+02  0.00000000000E+00 0. -1.
</event>
<event>
 7    1  0.2458979E-009  0.4778728E+02  0.7816164E-02  0.1312668E+00
        -11   -1    0    0    0    0  0.00000000000E+00  0.00000000000E+00  0.45593999997E+02  0.45594000000E+02  0.51100000000E-03 0. -1.
         11   -1    0    0    0    0 -0.00000000000E+00 -0.00000000000E+00 -0.45593999997E+02  0.45594000000E+02  0.51100000000E-03 0.  1.
    9900012    2    1    2    0    0 -0.41269177302E+02  0.13417556347E+02 -0.66845240931E+00  0.47787278322E+02  0.20000033181E+02 0.  0.
        -12    1    1    2    0    0  0.41269177302E+02 -0.13417556347E+02  0.66845240931E+00  0.43400721678E+02  0.00000000000E+00 0.  1.
         11    1    3    3    0    0 -0.12591639523E+01  0.94742562879E+00  0.50974255024E+01  0.53354340212E+01  0.51100000000E-03 0. -1.
        -11    1    3    3    0    0 -0.27981837357E+02  0.70630915605E+01 -0.34993301298E+01  0.29070875389E+02  0.51100000000E-03 0.  1.
         12    1    3    3    0    0 -0.12028175994E+02  0.54070391575E+01 -0.22665477819E+01  0.13380968912E+02  0.00000000000E+00 0. -1.
</event>
<event>
 7    1  0.2458979E-009  0.4778728E+02  0.7816164E-02  0.1312668E+00
        -11   -1    0    0    0    0  0.00000000000E+00  0.00000000000E+00  0.45593999997E+02  0.45594000000E+02  0.51100000000E-03 0.  1.
         11   -1    0    0    0    0 -0.00000000000E+00 -0.00000000000E+00 -0.45593999997E+02  0.45594000000E+02  0.51100000000E-03 0. -1.
    9900012    2    1    2    0    0  0.22515789734E+02  0.84694854431E+01 -0.36123811481E+02  0.47787277346E+02  0.20000028730E+02 0.  0.
        -12    1    1    2    0    0 -0.22515789734E+02 -0.84694854431E+01  0.36123811481E+02  0.43400722654E+02  0.00000000000E+00 0.  1.
         11    1    3    3    0    0  0.14856112892E+02  0.10966228774E+02 -0.21524618874E+02  0.28359680564E+02  0.51100000000E-03 0. -1.
        -11    1    3    3    0    0 -0.24190257433E+01  0.50150701464E-01 -0.26023747106E+01  0.35533864180E+01  0.51100000000E-03 0.  1.
         12    1    3    3    0    0  0.10078702586E+02 -0.25468940328E+01 -0.11996817896E+02  0.15874210363E+02  0.00000000000E+00 0. -1.
</event>
<event>
 7    1  0.2458979E-009  0.4778727E+02  0.7816164E-02  0.1312668E+00
        -11   -1    0    0    0    0  0.00000000000E+00  0.00000000000E+00  0.45593999997E+02  0.45594000000E+02  0.51100000000E-03 0. -1.
         11   -1    0    0    0    0 -0.00000000000E+00 -0.00000000000E+00 -0.45593999997E+02  0.45594000000E+02  0.51100000000E-03 0.  1.
    9900012    2    1    2    0    0 -0.28598701585E+02 -0.32038162352E+02 -0.62684586327E+01  0.47787272438E+02  0.20000006354E+02 0.  0.
        -12    1    1    2    0    0  0.28598701585E+02  0.32038162352E+02  0.62684586327E+01  0.43400727562E+02  0.00000000000E+00 0.  1.
         11    1    3    3    0    0 -0.99475298936E+01 -0.49837288514E+01  0.46406483999E+01  0.12055145046E+02  0.51100000000E-03 0.  1.
        -11    1    3    3    0    0 -0.12340518912E+02 -0.12650332233E+02 -0.91711407944E+01  0.19910528280E+02  0.51100000000E-03 0. -1.
        -12    1    3    3    0    0 -0.63106527793E+01 -0.14404101267E+02 -0.17379662382E+01  0.15821599112E+02  0.00000000000E+00 0.  1.
</event>
<event>
 7    1  0.2458979E-009  0.4778726E+02  0.7816164E-02  0.1312668E+00
        -11   -1    0    0    0    0  0.00000000000E+00  0.00000000000E+00  0.45593999997E+02  0.45594000000E+02  0.51100000000E-03 0.  1.
         11   -1    0    0    0    0 -0.00000000000E+00 -0.00000000000E+00 -0.45593999997E+02  0.45594000000E+02  0.51100000000E-03 0. -1.
    9900012    2    1    2    0    0 -0.24233743619E+02 -0.65190768716E+01 -0.35409760195E+02  0.47787264867E+02  0.19999971835E+02 0.  0.
        -12    1    1    2    0    0  0.24233743619E+02  0.65190768716E+01  0.35409760195E+02  0.43400735133E+02  0.00000000000E+00 0.  1.
         11    1    3    3    0    0 -0.13623045098E+02 -0.67610273273E+01 -0.63129367550E+01  0.16466694234E+02  0.51100000000E-03 0. -1.
        -11    1    3    3    0    0 -0.51433493138E+01 -0.11775150626E+01 -0.19337493694E+02  0.20044431808E+02  0.51100000000E-03 0.  1.
        -12    1    3    3    0    0 -0.54673492066E+01  0.14194655184E+01 -0.97593297456E+01  0.11276138824E+02  0.00000000000E+00 0.  1.
</event>
<event>
 7    1  0.2458979E-009  0.4778727E+02  0.7816164E-02  0.1312668E+00
        -11   -1    0    0    0    0  0.00000000000E+00  0.00000000000E+00  0.45593999997E+02  0.45594000000E+02  0.51100000000E-03 0. -1.
         11   -1    0    0    0    0 -0.00000000000E+00 -0.00000000000E+00 -0.45593999997E+02  0.45594000000E+02  0.51100000000E-03 0.  1.
    9900012    2    1    2    0    0 -0.14872221889E+02 -0.38750509166E+02  0.12682198511E+02  0.47787273006E+02  0.20000008944E+02 0.  0.
        -12    1    1    2    0    0  0.14872221889E+02  0.38750509166E+02 -0.12682198511E+02  0.43400726994E+02  0.00000000000E+00 0.  1.
         11    1    3    3    0    0 -0.12614497713E+02 -0.35146194662E+02  0.37575713953E+01  0.37529986608E+02  0.51100000000E-03 0. -1.
        -11    1    3    3    0    0 -0.28220081760E+01 -0.26207859532E+01  0.75483087223E+01  0.84740317432E+01  0.51100000000E-03 0.  1.
         12    1    3    3    0    0  0.56428399979E+00 -0.98352855083E+00  0.13763183937E+01  0.17832546547E+01  0.00000000000E+00 0. -1.
</event>
<event>
 7    1  0.2458979E-009  0.4778727E+02  0.7816164E-02  0.1312668E+00
        -11   -1    0    0    0    0  0.00000000000E+00  0.00000000000E+00  0.45593999997E+02  0.45594000000E+02  0.51100000000E-03 0.  1.
         11   -1    0    0    0    0 -0.00000000000E+00 -0.00000000000E+00 -0.45593999997E+02  0.45594000000E+02  0.51100000000E-03 0. -1.
    9900012    2    1    2    0    0 -0.40600026544E+02 -0.10780048920E+02 -0.10911083994E+02  0.47787270006E+02  0.19999995267E+02 0.  0.
        -12    1    1    2    0    0  0.40600026544E+02  0.10780048920E+02  0.10911083994E+02  0.43400729994E+02  0.00000000000E+00 0.  1.
         11    1    3    3    0    0 -0.28393791099E+02 -0.51325799329E+01  0.11461007443E+00  0.28854183154E+02  0.51100000000E-03 0. -1.
        -11    1    3    3    0    0 -0.95849598831E+01 -0.56611271986E+01 -0.11777752159E+02  0.16206025525E+02  0.51100000000E-03 0.  1.
        -12    1    3    3    0    0 -0.26212755613E+01  0.13658211609E-01  0.75205809056E+00  0.27270613280E+01  0.00000000000E+00 0.  1.
</event>
<event>
 7    1  0.2458979E-009  0.4778727E+02  0.7816164E-02  0.1312668E+00
        -11   -1    0    0    0    0  0.00000000000E+00  0.00000000000E+00  0.45593999997E+02  0.45594000000E+02  0.51100000000E-03 0.  1.
         11   -1    0    0    0    0 -0.00000000000E+00 -0.00000000000E+00 -0.45593999997E+02  0.45594000000E+02  0.51100000000E-03 0. -1.
    9900012    2    1    2    0    0  0.96670486608E+01 -0.91284249284E+01 -0.41313959388E+02  0.47787271760E+02  0.20000003262E+02 0.  0.
        -12    1    1    2    0    0 -0.96670486608E+01  0.91284249284E+01  0.41313959388E+02  0.43400728240E+02  0.00000000000E+00 0.  1.
         11    1    3    3    0    0  0.12918434282E+02 -0.39466914851E+01 -0.13992230232E+02  0.19448517298E+02  0.51100000000E-03 0. -1.
        -11    1    3    3    0    0 -0.41478601620E+01 -0.40898089667E+01 -0.24501894552E+02  0.25184799348E+02  0.51100000000E-03 0.  1.
         12    1    3    3    0    0  0.89647454082E+00 -0.10919244766E+01 -0.28198346035E+01  0.31539551132E+01  0.00000000000E+00 0. -1.
</event>
<event>
 7    1  0.2458979E-009  0.4778727E+02  0.7816164E-02  0.1312668E+00
        -11   -1    0    0    0    0  0.00000000000E+00  0.00000000000E+00  0.45593999997E+02  0.45594000000E+02  0.51100000000E-03 0.  1.
         11   -1    0    0    0    0 -0.00000000000E+00 -0.00000000000E+00 -0.45593999997E+02  0.45594000000E+02  0.51100000000E-03 0. -1.
    9900012    2    1    2    0    0 -0.41149980949E+02 -0.13450499277E+02 -0.30637264923E+01  0.47787270940E+02  0.19999999526E+02 0.  0.
        -12    1    1    2    0    0  0.41149980949E+02  0.13450499277E+02  0.30637264923E+01  0.43400729060E+02  0.00000000000E+00 0.  1.
         11    1    3    3    0    0 -0.25232273811E+02 -0.15209621582E+02 -0.47586456412E+01  0.29843675024E+02  0.51100000000E-03 0. -1.
        -11    1    3    3    0    0 -0.87105633005E+01  0.59036384816E+00  0.48528601881E+01  0.99886282718E+01  0.51100000000E-03 0.  1.
         12    1    3    3    0    0 -0.72071438376E+01  0.11687584567E+01 -0.31579410392E+01  0.79549676450E+01  0.00000000000E+00 0. -1.
</event>
<event>
 7    1  0.2458979E-009  0.4778727E+02  0.7816164E-02  0.1312668E+00
        -11   -1    0    0    0    0  0.00000000000E+00  0.00000000000E+00  0.45593999997E+02  0.45594000000E+02  0.51100000000E-03 0.  1.
         11   -1    0    0    0    0 -0.00000000000E+00 -0.00000000000E+00 -0.45593999997E+02  0.45594000000E+02  0.51100000000E-03 0. -1.
    9900012    2    1    2    0    0 -0.14314237162E+02  0.38670238208E+02  0.13540244594E+02  0.47787274980E+02  0.20000017946E+02 0.  0.
        -12    1    1    2    0    0  0.14314237162E+02 -0.38670238208E+02 -0.13540244594E+02  0.43400725020E+02  0.00000000000E+00 0.  1.
         11    1    3    3    0    0 -0.16740383287E+01  0.79878349330E+01  0.78255967792E+00  0.81987993727E+01  0.51100000000E-03 0. -1.
        -11    1    3    3    0    0 -0.16738530188E+02  0.20307874695E+02  0.92474479691E+01  0.27894505941E+02  0.51100000000E-03 0.  1.
        -12    1    3    3    0    0  0.40983313550E+01  0.10374528580E+02  0.35102369467E+01  0.11693969667E+02  0.00000000000E+00 0.  1.
</event>
<event>
 7    1  0.2458979E-009  0.4778727E+02  0.7816164E-02  0.1312668E+00
        -11   -1    0    0    0    0  0.00000000000E+00  0.00000000000E+00  0.45593999997E+02  0.45594000000E+02  0.51100000000E-03 0.  1.
         11   -1    0    0    0    0 -0.00000000000E+00 -0.00000000000E+00 -0.45593999997E+02  0.45594000000E+02  0.51100000000E-03 0. -1.
    9900012    2    1    2    0    0 -0.32995857188E+02 -0.19595641502E+02 -0.20270850862E+02  0.47787272447E+02  0.20000006395E+02 0.  0.
        -12    1    1    2    0    0  0.32995857188E+02  0.19595641502E+02  0.20270850862E+02  0.43400727553E+02  0.00000000000E+00 0.  1.
         11    1    3    3    0    0 -0.82343039572E+01 -0.84918402192E+01 -0.11762887155E+02  0.16681745306E+02  0.51100000000E-03 0. -1.
        -11    1    3    3    0    0 -0.66395873849E+01 -0.12622713176E+01  0.31060849250E+01  0.74380920499E+01  0.51100000000E-03 0.  1.
        -12    1    3    3    0    0 -0.18121965846E+02 -0.98415299655E+01 -0.11614048632E+02  0.23667435092E+02  0.00000000000E+00 0.  1.
</event>
<event>
 7    1  0.2458979E-009  0.4778728E+02  0.7816164E-02  0.1312668E+00
        -11   -1    0    0    0    0  0.00000000000E+00  0.00000000000E+00  0.45593999997E+02  0.45594000000E+02  0.51100000000E-03 0.  1.
         11   -1    0    0    0    0 -0.00000000000E+00 -0.00000000000E+00 -0.45593999997E+02  0.45594000000E+02  0.51100000000E-03 0. -1.
    9900012    2    1    2    0    0 -0.14928444982E+02  0.23739969667E+02 -0.33123681154E+02  0.47787275552E+02  0.20000020554E+02 0.  0.
        -12    1    1    2    0    0  0.14928444982E+02 -0.23739969667E+02  0.33123681154E+02  0.43400724448E+02  0.00000000000E+00 0.  1.
         11    1    3    3    0    0 -0.43714659635E+01  0.39796958686E+01 -0.69670611640E+01  0.91371568554E+01  0.51100000000E-03 0. -1.
        -11    1    3    3    0    0 -0.27844504530E+01  0.12157602808E+02 -0.24713173407E+02  0.27682149672E+02  0.51100000000E-03 0.  1.
        -12    1    3    3    0    0 -0.77725285659E+01  0.76026709904E+01 -0.14434465831E+01  0.10967969025E+02  0.00000000000E+00 0.  1.
</event>
<event>
 7    1  0.2458979E-009  0.4778727E+02  0.7816164E-02  0.1312668E+00
        -11   -1    0    0    0    0  0.00000000000E+00  0.00000000000E+00  0.45593999997E+02  0.45594000000E+02  0.51100000000E-03 0.  1.
         11   -1    0    0    0    0 -0.00000000000E+00 -0.00000000000E+00 -0.45593999997E+02  0.45594000000E+02  0.51100000000E-03 0. -1.
    9900012    2    1    2    0    0  0.35957159709E+02  0.19823518171E+02 -0.14061801563E+02  0.47787268782E+02  0.19999989685E+02 0.  0.
        -12    1    1    2    0    0 -0.35957159709E+02 -0.19823518171E+02  0.14061801563E+02  0.43400731218E+02  0.00000000000E+00 0.  1.
         11    1    3    3    0    0  0.15354432439E+02  0.14686871229E+02 -0.29106205741E+01  0.21446083428E+02  0.51100000000E-03 0.  1.
        -11    1    3    3    0    0  0.31645830558E+01  0.46054372623E+01  0.87126700401E-01  0.55885802864E+01  0.51100000000E-03 0. -1.
         12    1    3    3    0    0  0.17438144215E+02  0.53120967968E+00 -0.11238307689E+02  0.20752605068E+02  0.00000000000E+00 0. -1.
</event>
<event>
 7    1  0.2458979E-009  0.4778727E+02  0.7816164E-02  0.1312668E+00
        -11   -1    0    0    0    0  0.00000000000E+00  0.00000000000E+00  0.45593999997E+02  0.45594000000E+02  0.51100000000E-03 0.  1.
         11   -1    0    0    0    0 -0.00000000000E+00 -0.00000000000E+00 -0.45593999997E+02  0.45594000000E+02  0.51100000000E-03 0. -1.
    9900012    2    1    2    0    0  0.19522797625E+02  0.33780374078E+02 -0.19009727258E+02  0.47787273849E+02  0.20000012788E+02 0.  0.
        -12    1    1    2    0    0 -0.19522797625E+02 -0.33780374078E+02  0.19009727258E+02  0.43400726151E+02  0.00000000000E+00 0.  1.
         11    1    3    3    0    0  0.42720653299E+01  0.97154908130E+01 -0.57436598984E+01  0.12067764218E+02  0.51100000000E-03 0. -1.
        -11    1    3    3    0    0  0.66929418670E+01  0.19341325358E+02 -0.16428511113E+01  0.20532444995E+02  0.51100000000E-03 0.  1.
        -12    1    3    3    0    0  0.85577904282E+01  0.47235579074E+01 -0.11623216248E+02  0.15187064637E+02  0.00000000000E+00 0.  1.
</event>
<event>
 7    1  0.2458979E-009  0.4778727E+02  0.7816164E-02  0.1312668E+00
        -11   -1    0    0    0    0  0.00000000000E+00  0.00000000000E+00  0.45593999997E+02  0.45594000000E+02  0.51100000000E-03 0.  1.
         11   -1    0    0    0    0 -0.00000000000E+00 -0.00000000000E+00 -0.45593999997E+02  0.45594000000E+02  0.51100000000E-03 0. -1.
    9900012    2    1    2    0    0 -0.39471280574E+02 -0.17696351158E+02 -0.35328274240E+01  0.47787266088E+02  0.19999977403E+02 0.  0.
        -12    1    1    2    0    0  0.39471280574E+02  0.17696351158E+02  0.35328274240E+01  0.43400733912E+02  0.00000000000E+00 0.  1.
         11    1    3    3    0    0 -0.22172932808E+02 -0.12378936331E+02 -0.67095116443E+01  0.26265843995E+02  0.51100000000E-03 0. -1.
        -11    1    3    3    0    0 -0.12147401002E+02 -0.71000461470E+01  0.61008211986E+01  0.15335906427E+02  0.51100000000E-03 0.  1.
        -12    1    3    3    0    0 -0.51509467647E+01  0.17826313196E+01 -0.29241369783E+01  0.61855156666E+01  0.00000000000E+00 0.  1.
</event>
<event>
 7    1  0.2458979E-009  0.4778727E+02  0.7816164E-02  0.1312668E+00
        -11   -1    0    0    0    0  0.00000000000E+00  0.00000000000E+00  0.45593999997E+02  0.45594000000E+02  0.51100000000E-03 0.  1.
         11   -1    0    0    0    0 -0.00000000000E+00 -0.00000000000E+00 -0.45593999997E+02  0.45594000000E+02  0.51100000000E-03 0. -1.
    9900012    2    1    2    0    0 -0.24972350033E+02  0.24700591656E+02 -0.25492859038E+02  0.47787270095E+02  0.19999995672E+02 0.  0.
        -12    1    1    2    0    0  0.24972350033E+02 -0.24700591656E+02  0.25492859038E+02  0.43400729905E+02  0.00000000000E+00 0.  1.
         11    1    3    3    0    0 -0.54589745448E+01  0.15284145789E+02 -0.12970389289E+02  0.20775863741E+02  0.51100000000E-03 0. -1.
        -11    1    3    3    0    0 -0.18188587262E+02  0.10485677474E+02 -0.13583199200E+02  0.25005548173E+02  0.51100000000E-03 0.  1.
        -12    1    3    3    0    0 -0.13247882267E+01 -0.10692316075E+01  0.10607294512E+01  0.20058581816E+01  0.00000000000E+00 0.  1.
</event>
<event>
 7    1  0.2458979E-009  0.4778727E+02  0.7816164E-02  0.1312668E+00
        -11   -1    0    0    0    0  0.00000000000E+00  0.00000000000E+00  0.45593999997E+02  0.45594000000E+02  0.51100000000E-03 0.  1.
         11   -1    0    0    0    0 -0.00000000000E+00 -0.00000000000E+00 -0.45593999997E+02  0.45594000000E+02  0.51100000000E-03 0. -1.
    9900012    2    1    2    0    0 -0.29557702523E+02 -0.31735627137E+02 -0.16778456153E+01  0.47787274498E+02  0.20000015745E+02 0.  0.
        -12    1    1    2    0    0  0.29557702523E+02  0.31735627137E+02  0.16778456153E+01  0.43400725502E+02  0.00000000000E+00 0.  1.
         11    1    3    3    0    0 -0.14125907104E+02 -0.64044151456E+01 -0.31331117754E+01  0.15823216314E+02  0.51100000000E-03 0. -1.
        -11    1    3    3    0    0 -0.14933194074E+02 -0.20443579358E+02  0.51268559111E+01  0.25830696351E+02  0.51100000000E-03 0.  1.
        -12    1    3    3    0    0 -0.49860134496E+00 -0.48876326342E+01 -0.36715897510E+01  0.61333618325E+01  0.00000000000E+00 0.  1.
</event>
<event>
 7    1  0.2458979E-009  0.4778727E+02  0.7816164E-02  0.1312668E+00
        -11   -1    0    0    0    0  0.00000000000E+00  0.00000000000E+00  0.45593999997E+02  0.45594000000E+02  0.51100000000E-03 0.  1.
         11   -1    0    0    0    0 -0.00000000000E+00 -0.00000000000E+00 -0.45593999997E+02  0.45594000000E+02  0.51100000000E-03 0. -1.
    9900012    2    1    2    0    0  0.36217608920E+02 -0.22293623535E+02 -0.86546461507E+01  0.47787265603E+02  0.19999975190E+02 0.  0.
        -12    1    1    2    0    0 -0.36217608920E+02  0.22293623535E+02  0.86546461507E+01  0.43400734397E+02  0.00000000000E+00 0.  1.
         11    1    3    3    0    0  0.65153478289E+01 -0.66292684229E+01 -0.91166331342E+01  0.13019598962E+02  0.51100000000E-03 0. -1.
        -11    1    3    3    0    0  0.97431138449E+01 -0.81724384123E+01  0.36059573153E+01  0.13218167249E+02  0.51100000000E-03 0.  1.
         12    1    3    3    0    0  0.19959147246E+02 -0.74919167002E+01 -0.31439703318E+01  0.21549499393E+02  0.00000000000E+00 0. -1.
</event>
<event>
 7    1  0.2458979E-009  0.4778727E+02  0.7816164E-02  0.1312668E+00
        -11   -1    0    0    0    0  0.00000000000E+00  0.00000000000E+00  0.45593999997E+02  0.45594000000E+02  0.51100000000E-03 0.  1.
         11   -1    0    0    0    0 -0.00000000000E+00 -0.00000000000E+00 -0.45593999997E+02  0.45594000000E+02  0.51100000000E-03 0. -1.
    9900012    2    1    2    0    0 -0.25330165833E+02 -0.12240700050E+02 -0.33048016999E+02  0.47787268826E+02  0.19999989886E+02 0.  0.
        -12    1    1    2    0    0  0.25330165833E+02  0.12240700050E+02  0.33048016999E+02  0.43400731174E+02  0.00000000000E+00 0.  1.
         11    1    3    3    0    0 -0.12208555793E+02 -0.86461757552E+01 -0.21964457839E+02  0.26575225270E+02  0.51100000000E-03 0. -1.
        -11    1    3    3    0    0 -0.46240845450E+01 -0.54400204090E+01 -0.19427705177E-01  0.71397729394E+01  0.51100000000E-03 0.  1.
        -12    1    3    3    0    0 -0.84975254947E+01  0.18454961145E+01 -0.11064131456E+02  0.14072270617E+02  0.00000000000E+00 0.  1.
</event>
<event>
 7    1  0.2458979E-009  0.4778727E+02  0.7816164E-02  0.1312668E+00
        -11   -1    0    0    0    0  0.00000000000E+00  0.00000000000E+00  0.45593999997E+02  0.45594000000E+02  0.51100000000E-03 0.  1.
         11   -1    0    0    0    0 -0.00000000000E+00 -0.00000000000E+00 -0.45593999997E+02  0.45594000000E+02  0.51100000000E-03 0. -1.
    9900012    2    1    2    0    0 -0.34329766348E+02  0.70434476026E+01 -0.25602343721E+02  0.47787274019E+02  0.20000013563E+02 0.  0.
        -12    1    1    2    0    0  0.34329766348E+02 -0.70434476026E+01  0.25602343721E+02  0.43400725981E+02  0.00000000000E+00 0.  1.
         11    1    3    3    0    0 -0.20774399602E+02  0.13212108651E+02 -0.16092955052E+02  0.29412900170E+02  0.51100000000E-03 0. -1.
        -11    1    3    3    0    0 -0.10189014407E+02 -0.34623956390E+01 -0.89932497663E+01  0.14024362366E+02  0.51100000000E-03 0.  1.
         12    1    3    3    0    0 -0.33663523388E+01 -0.27062654094E+01 -0.51613890237E+00  0.43500114830E+01  0.00000000000E+00 0. -1.
</event>
<event>
 7    1  0.2458979E-009  0.4778727E+02  0.7816164E-02  0.1312668E+00
        -11   -1    0    0    0    0  0.00000000000E+00  0.00000000000E+00  0.45593999997E+02  0.45594000000E+02  0.51100000000E-03 0.  1.
         11   -1    0    0    0    0 -0.00000000000E+00 -0.00000000000E+00 -0.45593999997E+02  0.45594000000E+02  0.51100000000E-03 0. -1.
    9900012    2    1    2    0    0  0.23879671832E+02 -0.21717229586E+02 -0.29012867732E+02  0.47787270954E+02  0.19999999589E+02 0.  0.
        -12    1    1    2    0    0 -0.23879671832E+02  0.21717229586E+02  0.29012867732E+02  0.43400729046E+02  0.00000000000E+00 0.  1.
         11    1    3    3    0    0  0.11002198089E+02 -0.58084165242E+00 -0.17004732439E+02  0.20261951175E+02  0.51100000000E-03 0. -1.
        -11    1    3    3    0    0  0.81309762155E+01 -0.13946990263E+02 -0.74773086483E+01  0.17791611970E+02  0.51100000000E-03 0.  1.
         12    1    3    3    0    0  0.47464975272E+01 -0.71893976701E+01 -0.45308266440E+01  0.97337078091E+01  0.00000000000E+00 0. -1.
</event>
<event>
 7    1  0.2458979E-009  0.4778727E+02  0.7816164E-02  0.1312668E+00
        -11   -1    0    0    0    0  0.00000000000E+00  0.00000000000E+00  0.45593999997E+02  0.45594000000E+02  0.51100000000E-03 0. -1.
         11   -1    0    0    0    0 -0.00000000000E+00 -0.00000000000E+00 -0.45593999997E+02  0.45594000000E+02  0.51100000000E-03 0.  1.
    9900012    2    1    2    0    0  0.14723623783E+02  0.32269402090E+02  0.25010478970E+02  0.47787268821E+02  0.19999989863E+02 0.  0.
        -12    1    1    2    0    0 -0.14723623783E+02 -0.32269402090E+02 -0.25010478970E+02  0.43400731179E+02  0.00000000000E+00 0.  1.
         11    1    3    3    0    0  0.14492636115E+02  0.20096749427E+02  0.99186083967E+01  0.26688848455E+02  0.51100000000E-03 0. -1.
        -11    1    3    3    0    0  0.27735191502E-01  0.87172774137E+01  0.42126642061E+01  0.96818507901E+01  0.51100000000E-03 0.  1.
         12    1    3    3    0    0  0.20325247630E+00  0.34553752491E+01  0.10879206368E+02  0.11416569575E+02  0.00000000000E+00 0. -1.
</event>
<event>
 7    1  0.2458979E-009  0.4778727E+02  0.7816164E-02  0.1312668E+00
        -11   -1    0    0    0    0  0.00000000000E+00  0.00000000000E+00  0.45593999997E+02  0.45594000000E+02  0.51100000000E-03 0.  1.
         11   -1    0    0    0    0 -0.00000000000E+00 -0.00000000000E+00 -0.45593999997E+02  0.45594000000E+02  0.51100000000E-03 0. -1.
    9900012    2    1    2    0    0  0.18354936694E+02 -0.17693654210E+02 -0.35123417682E+02  0.47787267633E+02  0.19999984447E+02 0.  0.
        -12    1    1    2    0    0 -0.18354936694E+02  0.17693654210E+02  0.35123417682E+02  0.43400732367E+02  0.00000000000E+00 0.  1.
         11    1    3    3    0    0  0.12184640123E+02 -0.17802620098E+02 -0.16330213529E+02  0.27056877341E+02  0.51100000000E-03 0. -1.
        -11    1    3    3    0    0  0.74281012983E+01  0.44249545155E+00 -0.16291728589E+02  0.17910692667E+02  0.51100000000E-03 0.  1.
        -12    1    3    3    0    0 -0.12578047276E+01 -0.33352956278E+00 -0.25014755638E+01  0.28196976253E+01  0.00000000000E+00 0.  1.
</event>
<event>
 7    1  0.2458979E-009  0.4778727E+02  0.7816164E-02  0.1312668E+00
        -11   -1    0    0    0    0  0.00000000000E+00  0.00000000000E+00  0.45593999997E+02  0.45594000000E+02  0.51100000000E-03 0. -1.
         11   -1    0    0    0    0 -0.00000000000E+00 -0.00000000000E+00 -0.45593999997E+02  0.45594000000E+02  0.51100000000E-03 0.  1.
    9900012    2    1    2    0    0  0.35539866529E+02  0.16657301278E+02  0.18522289558E+02  0.47787274093E+02  0.20000013901E+02 0.  0.
        -12    1    1    2    0    0 -0.35539866529E+02 -0.16657301278E+02 -0.18522289558E+02  0.43400725907E+02  0.00000000000E+00 0.  1.
         11    1    3    3    0    0  0.20002685939E+02  0.15708380713E+02  0.92479068102E+01  0.27062602426E+02  0.51100000000E-03 0. -1.
        -11    1    3    3    0    0  0.65929604048E+01  0.55327012297E+00  0.97229390608E+01  0.11760475287E+02  0.51100000000E-03 0.  1.
         12    1    3    3    0    0  0.89442201851E+01  0.39565044132E+00 -0.44855631298E+00  0.89641963810E+01  0.00000000000E+00 0. -1.
</event>
<event>
 7    1  0.2458979E-009  0.4778726E+02  0.7816164E-02  0.1312668E+00
        -11   -1    0    0    0    0  0.00000000000E+00  0.00000000000E+00  0.45593999997E+02  0.45594000000E+02  0.51100000000E-03 0. -1.
         11   -1    0    0    0    0 -0.00000000000E+00 -0.00000000000E+00 -0.45593999997E+02  0.45594000000E+02  0.51100000000E-03 0.  1.
    9900012    2    1    2    0    0 -0.41367059373E+02 -0.13120335145E+02 -0.49774969548E+00  0.47787256340E+02  0.19999932957E+02 0.  0.
        -12    1    1    2    0    0  0.41367059373E+02  0.13120335145E+02  0.49774969548E+00  0.43400743660E+02  0.00000000000E+00 0.  1.
         11    1    3    3    0    0 -0.24024929297E+02  0.23850296995E+01  0.19681952165E+01  0.24223116791E+02  0.51100000000E-03 0. -1.
        -11    1    3    3    0    0 -0.54245081792E+01 -0.35925833566E+01  0.17029967596E+00  0.65085287432E+01  0.51100000000E-03 0.  1.
         12    1    3    3    0    0 -0.11917621897E+02 -0.11912781488E+02 -0.26362445879E+01  0.17055610806E+02  0.00000000000E+00 0. -1.
</event>
<event>
 7    1  0.2458979E-009  0.4778728E+02  0.7816164E-02  0.1312668E+00
        -11   -1    0    0    0    0  0.00000000000E+00  0.00000000000E+00  0.45593999997E+02  0.45594000000E+02  0.51100000000E-03 0.  1.
         11   -1    0    0    0    0 -0.00000000000E+00 -0.00000000000E+00 -0.45593999997E+02  0.45594000000E+02  0.51100000000E-03 0. -1.
    9900012    2    1    2    0    0 -0.19240835239E+02  0.15141517850E+02 -0.35835003758E+02  0.47787276529E+02  0.20000025005E+02 0.  0.
        -12    1    1    2    0    0  0.19240835239E+02 -0.15141517850E+02  0.35835003758E+02  0.43400723471E+02  0.00000000000E+00 0.  1.
         11    1    3    3    0    0 -0.19332625662E+02  0.71726189658E+01 -0.33160673644E+02  0.39049035258E+02  0.51100000000E-03 0. -1.
        -11    1    3    3    0    0 -0.10059426422E+01  0.47321784959E+01 -0.10339494433E+01  0.49471694563E+01  0.51100000000E-03 0.  1.
         12    1    3    3    0    0  0.10977330654E+01  0.32367203885E+01 -0.16403806713E+01  0.37910718145E+01  0.00000000000E+00 0. -1.
</event>
<event>
 7    1  0.2458979E-009  0.4778727E+02  0.7816164E-02  0.1312668E+00
        -11   -1    0    0    0    0  0.00000000000E+00  0.00000000000E+00  0.45593999997E+02  0.45594000000E+02  0.51100000000E-03 0. -1.
         11   -1    0    0    0    0 -0.00000000000E+00 -0.00000000000E+00 -0.45593999997E+02  0.45594000000E+02  0.51100000000E-03 0.  1.
    9900012    2    1    2    0    0 -0.35054308604E+02 -0.53323901464E+01  0.25027676198E+02  0.47787268298E+02  0.19999987478E+02 0.  0.
        -12    1    1    2    0    0  0.35054308604E+02  0.53323901464E+01 -0.25027676198E+02  0.43400731702E+02  0.00000000000E+00 0.  1.
         11    1    3    3    0    0 -0.62992243381E+00  0.71022850904E+00  0.69805330599E+01  0.70447901934E+01  0.51100000000E-03 0. -1.
        -11    1    3    3    0    0 -0.22059097487E+02  0.95275492731E-01  0.14790056284E+02  0.26558588526E+02  0.51100000000E-03 0.  1.
         12    1    3    3    0    0 -0.12365288683E+02 -0.61378941482E+01  0.32570868543E+01  0.14183889578E+02  0.00000000000E+00 0. -1.
</event>
<event>
 7    1  0.2458979E-009  0.4778729E+02  0.7816164E-02  0.1312668E+00
        -11   -1    0    0    0    0  0.00000000000E+00  0.00000000000E+00  0.45593999997E+02  0.45594000000E+02  0.51100000000E-03 0.  1.
         11   -1    0    0    0    0 -0.00000000000E+00 -0.00000000000E+00 -0.45593999997E+02  0.45594000000E+02  0.51100000000E-03 0. -1.
    9900012    2    1    2    0    0 -0.16729831963E+02 -0.39903414798E+02 -0.33841097242E+01  0.47787285851E+02  0.20000067509E+02 0.  0.
        -12    1    1    2    0    0  0.16729831963E+02  0.39903414798E+02  0.33841097242E+01  0.43400714149E+02  0.00000000000E+00 0.  1.
         11    1    3    3    0    0 -0.23631021951E+01 -0.10675655255E+02  0.43621813522E+01  0.11772106588E+02  0.51100000000E-03 0. -1.
        -11    1    3    3    0    0 -0.10995991145E+02 -0.88543210097E+01 -0.58365889964E+01  0.15276668261E+02  0.51100000000E-03 0.  1.
        -12    1    3    3    0    0 -0.33707386229E+01 -0.20373438533E+02 -0.19097020800E+01  0.20738511001E+02  0.00000000000E+00 0.  1.
</event>
<event>
 7    1  0.2458979E-009  0.4778727E+02  0.7816164E-02  0.1312668E+00
        -11   -1    0    0    0    0  0.00000000000E+00  0.00000000000E+00  0.45593999997E+02  0.45594000000E+02  0.51100000000E-03 0. -1.
         11   -1    0    0    0    0 -0.00000000000E+00 -0.00000000000E+00 -0.45593999997E+02  0.45594000000E+02  0.51100000000E-03 0.  1.
    9900012    2    1    2    0    0 -0.42666473011E+02 -0.30074829586E+01  0.73586789575E+01  0.47787273867E+02  0.20000012868E+02 0.  0.
        -12    1    1    2    0    0  0.42666473011E+02  0.30074829586E+01 -0.73586789575E+01  0.43400726133E+02  0.00000000000E+00 0.  1.
         11    1    3    3    0    0 -0.19666367687E+02 -0.64502918925E+01  0.20948058685E+01  0.20802896322E+02  0.51100000000E-03 0. -1.
        -11    1    3    3    0    0  0.35676069926E+00  0.61294661845E+00  0.32994817742E+01  0.33748425138E+01  0.51100000000E-03 0.  1.
        -12    1    3    3    0    0 -0.23356866023E+02  0.28298623155E+01  0.19643913149E+01  0.23609535031E+02  0.00000000000E+00 0.  1.
</event>
<event>
 7    1  0.2458979E-009  0.4778728E+02  0.7816164E-02  0.1312668E+00
        -11   -1    0    0    0    0  0.00000000000E+00  0.00000000000E+00  0.45593999997E+02  0.45594000000E+02  0.51100000000E-03 0.  1.
         11   -1    0    0    0    0 -0.00000000000E+00 -0.00000000000E+00 -0.45593999997E+02  0.45594000000E+02  0.51100000000E-03 0. -1.
    9900012    2    1    2    0    0  0.17940057152E+02  0.16912585350E+01 -0.39483120177E+02  0.47787276677E+02  0.20000025681E+02 0.  0.
        -12    1    1    2    0    0 -0.17940057152E+02 -0.16912585350E+01  0.39483120177E+02  0.43400723323E+02  0.00000000000E+00 0.  1.
         11    1    3    3    0    0 -0.20658581000E+01 -0.12588805836E+00 -0.10752308516E+02  0.10949692058E+02  0.51100000000E-03 0. -1.
        -11    1    3    3    0    0  0.20490385996E+02  0.17025378865E+01 -0.29477641091E+02  0.35940031693E+02  0.51100000000E-03 0.  1.
        -12    1    3    3    0    0 -0.48447074371E+00  0.11460870681E+00  0.74682943013E+00  0.89755292596E+00  0.00000000000E+00 0.  1.
</event>
<event>
 7    1  0.2458979E-009  0.4778727E+02  0.7816164E-02  0.1312668E+00
        -11   -1    0    0    0    0  0.00000000000E+00  0.00000000000E+00  0.45593999997E+02  0.45594000000E+02  0.51100000000E-03 0.  1.
         11   -1    0    0    0    0 -0.00000000000E+00 -0.00000000000E+00 -0.45593999997E+02  0.45594000000E+02  0.51100000000E-03 0. -1.
    9900012    2    1    2    0    0 -0.40174321321E+02  0.14215412477E+02 -0.82200440837E+01  0.47787272239E+02  0.20000005444E+02 0.  0.
        -12    1    1    2    0    0  0.40174321321E+02 -0.14215412477E+02  0.82200440837E+01  0.43400727761E+02  0.00000000000E+00 0.  1.
         11    1    3    3    0    0 -0.27169028037E+02  0.33185162683E+01  0.59082800235E+00  0.27377321138E+02  0.51100000000E-03 0. -1.
        -11    1    3    3    0    0  0.31040764141E+00  0.60301351216E+00 -0.22427779873E+01  0.23430816377E+01  0.51100000000E-03 0.  1.
         12    1    3    3    0    0 -0.13315700926E+02  0.10293882696E+02 -0.65680940988E+01  0.18066869463E+02  0.00000000000E+00 0. -1.
</event>
<event>
 7    1  0.2458979E-009  0.4778727E+02  0.7816164E-02  0.1312668E+00
        -11   -1    0    0    0    0  0.00000000000E+00  0.00000000000E+00  0.45593999997E+02  0.45594000000E+02  0.51100000000E-03 0.  1.
         11   -1    0    0    0    0 -0.00000000000E+00 -0.00000000000E+00 -0.45593999997E+02  0.45594000000E+02  0.51100000000E-03 0. -1.
    9900012    2    1    2    0    0  0.19644888169E+02  0.56807884117E+01 -0.38280935178E+02  0.47787274358E+02  0.20000015108E+02 0.  0.
        -12    1    1    2    0    0 -0.19644888169E+02 -0.56807884117E+01  0.38280935178E+02  0.43400725642E+02  0.00000000000E+00 0.  1.
         11    1    3    3    0    0  0.83680504356E+01  0.43638997776E+01 -0.40983328802E+01  0.10289034066E+02  0.51100000000E-03 0.  1.
        -11    1    3    3    0    0  0.43719437166E+01 -0.37168093393E+01 -0.21146131320E+02  0.21910897599E+02  0.51100000000E-03 0. -1.
         12    1    3    3    0    0  0.69048940167E+01  0.50336979734E+01 -0.13036470978E+02  0.15587342693E+02  0.00000000000E+00 0. -1.
</event>
<event>
 7    1  0.2458979E-009  0.4778725E+02  0.7816164E-02  0.1312668E+00
        -11   -1    0    0    0    0  0.00000000000E+00  0.00000000000E+00  0.45593999997E+02  0.45594000000E+02  0.51100000000E-03 0.  1.
         11   -1    0    0    0    0 -0.00000000000E+00 -0.00000000000E+00 -0.45593999997E+02  0.45594000000E+02  0.51100000000E-03 0. -1.
    9900012    2    1    2    0    0 -0.43806194292E+01 -0.24171605985E+02 -0.35779445625E+02  0.47787250102E+02  0.19999904513E+02 0.  0.
        -12    1    1    2    0    0  0.43806194292E+01  0.24171605985E+02  0.35779445625E+02  0.43400749898E+02  0.00000000000E+00 0.  1.
         11    1    3    3    0    0  0.71041405336E+00 -0.10898838359E+02 -0.11995107757E+02  0.16222576123E+02  0.51100000000E-03 0. -1.
        -11    1    3    3    0    0 -0.50266594633E+01 -0.52723455885E+01 -0.22257967595E+02  0.23419693744E+02  0.51100000000E-03 0.  1.
        -12    1    3    3    0    0 -0.64374019258E-01 -0.80004220379E+01 -0.15263702728E+01  0.81449802338E+01  0.00000000000E+00 0.  1.
</event>
<event>
 7    1  0.2458979E-009  0.4778727E+02  0.7816164E-02  0.1312668E+00
        -11   -1    0    0    0    0  0.00000000000E+00  0.00000000000E+00  0.45593999997E+02  0.45594000000E+02  0.51100000000E-03 0. -1.
         11   -1    0    0    0    0 -0.00000000000E+00 -0.00000000000E+00 -0.45593999997E+02  0.45594000000E+02  0.51100000000E-03 0.  1.
    9900012    2    1    2    0    0 -0.26298572620E+02  0.32663030347E-01  0.34525453855E+02  0.47787274746E+02  0.20000016876E+02 0.  0.
        -12    1    1    2    0    0  0.26298572620E+02 -0.32663030347E-01 -0.34525453855E+02  0.43400725254E+02  0.00000000000E+00 0.  1.
         11    1    3    3    0    0 -0.18199186910E+02 -0.66061778101E+01  0.18787675817E+02  0.26978301509E+02  0.51100000000E-03 0. -1.
        -11    1    3    3    0    0 -0.51067573280E+01  0.84729537398E+01  0.13112585993E+02  0.16425888931E+02  0.51100000000E-03 0.  1.
        -12    1    3    3    0    0 -0.29926283823E+01 -0.18341128993E+01  0.26251920446E+01  0.43830843060E+01  0.00000000000E+00 0.  1.
</event>
<event>
 7    1  0.2458979E-009  0.4778728E+02  0.7816164E-02  0.1312668E+00
        -11   -1    0    0    0    0  0.00000000000E+00  0.00000000000E+00  0.45593999997E+02  0.45594000000E+02  0.51100000000E-03 0.  1.
         11   -1    0    0    0    0 -0.00000000000E+00 -0.00000000000E+00 -0.45593999997E+02  0.45594000000E+02  0.51100000000E-03 0. -1.
    9900012    2    1    2    0    0 -0.29309619591E+02  0.26440237445E+01 -0.31899498840E+02  0.47787277790E+02  0.20000030756E+02 0.  0.
        -12    1    1    2    0    0  0.29309619591E+02 -0.26440237445E+01  0.31899498840E+02  0.43400722210E+02  0.00000000000E+00 0.  1.
         11    1    3    3    0    0 -0.55982633454E+01 -0.71668830190E+01 -0.45996977410E+01  0.10191270002E+02  0.51100000000E-03 0. -1.
        -11    1    3    3    0    0 -0.11792144495E+02  0.59650066242E+01 -0.12282259286E+02  0.18041337789E+02  0.51100000000E-03 0.  1.
         12    1    3    3    0    0 -0.11919211750E+02  0.38459001392E+01 -0.15017541813E+02  0.19554669998E+02  0.00000000000E+00 0. -1.
</event>
<event>
 7    1  0.2458979E-009  0.4778729E+02  0.7816164E-02  0.1312668E+00
        -11   -1    0    0    0    0  0.00000000000E+00  0.00000000000E+00  0.45593999997E+02  0.45594000000E+02  0.51100000000E-03 0.  1.
         11   -1    0    0    0    0 -0.00000000000E+00 -0.00000000000E+00 -0.45593999997E+02  0.45594000000E+02  0.51100000000E-03 0. -1.
    9900012    2    1    2    0    0  0.97111919863E+01  0.15673140991E+02 -0.39289529509E+02  0.47787288861E+02  0.20000081232E+02 0.  0.
        -12    1    1    2    0    0 -0.97111919863E+01 -0.15673140991E+02  0.39289529509E+02  0.43400711139E+02  0.00000000000E+00 0.  1.
         11    1    3    3    0    0  0.15647410462E+01  0.16209800521E+02 -0.24637892768E+02  0.29533570861E+02  0.51100000000E-03 0. -1.
        -11    1    3    3    0    0  0.39014505080E+01 -0.25886717239E+01 -0.11915402059E+02  0.12802317909E+02  0.51100000000E-03 0.  1.
        -12    1    3    3    0    0  0.42450004321E+01  0.20520121939E+01 -0.27362346819E+01  0.54514000905E+01  0.00000000000E+00 0.  1.
</event>
<event>
 7    1  0.2458979E-009  0.4778727E+02  0.7816164E-02  0.1312668E+00
        -11   -1    0    0    0    0  0.00000000000E+00  0.00000000000E+00  0.45593999997E+02  0.45594000000E+02  0.51100000000E-03 0. -1.
         11   -1    0    0    0    0 -0.00000000000E+00 -0.00000000000E+00 -0.45593999997E+02  0.45594000000E+02  0.51100000000E-03 0.  1.
    9900012    2    1    2    0    0  0.33932343642E+02 -0.10746533495E+02  0.24834081549E+02  0.47787268052E+02  0.19999986357E+02 0.  0.
        -12    1    1    2    0    0 -0.33932343642E+02  0.10746533495E+02 -0.24834081549E+02  0.43400731948E+02  0.00000000000E+00 0.  1.
         11    1    3    3    0    0  0.14926794140E+02 -0.81997249170E+01  0.43667124124E+01  0.17581605432E+02  0.51100000000E-03 0. -1.
        -11    1    3    3    0    0  0.95937555809E+01 -0.61259471817E+00  0.17806111667E+02  0.20235439985E+02  0.51100000000E-03 0.  1.
        -12    1    3    3    0    0  0.94117939213E+01 -0.19342138597E+01  0.26612574700E+01  0.99702226351E+01  0.00000000000E+00 0.  1.
</event>
<event>
 7    1  0.2458979E-009  0.4778727E+02  0.7816164E-02  0.1312668E+00
        -11   -1    0    0    0    0  0.00000000000E+00  0.00000000000E+00  0.45593999997E+02  0.45594000000E+02  0.51100000000E-03 0.  1.
         11   -1    0    0    0    0 -0.00000000000E+00 -0.00000000000E+00 -0.45593999997E+02  0.45594000000E+02  0.51100000000E-03 0. -1.
    9900012    2    1    2    0    0 -0.16100682077E+01  0.38640365503E+02 -0.19696535043E+02  0.47787266613E+02  0.19999979795E+02 0.  0.
        -12    1    1    2    0    0  0.16100682077E+01 -0.38640365503E+02  0.19696535043E+02  0.43400733387E+02  0.00000000000E+00 0.  1.
         11    1    3    3    0    0  0.77755568711E+01  0.20717345716E+02 -0.83659316839E+01  0.23657060497E+02  0.51100000000E-03 0. -1.
        -11    1    3    3    0    0 -0.74032723117E+01  0.17706359049E+02 -0.10963525649E+02  0.22102544800E+02  0.51100000000E-03 0.  1.
        -12    1    3    3    0    0 -0.19823527671E+01  0.21666073835E+00 -0.36707770949E+00  0.20276613163E+01  0.00000000000E+00 0.  1.
</event>
<event>
 7    1  0.2458979E-009  0.4778727E+02  0.7816164E-02  0.1312668E+00
        -11   -1    0    0    0    0  0.00000000000E+00  0.00000000000E+00  0.45593999997E+02  0.45594000000E+02  0.51100000000E-03 0.  1.
         11   -1    0    0    0    0 -0.00000000000E+00 -0.00000000000E+00 -0.45593999997E+02  0.45594000000E+02  0.51100000000E-03 0. -1.
    9900012    2    1    2    0    0 -0.20129222496E+02  0.33901919194E+02  0.18141050233E+02  0.47787269281E+02  0.19999991962E+02 0.  0.
        -12    1    1    2    0    0  0.20129222496E+02 -0.33901919194E+02 -0.18141050233E+02  0.43400730719E+02  0.00000000000E+00 0.  1.
         11    1    3    3    0    0 -0.82232484084E+01  0.62993639014E+01 -0.29519409303E+00  0.10362959990E+02  0.51100000000E-03 0. -1.
        -11    1    3    3    0    0 -0.75548162513E+01  0.26061377089E+02  0.18442120529E+02  0.32808267772E+02  0.51100000000E-03 0.  1.
        -12    1    3    3    0    0 -0.43511578363E+01  0.15411782044E+01 -0.58762034769E-02  0.46160415188E+01  0.00000000000E+00 0.  1.
</event>
<event>
 7    1  0.2458979E-009  0.4778727E+02  0.7816164E-02  0.1312668E+00
        -11   -1    0    0    0    0  0.00000000000E+00  0.00000000000E+00  0.45593999997E+02  0.45594000000E+02  0.51100000000E-03 0.  1.
         11   -1    0    0    0    0 -0.00000000000E+00 -0.00000000000E+00 -0.45593999997E+02  0.45594000000E+02  0.51100000000E-03 0. -1.
    9900012    2    1    2    0    0  0.26550177161E+01  0.41840666018E+02 -0.11221988618E+02  0.47787268664E+02  0.19999989149E+02 0.  0.
        -12    1    1    2    0    0 -0.26550177161E+01 -0.41840666018E+02  0.11221988618E+02  0.43400731336E+02  0.00000000000E+00 0.  1.
         11    1    3    3    0    0  0.31598344096E+01  0.34979402579E+02 -0.38744651321E+01  0.35334892650E+02  0.51100000000E-03 0. -1.
        -11    1    3    3    0    0  0.14493353526E+00 -0.12306075397E+01  0.32646993526E+00  0.12813990503E+01  0.51100000000E-03 0.  1.
         12    1    3    3    0    0 -0.64975022883E+00  0.80918709790E+01 -0.76739934216E+01  0.11170976964E+02  0.00000000000E+00 0. -1.
</event>
<event>
 7    1  0.2458979E-009  0.4778726E+02  0.7816164E-02  0.1312668E+00
        -11   -1    0    0    0    0  0.00000000000E+00  0.00000000000E+00  0.45593999997E+02  0.45594000000E+02  0.51100000000E-03 0. -1.
         11   -1    0    0    0    0 -0.00000000000E+00 -0.00000000000E+00 -0.45593999997E+02  0.45594000000E+02  0.51100000000E-03 0.  1.
    9900012    2    1    2    0    0  0.31784844379E+02  0.59987548683E+01  0.28937221165E+02  0.47787260825E+02  0.19999953404E+02 0.  0.
        -12    1    1    2    0    0 -0.31784844379E+02 -0.59987548683E+01 -0.28937221165E+02  0.43400739175E+02  0.00000000000E+00 0.  1.
         11    1    3    3    0    0  0.21700080096E+02 -0.56726342821E+01  0.17338705040E+02  0.28349655176E+02  0.51100000000E-03 0. -1.
        -11    1    3    3    0    0  0.84849893904E+01  0.83189673294E+01  0.87649473806E+01  0.14765654920E+02  0.51100000000E-03 0.  1.
         12    1    3    3    0    0  0.15997748926E+01  0.33524218210E+01  0.28335687454E+01  0.46719507283E+01  0.00000000000E+00 0. -1.
</event>
<event>
 7    1  0.2458979E-009  0.4778727E+02  0.7816164E-02  0.1312668E+00
        -11   -1    0    0    0    0  0.00000000000E+00  0.00000000000E+00  0.45593999997E+02  0.45594000000E+02  0.51100000000E-03 0. -1.
         11   -1    0    0    0    0 -0.00000000000E+00 -0.00000000000E+00 -0.45593999997E+02  0.45594000000E+02  0.51100000000E-03 0.  1.
    9900012    2    1    2    0    0 -0.41689087294E+02  0.87139673935E+01  0.83492661807E+01  0.47787268752E+02  0.19999989546E+02 0.  0.
        -12    1    1    2    0    0  0.41689087294E+02 -0.87139673935E+01 -0.83492661807E+01  0.43400731248E+02  0.00000000000E+00 0.  1.
         11    1    3    3    0    0 -0.19668322571E+02  0.91114228922E+01  0.12476363463E+02  0.25010409541E+02  0.51100000000E-03 0. -1.
        -11    1    3    3    0    0 -0.11707063975E+02 -0.16027402507E+01 -0.37084477034E+01  0.12384535027E+02  0.51100000000E-03 0.  1.
         12    1    3    3    0    0 -0.10313700748E+02  0.12052847521E+01 -0.41864957916E+00  0.10392324183E+02  0.00000000000E+00 0. -1.
</event>
<event>
 7    1  0.2458979E-009  0.4778727E+02  0.7816164E-02  0.1312668E+00
        -11   -1    0    0    0    0  0.00000000000E+00  0.00000000000E+00  0.45593999997E+02  0.45594000000E+02  0.51100000000E-03 0.  1.
         11   -1    0    0    0    0 -0.00000000000E+00 -0.00000000000E+00 -0.45593999997E+02  0.45594000000E+02  0.51100000000E-03 0. -1.
    9900012    2    1    2    0    0  0.67344910581E+01  0.93438371590E+01 -0.41844501567E+02  0.47787274498E+02  0.20000015748E+02 0.  0.
        -12    1    1    2    0    0 -0.67344910581E+01 -0.93438371590E+01  0.41844501567E+02  0.43400725502E+02  0.00000000000E+00 0.  1.
         11    1    3    3    0    0 -0.21389511123E+01  0.18670488576E+01 -0.16428529699E+02  0.16672059610E+02  0.51100000000E-03 0. -1.
        -11    1    3    3    0    0  0.11670025444E+02  0.21513356031E+01 -0.18111890508E+02  0.21653136419E+02  0.51100000000E-03 0.  1.
        -12    1    3    3    0    0 -0.27965832740E+01  0.53254526982E+01 -0.73040813603E+01  0.94620784697E+01  0.00000000000E+00 0.  1.
</event>
<event>
 7    1  0.2458979E-009  0.4778727E+02  0.7816164E-02  0.1312668E+00
        -11   -1    0    0    0    0  0.00000000000E+00  0.00000000000E+00  0.45593999997E+02  0.45594000000E+02  0.51100000000E-03 0. -1.
         11   -1    0    0    0    0 -0.00000000000E+00 -0.00000000000E+00 -0.45593999997E+02  0.45594000000E+02  0.51100000000E-03 0.  1.
    9900012    2    1    2    0    0 -0.35072624411E+02 -0.21321697893E+02  0.14103890592E+02  0.47787268279E+02  0.19999987391E+02 0.  0.
        -12    1    1    2    0    0  0.35072624411E+02  0.21321697893E+02 -0.14103890592E+02  0.43400731721E+02  0.00000000000E+00 0.  1.
         11    1    3    3    0    0 -0.21533980716E+02 -0.17192466012E+02  0.17490929212E+02  0.32637797382E+02  0.51100000000E-03 0. -1.
        -11    1    3    3    0    0 -0.36437633237E+01 -0.97030811314E+00 -0.28897202279E+01  0.47506833456E+01  0.51100000000E-03 0.  1.
         12    1    3    3    0    0 -0.98948803719E+01 -0.31589237674E+01 -0.49731839211E+00  0.10398787551E+02  0.00000000000E+00 0. -1.
</event>
<event>
 7    1  0.2458979E-009  0.4778728E+02  0.7816164E-02  0.1312668E+00
        -11   -1    0    0    0    0  0.00000000000E+00  0.00000000000E+00  0.45593999997E+02  0.45594000000E+02  0.51100000000E-03 0.  1.
         11   -1    0    0    0    0 -0.00000000000E+00 -0.00000000000E+00 -0.45593999997E+02  0.45594000000E+02  0.51100000000E-03 0. -1.
    9900012    2    1    2    0    0  0.21622499463E+02  0.36299017804E+02 -0.99232586254E+01  0.47787282975E+02  0.20000054396E+02 0.  0.
        -12    1    1    2    0    0 -0.21622499463E+02 -0.36299017804E+02  0.99232586254E+01  0.43400717025E+02  0.00000000000E+00 0.  1.
         11    1    3    3    0    0  0.11254623880E+02  0.18243292975E+02 -0.85786641458E+01  0.23088477127E+02  0.51100000000E-03 0. -1.
        -11    1    3    3    0    0  0.41927667447E+01  0.15266151883E+02  0.36917007290E+01  0.16256178543E+02  0.51100000000E-03 0.  1.
        -12    1    3    3    0    0  0.61751088380E+01  0.27895729458E+01 -0.50362952087E+01  0.84426273049E+01  0.00000000000E+00 0.  1.
</event>
<event>
 7    1  0.2458979E-009  0.4778726E+02  0.7816164E-02  0.1312668E+00
        -11   -1    0    0    0    0  0.00000000000E+00  0.00000000000E+00  0.45593999997E+02  0.45594000000E+02  0.51100000000E-03 0.  1.
         11   -1    0    0    0    0 -0.00000000000E+00 -0.00000000000E+00 -0.45593999997E+02  0.45594000000E+02  0.51100000000E-03 0. -1.
    9900012    2    1    2    0    0 -0.19148594196E+02 -0.16459515883E+02 -0.35299288588E+02  0.47787261554E+02  0.19999956731E+02 0.  0.
        -12    1    1    2    0    0  0.19148594196E+02  0.16459515883E+02  0.35299288588E+02  0.43400738446E+02  0.00000000000E+00 0.  1.
         11    1    3    3    0    0 -0.11867625560E+02 -0.76752876997E+01 -0.76402950441E+01  0.16066259251E+02  0.51100000000E-03 0. -1.
        -11    1    3    3    0    0 -0.15693288387E+01 -0.41601928790E+01 -0.17305321935E+01  0.47712409003E+01  0.51100000000E-03 0.  1.
         12    1    3    3    0    0 -0.57116397979E+01 -0.46240353042E+01 -0.25928461351E+02  0.26949761403E+02  0.00000000000E+00 0. -1.
</event>
<event>
 7    1  0.2458979E-009  0.4778724E+02  0.7816164E-02  0.1312668E+00
        -11   -1    0    0    0    0  0.00000000000E+00  0.00000000000E+00  0.45593999997E+02  0.45594000000E+02  0.51100000000E-03 0.  1.
         11   -1    0    0    0    0 -0.00000000000E+00 -0.00000000000E+00 -0.45593999997E+02  0.45594000000E+02  0.51100000000E-03 0. -1.
    9900012    2    1    2    0    0 -0.17863243185E+02 -0.18223480528E+02 -0.35106056315E+02  0.47787240910E+02  0.19999862603E+02 0.  0.
        -12    1    1    2    0    0  0.17863243185E+02  0.18223480528E+02  0.35106056315E+02  0.43400759090E+02  0.00000000000E+00 0.  1.
         11    1    3    3    0    0 -0.22095937592E+01  0.38721972226E+00 -0.66671198202E+00  0.23402454619E+01  0.51100000000E-03 0. -1.
        -11    1    3    3    0    0  0.90874665320E+00  0.21738197360E+01 -0.63717536702E+01  0.67934201856E+01  0.51100000000E-03 0.  1.
        -12    1    3    3    0    0 -0.16562396079E+02 -0.20784519986E+02 -0.28067590663E+02  0.38653575262E+02  0.00000000000E+00 0.  1.
</event>
<event>
 7    1  0.2458979E-009  0.4778727E+02  0.7816164E-02  0.1312668E+00
        -11   -1    0    0    0    0  0.00000000000E+00  0.00000000000E+00  0.45593999997E+02  0.45594000000E+02  0.51100000000E-03 0. -1.
         11   -1    0    0    0    0 -0.00000000000E+00 -0.00000000000E+00 -0.45593999997E+02  0.45594000000E+02  0.51100000000E-03 0.  1.
    9900012    2    1    2    0    0  0.27121904581E+02 -0.33879313589E+02  0.46636410558E+00  0.47787273130E+02  0.20000009508E+02 0.  0.
        -12    1    1    2    0    0 -0.27121904581E+02  0.33879313589E+02 -0.46636410558E+00  0.43400726870E+02  0.00000000000E+00 0.  1.
         11    1    3    3    0    0  0.83586402301E+01 -0.20311486011E+02 -0.24673097833E+01  0.22102283780E+02  0.51100000000E-03 0.  1.
        -11    1    3    3    0    0  0.10283239052E+02 -0.79752243970E+01  0.69602993603E+01  0.14757878473E+02  0.51100000000E-03 0. -1.
         12    1    3    3    0    0  0.84800252994E+01 -0.55926031807E+01 -0.40266254714E+01  0.10927110876E+02  0.00000000000E+00 0. -1.
</event>
<event>
 7    1  0.2458979E-009  0.4778727E+02  0.7816164E-02  0.1312668E+00
        -11   -1    0    0    0    0  0.00000000000E+00  0.00000000000E+00  0.45593999997E+02  0.45594000000E+02  0.51100000000E-03 0.  1.
         11   -1    0    0    0    0 -0.00000000000E+00 -0.00000000000E+00 -0.45593999997E+02  0.45594000000E+02  0.51100000000E-03 0. -1.
    9900012    2    1    2    0    0  0.36612815128E+02 -0.10687709311E+02 -0.20709853670E+02  0.47787269581E+02  0.19999993325E+02 0.  0.
        -12    1    1    2    0    0 -0.36612815128E+02  0.10687709311E+02  0.20709853670E+02  0.43400730419E+02  0.00000000000E+00 0.  1.
         11    1    3    3    0    0  0.40634712376E+01 -0.19727885470E+01 -0.23097571665E+01  0.50733294373E+01  0.51100000000E-03 0. -1.
        -11    1    3    3    0    0  0.76568112907E+01  0.36619405163E+01  0.13752328806E+01  0.85981296352E+01  0.51100000000E-03 0.  1.
        -12    1    3    3    0    0  0.24892532600E+02 -0.12376861280E+02 -0.19775329384E+02  0.34115810508E+02  0.00000000000E+00 0.  1.
</event>
<event>
 7    1  0.2458979E-009  0.4778729E+02  0.7816164E-02  0.1312668E+00
        -11   -1    0    0    0    0  0.00000000000E+00  0.00000000000E+00  0.45593999997E+02  0.45594000000E+02  0.51100000000E-03 0.  1.
         11   -1    0    0    0    0 -0.00000000000E+00 -0.00000000000E+00 -0.45593999997E+02  0.45594000000E+02  0.51100000000E-03 0. -1.
    9900012    2    1    2    0    0  0.32876051343E+02  0.19262796466E+02 -0.20778160684E+02  0.47787285248E+02  0.20000064760E+02 0.  0.
        -12    1    1    2    0    0 -0.32876051343E+02 -0.19262796466E+02  0.20778160684E+02  0.43400714752E+02  0.00000000000E+00 0.  1.
         11    1    3    3    0    0  0.30140128255E+02  0.15057977001E+02 -0.15782936601E+02  0.37205793777E+02  0.51100000000E-03 0. -1.
        -11    1    3    3    0    0  0.53611305406E+00 -0.40235941666E-01  0.20208859440E+01  0.20911758409E+01  0.51100000000E-03 0.  1.
         12    1    3    3    0    0  0.21998100339E+01  0.42450554058E+01 -0.70161100271E+01  0.84903156299E+01  0.00000000000E+00 0. -1.
</event>
<event>
 7    1  0.2458979E-009  0.4778727E+02  0.7816164E-02  0.1312668E+00
        -11   -1    0    0    0    0  0.00000000000E+00  0.00000000000E+00  0.45593999997E+02  0.45594000000E+02  0.51100000000E-03 0. -1.
         11   -1    0    0    0    0 -0.00000000000E+00 -0.00000000000E+00 -0.45593999997E+02  0.45594000000E+02  0.51100000000E-03 0.  1.
    9900012    2    1    2    0    0 -0.17092807904E+02  0.25920539671E+02  0.30324655282E+02  0.47787272162E+02  0.20000005095E+02 0.  0.
        -12    1    1    2    0    0  0.17092807904E+02 -0.25920539671E+02 -0.30324655282E+02  0.43400727838E+02  0.00000000000E+00 0.  1.
         11    1    3    3    0    0 -0.96494351076E+01  0.17288739862E+02  0.26014233516E+02  0.32691779848E+02  0.51100000000E-03 0. -1.
        -11    1    3    3    0    0 -0.33773355603E+01  0.33224694506E+01 -0.26621124476E+01  0.54343391210E+01  0.51100000000E-03 0.  1.
        -12    1    3    3    0    0 -0.40660372360E+01  0.53093303583E+01  0.69725342137E+01  0.96611531930E+01  0.00000000000E+00 0.  1.
</event>
<event>
 7    1  0.2458979E-009  0.4778727E+02  0.7816164E-02  0.1312668E+00
        -11   -1    0    0    0    0  0.00000000000E+00  0.00000000000E+00  0.45593999997E+02  0.45594000000E+02  0.51100000000E-03 0.  1.
         11   -1    0    0    0    0 -0.00000000000E+00 -0.00000000000E+00 -0.45593999997E+02  0.45594000000E+02  0.51100000000E-03 0. -1.
    9900012    2    1    2    0    0 -0.42953324780E+02 -0.59011323051E+01 -0.19523235096E+01  0.47787273747E+02  0.20000012324E+02 0.  0.
        -12    1    1    2    0    0  0.42953324780E+02  0.59011323051E+01  0.19523235096E+01  0.43400726253E+02  0.00000000000E+00 0.  1.
         11    1    3    3    0    0 -0.12652612676E+02 -0.67520855496E+01 -0.46577220551E+01  0.15078913814E+02  0.51100000000E-03 0. -1.
        -11    1    3    3    0    0 -0.24611810039E+02  0.55353694909E+01  0.20325222513E+01  0.25308351502E+02  0.51100000000E-03 0.  1.
        -12    1    3    3    0    0 -0.56889020654E+01 -0.46844162465E+01  0.67287629420E+00  0.74000084315E+01  0.00000000000E+00 0.  1.
</event>
<event>
 7    1  0.2458979E-009  0.4778727E+02  0.7816164E-02  0.1312668E+00
        -11   -1    0    0    0    0  0.00000000000E+00  0.00000000000E+00  0.45593999997E+02  0.45594000000E+02  0.51100000000E-03 0.  1.
         11   -1    0    0    0    0 -0.00000000000E+00 -0.00000000000E+00 -0.45593999997E+02  0.45594000000E+02  0.51100000000E-03 0. -1.
    9900012    2    1    2    0    0 -0.26795786207E+02 -0.65516398828E+01 -0.33506494194E+02  0.47787270781E+02  0.19999998799E+02 0.  0.
        -12    1    1    2    0    0  0.26795786207E+02  0.65516398828E+01  0.33506494194E+02  0.43400729219E+02  0.00000000000E+00 0.  1.
         11    1    3    3    0    0 -0.12573987609E+02 -0.21436626718E+01 -0.23949847670E+02  0.27134768430E+02  0.51100000000E-03 0. -1.
        -11    1    3    3    0    0  0.67187788533E+00  0.15201854702E+01  0.49183488063E+00  0.17332875028E+01  0.51100000000E-03 0.  1.
         12    1    3    3    0    0 -0.14893676483E+02 -0.59281626812E+01 -0.10048481404E+02  0.18919214849E+02  0.00000000000E+00 0. -1.
</event>
<event>
 7    1  0.2458979E-009  0.4778727E+02  0.7816164E-02  0.1312668E+00
        -11   -1    0    0    0    0  0.00000000000E+00  0.00000000000E+00  0.45593999997E+02  0.45594000000E+02  0.51100000000E-03 0.  1.
         11   -1    0    0    0    0 -0.00000000000E+00 -0.00000000000E+00 -0.45593999997E+02  0.45594000000E+02  0.51100000000E-03 0. -1.
    9900012    2    1    2    0    0  0.36970090145E+02  0.19967250797E+02  0.10869432038E+02  0.47787271636E+02  0.20000002696E+02 0.  0.
        -12    1    1    2    0    0 -0.36970090145E+02 -0.19967250797E+02 -0.10869432038E+02  0.43400728364E+02  0.00000000000E+00 0.  1.
         11    1    3    3    0    0  0.86706717677E+01  0.15393562177E+02  0.29311933429E+01  0.17909053578E+02  0.51100000000E-03 0. -1.
        -11    1    3    3    0    0  0.13614857481E+02  0.14943581120E+01  0.50554660005E+01  0.14599835175E+02  0.51100000000E-03 0.  1.
         12    1    3    3    0    0  0.14684560897E+02  0.30793305077E+01  0.28827726942E+01  0.15278382883E+02  0.00000000000E+00 0. -1.
</event>
<event>
 7    1  0.2458979E-009  0.4778727E+02  0.7816164E-02  0.1312668E+00
        -11   -1    0    0    0    0  0.00000000000E+00  0.00000000000E+00  0.45593999997E+02  0.45594000000E+02  0.51100000000E-03 0.  1.
         11   -1    0    0    0    0 -0.00000000000E+00 -0.00000000000E+00 -0.45593999997E+02  0.45594000000E+02  0.51100000000E-03 0. -1.
    9900012    2    1    2    0    0  0.40232209860E+02  0.99005487289E+01 -0.12921747112E+02  0.47787272774E+02  0.20000007884E+02 0.  0.
        -12    1    1    2    0    0 -0.40232209860E+02 -0.99005487289E+01  0.12921747112E+02  0.43400727226E+02  0.00000000000E+00 0.  1.
         11    1    3    3    0    0  0.30548321764E+02  0.14667589610E+02 -0.98303456594E+01  0.35284186878E+02  0.51100000000E-03 0. -1.
        -11    1    3    3    0    0  0.40616808473E+01  0.49835866341E+00  0.26510407266E+00  0.41007186069E+01  0.51100000000E-03 0.  1.
         12    1    3    3    0    0  0.56222072489E+01 -0.52653995449E+01 -0.33565055250E+01  0.84023672888E+01  0.00000000000E+00 0. -1.
</event>
<event>
 7    1  0.2458979E-009  0.4778725E+02  0.7816164E-02  0.1312668E+00
        -11   -1    0    0    0    0  0.00000000000E+00  0.00000000000E+00  0.45593999997E+02  0.45594000000E+02  0.51100000000E-03 0.  1.
         11   -1    0    0    0    0 -0.00000000000E+00 -0.00000000000E+00 -0.45593999997E+02  0.45594000000E+02  0.51100000000E-03 0. -1.
    9900012    2    1    2    0    0  0.17981611094E+02 -0.10130794335E+02 -0.38179234100E+02  0.47787248303E+02  0.19999896314E+02 0.  0.
        -12    1    1    2    0    0 -0.17981611094E+02  0.10130794335E+02  0.38179234100E+02  0.43400751697E+02  0.00000000000E+00 0.  1.
         11    1    3    3    0    0  0.48278918782E+01 -0.38878009998E+01 -0.71432419684E+01  0.94577715494E+01  0.51100000000E-03 0. -1.
        -11    1    3    3    0    0  0.10751257782E+02 -0.53043640771E+01 -0.32985327295E+02  0.35096404932E+02  0.51100000000E-03 0.  1.
        -12    1    3    3    0    0  0.24024614336E+01 -0.93862925813E+00  0.19493351635E+01  0.32330718216E+01  0.00000000000E+00 0.  1.
</event>
<event>
 7    1  0.2458979E-009  0.4778727E+02  0.7816164E-02  0.1312668E+00
        -11   -1    0    0    0    0  0.00000000000E+00  0.00000000000E+00  0.45593999997E+02  0.45594000000E+02  0.51100000000E-03 0.  1.
         11   -1    0    0    0    0 -0.00000000000E+00 -0.00000000000E+00 -0.45593999997E+02  0.45594000000E+02  0.51100000000E-03 0. -1.
    9900012    2    1    2    0    0 -0.35352150275E+02 -0.10469979613E+02 -0.22896034062E+02  0.47787269846E+02  0.19999994535E+02 0.  0.
        -12    1    1    2    0    0  0.35352150275E+02  0.10469979613E+02  0.22896034062E+02  0.43400730154E+02  0.00000000000E+00 0.  1.
         11    1    3    3    0    0 -0.29962664823E+02 -0.12041138715E+02 -0.15152593860E+02  0.35670035124E+02  0.51100000000E-03 0. -1.
        -11    1    3    3    0    0  0.14717468422E+01  0.12808054988E+01 -0.36055435675E+01  0.40995665834E+01  0.51100000000E-03 0.  1.
        -12    1    3    3    0    0 -0.68612322944E+01  0.29035360301E+00 -0.41378966348E+01  0.80176681381E+01  0.00000000000E+00 0.  1.
</event>
<event>
 7    1  0.2458979E-009  0.4778727E+02  0.7816164E-02  0.1312668E+00
        -11   -1    0    0    0    0  0.00000000000E+00  0.00000000000E+00  0.45593999997E+02  0.45594000000E+02  0.51100000000E-03 0.  1.
         11   -1    0    0    0    0 -0.00000000000E+00 -0.00000000000E+00 -0.45593999997E+02  0.45594000000E+02  0.51100000000E-03 0. -1.
    9900012    2    1    2    0    0 -0.23913157027E+02  0.28102593048E+02 -0.22847943390E+02  0.47787270373E+02  0.19999996939E+02 0.  0.
        -12    1    1    2    0    0  0.23913157027E+02 -0.28102593048E+02  0.22847943390E+02  0.43400729627E+02  0.00000000000E+00 0.  1.
         11    1    3    3    0    0 -0.18179324067E+02  0.16128571763E+02 -0.10633960319E+02  0.26527339915E+02  0.51100000000E-03 0. -1.
        -11    1    3    3    0    0 -0.32696625951E+01  0.12715249966E+02 -0.13092018763E+02  0.18541014824E+02  0.51100000000E-03 0.  1.
        -12    1    3    3    0    0 -0.24641703647E+01 -0.74122868075E+00  0.87803569219E+00  0.27189156331E+01  0.00000000000E+00 0.  1.
</event>
<event>
 7    1  0.2458979E-009  0.4778728E+02  0.7816164E-02  0.1312668E+00
        -11   -1    0    0    0    0  0.00000000000E+00  0.00000000000E+00  0.45593999997E+02  0.45594000000E+02  0.51100000000E-03 0.  1.
         11   -1    0    0    0    0 -0.00000000000E+00 -0.00000000000E+00 -0.45593999997E+02  0.45594000000E+02  0.51100000000E-03 0. -1.
    9900012    2    1    2    0    0 -0.33003056976E+02  0.17153411475E+02 -0.22364725056E+02  0.47787283165E+02  0.20000055261E+02 0.  0.
        -12    1    1    2    0    0  0.33003056976E+02 -0.17153411475E+02  0.22364725056E+02  0.43400716835E+02  0.00000000000E+00 0.  1.
         11    1    3    3    0    0 -0.13767054925E+01  0.82366850887E+01 -0.10982216124E+01  0.84228492943E+01  0.51100000000E-03 0. -1.
        -11    1    3    3    0    0 -0.23149414887E+02  0.52489615824E+01 -0.13573256590E+02  0.27343743380E+02  0.51100000000E-03 0.  1.
         12    1    3    3    0    0 -0.84769365963E+01  0.36677648043E+01 -0.76932468535E+01  0.12020690490E+02  0.00000000000E+00 0. -1.
</event>
<event>
 7    1  0.2458979E-009  0.4778727E+02  0.7816164E-02  0.1312668E+00
        -11   -1    0    0    0    0  0.00000000000E+00  0.00000000000E+00  0.45593999997E+02  0.45594000000E+02  0.51100000000E-03 0.  1.
         11   -1    0    0    0    0 -0.00000000000E+00 -0.00000000000E+00 -0.45593999997E+02  0.45594000000E+02  0.51100000000E-03 0. -1.
    9900012    2    1    2    0    0  0.39795925899E+02  0.54125970100E+01 -0.16450283535E+02  0.47787265525E+02  0.19999974835E+02 0.  0.
        -12    1    1    2    0    0 -0.39795925899E+02 -0.54125970100E+01  0.16450283535E+02  0.43400734475E+02  0.00000000000E+00 0.  1.
         11    1    3    3    0    0  0.27284106424E+01  0.46998167651E+01 -0.53062796559E+01  0.75953345092E+01  0.51100000000E-03 0. -1.
        -11    1    3    3    0    0  0.34500020274E+02  0.26930044728E+01 -0.12335037417E+02  0.36737675761E+02  0.51100000000E-03 0.  1.
        -12    1    3    3    0    0  0.25674949825E+01 -0.19802242279E+01  0.11910335370E+01  0.34542552547E+01  0.00000000000E+00 0.  1.
</event>
<event>
 7    1  0.2458979E-009  0.4778726E+02  0.7816164E-02  0.1312668E+00
        -11   -1    0    0    0    0  0.00000000000E+00  0.00000000000E+00  0.45593999997E+02  0.45594000000E+02  0.51100000000E-03 0. -1.
         11   -1    0    0    0    0 -0.00000000000E+00 -0.00000000000E+00 -0.45593999997E+02  0.45594000000E+02  0.51100000000E-03 0.  1.
    9900012    2    1    2    0    0  0.17672561509E+02 -0.39594190029E+02 -0.18985648163E+01  0.47787264261E+02  0.19999969072E+02 0.  0.
        -12    1    1    2    0    0 -0.17672561509E+02  0.39594190029E+02  0.18985648163E+01  0.43400735739E+02  0.00000000000E+00 0.  1.
         11    1    3    3    0    0  0.14558363787E+02 -0.34253632769E+02 -0.30884022388E+01  0.37346961626E+02  0.51100000000E-03 0. -1.
        -11    1    3    3    0    0  0.56397102885E+01 -0.28018650791E+01 -0.79290447966E+00  0.63470841995E+01  0.51100000000E-03 0.  1.
         12    1    3    3    0    0 -0.25255125668E+01 -0.25386921807E+01  0.19827419022E+01  0.40932184360E+01  0.00000000000E+00 0. -1.
</event>
<event>
 7    1  0.2458979E-009  0.4778727E+02  0.7816164E-02  0.1312668E+00
        -11   -1    0    0    0    0  0.00000000000E+00  0.00000000000E+00  0.45593999997E+02  0.45594000000E+02  0.51100000000E-03 0. -1.
         11   -1    0    0    0    0 -0.00000000000E+00 -0.00000000000E+00 -0.45593999997E+02  0.45594000000E+02  0.51100000000E-03 0.  1.
    9900012    2    1    2    0    0 -0.32563210263E+02 -0.26494426120E+02  0.11013899928E+02  0.47787271093E+02  0.20000000220E+02 0.  0.
        -12    1    1    2    0    0  0.32563210263E+02  0.26494426120E+02 -0.11013899928E+02  0.43400728907E+02  0.00000000000E+00 0.  1.
         11    1    3    3    0    0 -0.75437969264E+01 -0.45185069712E+01 -0.83680057594E+00  0.88332334273E+01  0.51100000000E-03 0. -1.
        -11    1    3    3    0    0 -0.19591109509E+02 -0.19751703029E+02  0.25216680851E+01  0.27933853199E+02  0.51100000000E-03 0.  1.
        -12    1    3    3    0    0 -0.54283038278E+01 -0.22242161191E+01  0.93290324193E+01  0.11020184466E+02  0.00000000000E+00 0.  1.
</event>
<event>
 7    1  0.2458979E-009  0.4778727E+02  0.7816164E-02  0.1312668E+00
        -11   -1    0    0    0    0  0.00000000000E+00  0.00000000000E+00  0.45593999997E+02  0.45594000000E+02  0.51100000000E-03 0.  1.
         11   -1    0    0    0    0 -0.00000000000E+00 -0.00000000000E+00 -0.45593999997E+02  0.45594000000E+02  0.51100000000E-03 0. -1.
    9900012    2    1    2    0    0  0.32815774260E+02 -0.28178714241E+01 -0.28263185149E+02  0.47787273343E+02  0.20000010479E+02 0.  0.
        -12    1    1    2    0    0 -0.32815774260E+02  0.28178714241E+01  0.28263185149E+02  0.43400726657E+02  0.00000000000E+00 0.  1.
         11    1    3    3    0    0 -0.13192946232E+01  0.16569235420E+01 -0.69217391129E+00  0.22282367269E+01  0.51100000000E-03 0. -1.
        -11    1    3    3    0    0  0.29329787473E+02 -0.24222104470E+00 -0.25391834913E+02  0.38794849977E+02  0.51100000000E-03 0.  1.
         12    1    3    3    0    0  0.48052814096E+01 -0.42325739214E+01 -0.21791763248E+01  0.67641866385E+01  0.00000000000E+00 0. -1.
</event>
<event>
 7    1  0.2458979E-009  0.4778727E+02  0.7816164E-02  0.1312668E+00
        -11   -1    0    0    0    0  0.00000000000E+00  0.00000000000E+00  0.45593999997E+02  0.45594000000E+02  0.51100000000E-03 0.  1.
         11   -1    0    0    0    0 -0.00000000000E+00 -0.00000000000E+00 -0.45593999997E+02  0.45594000000E+02  0.51100000000E-03 0. -1.
    9900012    2    1    2    0    0 -0.33913671100E+02 -0.53258032948E+01 -0.26554138271E+02  0.47787268122E+02  0.19999986676E+02 0.  0.
        -12    1    1    2    0    0  0.33913671100E+02  0.53258032948E+01  0.26554138271E+02  0.43400731878E+02  0.00000000000E+00 0.  1.
         11    1    3    3    0    0 -0.17855389003E+02 -0.61364445526E+01 -0.10135034948E+02  0.21428714424E+02  0.51100000000E-03 0. -1.
        -11    1    3    3    0    0 -0.85658655001E+01  0.34300774526E+01 -0.15926303843E+02  0.18406157596E+02  0.51100000000E-03 0.  1.
        -12    1    3    3    0    0 -0.74924165963E+01 -0.26194361948E+01 -0.49279948023E+00  0.79523961017E+01  0.00000000000E+00 0.  1.
</event>
<event>
 7    1  0.2458979E-009  0.4778727E+02  0.7816164E-02  0.1312668E+00
        -11   -1    0    0    0    0  0.00000000000E+00  0.00000000000E+00  0.45593999997E+02  0.45594000000E+02  0.51100000000E-03 0.  1.
         11   -1    0    0    0    0 -0.00000000000E+00 -0.00000000000E+00 -0.45593999997E+02  0.45594000000E+02  0.51100000000E-03 0. -1.
    9900012    2    1    2    0    0 -0.30682631953E+02  0.19309533242E+01 -0.30634469919E+02  0.47787271533E+02  0.20000002226E+02 0.  0.
        -12    1    1    2    0    0  0.30682631953E+02 -0.19309533242E+01  0.30634469919E+02  0.43400728467E+02  0.00000000000E+00 0.  1.
         11    1    3    3    0    0 -0.13626895286E+02  0.68415006588E+01 -0.21438104251E+02  0.26307617158E+02  0.51100000000E-03 0. -1.
        -11    1    3    3    0    0 -0.13472998469E+01 -0.20357257710E+01 -0.40001179487E+01  0.46861860992E+01  0.51100000000E-03 0.  1.
         12    1    3    3    0    0 -0.15708436821E+02 -0.28748215636E+01 -0.51962477195E+01  0.16793468276E+02  0.00000000000E+00 0. -1.
</event>
<event>
 7    1  0.2458979E-009  0.4778727E+02  0.7816164E-02  0.1312668E+00
        -11   -1    0    0    0    0  0.00000000000E+00  0.00000000000E+00  0.45593999997E+02  0.45594000000E+02  0.51100000000E-03 0.  1.
         11   -1    0    0    0    0 -0.00000000000E+00 -0.00000000000E+00 -0.45593999997E+02  0.45594000000E+02  0.51100000000E-03 0. -1.
    9900012    2    1    2    0    0  0.18597839936E+02  0.12794613426E+02 -0.37068066953E+02  0.47787269930E+02  0.19999994917E+02 0.  0.
        -12    1    1    2    0    0 -0.18597839936E+02 -0.12794613426E+02  0.37068066953E+02  0.43400730070E+02  0.00000000000E+00 0.  1.
         11    1    3    3    0    0  0.14544785414E+02  0.99035609427E+00 -0.15421231632E+02  0.21221356536E+02  0.51100000000E-03 0. -1.
        -11    1    3    3    0    0  0.10780413774E+01  0.41733739481E+01 -0.11024519293E+01  0.44491149502E+01  0.51100000000E-03 0.  1.
         12    1    3    3    0    0  0.29750131449E+01  0.76308833839E+01 -0.20544383392E+02  0.22116798443E+02  0.00000000000E+00 0. -1.
</event>
<event>
 7    1  0.2458979E-009  0.4778726E+02  0.7816164E-02  0.1312668E+00
        -11   -1    0    0    0    0  0.00000000000E+00  0.00000000000E+00  0.45593999997E+02  0.45594000000E+02  0.51100000000E-03 0. -1.
         11   -1    0    0    0    0 -0.00000000000E+00 -0.00000000000E+00 -0.45593999997E+02  0.45594000000E+02  0.51100000000E-03 0.  1.
    9900012    2    1    2    0    0  0.39066803795E+02  0.14355775972E+02 -0.12301242907E+02  0.47787262223E+02  0.19999959782E+02 0.  0.
        -12    1    1    2    0    0 -0.39066803795E+02 -0.14355775972E+02  0.12301242907E+02  0.43400737777E+02  0.00000000000E+00 0.  1.
         11    1    3    3    0    0  0.17684993988E+02  0.58222533512E+01 -0.59593459673E+01  0.19549205893E+02  0.51100000000E-03 0. -1.
        -11    1    3    3    0    0  0.13452286176E+02  0.44780628624E+01 -0.11222477824E+02  0.18082064570E+02  0.51100000000E-03 0.  1.
        -12    1    3    3    0    0  0.79295236310E+01  0.40554597579E+01  0.48805808838E+01  0.10155991760E+02  0.00000000000E+00 0.  1.
</event>
<event>
 7    1  0.2458979E-009  0.4778727E+02  0.7816164E-02  0.1312668E+00
        -11   -1    0    0    0    0  0.00000000000E+00  0.00000000000E+00  0.45593999997E+02  0.45594000000E+02  0.51100000000E-03 0.  1.
         11   -1    0    0    0    0 -0.00000000000E+00 -0.00000000000E+00 -0.45593999997E+02  0.45594000000E+02  0.51100000000E-03 0. -1.
    9900012    2    1    2    0    0  0.25617250134E+02  0.23686492554E+02 -0.25813370543E+02  0.47787268062E+02  0.19999986404E+02 0.  0.
        -12    1    1    2    0    0 -0.25617250134E+02 -0.23686492554E+02  0.25813370543E+02  0.43400731938E+02  0.00000000000E+00 0.  1.
         11    1    3    3    0    0  0.13404527598E+02  0.68580427962E+01 -0.37566174336E+01  0.15518578734E+02  0.51100000000E-03 0. -1.
        -11    1    3    3    0    0  0.11606786653E+02  0.97738430597E+01 -0.96463229855E+01  0.17980463063E+02  0.51100000000E-03 0.  1.
         12    1    3    3    0    0  0.60593588333E+00  0.70546066983E+01 -0.12410430123E+02  0.14288226265E+02  0.00000000000E+00 0. -1.
</event>
<event>
 7    1  0.2458979E-009  0.4778727E+02  0.7816164E-02  0.1312668E+00
        -11   -1    0    0    0    0  0.00000000000E+00  0.00000000000E+00  0.45593999997E+02  0.45594000000E+02  0.51100000000E-03 0.  1.
         11   -1    0    0    0    0 -0.00000000000E+00 -0.00000000000E+00 -0.45593999997E+02  0.45594000000E+02  0.51100000000E-03 0. -1.
    9900012    2    1    2    0    0  0.69400495171E+01 -0.59854024114E+01 -0.42422095969E+02  0.47787267797E+02  0.19999985196E+02 0.  0.
        -12    1    1    2    0    0 -0.69400495171E+01  0.59854024114E+01  0.42422095969E+02  0.43400732203E+02  0.00000000000E+00 0.  1.
         11    1    3    3    0    0  0.36286048591E+01 -0.65856010629E+01 -0.55789315229E+01  0.93627662462E+01  0.51100000000E-03 0. -1.
        -11    1    3    3    0    0  0.70887755396E+01  0.18015924179E+00 -0.25023517531E+02  0.26008837458E+02  0.51100000000E-03 0.  1.
        -12    1    3    3    0    0 -0.37773308816E+01  0.42003940972E+00 -0.11819646915E+02  0.12415664093E+02  0.00000000000E+00 0.  1.
</event>
<event>
 7    1  0.2458979E-009  0.4778727E+02  0.7816164E-02  0.1312668E+00
        -11   -1    0    0    0    0  0.00000000000E+00  0.00000000000E+00  0.45593999997E+02  0.45594000000E+02  0.51100000000E-03 0.  1.
         11   -1    0    0    0    0 -0.00000000000E+00 -0.00000000000E+00 -0.45593999997E+02  0.45594000000E+02  0.51100000000E-03 0. -1.
    9900012    2    1    2    0    0  0.20405868433E+01  0.42310080465E+02  0.94507382360E+01  0.47787270089E+02  0.19999995644E+02 0.  0.
        -12    1    1    2    0    0 -0.20405868433E+01 -0.42310080465E+02 -0.94507382360E+01  0.43400729911E+02  0.00000000000E+00 0.  1.
         11    1    3    3    0    0  0.22744393106E+01  0.34430898364E+02  0.87355340745E+01  0.35594513512E+02  0.51100000000E-03 0. -1.
        -11    1    3    3    0    0 -0.15498210202E+01  0.14035911894E+01  0.42223925148E+01  0.47117525648E+01  0.51100000000E-03 0.  1.
         12    1    3    3    0    0  0.13159685529E+01  0.64755909110E+01 -0.35071883534E+01  0.74810040118E+01  0.00000000000E+00 0. -1.
</event>
<event>
 7    1  0.2458979E-009  0.4778727E+02  0.7816164E-02  0.1312668E+00
        -11   -1    0    0    0    0  0.00000000000E+00  0.00000000000E+00  0.45593999997E+02  0.45594000000E+02  0.51100000000E-03 0.  1.
         11   -1    0    0    0    0 -0.00000000000E+00 -0.00000000000E+00 -0.45593999997E+02  0.45594000000E+02  0.51100000000E-03 0. -1.
    9900012    2    1    2    0    0  0.31681021784E+02  0.27174412522E+02  0.11894839888E+02  0.47787273587E+02  0.20000011592E+02 0.  0.
        -12    1    1    2    0    0 -0.31681021784E+02 -0.27174412522E+02 -0.11894839888E+02  0.43400726413E+02  0.00000000000E+00 0.  1.
         11    1    3    3    0    0  0.25000839721E+02  0.18972513009E+02  0.11573990042E+02  0.33450791954E+02  0.51100000000E-03 0. -1.
        -11    1    3    3    0    0  0.68468709986E+01  0.50784531569E+01 -0.36571331424E+01  0.92760418295E+01  0.51100000000E-03 0.  1.
         12    1    3    3    0    0 -0.16668893539E+00  0.31234463565E+01  0.39779829889E+01  0.50604398034E+01  0.00000000000E+00 0. -1.
</event>
<event>
 7    1  0.2458979E-009  0.4778727E+02  0.7816164E-02  0.1312668E+00
        -11   -1    0    0    0    0  0.00000000000E+00  0.00000000000E+00  0.45593999997E+02  0.45594000000E+02  0.51100000000E-03 0.  1.
         11   -1    0    0    0    0 -0.00000000000E+00 -0.00000000000E+00 -0.45593999997E+02  0.45594000000E+02  0.51100000000E-03 0. -1.
    9900012    2    1    2    0    0 -0.16453832639E+02  0.15084791735E+02 -0.37220205637E+02  0.47787271229E+02  0.20000000841E+02 0.  0.
        -12    1    1    2    0    0  0.16453832639E+02 -0.15084791735E+02  0.37220205637E+02  0.43400728771E+02  0.00000000000E+00 0.  1.
         11    1    3    3    0    0 -0.13257476349E+02  0.63427980398E+00 -0.18944685411E+02  0.23131452518E+02  0.51100000000E-03 0. -1.
        -11    1    3    3    0    0 -0.20143204022E+01  0.14633346005E+02 -0.14513794231E+02  0.20708513351E+02  0.51100000000E-03 0.  1.
        -12    1    3    3    0    0 -0.11820358882E+01 -0.18283407427E+00 -0.37617259950E+01  0.39473053595E+01  0.00000000000E+00 0.  1.
</event>
<event>
 7    1  0.2458979E-009  0.4778727E+02  0.7816164E-02  0.1312668E+00
        -11   -1    0    0    0    0  0.00000000000E+00  0.00000000000E+00  0.45593999997E+02  0.45594000000E+02  0.51100000000E-03 0. -1.
         11   -1    0    0    0    0 -0.00000000000E+00 -0.00000000000E+00 -0.45593999997E+02  0.45594000000E+02  0.51100000000E-03 0.  1.
    9900012    2    1    2    0    0  0.66789103258E+01 -0.42093722526E+01  0.42676655260E+02  0.47787267724E+02  0.19999984859E+02 0.  0.
        -12    1    1    2    0    0 -0.66789103258E+01  0.42093722526E+01 -0.42676655260E+02  0.43400732276E+02  0.00000000000E+00 0.  1.
         11    1    3    3    0    0 -0.58916357817E+01  0.21232763961E+00  0.65459523041E+01  0.88094237632E+01  0.51100000000E-03 0. -1.
        -11    1    3    3    0    0  0.12073893537E+02 -0.23518969169E+01  0.32738441214E+02  0.34973073323E+02  0.51100000000E-03 0.  1.
         12    1    3    3    0    0  0.49665257049E+00 -0.20698029753E+01  0.33922617424E+01  0.40047706378E+01  0.00000000000E+00 0. -1.
</event>
<event>
 7    1  0.2458979E-009  0.4778727E+02  0.7816164E-02  0.1312668E+00
        -11   -1    0    0    0    0  0.00000000000E+00  0.00000000000E+00  0.45593999997E+02  0.45594000000E+02  0.51100000000E-03 0.  1.
         11   -1    0    0    0    0 -0.00000000000E+00 -0.00000000000E+00 -0.45593999997E+02  0.45594000000E+02  0.51100000000E-03 0. -1.
    9900012    2    1    2    0    0  0.36341980827E+02  0.84030453538E+01 -0.22187215077E+02  0.47787271268E+02  0.20000001019E+02 0.  0.
        -12    1    1    2    0    0 -0.36341980827E+02 -0.84030453538E+01  0.22187215077E+02  0.43400728732E+02  0.00000000000E+00 0.  1.
         11    1    3    3    0    0  0.15151318328E+02  0.18399636447E+01 -0.37360330094E+01  0.15713238247E+02  0.51100000000E-03 0. -1.
        -11    1    3    3    0    0  0.75699492736E+01  0.44039922811E+01 -0.15750088356E+02  0.18021225360E+02  0.51100000000E-03 0.  1.
        -12    1    3    3    0    0  0.13620713225E+02  0.21590894280E+01 -0.27010937114E+01  0.14052807661E+02  0.00000000000E+00 0.  1.
</event>
<event>
 7    1  0.2458979E-009  0.4778727E+02  0.7816164E-02  0.1312668E+00
        -11   -1    0    0    0    0  0.00000000000E+00  0.00000000000E+00  0.45593999997E+02  0.45594000000E+02  0.51100000000E-03 0.  1.
         11   -1    0    0    0    0 -0.00000000000E+00 -0.00000000000E+00 -0.45593999997E+02  0.45594000000E+02  0.51100000000E-03 0. -1.
    9900012    2    1    2    0    0  0.84606873642E+01 -0.14681055432E+02 -0.39956309256E+02  0.47787271105E+02  0.20000000278E+02 0.  0.
        -12    1    1    2    0    0 -0.84606873642E+01  0.14681055432E+02  0.39956309256E+02  0.43400728895E+02  0.00000000000E+00 0.  1.
         11    1    3    3    0    0  0.10517859671E+02 -0.10359054387E+02 -0.22982684439E+02  0.27315548029E+02  0.51100000000E-03 0. -1.
        -11    1    3    3    0    0 -0.60460295739E+01 -0.15076456385E+01 -0.11889046099E+02  0.13422998413E+02  0.51100000000E-03 0.  1.
         12    1    3    3    0    0  0.39888572666E+01 -0.28143554061E+01 -0.50845787175E+01  0.70487246634E+01  0.00000000000E+00 0. -1.
</event>
<event>
 7    1  0.2458979E-009  0.4778727E+02  0.7816164E-02  0.1312668E+00
        -11   -1    0    0    0    0  0.00000000000E+00  0.00000000000E+00  0.45593999997E+02  0.45594000000E+02  0.51100000000E-03 0.  1.
         11   -1    0    0    0    0 -0.00000000000E+00 -0.00000000000E+00 -0.45593999997E+02  0.45594000000E+02  0.51100000000E-03 0. -1.
    9900012    2    1    2    0    0 -0.29596093951E+02  0.31152461885E+02 -0.61007032225E+01  0.47787271452E+02  0.20000001858E+02 0.  0.
        -12    1    1    2    0    0  0.29596093951E+02 -0.31152461885E+02  0.61007032225E+01  0.43400728548E+02  0.00000000000E+00 0.  1.
         11    1    3    3    0    0 -0.17115278970E+02  0.26194105496E+02 -0.36292993655E+01  0.31499773826E+02  0.51100000000E-03 0.  1.
        -11    1    3    3    0    0  0.16826126199E+00  0.15855129799E+01 -0.27665770038E+01  0.31931351116E+01  0.51100000000E-03 0. -1.
         12    1    3    3    0    0 -0.12649076243E+02  0.33728434098E+01  0.29517314674E+00  0.13094362514E+02  0.00000000000E+00 0. -1.
</event>
<event>
 7    1  0.2458979E-009  0.4778726E+02  0.7816164E-02  0.1312668E+00
        -11   -1    0    0    0    0  0.00000000000E+00  0.00000000000E+00  0.45593999997E+02  0.45594000000E+02  0.51100000000E-03 0. -1.
         11   -1    0    0    0    0 -0.00000000000E+00 -0.00000000000E+00 -0.45593999997E+02  0.45594000000E+02  0.51100000000E-03 0.  1.
    9900012    2    1    2    0    0 -0.18161787000E+01 -0.14665379095E+02  0.40807503958E+02  0.47787260049E+02  0.19999949866E+02 0.  0.
        -12    1    1    2    0    0  0.18161787000E+01  0.14665379095E+02 -0.40807503958E+02  0.43400739951E+02  0.00000000000E+00 0.  1.
         11    1    3    3    0    0  0.11960397712E+01 -0.16267006413E+02  0.31366593219E+02  0.35354054635E+02  0.51100000000E-03 0. -1.
        -11    1    3    3    0    0 -0.17355650122E+00  0.40484080487E+01  0.32417321993E+01  0.51892733115E+01  0.51100000000E-03 0.  1.
         12    1    3    3    0    0 -0.28386619701E+01 -0.24467807312E+01  0.61991785397E+01  0.72439321017E+01  0.00000000000E+00 0. -1.
</event>
<event>
 7    1  0.2458979E-009  0.4778727E+02  0.7816164E-02  0.1312668E+00
        -11   -1    0    0    0    0  0.00000000000E+00  0.00000000000E+00  0.45593999997E+02  0.45594000000E+02  0.51100000000E-03 0.  1.
         11   -1    0    0    0    0 -0.00000000000E+00 -0.00000000000E+00 -0.45593999997E+02  0.45594000000E+02  0.51100000000E-03 0. -1.
    9900012    2    1    2    0    0 -0.41808391127E+02 -0.49209401169E+00 -0.11637863324E+02  0.47787267427E+02  0.19999983506E+02 0.  0.
        -12    1    1    2    0    0  0.41808391127E+02  0.49209401169E+00  0.11637863324E+02  0.43400732573E+02  0.00000000000E+00 0.  1.
         11    1    3    3    0    0 -0.21537469351E+02  0.82951940532E+01 -0.46437983823E+01  0.23542253378E+02  0.51100000000E-03 0. -1.
        -11    1    3    3    0    0 -0.15728823574E+02 -0.94758033189E+01 -0.69982911317E+01  0.19651025891E+02  0.51100000000E-03 0.  1.
        -12    1    3    3    0    0 -0.45420982024E+01  0.68851525397E+00  0.42261903446E-02  0.45939881580E+01  0.00000000000E+00 0.  1.
</event>
<event>
 7    1  0.2458979E-009  0.4778727E+02  0.7816164E-02  0.1312668E+00
        -11   -1    0    0    0    0  0.00000000000E+00  0.00000000000E+00  0.45593999997E+02  0.45594000000E+02  0.51100000000E-03 0.  1.
         11   -1    0    0    0    0 -0.00000000000E+00 -0.00000000000E+00 -0.45593999997E+02  0.45594000000E+02  0.51100000000E-03 0. -1.
    9900012    2    1    2    0    0  0.32052608487E+01  0.25886561740E+02 -0.34687684738E+02  0.47787271338E+02  0.20000001340E+02 0.  0.
        -12    1    1    2    0    0 -0.32052608487E+01 -0.25886561740E+02  0.34687684738E+02  0.43400728662E+02  0.00000000000E+00 0.  1.
         11    1    3    3    0    0  0.46406078090E+00  0.22903484785E+02 -0.27778119442E+02  0.36005678548E+02  0.51100000000E-03 0. -1.
        -11    1    3    3    0    0  0.48373773062E+01  0.16743499669E+01 -0.78695784888E+00  0.51790896817E+01  0.51100000000E-03 0.  1.
        -12    1    3    3    0    0 -0.20961772384E+01  0.13087269887E+01 -0.61226074476E+01  0.66025031090E+01  0.00000000000E+00 0.  1.
</event>
<event>
 7    1  0.2458979E-009  0.4778727E+02  0.7816164E-02  0.1312668E+00
        -11   -1    0    0    0    0  0.00000000000E+00  0.00000000000E+00  0.45593999997E+02  0.45594000000E+02  0.51100000000E-03 0.  1.
         11   -1    0    0    0    0 -0.00000000000E+00 -0.00000000000E+00 -0.45593999997E+02  0.45594000000E+02  0.51100000000E-03 0. -1.
    9900012    2    1    2    0    0  0.15610738214E+01  0.36955586508E+01 -0.43214918178E+02  0.47787271223E+02  0.20000000816E+02 0.  0.
        -12    1    1    2    0    0 -0.15610738214E+01 -0.36955586508E+01  0.43214918178E+02  0.43400728777E+02  0.00000000000E+00 0.  1.
         11    1    3    3    0    0  0.11203424283E-01  0.19871692518E+01 -0.12224614105E+02  0.12385078014E+02  0.51100000000E-03 0.  1.
        -11    1    3    3    0    0  0.78599437108E+01  0.20060373980E+01 -0.26332310188E+02  0.27553465504E+02  0.51100000000E-03 0. -1.
        -12    1    3    3    0    0 -0.63100733137E+01 -0.29764799899E+00 -0.46579938852E+01  0.78487277051E+01  0.00000000000E+00 0.  1.
</event>
<event>
 7    1  0.2458979E-009  0.4778727E+02  0.7816164E-02  0.1312668E+00
        -11   -1    0    0    0    0  0.00000000000E+00  0.00000000000E+00  0.45593999997E+02  0.45594000000E+02  0.51100000000E-03 0.  1.
         11   -1    0    0    0    0 -0.00000000000E+00 -0.00000000000E+00 -0.45593999997E+02  0.45594000000E+02  0.51100000000E-03 0. -1.
    9900012    2    1    2    0    0  0.26619312400E+02  0.28228067799E+02 -0.19447665402E+02  0.47787270814E+02  0.19999998949E+02 0.  0.
        -12    1    1    2    0    0 -0.26619312400E+02 -0.28228067799E+02  0.19447665402E+02  0.43400729186E+02  0.00000000000E+00 0.  1.
         11    1    3    3    0    0  0.24867386855E+01 -0.78310209100E+00 -0.11074634313E+01  0.28325948683E+01  0.51100000000E-03 0.  1.
        -11    1    3    3    0    0  0.18687597428E+02  0.13297769995E+02 -0.16433776210E+02  0.28215704585E+02  0.51100000000E-03 0. -1.
        -12    1    3    3    0    0  0.54449762865E+01  0.15713399895E+02 -0.19064257610E+01  0.16738971361E+02  0.00000000000E+00 0.  1.
</event>
<event>
 7    1  0.2458979E-009  0.4778727E+02  0.7816164E-02  0.1312668E+00
        -11   -1    0    0    0    0  0.00000000000E+00  0.00000000000E+00  0.45593999997E+02  0.45594000000E+02  0.51100000000E-03 0. -1.
         11   -1    0    0    0    0 -0.00000000000E+00 -0.00000000000E+00 -0.45593999997E+02  0.45594000000E+02  0.51100000000E-03 0.  1.
    9900012    2    1    2    0    0 -0.39357723342E+02  0.20835192769E+01  0.18172823290E+02  0.47787274826E+02  0.20000017243E+02 0.  0.
        -12    1    1    2    0    0  0.39357723342E+02 -0.20835192769E+01 -0.18172823290E+02  0.43400725174E+02  0.00000000000E+00 0.  1.
         11    1    3    3    0    0 -0.32022031831E+02  0.19201638291E+01  0.13234227814E+02  0.34702195000E+02  0.51100000000E-03 0. -1.
        -11    1    3    3    0    0 -0.40869686839E+01  0.33949138822E+01 -0.11783378650E+01  0.54421717793E+01  0.51100000000E-03 0.  1.
         12    1    3    3    0    0 -0.32487228278E+01 -0.32315584344E+01  0.61169333406E+01  0.76429080473E+01  0.00000000000E+00 0. -1.
</event>
<event>
 7    1  0.2458979E-009  0.4778727E+02  0.7816164E-02  0.1312668E+00
        -11   -1    0    0    0    0  0.00000000000E+00  0.00000000000E+00  0.45593999997E+02  0.45594000000E+02  0.51100000000E-03 0. -1.
         11   -1    0    0    0    0 -0.00000000000E+00 -0.00000000000E+00 -0.45593999997E+02  0.45594000000E+02  0.51100000000E-03 0.  1.
    9900012    2    1    2    0    0 -0.32777293674E+02  0.19055541818E+02  0.21122462081E+02  0.47787273521E+02  0.20000011290E+02 0.  0.
        -12    1    1    2    0    0  0.32777293674E+02 -0.19055541818E+02 -0.21122462081E+02  0.43400726479E+02  0.00000000000E+00 0.  1.
         11    1    3    3    0    0 -0.19094299975E+01 -0.27749841739E+01  0.12820886638E+01  0.36041936246E+01  0.51100000000E-03 0. -1.
        -11    1    3    3    0    0 -0.92502096036E+01  0.75059202689E+00  0.49014320446E+01  0.10495418165E+02  0.51100000000E-03 0.  1.
         12    1    3    3    0    0 -0.21617654073E+02  0.21079933965E+02  0.14938941373E+02  0.33687661731E+02  0.00000000000E+00 0. -1.
</event>
<event>
 7    1  0.2458979E-009  0.4778728E+02  0.7816164E-02  0.1312668E+00
        -11   -1    0    0    0    0  0.00000000000E+00  0.00000000000E+00  0.45593999997E+02  0.45594000000E+02  0.51100000000E-03 0. -1.
         11   -1    0    0    0    0 -0.00000000000E+00 -0.00000000000E+00 -0.45593999997E+02  0.45594000000E+02  0.51100000000E-03 0.  1.
    9900012    2    1    2    0    0  0.96008665099E+01  0.42151144529E+02  0.38375490703E+01  0.47787281046E+02  0.20000045601E+02 0.  0.
        -12    1    1    2    0    0 -0.96008665099E+01 -0.42151144529E+02 -0.38375490703E+01  0.43400718954E+02  0.00000000000E+00 0.  1.
         11    1    3    3    0    0  0.10474180151E+02  0.98846986674E+01  0.10211250996E+01  0.14438089012E+02  0.51100000000E-03 0. -1.
        -11    1    3    3    0    0 -0.12535641933E+01  0.23836123298E+02 -0.14108411505E+01  0.23910722910E+02  0.51100000000E-03 0.  1.
         12    1    3    3    0    0  0.38025055250E+00  0.84303225637E+01  0.42272651212E+01  0.94384691246E+01  0.00000000000E+00 0. -1.
</event>
<event>
 7    1  0.3431085E-009  0.4778727E+02  0.7816164E-02  0.1312668E+00
        -11   -1    0    0    0    0  0.00000000000E+00  0.00000000000E+00  0.45593999997E+02  0.45594000000E+02  0.51100000000E-03 0. -1.
         11   -1    0    0    0    0 -0.00000000000E+00 -0.00000000000E+00 -0.45593999997E+02  0.45594000000E+02  0.51100000000E-03 0.  1.
    9900012    2    1    2    0    0 -0.18559583831E+02 -0.12926095825E+01  0.39210895886E+02  0.47787270194E+02  0.19999996124E+02 0.  0.
        -12    1    1    2    0    0  0.18559583831E+02  0.12926095825E+01 -0.39210895886E+02  0.43400729806E+02  0.00000000000E+00 0.  1.
         11    1    3    3    0    0 -0.16597437124E+02 -0.40245592081E+01  0.25052991583E+02  0.30320362521E+02  0.51100000000E-03 0. -1.
        -11    1    3    3    0    0  0.84508560588E+00 -0.35603335086E-01 -0.12796811125E+01  0.15339560911E+01  0.51100000000E-03 0.  1.
        -12    1    3    3    0    0 -0.28072323123E+01  0.27675529607E+01  0.15437585416E+02  0.15932951582E+02  0.00000000000E+00 0.  1.
</event>
<event>
 7    1  0.2458979E-009  0.4778727E+02  0.7816164E-02  0.1312668E+00
        -11   -1    0    0    0    0  0.00000000000E+00  0.00000000000E+00  0.45593999997E+02  0.45594000000E+02  0.51100000000E-03 0.  1.
         11   -1    0    0    0    0 -0.00000000000E+00 -0.00000000000E+00 -0.45593999997E+02  0.45594000000E+02  0.51100000000E-03 0. -1.
    9900012    2    1    2    0    0 -0.34354338329E+02  0.17425180526E+02 -0.19994148390E+02  0.47787269035E+02  0.19999990839E+02 0.  0.
        -12    1    1    2    0    0  0.34354338329E+02 -0.17425180526E+02  0.19994148390E+02  0.43400730965E+02  0.00000000000E+00 0.  1.
         11    1    3    3    0    0 -0.37259526327E+01  0.72188743011E+00 -0.28201104568E+00  0.38057029539E+01  0.51100000000E-03 0. -1.
        -11    1    3    3    0    0 -0.18833634513E+02  0.17375308284E+02 -0.68644059906E+01  0.26527856996E+02  0.51100000000E-03 0.  1.
        -12    1    3    3    0    0 -0.11794751184E+02 -0.67201518766E+00 -0.12847731354E+02  0.17453709086E+02  0.00000000000E+00 0.  1.
</event>
<event>
 7    1  0.2458979E-009  0.4778727E+02  0.7816164E-02  0.1312668E+00
        -11   -1    0    0    0    0  0.00000000000E+00  0.00000000000E+00  0.45593999997E+02  0.45594000000E+02  0.51100000000E-03 0.  1.
         11   -1    0    0    0    0 -0.00000000000E+00 -0.00000000000E+00 -0.45593999997E+02  0.45594000000E+02  0.51100000000E-03 0. -1.
    9900012    2    1    2    0    0 -0.36017196068E+02 -0.13380765980E+02 -0.20182666168E+02  0.47787270462E+02  0.19999997343E+02 0.  0.
        -12    1    1    2    0    0  0.36017196068E+02  0.13380765980E+02  0.20182666168E+02  0.43400729538E+02  0.00000000000E+00 0.  1.
         11    1    3    3    0    0 -0.12961353721E+02  0.79380656742E+00 -0.37611237233E+01  0.13519351725E+02  0.51100000000E-03 0. -1.
        -11    1    3    3    0    0 -0.65687256196E+01 -0.11089460216E+02 -0.99768688498E+01  0.16299147108E+02  0.51100000000E-03 0.  1.
        -12    1    3    3    0    0 -0.16487116727E+02 -0.30851123308E+01 -0.64446735950E+01  0.17968771628E+02  0.00000000000E+00 0.  1.
</event>
<event>
 7    1  0.2458979E-009  0.4778727E+02  0.7816164E-02  0.1312668E+00
        -11   -1    0    0    0    0  0.00000000000E+00  0.00000000000E+00  0.45593999997E+02  0.45594000000E+02  0.51100000000E-03 0. -1.
         11   -1    0    0    0    0 -0.00000000000E+00 -0.00000000000E+00 -0.45593999997E+02  0.45594000000E+02  0.51100000000E-03 0.  1.
    9900012    2    1    2    0    0  0.23192681816E+02 -0.34370518483E+02  0.12821486742E+02  0.47787267830E+02  0.19999985342E+02 0.  0.
        -12    1    1    2    0    0 -0.23192681816E+02  0.34370518483E+02 -0.12821486742E+02  0.43400732170E+02  0.00000000000E+00 0.  1.
         11    1    3    3    0    0  0.21805954367E+02 -0.26982933329E+02  0.89357740236E+01  0.35824940957E+02  0.51100000000E-03 0. -1.
        -11    1    3    3    0    0 -0.10520559271E+01  0.94349693137E+00  0.28998083555E+01  0.32258172442E+01  0.51100000000E-03 0.  1.
        -12    1    3    3    0    0  0.24387833763E+01 -0.83310820858E+01  0.98590436283E+00  0.87365096285E+01  0.00000000000E+00 0.  1.
</event>
<event>
 7    1  0.2458979E-009  0.4778727E+02  0.7816164E-02  0.1312668E+00
        -11   -1    0    0    0    0  0.00000000000E+00  0.00000000000E+00  0.45593999997E+02  0.45594000000E+02  0.51100000000E-03 0.  1.
         11   -1    0    0    0    0 -0.00000000000E+00 -0.00000000000E+00 -0.45593999997E+02  0.45594000000E+02  0.51100000000E-03 0. -1.
    9900012    2    1    2    0    0 -0.19543004714E+02  0.33722411630E+02 -0.19091710152E+02  0.47787268717E+02  0.19999989387E+02 0.  0.
        -12    1    1    2    0    0  0.19543004714E+02 -0.33722411630E+02  0.19091710152E+02  0.43400731283E+02  0.00000000000E+00 0.  1.
         11    1    3    3    0    0 -0.16854627670E+01  0.95053752519E+01  0.14715684824E+01  0.97651655121E+01  0.51100000000E-03 0. -1.
        -11    1    3    3    0    0 -0.19160147073E+01  0.96771772416E+00  0.11538878088E+01  0.24370160625E+01  0.51100000000E-03 0.  1.
         12    1    3    3    0    0 -0.15941527239E+02  0.23249318654E+02 -0.21717166443E+02  0.35585087142E+02  0.00000000000E+00 0. -1.
</event>
<event>
 7    1  0.2458979E-009  0.4778727E+02  0.7816164E-02  0.1312668E+00
        -11   -1    0    0    0    0  0.00000000000E+00  0.00000000000E+00  0.45593999997E+02  0.45594000000E+02  0.51100000000E-03 0. -1.
         11   -1    0    0    0    0 -0.00000000000E+00 -0.00000000000E+00 -0.45593999997E+02  0.45594000000E+02  0.51100000000E-03 0.  1.
    9900012    2    1    2    0    0 -0.36228206032E+02  0.21255052657E+02  0.10925338838E+02  0.47787271844E+02  0.20000003645E+02 0.  0.
        -12    1    1    2    0    0  0.36228206032E+02 -0.21255052657E+02 -0.10925338838E+02  0.43400728156E+02  0.00000000000E+00 0.  1.
         11    1    3    3    0    0 -0.23301477246E+01  0.44303135372E+01 -0.35325377991E+01  0.61266703861E+01  0.51100000000E-03 0. -1.
        -11    1    3    3    0    0 -0.12038062846E+02  0.10240635743E+01  0.39023283973E+01  0.12696134470E+02  0.51100000000E-03 0.  1.
         12    1    3    3    0    0 -0.21859995461E+02  0.15800675545E+02  0.10555548240E+02  0.28964466988E+02  0.00000000000E+00 0. -1.
</event>
<event>
 7    1  0.2458979E-009  0.4778727E+02  0.7816164E-02  0.1312668E+00
        -11   -1    0    0    0    0  0.00000000000E+00  0.00000000000E+00  0.45593999997E+02  0.45594000000E+02  0.51100000000E-03 0.  1.
         11   -1    0    0    0    0 -0.00000000000E+00 -0.00000000000E+00 -0.45593999997E+02  0.45594000000E+02  0.51100000000E-03 0. -1.
    9900012    2    1    2    0    0 -0.23654577396E+02 -0.20451857707E+02 -0.30096606316E+02  0.47787271582E+02  0.20000002452E+02 0.  0.
        -12    1    1    2    0    0  0.23654577396E+02  0.20451857707E+02  0.30096606316E+02  0.43400728418E+02  0.00000000000E+00 0.  1.
         11    1    3    3    0    0 -0.83631521447E+00 -0.49598266472E+01 -0.34200926236E+01  0.60824614527E+01  0.51100000000E-03 0. -1.
        -11    1    3    3    0    0 -0.11234834164E+02 -0.83344732650E+01 -0.24072156104E+02  0.27841581188E+02  0.51100000000E-03 0.  1.
        -12    1    3    3    0    0 -0.11583428018E+02 -0.71575577952E+01 -0.26043575880E+01  0.13863228941E+02  0.00000000000E+00 0.  1.
</event>
<event>
 7    1  0.2458979E-009  0.4778727E+02  0.7816164E-02  0.1312668E+00
        -11   -1    0    0    0    0  0.00000000000E+00  0.00000000000E+00  0.45593999997E+02  0.45594000000E+02  0.51100000000E-03 0. -1.
         11   -1    0    0    0    0 -0.00000000000E+00 -0.00000000000E+00 -0.45593999997E+02  0.45594000000E+02  0.51100000000E-03 0.  1.
    9900012    2    1    2    0    0  0.10906445592E+02  0.13538528308E+02  0.39766584810E+02  0.47787267613E+02  0.19999984356E+02 0.  0.
        -12    1    1    2    0    0 -0.10906445592E+02 -0.13538528308E+02 -0.39766584810E+02  0.43400732387E+02  0.00000000000E+00 0.  1.
         11    1    3    3    0    0  0.43838794582E+01  0.10461537512E+02  0.23929750651E+02  0.26481977507E+02  0.51100000000E-03 0. -1.
        -11    1    3    3    0    0 -0.17425905798E+00  0.37663781226E+00 -0.20103423783E+01  0.20527296461E+01  0.51100000000E-03 0.  1.
         12    1    3    3    0    0  0.66968251921E+01  0.27003529842E+01  0.17847176538E+02  0.19252560460E+02  0.00000000000E+00 0. -1.
</event>
<event>
 7    1  0.2458979E-009  0.4778727E+02  0.7816164E-02  0.1312668E+00
        -11   -1    0    0    0    0  0.00000000000E+00  0.00000000000E+00  0.45593999997E+02  0.45594000000E+02  0.51100000000E-03 0. -1.
         11   -1    0    0    0    0 -0.00000000000E+00 -0.00000000000E+00 -0.45593999997E+02  0.45594000000E+02  0.51100000000E-03 0.  1.
    9900012    2    1    2    0    0 -0.92380841890E+00  0.78052078030E+01  0.42683117230E+02  0.47787272041E+02  0.20000004545E+02 0.  0.
        -12    1    1    2    0    0  0.92380841890E+00 -0.78052078030E+01 -0.42683117230E+02  0.43400727959E+02  0.00000000000E+00 0.  1.
         11    1    3    3    0    0  0.61857055071E+01  0.18648800860E+01  0.52358630023E+01  0.83159480515E+01  0.51100000000E-03 0. -1.
        -11    1    3    3    0    0  0.24379859991E+00  0.34614237292E+01  0.48521728796E+01  0.59652723245E+01  0.51100000000E-03 0.  1.
         12    1    3    3    0    0 -0.73533125259E+01  0.24789039878E+01  0.32595081348E+02  0.33506051665E+02  0.00000000000E+00 0. -1.
</event>
<event>
 7    1  0.2458979E-009  0.4778727E+02  0.7816164E-02  0.1312668E+00
        -11   -1    0    0    0    0  0.00000000000E+00  0.00000000000E+00  0.45593999997E+02  0.45594000000E+02  0.51100000000E-03 0. -1.
         11   -1    0    0    0    0 -0.00000000000E+00 -0.00000000000E+00 -0.45593999997E+02  0.45594000000E+02  0.51100000000E-03 0.  1.
    9900012    2    1    2    0    0 -0.37328753377E+02 -0.92134079629E+00  0.22120999458E+02  0.47787270576E+02  0.19999997863E+02 0.  0.
        -12    1    1    2    0    0  0.37328753377E+02  0.92134079629E+00 -0.22120999458E+02  0.43400729424E+02  0.00000000000E+00 0.  1.
         11    1    3    3    0    0 -0.14752254295E+02  0.48896993068E+01  0.14706763916E+02  0.21396893962E+02  0.51100000000E-03 0. -1.
        -11    1    3    3    0    0 -0.23216077655E+02 -0.49551172149E+01  0.81432846819E+01  0.25096863031E+02  0.51100000000E-03 0.  1.
         12    1    3    3    0    0  0.63957857345E+00 -0.85592288818E+00 -0.72904913929E+00  0.12935135831E+01  0.00000000000E+00 0. -1.
</event>
<event>
 7    1  0.2458979E-009  0.4778727E+02  0.7816164E-02  0.1312668E+00
        -11   -1    0    0    0    0  0.00000000000E+00  0.00000000000E+00  0.45593999997E+02  0.45594000000E+02  0.51100000000E-03 0.  1.
         11   -1    0    0    0    0 -0.00000000000E+00 -0.00000000000E+00 -0.45593999997E+02  0.45594000000E+02  0.51100000000E-03 0. -1.
    9900012    2    1    2    0    0 -0.11919490473E+02  0.15346401998E+02 -0.38807692112E+02  0.47787271038E+02  0.19999999970E+02 0.  0.
        -12    1    1    2    0    0  0.11919490473E+02 -0.15346401998E+02  0.38807692112E+02  0.43400728962E+02  0.00000000000E+00 0.  1.
         11    1    3    3    0    0 -0.49458962030E+01  0.66253073186E+01 -0.31515201232E+02  0.32581658878E+02  0.51100000000E-03 0. -1.
        -11    1    3    3    0    0 -0.57912620432E+01  0.44511968015E+01 -0.80346022259E+00  0.73482935168E+01  0.51100000000E-03 0.  1.
        -12    1    3    3    0    0 -0.11823322268E+01  0.42698978779E+01 -0.64890306575E+01  0.78573186429E+01  0.00000000000E+00 0.  1.
</event>
<event>
 7    1  0.2458979E-009  0.4778727E+02  0.7816164E-02  0.1312668E+00
        -11   -1    0    0    0    0  0.00000000000E+00  0.00000000000E+00  0.45593999997E+02  0.45594000000E+02  0.51100000000E-03 0.  1.
         11   -1    0    0    0    0 -0.00000000000E+00 -0.00000000000E+00 -0.45593999997E+02  0.45594000000E+02  0.51100000000E-03 0. -1.
    9900012    2    1    2    0    0 -0.57404405965E+01  0.23151911948E+02 -0.36258235679E+02  0.47787270286E+02  0.19999996544E+02 0.  0.
        -12    1    1    2    0    0  0.57404405965E+01 -0.23151911948E+02  0.36258235679E+02  0.43400729714E+02  0.00000000000E+00 0.  1.
         11    1    3    3    0    0 -0.30804141781E+00  0.24742283760E+01 -0.11551591575E+02  0.11817612438E+02  0.51100000000E-03 0. -1.
        -11    1    3    3    0    0  0.45393039477E+01  0.28788995848E+01 -0.29014144208E+01  0.61083180214E+01  0.51100000000E-03 0.  1.
        -12    1    3    3    0    0 -0.99717031264E+01  0.17798783987E+02 -0.21805229684E+02  0.29861339826E+02  0.00000000000E+00 0.  1.
</event>
<event>
 7    1  0.2458979E-009  0.4778727E+02  0.7816164E-02  0.1312668E+00
        -11   -1    0    0    0    0  0.00000000000E+00  0.00000000000E+00  0.45593999997E+02  0.45594000000E+02  0.51100000000E-03 0.  1.
         11   -1    0    0    0    0 -0.00000000000E+00 -0.00000000000E+00 -0.45593999997E+02  0.45594000000E+02  0.51100000000E-03 0. -1.
    9900012    2    1    2    0    0 -0.31525468592E+02 -0.29319102527E+02 -0.54916693392E+01  0.47787269879E+02  0.19999994686E+02 0.  0.
        -12    1    1    2    0    0  0.31525468592E+02  0.29319102527E+02  0.54916693392E+01  0.43400730121E+02  0.00000000000E+00 0.  1.
         11    1    3    3    0    0  0.19816894681E+01 -0.16083073573E+01  0.16895475665E+01  0.30607706454E+01  0.51100000000E-03 0. -1.
        -11    1    3    3    0    0 -0.27273364081E+02 -0.25156921511E+02 -0.41368969306E+01  0.37333912261E+02  0.51100000000E-03 0.  1.
        -12    1    3    3    0    0 -0.62337939789E+01 -0.25538736579E+01 -0.30443199751E+01  0.73925869723E+01  0.00000000000E+00 0.  1.
</event>
<event>
 7    1  0.2458979E-009  0.4778727E+02  0.7816164E-02  0.1312668E+00
        -11   -1    0    0    0    0  0.00000000000E+00  0.00000000000E+00  0.45593999997E+02  0.45594000000E+02  0.51100000000E-03 0.  1.
         11   -1    0    0    0    0 -0.00000000000E+00 -0.00000000000E+00 -0.45593999997E+02  0.45594000000E+02  0.51100000000E-03 0. -1.
    9900012    2    1    2    0    0  0.41976222772E+02  0.40882208743E+01 -0.10242385033E+02  0.47787270982E+02  0.19999999714E+02 0.  0.
        -12    1    1    2    0    0 -0.41976222772E+02 -0.40882208743E+01  0.10242385033E+02  0.43400729018E+02  0.00000000000E+00 0.  1.
         11    1    3    3    0    0  0.94016809383E+01  0.58035800163E+01  0.14997112168E+01  0.11149990111E+02  0.51100000000E-03 0. -1.
        -11    1    3    3    0    0  0.23160937641E+02 -0.25783267382E+01 -0.13630338586E+02  0.26997461574E+02  0.51100000000E-03 0.  1.
        -12    1    3    3    0    0  0.94136041928E+01  0.86296759617E+00  0.18882423361E+01  0.96398192976E+01  0.00000000000E+00 0.  1.
</event>
<event>
 7    1  0.2458979E-009  0.4778727E+02  0.7816164E-02  0.1312668E+00
        -11   -1    0    0    0    0  0.00000000000E+00  0.00000000000E+00  0.45593999997E+02  0.45594000000E+02  0.51100000000E-03 0. -1.
         11   -1    0    0    0    0 -0.00000000000E+00 -0.00000000000E+00 -0.45593999997E+02  0.45594000000E+02  0.51100000000E-03 0.  1.
    9900012    2    1    2    0    0  0.17695603729E+02 -0.18148486470E+02  0.35229554069E+02  0.47787269218E+02  0.19999991673E+02 0.  0.
        -12    1    1    2    0    0 -0.17695603729E+02  0.18148486470E+02 -0.35229554069E+02  0.43400730782E+02  0.00000000000E+00 0.  1.
         11    1    3    3    0    0  0.51896490303E+01 -0.12311651570E+02  0.72175786755E+01  0.15185607121E+02  0.51100000000E-03 0. -1.
        -11    1    3    3    0    0  0.59046051248E+01 -0.49574552636E+01  0.65056701055E+01  0.10087837635E+02  0.51100000000E-03 0.  1.
         12    1    3    3    0    0  0.66013495735E+01 -0.87937963641E+00  0.21506305288E+02  0.22513824462E+02  0.00000000000E+00 0. -1.
</event>
<event>
 7    1  0.2458979E-009  0.4778728E+02  0.7816164E-02  0.1312668E+00
        -11   -1    0    0    0    0  0.00000000000E+00  0.00000000000E+00  0.45593999997E+02  0.45594000000E+02  0.51100000000E-03 0. -1.
         11   -1    0    0    0    0 -0.00000000000E+00 -0.00000000000E+00 -0.45593999997E+02  0.45594000000E+02  0.51100000000E-03 0.  1.
    9900012    2    1    2    0    0  0.30188039588E+02 -0.18672970195E+00  0.31181247843E+02  0.47787276283E+02  0.20000023883E+02 0.  0.
        -12    1    1    2    0    0 -0.30188039588E+02  0.18672970195E+00 -0.31181247843E+02  0.43400723717E+02  0.00000000000E+00 0.  1.
         11    1    3    3    0    0  0.72427347296E+01 -0.75105266176E+00  0.18693057303E+02  0.20061198321E+02  0.51100000000E-03 0. -1.
        -11    1    3    3    0    0  0.59170628790E+01 -0.39216841039E+01  0.28290272979E+01  0.76416382431E+01  0.51100000000E-03 0.  1.
         12    1    3    3    0    0  0.17028241980E+02  0.44860070637E+01  0.96591632419E+01  0.20084439719E+02  0.00000000000E+00 0. -1.
</event>
<event>
 7    1  0.2458979E-009  0.4778727E+02  0.7816164E-02  0.1312668E+00
        -11   -1    0    0    0    0  0.00000000000E+00  0.00000000000E+00  0.45593999997E+02  0.45594000000E+02  0.51100000000E-03 0.  1.
         11   -1    0    0    0    0 -0.00000000000E+00 -0.00000000000E+00 -0.45593999997E+02  0.45594000000E+02  0.51100000000E-03 0. -1.
    9900012    2    1    2    0    0 -0.88476231172E+01  0.39370154285E+01 -0.42306535742E+02  0.47787268534E+02  0.19999988554E+02 0.  0.
        -12    1    1    2    0    0  0.88476231172E+01 -0.39370154285E+01  0.42306535742E+02  0.43400731466E+02  0.00000000000E+00 0.  1.
         11    1    3    3    0    0 -0.10214741219E+02  0.40140866505E+01 -0.31587927467E+02  0.33440260043E+02  0.51100000000E-03 0. -1.
        -11    1    3    3    0    0  0.20806137481E+01 -0.37213774928E+01 -0.95426200714E+01  0.10451755934E+02  0.51100000000E-03 0.  1.
        -12    1    3    3    0    0 -0.71349564613E+00  0.36443062708E+01 -0.11759882037E+01  0.38952525576E+01  0.00000000000E+00 0.  1.
</event>
<event>
 7    1  0.2458979E-009  0.4778727E+02  0.7816164E-02  0.1312668E+00
        -11   -1    0    0    0    0  0.00000000000E+00  0.00000000000E+00  0.45593999997E+02  0.45594000000E+02  0.51100000000E-03 0.  1.
         11   -1    0    0    0    0 -0.00000000000E+00 -0.00000000000E+00 -0.45593999997E+02  0.45594000000E+02  0.51100000000E-03 0. -1.
    9900012    2    1    2    0    0  0.35947732057E+02 -0.47083242946E+01 -0.23858234278E+02  0.47787273041E+02  0.20000009103E+02 0.  0.
        -12    1    1    2    0    0 -0.35947732057E+02  0.47083242946E+01  0.23858234278E+02  0.43400726959E+02  0.00000000000E+00 0.  1.
         11    1    3    3    0    0  0.19459182175E+02 -0.79370359554E+01 -0.19033027803E+02  0.28353350037E+02  0.51100000000E-03 0. -1.
        -11    1    3    3    0    0  0.75080473635E+01  0.48153444877E+01 -0.51667589184E+01  0.10307944302E+02  0.51100000000E-03 0.  1.
         12    1    3    3    0    0  0.89805025181E+01 -0.15866328269E+01  0.34155244314E+00  0.91259787024E+01  0.00000000000E+00 0. -1.
</event>
<event>
 7    1  0.2458979E-009  0.4778728E+02  0.7816164E-02  0.1312668E+00
        -11   -1    0    0    0    0  0.00000000000E+00  0.00000000000E+00  0.45593999997E+02  0.45594000000E+02  0.51100000000E-03 0.  1.
         11   -1    0    0    0    0 -0.00000000000E+00 -0.00000000000E+00 -0.45593999997E+02  0.45594000000E+02  0.51100000000E-03 0. -1.
    9900012    2    1    2    0    0  0.32421151996E+02  0.28839382559E+02 -0.88416981570E+00  0.47787276050E+02  0.20000022821E+02 0.  0.
        -12    1    1    2    0    0 -0.32421151996E+02 -0.28839382559E+02  0.88416981570E+00  0.43400723950E+02  0.00000000000E+00 0.  1.
         11    1    3    3    0    0  0.15368462929E+02  0.11906040870E+02 -0.91033144789E+01  0.21466573941E+02  0.51100000000E-03 0. -1.
        -11    1    3    3    0    0  0.38606311852E+01  0.82880071233E+01  0.40931146691E+01  0.10017440950E+02  0.51100000000E-03 0.  1.
         12    1    3    3    0    0  0.13192057881E+02  0.86453345659E+01  0.41260299942E+01  0.16303261159E+02  0.00000000000E+00 0. -1.
</event>
<event>
 7    1  0.2458979E-009  0.4778727E+02  0.7816164E-02  0.1312668E+00
        -11   -1    0    0    0    0  0.00000000000E+00  0.00000000000E+00  0.45593999997E+02  0.45594000000E+02  0.51100000000E-03 0.  1.
         11   -1    0    0    0    0 -0.00000000000E+00 -0.00000000000E+00 -0.45593999997E+02  0.45594000000E+02  0.51100000000E-03 0. -1.
    9900012    2    1    2    0    0 -0.32967574279E+02 -0.35344155668E+01 -0.28004824565E+02  0.47787271364E+02  0.20000001458E+02 0.  0.
        -12    1    1    2    0    0  0.32967574279E+02  0.35344155668E+01  0.28004824565E+02  0.43400728636E+02  0.00000000000E+00 0.  1.
         11    1    3    3    0    0 -0.29352978825E+02 -0.45514545837E+01 -0.20926523383E+02  0.36335003590E+02  0.51100000000E-03 0. -1.
        -11    1    3    3    0    0 -0.12191434741E+01  0.20575860683E+01 -0.82500823680E+01  0.85897514853E+01  0.51100000000E-03 0.  1.
         12    1    3    3    0    0 -0.23954519795E+01 -0.10405470514E+01  0.11717811869E+01  0.28625162885E+01  0.00000000000E+00 0. -1.
</event>
<event>
 7    1  0.2458979E-009  0.4778727E+02  0.7816164E-02  0.1312668E+00
        -11   -1    0    0    0    0  0.00000000000E+00  0.00000000000E+00  0.45593999997E+02  0.45594000000E+02  0.51100000000E-03 0.  1.
         11   -1    0    0    0    0 -0.00000000000E+00 -0.00000000000E+00 -0.45593999997E+02  0.45594000000E+02  0.51100000000E-03 0. -1.
    9900012    2    1    2    0    0 -0.36847458238E+02  0.12689694927E+01 -0.22897115894E+02  0.47787269840E+02  0.19999994508E+02 0.  0.
        -12    1    1    2    0    0  0.36847458238E+02 -0.12689694927E+01  0.22897115894E+02  0.43400730160E+02  0.00000000000E+00 0.  1.
         11    1    3    3    0    0 -0.74640837045E+01 -0.38003247519E+01 -0.11563883547E+02  0.14278599956E+02  0.51100000000E-03 0. -1.
        -11    1    3    3    0    0 -0.65959575488E+01  0.57149469790E+01 -0.27619426684E+01  0.91539938018E+01  0.51100000000E-03 0.  1.
         12    1    3    3    0    0 -0.22787416985E+02 -0.64565273441E+00 -0.85712896786E+01  0.24354676082E+02  0.00000000000E+00 0. -1.
</event>
<event>
 7    1  0.2458979E-009  0.4778727E+02  0.7816164E-02  0.1312668E+00
        -11   -1    0    0    0    0  0.00000000000E+00  0.00000000000E+00  0.45593999997E+02  0.45594000000E+02  0.51100000000E-03 0. -1.
         11   -1    0    0    0    0 -0.00000000000E+00 -0.00000000000E+00 -0.45593999997E+02  0.45594000000E+02  0.51100000000E-03 0.  1.
    9900012    2    1    2    0    0 -0.38291009200E+02  0.16581522543E+02  0.11936284233E+02  0.47787272394E+02  0.20000006155E+02 0.  0.
        -12    1    1    2    0    0  0.38291009200E+02 -0.16581522543E+02 -0.11936284233E+02  0.43400727606E+02  0.00000000000E+00 0.  1.
         11    1    3    3    0    0 -0.97867992434E+01  0.13566899867E-02  0.10963372114E+00  0.97874134011E+01  0.51100000000E-03 0. -1.
        -11    1    3    3    0    0 -0.18272722623E+02  0.13973063773E+02  0.14391982484E+02  0.27134259956E+02  0.51100000000E-03 0.  1.
        -12    1    3    3    0    0 -0.10231487333E+02  0.26071020803E+01 -0.25653319728E+01  0.10865599037E+02  0.00000000000E+00 0.  1.
</event>
<event>
 7    1  0.2458979E-009  0.4778727E+02  0.7816164E-02  0.1312668E+00
        -11   -1    0    0    0    0  0.00000000000E+00  0.00000000000E+00  0.45593999997E+02  0.45594000000E+02  0.51100000000E-03 0.  1.
         11   -1    0    0    0    0 -0.00000000000E+00 -0.00000000000E+00 -0.45593999997E+02  0.45594000000E+02  0.51100000000E-03 0. -1.
    9900012    2    1    2    0    0 -0.41813275965E+02  0.11189065711E+02  0.31746093377E+01  0.47787269789E+02  0.19999994276E+02 0.  0.
        -12    1    1    2    0    0  0.41813275965E+02 -0.11189065711E+02 -0.31746093377E+01  0.43400730211E+02  0.00000000000E+00 0.  1.
         11    1    3    3    0    0 -0.91690303921E+01 -0.33492043786E+01 -0.28056250191E+01  0.10156762295E+02  0.51100000000E-03 0. -1.
        -11    1    3    3    0    0 -0.52361485281E+01  0.49386074280E+01 -0.20797305435E+01  0.74921541716E+01  0.51100000000E-03 0.  1.
         12    1    3    3    0    0 -0.27408097045E+02  0.95996626612E+01  0.80599649003E+01  0.30138353323E+02  0.00000000000E+00 0. -1.
</event>
<event>
 7    1  0.2458979E-009  0.4778727E+02  0.7816164E-02  0.1312668E+00
        -11   -1    0    0    0    0  0.00000000000E+00  0.00000000000E+00  0.45593999997E+02  0.45594000000E+02  0.51100000000E-03 0. -1.
         11   -1    0    0    0    0 -0.00000000000E+00 -0.00000000000E+00 -0.45593999997E+02  0.45594000000E+02  0.51100000000E-03 0.  1.
    9900012    2    1    2    0    0  0.87871802678E+01 -0.42416005140E+02  0.27002303032E+01  0.47787271057E+02  0.20000000059E+02 0.  0.
        -12    1    1    2    0    0 -0.87871802678E+01  0.42416005140E+02 -0.27002303032E+01  0.43400728943E+02  0.00000000000E+00 0.  1.
         11    1    3    3    0    0  0.50277978996E+01 -0.40632819632E+02  0.21809453099E+01  0.41000747623E+02  0.51100000000E-03 0. -1.
        -11    1    3    3    0    0  0.13394829558E+01  0.74000226595E+00 -0.19701881557E+01  0.24946862674E+01  0.51100000000E-03 0.  1.
        -12    1    3    3    0    0  0.24198994124E+01 -0.25231877739E+01  0.24894731491E+01  0.42918371670E+01  0.00000000000E+00 0.  1.
</event>
<event>
 7    1  0.2458979E-009  0.4778725E+02  0.7816164E-02  0.1312668E+00
        -11   -1    0    0    0    0  0.00000000000E+00  0.00000000000E+00  0.45593999997E+02  0.45594000000E+02  0.51100000000E-03 0. -1.
         11   -1    0    0    0    0 -0.00000000000E+00 -0.00000000000E+00 -0.45593999997E+02  0.45594000000E+02  0.51100000000E-03 0.  1.
    9900012    2    1    2    0    0 -0.35292661636E+01  0.30489109302E+02  0.30685228924E+02  0.47787253696E+02  0.19999920899E+02 0.  0.
        -12    1    1    2    0    0  0.35292661636E+01 -0.30489109302E+02 -0.30685228924E+02  0.43400746304E+02  0.00000000000E+00 0.  1.
         11    1    3    3    0    0 -0.11198005575E+01  0.10394915058E+02  0.16451594508E+01  0.10583702671E+02  0.51100000000E-03 0. -1.
        -11    1    3    3    0    0 -0.56851044551E+01  0.43101794236E+01  0.89376676661E+01  0.11435906737E+02  0.51100000000E-03 0.  1.
         12    1    3    3    0    0  0.32756388490E+01  0.15784014820E+02  0.20102401807E+02  0.25767644288E+02  0.00000000000E+00 0. -1.
</event>
<event>
 7    1  0.2458979E-009  0.4778726E+02  0.7816164E-02  0.1312668E+00
        -11   -1    0    0    0    0  0.00000000000E+00  0.00000000000E+00  0.45593999997E+02  0.45594000000E+02  0.51100000000E-03 0.  1.
         11   -1    0    0    0    0 -0.00000000000E+00 -0.00000000000E+00 -0.45593999997E+02  0.45594000000E+02  0.51100000000E-03 0. -1.
    9900012    2    1    2    0    0  0.25105489835E+02 -0.33897848896E+02  0.10211477006E+02  0.47787262191E+02  0.19999959636E+02 0.  0.
        -12    1    1    2    0    0 -0.25105489835E+02  0.33897848896E+02 -0.10211477006E+02  0.43400737809E+02  0.00000000000E+00 0.  1.
         11    1    3    3    0    0  0.16900550595E+02 -0.11435898834E+02  0.11569186201E+02  0.23457503323E+02  0.51100000000E-03 0. -1.
        -11    1    3    3    0    0  0.26265011917E+01 -0.75738488819E+01 -0.24803311664E+01  0.83912894332E+01  0.51100000000E-03 0.  1.
         12    1    3    3    0    0  0.55784380488E+01 -0.14888101181E+02  0.11226219715E+01  0.15938469435E+02  0.00000000000E+00 0. -1.
</event>
<event>
 7    1  0.2458979E-009  0.4778726E+02  0.7816164E-02  0.1312668E+00
        -11   -1    0    0    0    0  0.00000000000E+00  0.00000000000E+00  0.45593999997E+02  0.45594000000E+02  0.51100000000E-03 0.  1.
         11   -1    0    0    0    0 -0.00000000000E+00 -0.00000000000E+00 -0.45593999997E+02  0.45594000000E+02  0.51100000000E-03 0. -1.
    9900012    2    1    2    0    0  0.23740692236E+01  0.32070008707E+02 -0.29146230381E+02  0.47787257972E+02  0.19999940399E+02 0.  0.
        -12    1    1    2    0    0 -0.23740692236E+01 -0.32070008707E+02  0.29146230381E+02  0.43400742028E+02  0.00000000000E+00 0.  1.
         11    1    3    3    0    0 -0.32827978297E+01  0.21802125199E+02 -0.11804645442E+02  0.25009179896E+02  0.51100000000E-03 0. -1.
        -11    1    3    3    0    0  0.67356692510E+01  0.40434543692E+01 -0.63546107274E+01  0.10104446608E+02  0.51100000000E-03 0.  1.
        -12    1    3    3    0    0 -0.10788021978E+01  0.62244291384E+01 -0.10986974212E+02  0.12673631469E+02  0.00000000000E+00 0.  1.
</event>
<event>
 7    1  0.2458979E-009  0.4778727E+02  0.7816164E-02  0.1312668E+00
        -11   -1    0    0    0    0  0.00000000000E+00  0.00000000000E+00  0.45593999997E+02  0.45594000000E+02  0.51100000000E-03 0.  1.
         11   -1    0    0    0    0 -0.00000000000E+00 -0.00000000000E+00 -0.45593999997E+02  0.45594000000E+02  0.51100000000E-03 0. -1.
    9900012    2    1    2    0    0 -0.23843855635E+02 -0.21547478872E+02 -0.29168476522E+02  0.47787270514E+02  0.19999997583E+02 0.  0.
        -12    1    1    2    0    0  0.23843855635E+02  0.21547478872E+02  0.29168476522E+02  0.43400729486E+02  0.00000000000E+00 0.  1.
         11    1    3    3    0    0 -0.11110970689E+02 -0.21133617274E+02 -0.20329275571E+02  0.31358617544E+02  0.51100000000E-03 0. -1.
        -11    1    3    3    0    0 -0.19973619856E+01  0.16666145366E+01 -0.43613359545E+00  0.26376640592E+01  0.51100000000E-03 0.  1.
         12    1    3    3    0    0 -0.10735522961E+02 -0.20804761348E+01 -0.84030673551E+01  0.13790988912E+02  0.00000000000E+00 0. -1.
</event>
<event>
 7    1  0.2458979E-009  0.4778727E+02  0.7816164E-02  0.1312668E+00
        -11   -1    0    0    0    0  0.00000000000E+00  0.00000000000E+00  0.45593999997E+02  0.45594000000E+02  0.51100000000E-03 0.  1.
         11   -1    0    0    0    0 -0.00000000000E+00 -0.00000000000E+00 -0.45593999997E+02  0.45594000000E+02  0.51100000000E-03 0. -1.
    9900012    2    1    2    0    0 -0.23033749014E+02 -0.11805480534E+02 -0.34838200382E+02  0.47787272240E+02  0.20000005450E+02 0.  0.
        -12    1    1    2    0    0  0.23033749014E+02  0.11805480534E+02  0.34838200382E+02  0.43400727760E+02  0.00000000000E+00 0.  1.
         11    1    3    3    0    0  0.25972628645E+01 -0.26058094081E+01 -0.48789622420E+01  0.61106701661E+01  0.51100000000E-03 0.  1.
        -11    1    3    3    0    0 -0.20420744693E+02 -0.30482003345E+01 -0.18901241485E+02  0.27992057249E+02  0.51100000000E-03 0. -1.
         12    1    3    3    0    0 -0.52102671858E+01 -0.61514707914E+01 -0.11057996655E+02  0.13684544825E+02  0.00000000000E+00 0. -1.
</event>
<event>
 7    1  0.2458979E-009  0.4778727E+02  0.7816164E-02  0.1312668E+00
        -11   -1    0    0    0    0  0.00000000000E+00  0.00000000000E+00  0.45593999997E+02  0.45594000000E+02  0.51100000000E-03 0.  1.
         11   -1    0    0    0    0 -0.00000000000E+00 -0.00000000000E+00 -0.45593999997E+02  0.45594000000E+02  0.51100000000E-03 0. -1.
    9900012    2    1    2    0    0 -0.35513523718E+01 -0.17930171453E+02 -0.39363943468E+02  0.47787271927E+02  0.20000004022E+02 0.  0.
        -12    1    1    2    0    0  0.35513523718E+01  0.17930171453E+02  0.39363943468E+02  0.43400728073E+02  0.00000000000E+00 0.  1.
         11    1    3    3    0    0 -0.10214656204E+01 -0.14118711232E+02 -0.22793021794E+02  0.26831012684E+02  0.51100000000E-03 0. -1.
        -11    1    3    3    0    0 -0.49776208991E+01  0.75884720009E+00 -0.14541748968E+02  0.15388795345E+02  0.51100000000E-03 0.  1.
        -12    1    3    3    0    0  0.24477341477E+01 -0.45703074206E+01 -0.20291727060E+01  0.55674638973E+01  0.00000000000E+00 0.  1.
</event>
<event>
 7    1  0.2458979E-009  0.4778727E+02  0.7816164E-02  0.1312668E+00
        -11   -1    0    0    0    0  0.00000000000E+00  0.00000000000E+00  0.45593999997E+02  0.45594000000E+02  0.51100000000E-03 0.  1.
         11   -1    0    0    0    0 -0.00000000000E+00 -0.00000000000E+00 -0.45593999997E+02  0.45594000000E+02  0.51100000000E-03 0. -1.
    9900012    2    1    2    0    0 -0.69094208535E+01  0.12209419804E+02 -0.41070834686E+02  0.47787268551E+02  0.19999988632E+02 0.  0.
        -12    1    1    2    0    0  0.69094208535E+01 -0.12209419804E+02  0.41070834686E+02  0.43400731449E+02  0.00000000000E+00 0.  1.
         11    1    3    3    0    0 -0.99278279741E+01  0.94738279957E+01 -0.20276968016E+02  0.24484089065E+02  0.51100000000E-03 0. -1.
        -11    1    3    3    0    0  0.41950910161E+01  0.47047509570E+01 -0.74289726297E+01  0.97428489055E+01  0.51100000000E-03 0.  1.
         12    1    3    3    0    0 -0.11766838955E+01 -0.19691591486E+01 -0.13364894040E+02  0.13560330580E+02  0.00000000000E+00 0. -1.
</event>
<event>
 7    1  0.2458979E-009  0.4778727E+02  0.7816164E-02  0.1312668E+00
        -11   -1    0    0    0    0  0.00000000000E+00  0.00000000000E+00  0.45593999997E+02  0.45594000000E+02  0.51100000000E-03 0.  1.
         11   -1    0    0    0    0 -0.00000000000E+00 -0.00000000000E+00 -0.45593999997E+02  0.45594000000E+02  0.51100000000E-03 0. -1.
    9900012    2    1    2    0    0 -0.38954111449E+01 -0.40493190691E+02 -0.15124500908E+02  0.47787271342E+02  0.20000001359E+02 0.  0.
        -12    1    1    2    0    0  0.38954111449E+01  0.40493190691E+02  0.15124500908E+02  0.43400728658E+02  0.00000000000E+00 0.  1.
         11    1    3    3    0    0 -0.39882713239E+01 -0.34483292325E+01 -0.19619265459E+01  0.56255167480E+01  0.51100000000E-03 0. -1.
        -11    1    3    3    0    0  0.63062273667E+01 -0.11963882477E+02 -0.83031586799E+01  0.15869638681E+02  0.51100000000E-03 0.  1.
        -12    1    3    3    0    0 -0.62133671878E+01 -0.25080978981E+02 -0.48594156820E+01  0.26292115914E+02  0.00000000000E+00 0.  1.
</event>
<event>
 7    1  0.2458979E-009  0.4778727E+02  0.7816164E-02  0.1312668E+00
        -11   -1    0    0    0    0  0.00000000000E+00  0.00000000000E+00  0.45593999997E+02  0.45594000000E+02  0.51100000000E-03 0.  1.
         11   -1    0    0    0    0 -0.00000000000E+00 -0.00000000000E+00 -0.45593999997E+02  0.45594000000E+02  0.51100000000E-03 0. -1.
    9900012    2    1    2    0    0 -0.40534825249E+02  0.66224990199E+00 -0.15495562229E+02  0.47787273259E+02  0.20000010096E+02 0.  0.
        -12    1    1    2    0    0  0.40534825249E+02 -0.66224990199E+00  0.15495562229E+02  0.43400726741E+02  0.00000000000E+00 0.  1.
         11    1    3    3    0    0 -0.27460593645E+02  0.98483360689E+00 -0.14811040901E+02  0.31215717730E+02  0.51100000000E-03 0. -1.
        -11    1    3    3    0    0 -0.11793053117E+01 -0.31541097060E+01  0.21822934682E+01  0.40126766750E+01  0.51100000000E-03 0.  1.
        -12    1    3    3    0    0 -0.11894926292E+02  0.28315260011E+01 -0.28668147958E+01  0.12558878853E+02  0.00000000000E+00 0.  1.
</event>
<event>
 7    1  0.2458979E-009  0.4778727E+02  0.7816164E-02  0.1312668E+00
        -11   -1    0    0    0    0  0.00000000000E+00  0.00000000000E+00  0.45593999997E+02  0.45594000000E+02  0.51100000000E-03 0.  1.
         11   -1    0    0    0    0 -0.00000000000E+00 -0.00000000000E+00 -0.45593999997E+02  0.45594000000E+02  0.51100000000E-03 0. -1.
    9900012    2    1    2    0    0  0.29190887377E+02  0.20795192850E+02 -0.24476017579E+02  0.47787269729E+02  0.19999994001E+02 0.  0.
        -12    1    1    2    0    0 -0.29190887377E+02 -0.20795192850E+02  0.24476017579E+02  0.43400730271E+02  0.00000000000E+00 0.  1.
         11    1    3    3    0    0  0.22421588389E+02  0.15352833575E+02 -0.14787535532E+02  0.30937167485E+02  0.51100000000E-03 0. -1.
        -11    1    3    3    0    0 -0.13799919775E+00 -0.92833656008E+00 -0.70192504459E+01  0.70817179858E+01  0.51100000000E-03 0.  1.
        -12    1    3    3    0    0  0.69072981864E+01  0.63706958352E+01 -0.26692316010E+01  0.97683842574E+01  0.00000000000E+00 0.  1.
</event>
<event>
 7    1  0.2458979E-009  0.4778727E+02  0.7816164E-02  0.1312668E+00
        -11   -1    0    0    0    0  0.00000000000E+00  0.00000000000E+00  0.45593999997E+02  0.45594000000E+02  0.51100000000E-03 0.  1.
         11   -1    0    0    0    0 -0.00000000000E+00 -0.00000000000E+00 -0.45593999997E+02  0.45594000000E+02  0.51100000000E-03 0. -1.
    9900012    2    1    2    0    0 -0.19854161269E+02 -0.16235618220E+02 -0.35012001162E+02  0.47787271389E+02  0.20000001569E+02 0.  0.
        -12    1    1    2    0    0  0.19854161269E+02  0.16235618220E+02  0.35012001162E+02  0.43400728611E+02  0.00000000000E+00 0.  1.
         11    1    3    3    0    0  0.34942309115E+00 -0.19932983475E+01 -0.13784226528E+02  0.13931986076E+02  0.51100000000E-03 0. -1.
        -11    1    3    3    0    0 -0.11643395178E+02 -0.78855795067E+01 -0.60545025528E+01  0.15310389180E+02  0.51100000000E-03 0.  1.
         12    1    3    3    0    0 -0.85601891820E+01 -0.63567403656E+01 -0.15173272081E+02  0.18544896132E+02  0.00000000000E+00 0. -1.
</event>
<event>
 7    1  0.2458979E-009  0.4778727E+02  0.7816164E-02  0.1312668E+00
        -11   -1    0    0    0    0  0.00000000000E+00  0.00000000000E+00  0.45593999997E+02  0.45594000000E+02  0.51100000000E-03 0. -1.
         11   -1    0    0    0    0 -0.00000000000E+00 -0.00000000000E+00 -0.45593999997E+02  0.45594000000E+02  0.51100000000E-03 0.  1.
    9900012    2    1    2    0    0  0.32947174655E+02  0.74201938703E+01 -0.27258898603E+02  0.47787272496E+02  0.20000006618E+02 0.  0.
        -12    1    1    2    0    0 -0.32947174655E+02 -0.74201938703E+01  0.27258898603E+02  0.43400727504E+02  0.00000000000E+00 0.  1.
         11    1    3    3    0    0  0.20830457233E+02 -0.12556711281E+01 -0.23710669689E+02  0.31586081047E+02  0.51100000000E-03 0. -1.
        -11    1    3    3    0    0  0.69691386590E+01  0.46115047346E+01  0.70135606990E+00  0.83861057806E+01  0.51100000000E-03 0.  1.
         12    1    3    3    0    0  0.51475787625E+01  0.40643602638E+01 -0.42495849845E+01  0.78150856688E+01  0.00000000000E+00 0. -1.
</event>
<event>
 7    1  0.2458979E-009  0.4778730E+02  0.7816164E-02  0.1312668E+00
        -11   -1    0    0    0    0  0.00000000000E+00  0.00000000000E+00  0.45593999997E+02  0.45594000000E+02  0.51100000000E-03 0.  1.
         11   -1    0    0    0    0 -0.00000000000E+00 -0.00000000000E+00 -0.45593999997E+02  0.45594000000E+02  0.51100000000E-03 0. -1.
    9900012    2    1    2    0    0  0.11347032751E+02 -0.22545666616E+02 -0.35306641627E+02  0.47787295186E+02  0.20000110070E+02 0.  0.
        -12    1    1    2    0    0 -0.11347032751E+02  0.22545666616E+02  0.35306641627E+02  0.43400704814E+02  0.00000000000E+00 0.  1.
         11    1    3    3    0    0  0.12008609931E+02 -0.12612142188E+02 -0.14008788286E+02  0.22349921534E+02  0.51100000000E-03 0. -1.
        -11    1    3    3    0    0 -0.48551645898E+01 -0.46042678079E+01 -0.74208769040E+01  0.99920628264E+01  0.51100000000E-03 0.  1.
         12    1    3    3    0    0  0.41935874094E+01 -0.53292566197E+01 -0.13876976437E+02  0.15445310826E+02  0.00000000000E+00 0. -1.
</event>
<event>
 7    1  0.2458979E-009  0.4778727E+02  0.7816164E-02  0.1312668E+00
        -11   -1    0    0    0    0  0.00000000000E+00  0.00000000000E+00  0.45593999997E+02  0.45594000000E+02  0.51100000000E-03 0.  1.
         11   -1    0    0    0    0 -0.00000000000E+00 -0.00000000000E+00 -0.45593999997E+02  0.45594000000E+02  0.51100000000E-03 0. -1.
    9900012    2    1    2    0    0  0.22120147086E+02 -0.27539818140E+01 -0.37238929460E+02  0.47787272008E+02  0.20000004392E+02 0.  0.
        -12    1    1    2    0    0 -0.22120147086E+02  0.27539818140E+01  0.37238929460E+02  0.43400727992E+02  0.00000000000E+00 0.  1.
         11    1    3    3    0    0  0.51702712399E+01  0.80206651130E+00 -0.15279870021E+02  0.16150834143E+02  0.51100000000E-03 0. -1.
        -11    1    3    3    0    0 -0.53078405821E+00  0.24665543808E+01  0.47284292016E+00  0.25669442764E+01  0.51100000000E-03 0.  1.
        -12    1    3    3    0    0  0.17480659904E+02 -0.60226027062E+01 -0.22431902359E+02  0.29069493588E+02  0.00000000000E+00 0.  1.
</event>
<event>
 7    1  0.2458979E-009  0.4778727E+02  0.7816164E-02  0.1312668E+00
        -11   -1    0    0    0    0  0.00000000000E+00  0.00000000000E+00  0.45593999997E+02  0.45594000000E+02  0.51100000000E-03 0.  1.
         11   -1    0    0    0    0 -0.00000000000E+00 -0.00000000000E+00 -0.45593999997E+02  0.45594000000E+02  0.51100000000E-03 0. -1.
    9900012    2    1    2    0    0  0.14164795939E+02 -0.40823697781E+02 -0.40506119223E+01  0.47787271879E+02  0.20000003805E+02 0.  0.
        -12    1    1    2    0    0 -0.14164795939E+02  0.40823697781E+02  0.40506119223E+01  0.43400728121E+02  0.00000000000E+00 0.  1.
         11    1    3    3    0    0  0.22182712529E+01 -0.47300053932E+01 -0.37931497177E+01  0.64561337821E+01  0.51100000000E-03 0. -1.
        -11    1    3    3    0    0  0.11915730030E+01 -0.25617489215E+02 -0.37456232597E+01  0.25917277901E+02  0.51100000000E-03 0.  1.
        -12    1    3    3    0    0  0.10754951683E+02 -0.10476203173E+02  0.34881610550E+01  0.15413860196E+02  0.00000000000E+00 0.  1.
</event>
<event>
 7    1  0.2458979E-009  0.4778727E+02  0.7816164E-02  0.1312668E+00
        -11   -1    0    0    0    0  0.00000000000E+00  0.00000000000E+00  0.45593999997E+02  0.45594000000E+02  0.51100000000E-03 0.  1.
         11   -1    0    0    0    0 -0.00000000000E+00 -0.00000000000E+00 -0.45593999997E+02  0.45594000000E+02  0.51100000000E-03 0. -1.
    9900012    2    1    2    0    0  0.33264138853E+02  0.12401139400E+02 -0.24966624293E+02  0.47787268201E+02  0.19999987038E+02 0.  0.
        -12    1    1    2    0    0 -0.33264138853E+02 -0.12401139400E+02  0.24966624293E+02  0.43400731799E+02  0.00000000000E+00 0.  1.
         11    1    3    3    0    0  0.98098228935E+01  0.11790612517E+02 -0.16381651569E+02  0.22441249455E+02  0.51100000000E-03 0. -1.
        -11    1    3    3    0    0  0.18818240661E+02  0.21756463048E+01 -0.65079225434E+01  0.20030293920E+02  0.51100000000E-03 0.  1.
         12    1    3    3    0    0  0.46360752980E+01 -0.15651194219E+01 -0.20770501814E+01  0.53157248264E+01  0.00000000000E+00 0. -1.
</event>
<event>
 7    1  0.2458979E-009  0.4778726E+02  0.7816164E-02  0.1312668E+00
        -11   -1    0    0    0    0  0.00000000000E+00  0.00000000000E+00  0.45593999997E+02  0.45594000000E+02  0.51100000000E-03 0. -1.
         11   -1    0    0    0    0 -0.00000000000E+00 -0.00000000000E+00 -0.45593999997E+02  0.45594000000E+02  0.51100000000E-03 0.  1.
    9900012    2    1    2    0    0  0.23009246057E+02  0.36785607648E+02  0.10089771517E+01  0.47787258428E+02  0.19999942475E+02 0.  0.
        -12    1    1    2    0    0 -0.23009246057E+02 -0.36785607648E+02 -0.10089771517E+01  0.43400741572E+02  0.00000000000E+00 0.  1.
         11    1    3    3    0    0  0.14530811544E+02  0.18290363902E+02 -0.84156257864E+01  0.24829511744E+02  0.51100000000E-03 0. -1.
        -11    1    3    3    0    0  0.86558324644E+01  0.14823195266E+02  0.85589211251E+01  0.19180867671E+02  0.51100000000E-03 0.  1.
         12    1    3    3    0    0 -0.17739795155E+00  0.36720484806E+01  0.86568181304E+00  0.37768790129E+01  0.00000000000E+00 0. -1.
</event>
<event>
 7    1  0.2458979E-009  0.4778730E+02  0.7816164E-02  0.1312668E+00
        -11   -1    0    0    0    0  0.00000000000E+00  0.00000000000E+00  0.45593999997E+02  0.45594000000E+02  0.51100000000E-03 0.  1.
         11   -1    0    0    0    0 -0.00000000000E+00 -0.00000000000E+00 -0.45593999997E+02  0.45594000000E+02  0.51100000000E-03 0. -1.
    9900012    2    1    2    0    0 -0.29756366236E+02 -0.79402906008E+01 -0.30579911766E+02  0.47787302425E+02  0.20000143076E+02 0.  0.
        -12    1    1    2    0    0  0.29756366236E+02  0.79402906008E+01  0.30579911766E+02  0.43400697575E+02  0.00000000000E+00 0.  1.
         11    1    3    3    0    0  0.57810258041E+00 -0.43785235146E+01 -0.38481182866E+01  0.58577884368E+01  0.51100000000E-03 0. -1.
        -11    1    3    3    0    0 -0.23469614014E+02 -0.38620874778E+00 -0.14631135017E+02  0.27659393546E+02  0.51100000000E-03 0.  1.
         12    1    3    3    0    0 -0.68648548021E+01 -0.31755583385E+01 -0.12100658462E+02  0.14270120442E+02  0.00000000000E+00 0. -1.
</event>
<event>
 7    1  0.2458979E-009  0.4778730E+02  0.7816164E-02  0.1312668E+00
        -11   -1    0    0    0    0  0.00000000000E+00  0.00000000000E+00  0.45593999997E+02  0.45594000000E+02  0.51100000000E-03 0.  1.
         11   -1    0    0    0    0 -0.00000000000E+00 -0.00000000000E+00 -0.45593999997E+02  0.45594000000E+02  0.51100000000E-03 0. -1.
    9900012    2    1    2    0    0 -0.30476966529E+02  0.15732752786E+02 -0.26594285084E+02  0.47787297262E+02  0.20000119537E+02 0.  0.
        -12    1    1    2    0    0  0.30476966529E+02 -0.15732752786E+02  0.26594285084E+02  0.43400702738E+02  0.00000000000E+00 0.  1.
         11    1    3    3    0    0 -0.16460112230E+02  0.20412411463E+01 -0.15648346552E+02  0.22802910124E+02  0.51100000000E-03 0. -1.
        -11    1    3    3    0    0 -0.69997559427E+00  0.77193393237E+01 -0.26203201602E+01  0.81819461884E+01  0.51100000000E-03 0.  1.
         12    1    3    3    0    0 -0.13316878704E+02  0.59721723163E+01 -0.83256183709E+01  0.16802440950E+02  0.00000000000E+00 0. -1.
</event>
<event>
 7    1  0.2458979E-009  0.4778727E+02  0.7816164E-02  0.1312668E+00
        -11   -1    0    0    0    0  0.00000000000E+00  0.00000000000E+00  0.45593999997E+02  0.45594000000E+02  0.51100000000E-03 0.  1.
         11   -1    0    0    0    0 -0.00000000000E+00 -0.00000000000E+00 -0.45593999997E+02  0.45594000000E+02  0.51100000000E-03 0. -1.
    9900012    2    1    2    0    0  0.39239092135E+02  0.14245629003E+02  0.11873461719E+02  0.47787269701E+02  0.19999993877E+02 0.  0.
        -12    1    1    2    0    0 -0.39239092135E+02 -0.14245629003E+02 -0.11873461719E+02  0.43400730299E+02  0.00000000000E+00 0.  1.
         11    1    3    3    0    0  0.20577051514E+02  0.41878389500E+00  0.30403506525E+01  0.20804666816E+02  0.51100000000E-03 0. -1.
        -11    1    3    3    0    0  0.58567658743E+01  0.94107008754E+00 -0.14516205942E+01  0.61069241052E+01  0.51100000000E-03 0.  1.
         12    1    3    3    0    0  0.12805274747E+02  0.12885775020E+02  0.10284731661E+02  0.20875678781E+02  0.00000000000E+00 0. -1.
</event>
<event>
 7    1  0.2458979E-009  0.4778727E+02  0.7816164E-02  0.1312668E+00
        -11   -1    0    0    0    0  0.00000000000E+00  0.00000000000E+00  0.45593999997E+02  0.45594000000E+02  0.51100000000E-03 0.  1.
         11   -1    0    0    0    0 -0.00000000000E+00 -0.00000000000E+00 -0.45593999997E+02  0.45594000000E+02  0.51100000000E-03 0. -1.
    9900012    2    1    2    0    0  0.21312842478E+02 -0.74309061973E+01 -0.37069766017E+02  0.47787272195E+02  0.20000005246E+02 0.  0.
        -12    1    1    2    0    0 -0.21312842478E+02  0.74309061973E+01  0.37069766017E+02  0.43400727805E+02  0.00000000000E+00 0.  1.
         11    1    3    3    0    0  0.48987264931E+01 -0.85144009305E+00 -0.52505984801E+01  0.72312693317E+01  0.51100000000E-03 0. -1.
        -11    1    3    3    0    0 -0.23305593463E+01  0.32234472677E+01 -0.55646840062E+01  0.68401628273E+01  0.51100000000E-03 0.  1.
        -12    1    3    3    0    0  0.18744675331E+02 -0.98029133719E+01 -0.26254483531E+02  0.33715840036E+02  0.00000000000E+00 0.  1.
</event>
<event>
 7    1  0.2458979E-009  0.4778727E+02  0.7816164E-02  0.1312668E+00
        -11   -1    0    0    0    0  0.00000000000E+00  0.00000000000E+00  0.45593999997E+02  0.45594000000E+02  0.51100000000E-03 0.  1.
         11   -1    0    0    0    0 -0.00000000000E+00 -0.00000000000E+00 -0.45593999997E+02  0.45594000000E+02  0.51100000000E-03 0. -1.
    9900012    2    1    2    0    0 -0.24335347071E+02 -0.34143279366E+02 -0.11209406275E+02  0.47787269223E+02  0.19999991694E+02 0.  0.
        -12    1    1    2    0    0  0.24335347071E+02  0.34143279366E+02  0.11209406275E+02  0.43400730777E+02  0.00000000000E+00 0.  1.
         11    1    3    3    0    0 -0.12473692697E+02 -0.15162208195E+02 -0.11600830318E+02  0.22804929975E+02  0.51100000000E-03 0. -1.
        -11    1    3    3    0    0 -0.42379172199E+01 -0.50221460354E+00  0.23928896089E+01  0.48926560079E+01  0.51100000000E-03 0.  1.
         12    1    3    3    0    0 -0.76237371542E+01 -0.18478856568E+02 -0.20014655657E+01  0.20089683239E+02  0.00000000000E+00 0. -1.
</event>
<event>
 7    1  0.2458979E-009  0.4778727E+02  0.7816164E-02  0.1312668E+00
        -11   -1    0    0    0    0  0.00000000000E+00  0.00000000000E+00  0.45593999997E+02  0.45594000000E+02  0.51100000000E-03 0.  1.
         11   -1    0    0    0    0 -0.00000000000E+00 -0.00000000000E+00 -0.45593999997E+02  0.45594000000E+02  0.51100000000E-03 0. -1.
    9900012    2    1    2    0    0  0.21948290934E+02 -0.27373004899E+02 -0.25546319437E+02  0.47787270641E+02  0.19999998159E+02 0.  0.
        -12    1    1    2    0    0 -0.21948290934E+02  0.27373004899E+02  0.25546319437E+02  0.43400729359E+02  0.00000000000E+00 0.  1.
         11    1    3    3    0    0  0.13582960432E+02 -0.12168944401E+02 -0.18551676659E+02  0.26014317770E+02  0.51100000000E-03 0. -1.
        -11    1    3    3    0    0  0.18508963605E+01 -0.45796048615E+01  0.30161542673E+01  0.57875543064E+01  0.51100000000E-03 0.  1.
         12    1    3    3    0    0  0.65144341417E+01 -0.10624455636E+02 -0.10010797046E+02  0.15985398564E+02  0.00000000000E+00 0. -1.
</event>
<event>
 7    1  0.2458979E-009  0.4778727E+02  0.7816164E-02  0.1312668E+00
        -11   -1    0    0    0    0  0.00000000000E+00  0.00000000000E+00  0.45593999997E+02  0.45594000000E+02  0.51100000000E-03 0.  1.
         11   -1    0    0    0    0 -0.00000000000E+00 -0.00000000000E+00 -0.45593999997E+02  0.45594000000E+02  0.51100000000E-03 0. -1.
    9900012    2    1    2    0    0  0.22004784254E+02  0.37204188321E+02  0.39065362271E+01  0.47787272080E+02  0.20000004721E+02 0.  0.
        -12    1    1    2    0    0 -0.22004784254E+02 -0.37204188321E+02 -0.39065362271E+01  0.43400727920E+02  0.00000000000E+00 0.  1.
         11    1    3    3    0    0  0.19446175584E+02  0.23166122938E+02 -0.29357063445E+01  0.30388178110E+02  0.51100000000E-03 0. -1.
        -11    1    3    3    0    0 -0.19200682862E+01  0.82854482432E+01  0.50509028137E+01  0.98917609306E+01  0.51100000000E-03 0.  1.
        -12    1    3    3    0    0  0.44786769560E+01  0.57526171399E+01  0.17913397579E+01  0.75073330392E+01  0.00000000000E+00 0.  1.
</event>
<event>
 7    1  0.2458979E-009  0.4778727E+02  0.7816164E-02  0.1312668E+00
        -11   -1    0    0    0    0  0.00000000000E+00  0.00000000000E+00  0.45593999997E+02  0.45594000000E+02  0.51100000000E-03 0.  1.
         11   -1    0    0    0    0 -0.00000000000E+00 -0.00000000000E+00 -0.45593999997E+02  0.45594000000E+02  0.51100000000E-03 0. -1.
    9900012    2    1    2    0    0 -0.26873819422E+02 -0.16944653717E+02 -0.29568559578E+02  0.47787272178E+02  0.20000005169E+02 0.  0.
        -12    1    1    2    0    0  0.26873819422E+02  0.16944653717E+02  0.29568559578E+02  0.43400727822E+02  0.00000000000E+00 0.  1.
         11    1    3    3    0    0 -0.60489863864E+01 -0.82565717202E+01 -0.16170889728E+02  0.19137891413E+02  0.51100000000E-03 0.  1.
        -11    1    3    3    0    0 -0.84401697571E+01 -0.94547768658E+01 -0.87413386906E+01  0.15396112284E+02  0.51100000000E-03 0. -1.
         12    1    3    3    0    0 -0.12384663279E+02  0.76669486911E+00 -0.46563311590E+01  0.13253268481E+02  0.00000000000E+00 0. -1.
</event>
<event>
 7    1  0.2458979E-009  0.4778727E+02  0.7816164E-02  0.1312668E+00
        -11   -1    0    0    0    0  0.00000000000E+00  0.00000000000E+00  0.45593999997E+02  0.45594000000E+02  0.51100000000E-03 0. -1.
         11   -1    0    0    0    0 -0.00000000000E+00 -0.00000000000E+00 -0.45593999997E+02  0.45594000000E+02  0.51100000000E-03 0.  1.
    9900012    2    1    2    0    0 -0.31259658893E+02  0.16857042239E+02  0.24945879875E+02  0.47787273395E+02  0.20000010716E+02 0.  0.
        -12    1    1    2    0    0  0.31259658893E+02 -0.16857042239E+02 -0.24945879875E+02  0.43400726605E+02  0.00000000000E+00 0.  1.
         11    1    3    3    0    0 -0.16463905522E+02  0.92800029564E+01  0.24076440429E+02  0.30608064687E+02  0.51100000000E-03 0. -1.
        -11    1    3    3    0    0 -0.11225623854E+02  0.42954420662E+01  0.20386578201E+01  0.12191045051E+02  0.51100000000E-03 0.  1.
         12    1    3    3    0    0 -0.35701295165E+01  0.32815972167E+01 -0.11692183747E+01  0.49881636566E+01  0.00000000000E+00 0. -1.
</event>
<event>
 7    1  0.2458979E-009  0.4778727E+02  0.7816164E-02  0.1312668E+00
        -11   -1    0    0    0    0  0.00000000000E+00  0.00000000000E+00  0.45593999997E+02  0.45594000000E+02  0.51100000000E-03 0. -1.
         11   -1    0    0    0    0 -0.00000000000E+00 -0.00000000000E+00 -0.45593999997E+02  0.45594000000E+02  0.51100000000E-03 0.  1.
    9900012    2    1    2    0    0  0.12653910304E+02  0.30851554488E+02 -0.27779189045E+02  0.47787271846E+02  0.20000003656E+02 0.  0.
        -12    1    1    2    0    0 -0.12653910304E+02 -0.30851554488E+02  0.27779189045E+02  0.43400728154E+02  0.00000000000E+00 0.  1.
         11    1    3    3    0    0  0.63049874509E+01  0.23789086886E+02 -0.12907367665E+02  0.27789812196E+02  0.51100000000E-03 0. -1.
        -11    1    3    3    0    0  0.91550124076E-01 -0.20073368816E+01 -0.42092032883E+01  0.46642443509E+01  0.51100000000E-03 0.  1.
        -12    1    3    3    0    0  0.62573727286E+01  0.90698044839E+01 -0.10662618091E+02  0.15333215299E+02  0.00000000000E+00 0.  1.
</event>
<event>
 7    1  0.2458979E-009  0.4778728E+02  0.7816164E-02  0.1312668E+00
        -11   -1    0    0    0    0  0.00000000000E+00  0.00000000000E+00  0.45593999997E+02  0.45594000000E+02  0.51100000000E-03 0.  1.
         11   -1    0    0    0    0 -0.00000000000E+00 -0.00000000000E+00 -0.45593999997E+02  0.45594000000E+02  0.51100000000E-03 0. -1.
    9900012    2    1    2    0    0 -0.21079305972E+02  0.23023783265E+02 -0.30152791750E+02  0.47787278965E+02  0.20000036113E+02 0.  0.
        -12    1    1    2    0    0  0.21079305972E+02 -0.23023783265E+02  0.30152791750E+02  0.43400721035E+02  0.00000000000E+00 0.  1.
         11    1    3    3    0    0 -0.20477792146E+00 -0.14553118160E+00 -0.23493104145E+01  0.23627045958E+01  0.51100000000E-03 0.  1.
        -11    1    3    3    0    0 -0.14916913376E+02  0.23174532021E+02 -0.28228892210E+02  0.39451788232E+02  0.51100000000E-03 0. -1.
        -12    1    3    3    0    0 -0.59576146744E+01 -0.52175742961E-02  0.42541087456E+00  0.59727861375E+01  0.00000000000E+00 0.  1.
</event>
<event>
 7    1  0.2458979E-009  0.4778726E+02  0.7816164E-02  0.1312668E+00
        -11   -1    0    0    0    0  0.00000000000E+00  0.00000000000E+00  0.45593999997E+02  0.45594000000E+02  0.51100000000E-03 0. -1.
         11   -1    0    0    0    0 -0.00000000000E+00 -0.00000000000E+00 -0.45593999997E+02  0.45594000000E+02  0.51100000000E-03 0.  1.
    9900012    2    1    2    0    0  0.40533873784E+01 -0.62316930584E+01  0.42759326609E+02  0.47787263143E+02  0.19999963976E+02 0.  0.
        -12    1    1    2    0    0 -0.40533873784E+01  0.62316930584E+01 -0.42759326609E+02  0.43400736857E+02  0.00000000000E+00 0.  1.
         11    1    3    3    0    0 -0.14790540264E+01 -0.72044170159E+01  0.60312048686E+01  0.95113962056E+01  0.51100000000E-03 0. -1.
        -11    1    3    3    0    0  0.80449121532E+00  0.23643710364E+01  0.19995436758E+01  0.31993173781E+01  0.51100000000E-03 0.  1.
         12    1    3    3    0    0  0.47279501896E+01 -0.13916470789E+01  0.34728578065E+02  0.35076549560E+02  0.00000000000E+00 0. -1.
</event>
<event>
 7    1  0.2458979E-009  0.4778727E+02  0.7816164E-02  0.1312668E+00
        -11   -1    0    0    0    0  0.00000000000E+00  0.00000000000E+00  0.45593999997E+02  0.45594000000E+02  0.51100000000E-03 0. -1.
         11   -1    0    0    0    0 -0.00000000000E+00 -0.00000000000E+00 -0.45593999997E+02  0.45594000000E+02  0.51100000000E-03 0.  1.
    9900012    2    1    2    0    0 -0.34991716512E+02 -0.17970946893E+02  0.18337066497E+02  0.47787272305E+02  0.20000005749E+02 0.  0.
        -12    1    1    2    0    0  0.34991716512E+02  0.17970946893E+02 -0.18337066497E+02  0.43400727695E+02  0.00000000000E+00 0.  1.
         11    1    3    3    0    0 -0.49545726799E+01  0.14814565437E+01  0.21575003111E+01  0.56033304190E+01  0.51100000000E-03 0. -1.
        -11    1    3    3    0    0 -0.30955163908E+02 -0.20815791858E+02  0.15694638917E+02  0.40470249002E+02  0.51100000000E-03 0.  1.
        -12    1    3    3    0    0  0.91802007558E+00  0.13633884214E+01  0.48492726896E+00  0.17136928847E+01  0.00000000000E+00 0.  1.
</event>
<event>
 7    1  0.2458979E-009  0.4778727E+02  0.7816164E-02  0.1312668E+00
        -11   -1    0    0    0    0  0.00000000000E+00  0.00000000000E+00  0.45593999997E+02  0.45594000000E+02  0.51100000000E-03 0.  1.
         11   -1    0    0    0    0 -0.00000000000E+00 -0.00000000000E+00 -0.45593999997E+02  0.45594000000E+02  0.51100000000E-03 0. -1.
    9900012    2    1    2    0    0 -0.16461203056E+02 -0.29116378964E+02 -0.27656617538E+02  0.47787271623E+02  0.20000002636E+02 0.  0.
        -12    1    1    2    0    0  0.16461203056E+02  0.29116378964E+02  0.27656617538E+02  0.43400728377E+02  0.00000000000E+00 0.  1.
         11    1    3    3    0    0  0.27367066026E+00 -0.94168995738E+01 -0.95402290471E+00  0.94690576710E+01  0.51100000000E-03 0. -1.
        -11    1    3    3    0    0 -0.23904279931E+01  0.54769645307E+00 -0.39669822384E+01  0.46638037840E+01  0.51100000000E-03 0.  1.
         12    1    3    3    0    0 -0.14344445723E+02 -0.20247175844E+02 -0.22735612395E+02  0.33654410168E+02  0.00000000000E+00 0. -1.
</event>
<event>
 7    1  0.2458979E-009  0.4778727E+02  0.7816164E-02  0.1312668E+00
        -11   -1    0    0    0    0  0.00000000000E+00  0.00000000000E+00  0.45593999997E+02  0.45594000000E+02  0.51100000000E-03 0.  1.
         11   -1    0    0    0    0 -0.00000000000E+00 -0.00000000000E+00 -0.45593999997E+02  0.45594000000E+02  0.51100000000E-03 0. -1.
    9900012    2    1    2    0    0  0.42364960768E+02 -0.57931466122E+01  0.74345714587E+01  0.47787270728E+02  0.19999998557E+02 0.  0.
        -12    1    1    2    0    0 -0.42364960768E+02  0.57931466122E+01 -0.74345714587E+01  0.43400729272E+02  0.00000000000E+00 0.  1.
         11    1    3    3    0    0  0.10017823732E+02 -0.34887125263E+00  0.72999788025E+01  0.12400330409E+02  0.51100000000E-03 0.  1.
        -11    1    3    3    0    0  0.27103796364E+02 -0.20254317457E+01 -0.45643860612E+01  0.27559966827E+02  0.51100000000E-03 0. -1.
        -12    1    3    3    0    0  0.52433406722E+01 -0.34188436139E+01  0.46989787175E+01  0.78269734923E+01  0.00000000000E+00 0.  1.
</event>
<event>
 7    1  0.2458979E-009  0.4778727E+02  0.7816164E-02  0.1312668E+00
        -11   -1    0    0    0    0  0.00000000000E+00  0.00000000000E+00  0.45593999997E+02  0.45594000000E+02  0.51100000000E-03 0. -1.
         11   -1    0    0    0    0 -0.00000000000E+00 -0.00000000000E+00 -0.45593999997E+02  0.45594000000E+02  0.51100000000E-03 0.  1.
    9900012    2    1    2    0    0  0.20178086399E+02  0.35816227498E+02  0.13916393364E+02  0.47787270430E+02  0.19999997199E+02 0.  0.
        -12    1    1    2    0    0 -0.20178086399E+02 -0.35816227498E+02 -0.13916393364E+02  0.43400729570E+02  0.00000000000E+00 0.  1.
         11    1    3    3    0    0  0.46319964581E+01  0.71214450443E+01  0.67491744592E+01  0.10849964371E+02  0.51100000000E-03 0. -1.
        -11    1    3    3    0    0  0.85503672562E+01  0.22165679047E+02 -0.17966198750E+01  0.23825489524E+02  0.51100000000E-03 0.  1.
        -12    1    3    3    0    0  0.69957226849E+01  0.65291034069E+01  0.89638387799E+01  0.13111816535E+02  0.00000000000E+00 0.  1.
</event>
<event>
 7    1  0.2458979E-009  0.4778727E+02  0.7816164E-02  0.1312668E+00
        -11   -1    0    0    0    0  0.00000000000E+00  0.00000000000E+00  0.45593999997E+02  0.45594000000E+02  0.51100000000E-03 0.  1.
         11   -1    0    0    0    0 -0.00000000000E+00 -0.00000000000E+00 -0.45593999997E+02  0.45594000000E+02  0.51100000000E-03 0. -1.
    9900012    2    1    2    0    0 -0.42690694078E+02 -0.53224836151E+01 -0.57270537934E+01  0.47787270308E+02  0.19999996640E+02 0.  0.
        -12    1    1    2    0    0  0.42690694078E+02  0.53224836151E+01  0.57270537934E+01  0.43400729692E+02  0.00000000000E+00 0.  1.
         11    1    3    3    0    0 -0.22525827063E+02  0.52355772976E+01 -0.63892371876E+01  0.23992634424E+02  0.51100000000E-03 0. -1.
        -11    1    3    3    0    0 -0.42845260407E+01 -0.54229723081E+01 -0.11510638443E+01  0.70064784508E+01  0.51100000000E-03 0.  1.
         12    1    3    3    0    0 -0.15880340974E+02 -0.51350886047E+01  0.18132472385E+01  0.16788157433E+02  0.00000000000E+00 0. -1.
</event>
<event>
 7    1  0.2458979E-009  0.4778727E+02  0.7816164E-02  0.1312668E+00
        -11   -1    0    0    0    0  0.00000000000E+00  0.00000000000E+00  0.45593999997E+02  0.45594000000E+02  0.51100000000E-03 0.  1.
         11   -1    0    0    0    0 -0.00000000000E+00 -0.00000000000E+00 -0.45593999997E+02  0.45594000000E+02  0.51100000000E-03 0. -1.
    9900012    2    1    2    0    0  0.94605016074E+01  0.16556542465E+02 -0.38987217912E+02  0.47787270172E+02  0.19999996021E+02 0.  0.
        -12    1    1    2    0    0 -0.94605016074E+01 -0.16556542465E+02  0.38987217912E+02  0.43400729828E+02  0.00000000000E+00 0.  1.
         11    1    3    3    0    0  0.22081640338E+01  0.21803608268E+01 -0.94581307004E+01  0.99542050583E+01  0.51100000000E-03 0. -1.
        -11    1    3    3    0    0 -0.23012788178E+01 -0.11049303188E+01  0.61431006707E+00  0.26256679772E+01  0.51100000000E-03 0.  1.
        -12    1    3    3    0    0  0.95536163915E+01  0.15481111957E+02 -0.30143397279E+02  0.35207397136E+02  0.00000000000E+00 0.  1.
</event>
<event>
 7    1  0.2458979E-009  0.4778727E+02  0.7816164E-02  0.1312668E+00
        -11   -1    0    0    0    0  0.00000000000E+00  0.00000000000E+00  0.45593999997E+02  0.45594000000E+02  0.51100000000E-03 0.  1.
         11   -1    0    0    0    0 -0.00000000000E+00 -0.00000000000E+00 -0.45593999997E+02  0.45594000000E+02  0.51100000000E-03 0. -1.
    9900012    2    1    2    0    0  0.14210002766E+02  0.12354428693E+02 -0.39103290664E+02  0.47787269272E+02  0.19999991921E+02 0.  0.
        -12    1    1    2    0    0 -0.14210002766E+02 -0.12354428693E+02  0.39103290664E+02  0.43400730728E+02  0.00000000000E+00 0.  1.
         11    1    3    3    0    0 -0.21098699364E+00  0.79237713077E+01 -0.22054981441E+02  0.23436144604E+02  0.51100000000E-03 0. -1.
        -11    1    3    3    0    0  0.13817423486E+02  0.58563584841E+01 -0.12450214936E+02  0.19499384059E+02  0.51100000000E-03 0.  1.
        -12    1    3    3    0    0  0.60356627407E+00 -0.14257010991E+01 -0.45980942871E+01  0.48517406097E+01  0.00000000000E+00 0.  1.
</event>
<event>
 7    1  0.2458979E-009  0.4778728E+02  0.7816164E-02  0.1312668E+00
        -11   -1    0    0    0    0  0.00000000000E+00  0.00000000000E+00  0.45593999997E+02  0.45594000000E+02  0.51100000000E-03 0.  1.
         11   -1    0    0    0    0 -0.00000000000E+00 -0.00000000000E+00 -0.45593999997E+02  0.45594000000E+02  0.51100000000E-03 0. -1.
    9900012    2    1    2    0    0  0.42362314011E+02  0.35510240709E+01 -0.87434104532E+01  0.47787278270E+02  0.20000032943E+02 0.  0.
        -12    1    1    2    0    0 -0.42362314011E+02 -0.35510240709E+01  0.87434104532E+01  0.43400721730E+02  0.00000000000E+00 0.  1.
         11    1    3    3    0    0  0.15274362089E+02 -0.16076929988E+01  0.33855491647E+01  0.15727452350E+02  0.51100000000E-03 0. -1.
        -11    1    3    3    0    0  0.20180030678E+02  0.32917166042E+01 -0.13855052703E+02  0.24698816207E+02  0.51100000000E-03 0.  1.
        -12    1    3    3    0    0  0.69079212438E+01  0.18670004655E+01  0.17260930849E+01  0.73610097124E+01  0.00000000000E+00 0.  1.
</event>
<event>
 7    1  0.2458979E-009  0.4778727E+02  0.7816164E-02  0.1312668E+00
        -11   -1    0    0    0    0  0.00000000000E+00  0.00000000000E+00  0.45593999997E+02  0.45594000000E+02  0.51100000000E-03 0.  1.
         11   -1    0    0    0    0 -0.00000000000E+00 -0.00000000000E+00 -0.45593999997E+02  0.45594000000E+02  0.51100000000E-03 0. -1.
    9900012    2    1    2    0    0  0.26154927728E+02  0.33717236976E+02 -0.79177479412E+01  0.47787273667E+02  0.20000011958E+02 0.  0.
        -12    1    1    2    0    0 -0.26154927728E+02 -0.33717236976E+02  0.79177479412E+01  0.43400726333E+02  0.00000000000E+00 0.  1.
         11    1    3    3    0    0  0.10560588152E+02  0.24617507191E+02 -0.36892750975E+01  0.27039941447E+02  0.51100000000E-03 0. -1.
        -11    1    3    3    0    0 -0.11315958747E+01  0.16080690696E+01 -0.67490839424E+00  0.20789172562E+01  0.51100000000E-03 0.  1.
         12    1    3    3    0    0  0.16725935451E+02  0.74916607149E+01 -0.35535644495E+01  0.18668414964E+02  0.00000000000E+00 0. -1.
</event>
<event>
 7    1  0.2458979E-009  0.4778727E+02  0.7816164E-02  0.1312668E+00
        -11   -1    0    0    0    0  0.00000000000E+00  0.00000000000E+00  0.45593999997E+02  0.45594000000E+02  0.51100000000E-03 0.  1.
         11   -1    0    0    0    0 -0.00000000000E+00 -0.00000000000E+00 -0.45593999997E+02  0.45594000000E+02  0.51100000000E-03 0. -1.
    9900012    2    1    2    0    0 -0.22348768877E+02 -0.25686177414E+02 -0.26914234064E+02  0.47787272176E+02  0.20000005157E+02 0.  0.
        -12    1    1    2    0    0  0.22348768877E+02  0.25686177414E+02  0.26914234064E+02  0.43400727824E+02  0.00000000000E+00 0.  1.
         11    1    3    3    0    0  0.20449379008E+01 -0.75120922498E+01 -0.62386703412E+01  0.99766882719E+01  0.51100000000E-03 0. -1.
        -11    1    3    3    0    0 -0.24795025664E+02 -0.16296784913E+02 -0.19968570556E+02  0.35764819397E+02  0.51100000000E-03 0.  1.
        -12    1    3    3    0    0  0.40131888596E+00 -0.18773002509E+01 -0.70699316622E+00  0.20457645068E+01  0.00000000000E+00 0.  1.
</event>
<event>
 7    1  0.2458979E-009  0.4778727E+02  0.7816164E-02  0.1312668E+00
        -11   -1    0    0    0    0  0.00000000000E+00  0.00000000000E+00  0.45593999997E+02  0.45594000000E+02  0.51100000000E-03 0.  1.
         11   -1    0    0    0    0 -0.00000000000E+00 -0.00000000000E+00 -0.45593999997E+02  0.45594000000E+02  0.51100000000E-03 0. -1.
    9900012    2    1    2    0    0 -0.42434539131E+02 -0.74827309724E+01 -0.51905620201E+01  0.47787270650E+02  0.19999998200E+02 0.  0.
        -12    1    1    2    0    0  0.42434539131E+02  0.74827309724E+01  0.51905620201E+01  0.43400729350E+02  0.00000000000E+00 0.  1.
         11    1    3    3    0    0 -0.83552744897E+01  0.14058205673E+00 -0.29695843003E+01  0.88684162223E+01  0.51100000000E-03 0. -1.
        -11    1    3    3    0    0 -0.17327497758E+02 -0.49972438080E+01 -0.95962380682E+01  0.20427981044E+02  0.51100000000E-03 0.  1.
        -12    1    3    3    0    0 -0.16751766883E+02 -0.26260692211E+01  0.73752603484E+01  0.18490873383E+02  0.00000000000E+00 0.  1.
</event>
<event>
 7    1  0.2458979E-009  0.4778727E+02  0.7816164E-02  0.1312668E+00
        -11   -1    0    0    0    0  0.00000000000E+00  0.00000000000E+00  0.45593999997E+02  0.45594000000E+02  0.51100000000E-03 0. -1.
         11   -1    0    0    0    0 -0.00000000000E+00 -0.00000000000E+00 -0.45593999997E+02  0.45594000000E+02  0.51100000000E-03 0.  1.
    9900012    2    1    2    0    0  0.33237169639E+02 -0.95562537298E+01  0.26221971505E+02  0.47787271659E+02  0.20000002802E+02 0.  0.
        -12    1    1    2    0    0 -0.33237169639E+02  0.95562537298E+01 -0.26221971505E+02  0.43400728341E+02  0.00000000000E+00 0.  1.
         11    1    3    3    0    0  0.20218077712E+02  0.10382792155E+01  0.22845049990E+02  0.30524498348E+02  0.51100000000E-03 0. -1.
        -11    1    3    3    0    0  0.12138104816E+02 -0.92439147958E+01  0.34724095978E+01  0.15647401636E+02  0.51100000000E-03 0.  1.
         12    1    3    3    0    0  0.88098711041E+00 -0.13506181495E+01 -0.95488082757E-01  0.16153716750E+01  0.00000000000E+00 0. -1.
</event>
<event>
 7    1  0.2458979E-009  0.4778727E+02  0.7816164E-02  0.1312668E+00
        -11   -1    0    0    0    0  0.00000000000E+00  0.00000000000E+00  0.45593999997E+02  0.45594000000E+02  0.51100000000E-03 0.  1.
         11   -1    0    0    0    0 -0.00000000000E+00 -0.00000000000E+00 -0.45593999997E+02  0.45594000000E+02  0.51100000000E-03 0. -1.
    9900012    2    1    2    0    0 -0.41935405838E+02  0.60947361253E+01 -0.93754570214E+01  0.47787271140E+02  0.20000000437E+02 0.  0.
        -12    1    1    2    0    0  0.41935405838E+02 -0.60947361253E+01  0.93754570214E+01  0.43400728860E+02  0.00000000000E+00 0.  1.
         11    1    3    3    0    0  0.32986775082E+00 -0.12959240007E+01  0.19857492570E+01  0.23940409607E+01  0.51100000000E-03 0. -1.
        -11    1    3    3    0    0 -0.72481489459E+01  0.24646359840E+01  0.14316179377E+01  0.77884288439E+01  0.51100000000E-03 0.  1.
         12    1    3    3    0    0 -0.35017124642E+02  0.49260241421E+01 -0.12792824216E+02  0.37604801336E+02  0.00000000000E+00 0. -1.
</event>
<event>
 7    1  0.2458979E-009  0.4778727E+02  0.7816164E-02  0.1312668E+00
        -11   -1    0    0    0    0  0.00000000000E+00  0.00000000000E+00  0.45593999997E+02  0.45594000000E+02  0.51100000000E-03 0. -1.
         11   -1    0    0    0    0 -0.00000000000E+00 -0.00000000000E+00 -0.45593999997E+02  0.45594000000E+02  0.51100000000E-03 0.  1.
    9900012    2    1    2    0    0 -0.18407174137E+02 -0.37603928061E+02  0.11434327433E+02  0.47787270638E+02  0.19999998145E+02 0.  0.
        -12    1    1    2    0    0  0.18407174137E+02  0.37603928061E+02 -0.11434327433E+02  0.43400729362E+02  0.00000000000E+00 0.  1.
         11    1    3    3    0    0 -0.10040718274E+02 -0.28008807968E+02  0.14544336499E+02  0.33118681612E+02  0.51100000000E-03 0. -1.
        -11    1    3    3    0    0 -0.63544003297E+01 -0.10258528331E+02 -0.18626263075E+01  0.12210044394E+02  0.51100000000E-03 0.  1.
         12    1    3    3    0    0 -0.20120555332E+01  0.66340823793E+00 -0.12473827593E+01  0.24585446319E+01  0.00000000000E+00 0. -1.
</event>
<event>
 7    1  0.2496574E-009  0.4778727E+02  0.7816164E-02  0.1312668E+00
        -11   -1    0    0    0    0  0.00000000000E+00  0.00000000000E+00  0.45593999997E+02  0.45594000000E+02  0.51100000000E-03 0. -1.
         11   -1    0    0    0    0 -0.00000000000E+00 -0.00000000000E+00 -0.45593999997E+02  0.45594000000E+02  0.51100000000E-03 0.  1.
    9900012    2    1    2    0    0  0.21025250886E+02  0.94509012185E+01  0.36772850769E+02  0.47787271177E+02  0.20000000606E+02 0.  0.
        -12    1    1    2    0    0 -0.21025250886E+02 -0.94509012185E+01 -0.36772850769E+02  0.43400728823E+02  0.00000000000E+00 0.  1.
         11    1    3    3    0    0  0.19957989056E+02  0.10668180294E+02  0.27778884404E+02  0.35830124434E+02  0.51100000000E-03 0. -1.
        -11    1    3    3    0    0 -0.26811863323E+01  0.16390316924E+01  0.40608986146E+01  0.51347914131E+01  0.51100000000E-03 0.  1.
        -12    1    3    3    0    0  0.37484481631E+01 -0.28563107675E+01  0.49330677497E+01  0.68223553305E+01  0.00000000000E+00 0.  1.
</event>
<event>
 7    1  0.2458979E-009  0.4778727E+02  0.7816164E-02  0.1312668E+00
        -11   -1    0    0    0    0  0.00000000000E+00  0.00000000000E+00  0.45593999997E+02  0.45594000000E+02  0.51100000000E-03 0.  1.
         11   -1    0    0    0    0 -0.00000000000E+00 -0.00000000000E+00 -0.45593999997E+02  0.45594000000E+02  0.51100000000E-03 0. -1.
    9900012    2    1    2    0    0  0.16995127953E+02  0.13308867720E+02 -0.37651865283E+02  0.47787270819E+02  0.19999998973E+02 0.  0.
        -12    1    1    2    0    0 -0.16995127953E+02 -0.13308867720E+02  0.37651865283E+02  0.43400729181E+02  0.00000000000E+00 0.  1.
         11    1    3    3    0    0  0.10687440909E+02  0.10379763912E+02 -0.33186585500E+02  0.36377332907E+02  0.51100000000E-03 0. -1.
        -11    1    3    3    0    0  0.23200408733E+01 -0.11207678834E+01  0.16513443322E+01  0.30603347312E+01  0.51100000000E-03 0.  1.
         12    1    3    3    0    0  0.39876461710E+01  0.40498716915E+01 -0.61166241156E+01  0.83496031806E+01  0.00000000000E+00 0. -1.
</event>
<event>
 7    1  0.2458979E-009  0.4778727E+02  0.7816164E-02  0.1312668E+00
        -11   -1    0    0    0    0  0.00000000000E+00  0.00000000000E+00  0.45593999997E+02  0.45594000000E+02  0.51100000000E-03 0.  1.
         11   -1    0    0    0    0 -0.00000000000E+00 -0.00000000000E+00 -0.45593999997E+02  0.45594000000E+02  0.51100000000E-03 0. -1.
    9900012    2    1    2    0    0  0.28143492921E+02  0.31439706838E+02 -0.10154396696E+02  0.47787272678E+02  0.20000007447E+02 0.  0.
        -12    1    1    2    0    0 -0.28143492921E+02 -0.31439706838E+02  0.10154396696E+02  0.43400727322E+02  0.00000000000E+00 0.  1.
         11    1    3    3    0    0  0.96825523652E+01  0.20903227817E+02  0.10875859983E+00  0.23037113147E+02  0.51100000000E-03 0. -1.
        -11    1    3    3    0    0  0.55491269733E+01  0.38255572172E+01 -0.72325837793E+01  0.98862513914E+01  0.51100000000E-03 0.  1.
         12    1    3    3    0    0  0.12911813583E+02  0.67109218039E+01 -0.30305715162E+01  0.14863908139E+02  0.00000000000E+00 0. -1.
</event>
<event>
 7    1  0.2458979E-009  0.4778727E+02  0.7816164E-02  0.1312668E+00
        -11   -1    0    0    0    0  0.00000000000E+00  0.00000000000E+00  0.45593999997E+02  0.45594000000E+02  0.51100000000E-03 0.  1.
         11   -1    0    0    0    0 -0.00000000000E+00 -0.00000000000E+00 -0.45593999997E+02  0.45594000000E+02  0.51100000000E-03 0. -1.
    9900012    2    1    2    0    0  0.27375536396E+02 -0.96533839157E+01 -0.32264768080E+02  0.47787273355E+02  0.20000010536E+02 0.  0.
        -12    1    1    2    0    0 -0.27375536396E+02  0.96533839157E+01  0.32264768080E+02  0.43400726645E+02  0.00000000000E+00 0.  1.
         11    1    3    3    0    0  0.58778202268E+01  0.19691738923E+01 -0.10298043117E+01  0.62838613621E+01  0.51100000000E-03 0.  1.
        -11    1    3    3    0    0  0.18144670051E+02 -0.14106164958E+02 -0.27994616776E+02  0.36220319018E+02  0.51100000000E-03 0. -1.
         12    1    3    3    0    0  0.33530461186E+01  0.24836071500E+01 -0.32403469931E+01  0.52830929752E+01  0.00000000000E+00 0. -1.
</event>
<event>
 7    1  0.2458979E-009  0.4778727E+02  0.7816164E-02  0.1312668E+00
        -11   -1    0    0    0    0  0.00000000000E+00  0.00000000000E+00  0.45593999997E+02  0.45594000000E+02  0.51100000000E-03 0.  1.
         11   -1    0    0    0    0 -0.00000000000E+00 -0.00000000000E+00 -0.45593999997E+02  0.45594000000E+02  0.51100000000E-03 0. -1.
    9900012    2    1    2    0    0 -0.96281316663E+01 -0.33214805761E+02 -0.26224019865E+02  0.47787268911E+02  0.19999990274E+02 0.  0.
        -12    1    1    2    0    0  0.96281316663E+01  0.33214805761E+02  0.26224019865E+02  0.43400731089E+02  0.00000000000E+00 0.  1.
         11    1    3    3    0    0 -0.46871521896E+01 -0.78465130555E+01 -0.53631718675E+01  0.10597206024E+02  0.51100000000E-03 0. -1.
        -11    1    3    3    0    0 -0.96440694093E+01 -0.22529623426E+02 -0.13419080821E+02  0.27940360357E+02  0.51100000000E-03 0.  1.
        -12    1    3    3    0    0  0.47030899325E+01 -0.28386692796E+01 -0.74417671765E+01  0.92497025304E+01  0.00000000000E+00 0.  1.
</event>
<event>
 7    1  0.2458979E-009  0.4778727E+02  0.7816164E-02  0.1312668E+00
        -11   -1    0    0    0    0  0.00000000000E+00  0.00000000000E+00  0.45593999997E+02  0.45594000000E+02  0.51100000000E-03 0.  1.
         11   -1    0    0    0    0 -0.00000000000E+00 -0.00000000000E+00 -0.45593999997E+02  0.45594000000E+02  0.51100000000E-03 0. -1.
    9900012    2    1    2    0    0 -0.10312321391E+02  0.38709178137E+02 -0.16699672208E+02  0.47787268481E+02  0.19999988312E+02 0.  0.
        -12    1    1    2    0    0  0.10312321391E+02 -0.38709178137E+02  0.16699672208E+02  0.43400731519E+02  0.00000000000E+00 0.  1.
         11    1    3    3    0    0  0.42135050407E+00  0.13150306096E+02  0.24238128127E+01  0.13378451162E+02  0.51100000000E-03 0. -1.
        -11    1    3    3    0    0 -0.70011977466E+01  0.92249847386E+01 -0.10165372639E+02  0.15409474827E+02  0.51100000000E-03 0.  1.
        -12    1    3    3    0    0 -0.37324741485E+01  0.16333887302E+02 -0.89581123820E+01  0.18999342492E+02  0.00000000000E+00 0.  1.
</event>
<event>
 7    1  0.2458979E-009  0.4778728E+02  0.7816164E-02  0.1312668E+00
        -11   -1    0    0    0    0  0.00000000000E+00  0.00000000000E+00  0.45593999997E+02  0.45594000000E+02  0.51100000000E-03 0.  1.
         11   -1    0    0    0    0 -0.00000000000E+00 -0.00000000000E+00 -0.45593999997E+02  0.45594000000E+02  0.51100000000E-03 0. -1.
    9900012    2    1    2    0    0  0.19939590267E+02  0.43783699459E+01 -0.38299677876E+02  0.47787277554E+02  0.20000029682E+02 0.  0.
        -12    1    1    2    0    0 -0.19939590267E+02 -0.43783699459E+01  0.38299677876E+02  0.43400722446E+02  0.00000000000E+00 0.  1.
         11    1    3    3    0    0  0.16501854818E+02  0.36403576199E+01 -0.25080882834E+02  0.30242587522E+02  0.51100000000E-03 0.  1.
        -11    1    3    3    0    0 -0.60106169771E+00 -0.43305114691E+01 -0.25489537769E+01  0.50608072841E+01  0.51100000000E-03 0. -1.
         12    1    3    3    0    0  0.40387971465E+01  0.50685237951E+01 -0.10669841265E+02  0.12483882749E+02  0.00000000000E+00 0. -1.
</event>
<event>
 7    1  0.2458979E-009  0.4778727E+02  0.7816164E-02  0.1312668E+00
        -11   -1    0    0    0    0  0.00000000000E+00  0.00000000000E+00  0.45593999997E+02  0.45594000000E+02  0.51100000000E-03 0. -1.
         11   -1    0    0    0    0 -0.00000000000E+00 -0.00000000000E+00 -0.45593999997E+02  0.45594000000E+02  0.51100000000E-03 0.  1.
    9900012    2    1    2    0    0  0.43133361996E+02 -0.48010010741E+01 -0.29440076652E+00  0.47787271893E+02  0.20000003868E+02 0.  0.
        -12    1    1    2    0    0 -0.43133361996E+02  0.48010010741E+01  0.29440076652E+00  0.43400728107E+02  0.00000000000E+00 0.  1.
         11    1    3    3    0    0  0.31255058190E+02  0.11919392966E+01 -0.41014806647E+01  0.31545546843E+02  0.51100000000E-03 0. -1.
        -11    1    3    3    0    0 -0.32073567482E+00 -0.15913224712E+01  0.27965764610E+01  0.32335767725E+01  0.51100000000E-03 0.  1.
         12    1    3    3    0    0  0.12199039481E+02 -0.44016178996E+01  0.10105034372E+01  0.13008148277E+02  0.00000000000E+00 0. -1.
</event>
<event>
 7    1  0.2458979E-009  0.4778727E+02  0.7816164E-02  0.1312668E+00
        -11   -1    0    0    0    0  0.00000000000E+00  0.00000000000E+00  0.45593999997E+02  0.45594000000E+02  0.51100000000E-03 0.  1.
         11   -1    0    0    0    0 -0.00000000000E+00 -0.00000000000E+00 -0.45593999997E+02  0.45594000000E+02  0.51100000000E-03 0. -1.
    9900012    2    1    2    0    0  0.26784252946E+02  0.30106533325E+02  0.16119055080E+02  0.47787268539E+02  0.19999988577E+02 0.  0.
        -12    1    1    2    0    0 -0.26784252946E+02 -0.30106533325E+02 -0.16119055080E+02  0.43400731461E+02  0.00000000000E+00 0.  1.
         11    1    3    3    0    0  0.46349975344E+01  0.39595308170E+01  0.12494580155E+00  0.60972697290E+01  0.51100000000E-03 0. -1.
        -11    1    3    3    0    0  0.27817856531E+01  0.11869356321E+02 -0.10007315278E+01  0.12231983271E+02  0.51100000000E-03 0.  1.
        -12    1    3    3    0    0  0.19367469758E+02  0.14277646187E+02  0.16994840806E+02  0.29458015539E+02  0.00000000000E+00 0.  1.
</event>
<event>
 7    1  0.2458979E-009  0.4778728E+02  0.7816164E-02  0.1312668E+00
        -11   -1    0    0    0    0  0.00000000000E+00  0.00000000000E+00  0.45593999997E+02  0.45594000000E+02  0.51100000000E-03 0.  1.
         11   -1    0    0    0    0 -0.00000000000E+00 -0.00000000000E+00 -0.45593999997E+02  0.45594000000E+02  0.51100000000E-03 0. -1.
    9900012    2    1    2    0    0 -0.13708371499E+02 -0.33151316363E+02 -0.24427308870E+02  0.47787278296E+02  0.20000033065E+02 0.  0.
        -12    1    1    2    0    0  0.13708371499E+02  0.33151316363E+02  0.24427308870E+02  0.43400721704E+02  0.00000000000E+00 0.  1.
         11    1    3    3    0    0 -0.92230465787E+01 -0.28831174193E+02 -0.11938803287E+02  0.32539763639E+02  0.51100000000E-03 0. -1.
        -11    1    3    3    0    0 -0.34384995571E+01 -0.36984532861E-01 -0.22756426842E+01  0.41234932942E+01  0.51100000000E-03 0.  1.
         12    1    3    3    0    0 -0.10468253629E+01 -0.42831576379E+01 -0.10212862899E+02  0.11124021363E+02  0.00000000000E+00 0. -1.
</event>
<event>
 7    1  0.2458979E-009  0.4778727E+02  0.7816164E-02  0.1312668E+00
        -11   -1    0    0    0    0  0.00000000000E+00  0.00000000000E+00  0.45593999997E+02  0.45594000000E+02  0.51100000000E-03 0.  1.
         11   -1    0    0    0    0 -0.00000000000E+00 -0.00000000000E+00 -0.45593999997E+02  0.45594000000E+02  0.51100000000E-03 0. -1.
    9900012    2    1    2    0    0  0.40266763474E+02  0.11398446331E+02 -0.11501588230E+02  0.47787270153E+02  0.19999995937E+02 0.  0.
        -12    1    1    2    0    0 -0.40266763474E+02 -0.11398446331E+02  0.11501588230E+02  0.43400729847E+02  0.00000000000E+00 0.  1.
         11    1    3    3    0    0  0.29199342086E+02  0.46318843979E+01 -0.12541741361E+02  0.32114657213E+02  0.51100000000E-03 0. -1.
        -11    1    3    3    0    0  0.12556851744E+02  0.64333187795E+01  0.84937679547E+00  0.14134481152E+02  0.51100000000E-03 0.  1.
         12    1    3    3    0    0 -0.14894303563E+01  0.33324315380E+00  0.19077633532E+00  0.15381317876E+01  0.00000000000E+00 0. -1.
</event>
<event>
 7    1  0.2458979E-009  0.4778727E+02  0.7816164E-02  0.1312668E+00
        -11   -1    0    0    0    0  0.00000000000E+00  0.00000000000E+00  0.45593999997E+02  0.45594000000E+02  0.51100000000E-03 0.  1.
         11   -1    0    0    0    0 -0.00000000000E+00 -0.00000000000E+00 -0.45593999997E+02  0.45594000000E+02  0.51100000000E-03 0. -1.
    9900012    2    1    2    0    0  0.10448054261E+02  0.28884061716E+01 -0.42025213903E+02  0.47787270379E+02  0.19999996964E+02 0.  0.
        -12    1    1    2    0    0 -0.10448054261E+02 -0.28884061716E+01  0.42025213903E+02  0.43400729621E+02  0.00000000000E+00 0.  1.
         11    1    3    3    0    0  0.14986422422E+01 -0.10849691706E+01 -0.16983474255E+01  0.25114678796E+01  0.51100000000E-03 0. -1.
        -11    1    3    3    0    0  0.30814139928E+01 -0.58206056857E+01 -0.53577109494E+01  0.84899722980E+01  0.51100000000E-03 0.  1.
        -12    1    3    3    0    0  0.58679980260E+01  0.97939810279E+01 -0.34969155528E+02  0.36785830201E+02  0.00000000000E+00 0.  1.
</event>
<event>
 7    1  0.2458979E-009  0.4778727E+02  0.7816164E-02  0.1312668E+00
        -11   -1    0    0    0    0  0.00000000000E+00  0.00000000000E+00  0.45593999997E+02  0.45594000000E+02  0.51100000000E-03 0.  1.
         11   -1    0    0    0    0 -0.00000000000E+00 -0.00000000000E+00 -0.45593999997E+02  0.45594000000E+02  0.51100000000E-03 0. -1.
    9900012    2    1    2    0    0  0.22975904446E+02  0.36557370657E+02 -0.43919847116E+01  0.47787273460E+02  0.20000011013E+02 0.  0.
        -12    1    1    2    0    0 -0.22975904446E+02 -0.36557370657E+02  0.43919847116E+01  0.43400726540E+02  0.00000000000E+00 0.  1.
         11    1    3    3    0    0 -0.87112214757E+00  0.22750014676E+01 -0.16806133094E+01  0.29595517955E+01  0.51100000000E-03 0.  1.
        -11    1    3    3    0    0  0.16265319610E+02  0.31077029821E+02 -0.66523825994E+01  0.35701492952E+02  0.51100000000E-03 0. -1.
        -12    1    3    3    0    0  0.75817069834E+01  0.32053393692E+01  0.39410111972E+01  0.91262287123E+01  0.00000000000E+00 0.  1.
</event>
<event>
 7    1  0.2458979E-009  0.4778727E+02  0.7816164E-02  0.1312668E+00
        -11   -1    0    0    0    0  0.00000000000E+00  0.00000000000E+00  0.45593999997E+02  0.45594000000E+02  0.51100000000E-03 0.  1.
         11   -1    0    0    0    0 -0.00000000000E+00 -0.00000000000E+00 -0.45593999997E+02  0.45594000000E+02  0.51100000000E-03 0. -1.
    9900012    2    1    2    0    0  0.21815177746E+02  0.30797644245E+02 -0.21429568671E+02  0.47787270921E+02  0.19999999439E+02 0.  0.
        -12    1    1    2    0    0 -0.21815177746E+02 -0.30797644245E+02  0.21429568671E+02  0.43400729079E+02  0.00000000000E+00 0.  1.
         11    1    3    3    0    0  0.72796847027E+01  0.11550703497E+02 -0.10367573207E+02  0.17143486667E+02  0.51100000000E-03 0. -1.
        -11    1    3    3    0    0  0.16757467335E+02  0.16183627062E+02 -0.12685065442E+02  0.26526088703E+02  0.51100000000E-03 0.  1.
        -12    1    3    3    0    0 -0.22219742921E+01  0.30633136865E+01  0.16230699781E+01  0.41176955509E+01  0.00000000000E+00 0.  1.
</event>
<event>
 7    1  0.2458979E-009  0.4778725E+02  0.7816164E-02  0.1312668E+00
        -11   -1    0    0    0    0  0.00000000000E+00  0.00000000000E+00  0.45593999997E+02  0.45594000000E+02  0.51100000000E-03 0. -1.
         11   -1    0    0    0    0 -0.00000000000E+00 -0.00000000000E+00 -0.45593999997E+02  0.45594000000E+02  0.51100000000E-03 0.  1.
    9900012    2    1    2    0    0 -0.13356671171E+02 -0.30255030757E+02  0.28104402454E+02  0.47787251295E+02  0.19999909954E+02 0.  0.
        -12    1    1    2    0    0  0.13356671171E+02  0.30255030757E+02 -0.28104402454E+02  0.43400748705E+02  0.00000000000E+00 0.  1.
         11    1    3    3    0    0 -0.10556006226E-02 -0.63293146821E+01  0.50752522128E+01  0.81128546606E+01  0.51100000000E-03 0. -1.
        -11    1    3    3    0    0 -0.32604920378E+01 -0.29567297291E+01  0.14060860900E+02  0.14733664464E+02  0.51100000000E-03 0.  1.
        -12    1    3    3    0    0 -0.10095123533E+02 -0.20968986345E+02  0.89682893413E+01  0.24940732171E+02  0.00000000000E+00 0.  1.
</event>
<event>
 7    1  0.2458979E-009  0.4778727E+02  0.7816164E-02  0.1312668E+00
        -11   -1    0    0    0    0  0.00000000000E+00  0.00000000000E+00  0.45593999997E+02  0.45594000000E+02  0.51100000000E-03 0. -1.
         11   -1    0    0    0    0 -0.00000000000E+00 -0.00000000000E+00 -0.45593999997E+02  0.45594000000E+02  0.51100000000E-03 0.  1.
    9900012    2    1    2    0    0  0.90651856153E+01 -0.33675925504E+01  0.42309629883E+02  0.47787273616E+02  0.20000011723E+02 0.  0.
        -12    1    1    2    0    0 -0.90651856153E+01  0.33675925504E+01 -0.42309629883E+02  0.43400726384E+02  0.00000000000E+00 0.  1.
         11    1    3    3    0    0  0.12878869263E+02 -0.78854060979E+01  0.23931470419E+02  0.28297706259E+02  0.51100000000E-03 0. -1.
        -11    1    3    3    0    0 -0.17677551322E+01  0.26985536321E+01  0.13649292498E+02  0.14025346194E+02  0.51100000000E-03 0.  1.
         12    1    3    3    0    0 -0.20459285155E+01  0.18192599154E+01  0.47288669665E+01  0.54642211629E+01  0.00000000000E+00 0. -1.
</event>
<event>
 7    1  0.2458979E-009  0.4778727E+02  0.7816164E-02  0.1312668E+00
        -11   -1    0    0    0    0  0.00000000000E+00  0.00000000000E+00  0.45593999997E+02  0.45594000000E+02  0.51100000000E-03 0.  1.
         11   -1    0    0    0    0 -0.00000000000E+00 -0.00000000000E+00 -0.45593999997E+02  0.45594000000E+02  0.51100000000E-03 0. -1.
    9900012    2    1    2    0    0 -0.34177241150E+02  0.19731744501E+02 -0.18060945841E+02  0.47787270532E+02  0.19999997665E+02 0.  0.
        -12    1    1    2    0    0  0.34177241150E+02 -0.19731744501E+02  0.18060945841E+02  0.43400729468E+02  0.00000000000E+00 0.  1.
         11    1    3    3    0    0  0.17491785997E+01  0.32762314887E+01 -0.42056718054E+01  0.56107926478E+01  0.51100000000E-03 0.  1.
        -11    1    3    3    0    0 -0.17765080182E+02  0.60340541205E+01 -0.82816756945E+01  0.20508389395E+02  0.51100000000E-03 0. -1.
         12    1    3    3    0    0 -0.18161339568E+02  0.10421458892E+02 -0.55735983411E+01  0.21668088490E+02  0.00000000000E+00 0. -1.
</event>
<event>
 7    1  0.2670611E-009  0.4778727E+02  0.7816164E-02  0.1312668E+00
        -11   -1    0    0    0    0  0.00000000000E+00  0.00000000000E+00  0.45593999997E+02  0.45594000000E+02  0.51100000000E-03 0. -1.
         11   -1    0    0    0    0 -0.00000000000E+00 -0.00000000000E+00 -0.45593999997E+02  0.45594000000E+02  0.51100000000E-03 0.  1.
    9900012    2    1    2    0    0  0.62860652243E+01  0.89290106246E+01  0.42004540584E+02  0.47787271016E+02  0.19999999869E+02 0.  0.
        -12    1    1    2    0    0 -0.62860652243E+01 -0.89290106246E+01 -0.42004540584E+02  0.43400728984E+02  0.00000000000E+00 0.  1.
         11    1    3    3    0    0  0.21490309135E+01  0.35818069125E+01  0.25620237455E+02  0.25958510014E+02  0.51100000000E-03 0. -1.
        -11    1    3    3    0    0  0.99030300472E+00  0.83933761692E+01  0.54667897300E+01  0.10065547862E+02  0.51100000000E-03 0.  1.
        -12    1    3    3    0    0  0.31467313061E+01 -0.30461724571E+01  0.10917513398E+02  0.11763213139E+02  0.00000000000E+00 0.  1.
</event>
<event>
 7    1  0.2458979E-009  0.4778727E+02  0.7816164E-02  0.1312668E+00
        -11   -1    0    0    0    0  0.00000000000E+00  0.00000000000E+00  0.45593999997E+02  0.45594000000E+02  0.51100000000E-03 0.  1.
         11   -1    0    0    0    0 -0.00000000000E+00 -0.00000000000E+00 -0.45593999997E+02  0.45594000000E+02  0.51100000000E-03 0. -1.
    9900012    2    1    2    0    0 -0.57924022416E+01  0.20351617478E+02 -0.37893045353E+02  0.47787272543E+02  0.20000006830E+02 0.  0.
        -12    1    1    2    0    0  0.57924022416E+01 -0.20351617478E+02  0.37893045353E+02  0.43400727457E+02  0.00000000000E+00 0.  1.
         11    1    3    3    0    0 -0.51542991064E+01  0.16281644970E+02 -0.30766239604E+02  0.35188354066E+02  0.51100000000E-03 0. -1.
        -11    1    3    3    0    0  0.34263325294E+01  0.29981785498E+00  0.15980235503E+00  0.34431355480E+01  0.51100000000E-03 0.  1.
        -12    1    3    3    0    0 -0.40644356646E+01  0.37701546535E+01 -0.72866081037E+01  0.91557829288E+01  0.00000000000E+00 0.  1.
</event>
<event>
 7    1  0.2458979E-009  0.4778724E+02  0.7816164E-02  0.1312668E+00
        -11   -1    0    0    0    0  0.00000000000E+00  0.00000000000E+00  0.45593999997E+02  0.45594000000E+02  0.51100000000E-03 0. -1.
         11   -1    0    0    0    0 -0.00000000000E+00 -0.00000000000E+00 -0.45593999997E+02  0.45594000000E+02  0.51100000000E-03 0.  1.
    9900012    2    1    2    0    0 -0.36781783090E+02  0.16098885464E+02  0.16478848418E+02  0.47787238190E+02  0.19999850204E+02 0.  0.
        -12    1    1    2    0    0  0.36781783090E+02 -0.16098885464E+02 -0.16478848418E+02  0.43400761810E+02  0.00000000000E+00 0.  1.
         11    1    3    3    0    0 -0.25044497769E+02  0.61263443548E+01  0.71859895894E+01  0.26765601251E+02  0.51100000000E-03 0. -1.
        -11    1    3    3    0    0  0.85192830828E+00  0.22275645996E+01 -0.14119544587E+01  0.27715413658E+01  0.51100000000E-03 0.  1.
        -12    1    3    3    0    0 -0.12589213629E+02  0.77449765097E+01  0.10704813287E+02  0.18250095574E+02  0.00000000000E+00 0.  1.
</event>
<event>
 7    1  0.2458979E-009  0.4778729E+02  0.7816164E-02  0.1312668E+00
        -11   -1    0    0    0    0  0.00000000000E+00  0.00000000000E+00  0.45593999997E+02  0.45594000000E+02  0.51100000000E-03 0. -1.
         11   -1    0    0    0    0 -0.00000000000E+00 -0.00000000000E+00 -0.45593999997E+02  0.45594000000E+02  0.51100000000E-03 0.  1.
    9900012    2    1    2    0    0  0.13639772791E+02 -0.35956669406E+02  0.20117067071E+02  0.47787287286E+02  0.20000074050E+02 0.  0.
        -12    1    1    2    0    0 -0.13639772791E+02  0.35956669406E+02 -0.20117067071E+02  0.43400712714E+02  0.00000000000E+00 0.  1.
         11    1    3    3    0    0  0.12812793789E+02 -0.25226498566E+02  0.80208323789E+01  0.29408802541E+02  0.51100000000E-03 0. -1.
        -11    1    3    3    0    0 -0.41486781848E+00  0.11111376162E+01  0.34939655144E+01  0.36897882576E+01  0.51100000000E-03 0.  1.
         12    1    3    3    0    0  0.12418468206E+01 -0.11841308456E+02  0.86022691775E+01  0.14688696487E+02  0.00000000000E+00 0. -1.
</event>
<event>
 7    1  0.2458979E-009  0.4778727E+02  0.7816164E-02  0.1312668E+00
        -11   -1    0    0    0    0  0.00000000000E+00  0.00000000000E+00  0.45593999997E+02  0.45594000000E+02  0.51100000000E-03 0. -1.
         11   -1    0    0    0    0 -0.00000000000E+00 -0.00000000000E+00 -0.45593999997E+02  0.45594000000E+02  0.51100000000E-03 0.  1.
    9900012    2    1    2    0    0  0.23609693418E+02 -0.36403068550E+02  0.10111141163E+01  0.47787269881E+02  0.19999994696E+02 0.  0.
        -12    1    1    2    0    0 -0.23609693418E+02  0.36403068550E+02 -0.10111141163E+01  0.43400730119E+02  0.00000000000E+00 0.  1.
         11    1    3    3    0    0  0.86778942615E+01 -0.21157238356E+02  0.80642866704E+01  0.24248037105E+02  0.51100000000E-03 0. -1.
        -11    1    3    3    0    0  0.71790616861E+01 -0.37436080239E+01 -0.50028733983E+01  0.95174718402E+01  0.51100000000E-03 0.  1.
        -12    1    3    3    0    0  0.77527374700E+01 -0.11502222169E+02 -0.20502991559E+01  0.14021760936E+02  0.00000000000E+00 0.  1.
</event>
<event>
 7    1  0.2458979E-009  0.4778727E+02  0.7816164E-02  0.1312668E+00
        -11   -1    0    0    0    0  0.00000000000E+00  0.00000000000E+00  0.45593999997E+02  0.45594000000E+02  0.51100000000E-03 0.  1.
         11   -1    0    0    0    0 -0.00000000000E+00 -0.00000000000E+00 -0.45593999997E+02  0.45594000000E+02  0.51100000000E-03 0. -1.
    9900012    2    1    2    0    0  0.28918893214E+01  0.39734023389E+02 -0.17218242698E+02  0.47787268207E+02  0.19999987063E+02 0.  0.
        -12    1    1    2    0    0 -0.28918893214E+01 -0.39734023389E+02  0.17218242698E+02  0.43400731793E+02  0.00000000000E+00 0.  1.
         11    1    3    3    0    0  0.12433376695E+01  0.10438320719E+02 -0.11235793404E+02  0.15386600718E+02  0.51100000000E-03 0. -1.
        -11    1    3    3    0    0 -0.46925806802E+01  0.18818581252E+02 -0.54343087293E+01  0.20141773145E+02  0.51100000000E-03 0.  1.
        -12    1    3    3    0    0  0.63411323321E+01  0.10477121418E+02 -0.54814056519E+00  0.12258894344E+02  0.00000000000E+00 0.  1.
</event>
<event>
 7    1  0.2458979E-009  0.4778726E+02  0.7816164E-02  0.1312668E+00
        -11   -1    0    0    0    0  0.00000000000E+00  0.00000000000E+00  0.45593999997E+02  0.45594000000E+02  0.51100000000E-03 0.  1.
         11   -1    0    0    0    0 -0.00000000000E+00 -0.00000000000E+00 -0.45593999997E+02  0.45594000000E+02  0.51100000000E-03 0. -1.
    9900012    2    1    2    0    0 -0.21188736316E+02  0.17199712353E+02 -0.33746574472E+02  0.47787263367E+02  0.19999964996E+02 0.  0.
        -12    1    1    2    0    0  0.21188736316E+02 -0.17199712353E+02  0.33746574472E+02  0.43400736633E+02  0.00000000000E+00 0.  1.
         11    1    3    3    0    0 -0.70797419248E+01 -0.21016176953E+01 -0.72221444179E+01  0.10329516587E+02  0.51100000000E-03 0.  1.
        -11    1    3    3    0    0 -0.68259369038E+01  0.17676701766E+02 -0.18111558004E+02  0.26212358412E+02  0.51100000000E-03 0. -1.
         12    1    3    3    0    0 -0.72830574872E+01  0.16246282823E+01 -0.84128720500E+01  0.11245388368E+02  0.00000000000E+00 0. -1.
</event>
<event>
 7    1  0.2458979E-009  0.4778727E+02  0.7816164E-02  0.1312668E+00
        -11   -1    0    0    0    0  0.00000000000E+00  0.00000000000E+00  0.45593999997E+02  0.45594000000E+02  0.51100000000E-03 0. -1.
         11   -1    0    0    0    0 -0.00000000000E+00 -0.00000000000E+00 -0.45593999997E+02  0.45594000000E+02  0.51100000000E-03 0.  1.
    9900012    2    1    2    0    0 -0.17235872400E+01  0.38350726387E+02  0.20245348379E+02  0.47787273066E+02  0.20000009217E+02 0.  0.
        -12    1    1    2    0    0  0.17235872400E+01 -0.38350726387E+02 -0.20245348379E+02  0.43400726934E+02  0.00000000000E+00 0.  1.
         11    1    3    3    0    0  0.58063741155E+01  0.18737754563E+02  0.13092752840E+02  0.23584690026E+02  0.51100000000E-03 0. -1.
        -11    1    3    3    0    0 -0.59998193388E+01  0.11225168066E+02 -0.51120584370E+00  0.12738271542E+02  0.51100000000E-03 0.  1.
        -12    1    3    3    0    0 -0.15301420167E+01  0.83878037585E+01  0.76638013824E+01  0.11464311498E+02  0.00000000000E+00 0.  1.
</event>
<event>
 7    1  0.2458979E-009  0.4778727E+02  0.7816164E-02  0.1312668E+00
        -11   -1    0    0    0    0  0.00000000000E+00  0.00000000000E+00  0.45593999997E+02  0.45594000000E+02  0.51100000000E-03 0. -1.
         11   -1    0    0    0    0 -0.00000000000E+00 -0.00000000000E+00 -0.45593999997E+02  0.45594000000E+02  0.51100000000E-03 0.  1.
    9900012    2    1    2    0    0  0.35360166818E+02  0.21167498072E+02  0.13609515733E+02  0.47787270853E+02  0.19999999126E+02 0.  0.
        -12    1    1    2    0    0 -0.35360166818E+02 -0.21167498072E+02 -0.13609515733E+02  0.43400729147E+02  0.00000000000E+00 0.  1.
         11    1    3    3    0    0  0.23993898531E+02  0.17308556854E+02  0.10593087014E+02  0.31424620918E+02  0.51100000000E-03 0. -1.
        -11    1    3    3    0    0  0.87184721545E+01  0.25659071432E+01 -0.30763207709E+01  0.95947582524E+01  0.51100000000E-03 0.  1.
         12    1    3    3    0    0  0.26477961325E+01  0.12930340752E+01  0.60927494901E+01  0.67678916826E+01  0.00000000000E+00 0. -1.
</event>
<event>
 7    1  0.2458979E-009  0.4778727E+02  0.7816164E-02  0.1312668E+00
        -11   -1    0    0    0    0  0.00000000000E+00  0.00000000000E+00  0.45593999997E+02  0.45594000000E+02  0.51100000000E-03 0. -1.
         11   -1    0    0    0    0 -0.00000000000E+00 -0.00000000000E+00 -0.45593999997E+02  0.45594000000E+02  0.51100000000E-03 0.  1.
    9900012    2    1    2    0    0 -0.17493020415E+02 -0.37999853345E+02  0.11559777972E+02  0.47787273230E+02  0.20000009963E+02 0.  0.
        -12    1    1    2    0    0  0.17493020415E+02  0.37999853345E+02 -0.11559777972E+02  0.43400726770E+02  0.00000000000E+00 0.  1.
         11    1    3    3    0    0 -0.15092471416E+01  0.20351440649E+01  0.40602710539E+00  0.25660273908E+01  0.51100000000E-03 0. -1.
        -11    1    3    3    0    0 -0.48647148100E+00  0.14906584133E+00  0.76235171114E+00  0.91654542684E+00  0.51100000000E-03 0.  1.
         12    1    3    3    0    0 -0.15497301792E+02 -0.40184063251E+02  0.10391399155E+02  0.44304700412E+02  0.00000000000E+00 0. -1.
</event>
<event>
 7    1  0.2458979E-009  0.4778727E+02  0.7816164E-02  0.1312668E+00
        -11   -1    0    0    0    0  0.00000000000E+00  0.00000000000E+00  0.45593999997E+02  0.45594000000E+02  0.51100000000E-03 0.  1.
         11   -1    0    0    0    0 -0.00000000000E+00 -0.00000000000E+00 -0.45593999997E+02  0.45594000000E+02  0.51100000000E-03 0. -1.
    9900012    2    1    2    0    0 -0.13878263132E+02 -0.27409958124E+02 -0.30654713041E+02  0.47787269320E+02  0.19999992138E+02 0.  0.
        -12    1    1    2    0    0  0.13878263132E+02  0.27409958124E+02  0.30654713041E+02  0.43400730680E+02  0.00000000000E+00 0.  1.
         11    1    3    3    0    0 -0.76837134525E+01 -0.29173836741E+01 -0.13517960489E+02  0.15820424645E+02  0.51100000000E-03 0. -1.
        -11    1    3    3    0    0 -0.39880416164E+01 -0.34395678891E+01 -0.62176514282E+01  0.81482693096E+01  0.51100000000E-03 0.  1.
         12    1    3    3    0    0 -0.22065080631E+01 -0.21053006560E+02 -0.10919101124E+02  0.23818575365E+02  0.00000000000E+00 0. -1.
</event>
<event>
 7    1  0.2458979E-009  0.4778727E+02  0.7816164E-02  0.1312668E+00
        -11   -1    0    0    0    0  0.00000000000E+00  0.00000000000E+00  0.45593999997E+02  0.45594000000E+02  0.51100000000E-03 0. -1.
         11   -1    0    0    0    0 -0.00000000000E+00 -0.00000000000E+00 -0.45593999997E+02  0.45594000000E+02  0.51100000000E-03 0.  1.
    9900012    2    1    2    0    0 -0.96192542678E+01 -0.32224758923E+02  0.27434612392E+02  0.47787273077E+02  0.20000009268E+02 0.  0.
        -12    1    1    2    0    0  0.96192542678E+01  0.32224758923E+02 -0.27434612392E+02  0.43400726923E+02  0.00000000000E+00 0.  1.
         11    1    3    3    0    0 -0.97241544565E+01 -0.18549837766E+02  0.16804747739E+02  0.26852471169E+02  0.51100000000E-03 0. -1.
        -11    1    3    3    0    0  0.32510314810E+01 -0.96989335953E+01  0.11915607587E+02  0.15704146682E+02  0.51100000000E-03 0.  1.
         12    1    3    3    0    0 -0.31461312924E+01 -0.39759875618E+01 -0.12857429343E+01  0.52306552261E+01  0.00000000000E+00 0. -1.
</event>
<event>
 7    1  0.2458979E-009  0.4778727E+02  0.7816164E-02  0.1312668E+00
        -11   -1    0    0    0    0  0.00000000000E+00  0.00000000000E+00  0.45593999997E+02  0.45594000000E+02  0.51100000000E-03 0.  1.
         11   -1    0    0    0    0 -0.00000000000E+00 -0.00000000000E+00 -0.45593999997E+02  0.45594000000E+02  0.51100000000E-03 0. -1.
    9900012    2    1    2    0    0 -0.22835381478E+02  0.28998043267E+02 -0.22831611127E+02  0.47787266974E+02  0.19999981442E+02 0.  0.
        -12    1    1    2    0    0  0.22835381478E+02 -0.28998043267E+02  0.22831611127E+02  0.43400733026E+02  0.00000000000E+00 0.  1.
         11    1    3    3    0    0 -0.11808217836E+02  0.92918956755E+01 -0.50833250460E+01  0.15862330456E+02  0.51100000000E-03 0. -1.
        -11    1    3    3    0    0 -0.66143442654E+01  0.14691780893E+02 -0.19225237059E+02  0.25084013158E+02  0.51100000000E-03 0.  1.
        -12    1    3    3    0    0 -0.44128193764E+01  0.50143666986E+01  0.14769509780E+01  0.68409233607E+01  0.00000000000E+00 0.  1.
</event>
<event>
 7    1  0.2458979E-009  0.4778727E+02  0.7816164E-02  0.1312668E+00
        -11   -1    0    0    0    0  0.00000000000E+00  0.00000000000E+00  0.45593999997E+02  0.45594000000E+02  0.51100000000E-03 0. -1.
         11   -1    0    0    0    0 -0.00000000000E+00 -0.00000000000E+00 -0.45593999997E+02  0.45594000000E+02  0.51100000000E-03 0.  1.
    9900012    2    1    2    0    0  0.31810955325E+02 -0.25689011280E+02  0.14552002832E+02  0.47787274595E+02  0.20000016190E+02 0.  0.
        -12    1    1    2    0    0 -0.31810955325E+02  0.25689011280E+02 -0.14552002832E+02  0.43400725405E+02  0.00000000000E+00 0.  1.
         11    1    3    3    0    0  0.14669020062E+02 -0.17705665413E+02  0.82250623838E+01  0.24419713118E+02  0.51100000000E-03 0. -1.
        -11    1    3    3    0    0  0.34681974156E+01 -0.63363430812E+01 -0.17079143857E+01  0.74225742682E+01  0.51100000000E-03 0.  1.
         12    1    3    3    0    0  0.13673737847E+02 -0.16470027859E+01  0.80348548337E+01  0.15944987209E+02  0.00000000000E+00 0. -1.
</event>
<event>
 7    1  0.2458979E-009  0.4778727E+02  0.7816164E-02  0.1312668E+00
        -11   -1    0    0    0    0  0.00000000000E+00  0.00000000000E+00  0.45593999997E+02  0.45594000000E+02  0.51100000000E-03 0.  1.
         11   -1    0    0    0    0 -0.00000000000E+00 -0.00000000000E+00 -0.45593999997E+02  0.45594000000E+02  0.51100000000E-03 0. -1.
    9900012    2    1    2    0    0  0.38141815772E+02 -0.82916390536E+01 -0.18975621617E+02  0.47787267238E+02  0.19999982643E+02 0.  0.
        -12    1    1    2    0    0 -0.38141815772E+02  0.82916390536E+01  0.18975621617E+02  0.43400732762E+02  0.00000000000E+00 0.  1.
         11    1    3    3    0    0  0.64789842540E+01 -0.85802877343E+01 -0.75119646505E+01  0.13115951652E+02  0.51100000000E-03 0. -1.
        -11    1    3    3    0    0  0.27059772570E+02  0.23777769727E+01 -0.73145525013E+01  0.28131615549E+02  0.51100000000E-03 0.  1.
        -12    1    3    3    0    0  0.46030589481E+01 -0.20891282920E+01 -0.41491044649E+01  0.65397000360E+01  0.00000000000E+00 0.  1.
</event>
<event>
 7    1  0.2458979E-009  0.4778727E+02  0.7816164E-02  0.1312668E+00
        -11   -1    0    0    0    0  0.00000000000E+00  0.00000000000E+00  0.45593999997E+02  0.45594000000E+02  0.51100000000E-03 0. -1.
         11   -1    0    0    0    0 -0.00000000000E+00 -0.00000000000E+00 -0.45593999997E+02  0.45594000000E+02  0.51100000000E-03 0.  1.
    9900012    2    1    2    0    0 -0.14692273774E+00 -0.17126906493E+02  0.39878197271E+02  0.47787272703E+02  0.20000007563E+02 0.  0.
        -12    1    1    2    0    0  0.14692273774E+00  0.17126906493E+02 -0.39878197271E+02  0.43400727297E+02  0.00000000000E+00 0.  1.
         11    1    3    3    0    0  0.31771637520E+01 -0.35414826305E+01  0.26913906992E+02  0.27331206680E+02  0.51100000000E-03 0. -1.
        -11    1    3    3    0    0  0.17059203550E+01 -0.54367287830E+01  0.23589708245E+01  0.61670842162E+01  0.51100000000E-03 0.  1.
         12    1    3    3    0    0 -0.50300068447E+01 -0.81486950795E+01  0.10605319454E+02  0.14288981807E+02  0.00000000000E+00 0. -1.
</event>
<event>
 7    1  0.2458979E-009  0.4778727E+02  0.7816164E-02  0.1312668E+00
        -11   -1    0    0    0    0  0.00000000000E+00  0.00000000000E+00  0.45593999997E+02  0.45594000000E+02  0.51100000000E-03 0.  1.
         11   -1    0    0    0    0 -0.00000000000E+00 -0.00000000000E+00 -0.45593999997E+02  0.45594000000E+02  0.51100000000E-03 0. -1.
    9900012    2    1    2    0    0 -0.80070527923E+01  0.40549775110E+02 -0.13237288664E+02  0.47787274579E+02  0.20000016115E+02 0.  0.
        -12    1    1    2    0    0  0.80070527923E+01 -0.40549775110E+02  0.13237288664E+02  0.43400725421E+02  0.00000000000E+00 0.  1.
         11    1    3    3    0    0  0.81932772803E+00  0.24450038575E+02 -0.10521547589E+02  0.26630408337E+02  0.51100000000E-03 0. -1.
        -11    1    3    3    0    0 -0.11134847712E+02  0.13655465921E+02 -0.22797390239E+01  0.17766648344E+02  0.51100000000E-03 0.  1.
        -12    1    3    3    0    0  0.23084671917E+01  0.24442706145E+01 -0.43600205108E+00  0.33902178987E+01  0.00000000000E+00 0.  1.
</event>
<event>
 7    1  0.2458979E-009  0.4778727E+02  0.7816164E-02  0.1312668E+00
        -11   -1    0    0    0    0  0.00000000000E+00  0.00000000000E+00  0.45593999997E+02  0.45594000000E+02  0.51100000000E-03 0.  1.
         11   -1    0    0    0    0 -0.00000000000E+00 -0.00000000000E+00 -0.45593999997E+02  0.45594000000E+02  0.51100000000E-03 0. -1.
    9900012    2    1    2    0    0  0.36753999669E+02  0.21622997048E+02  0.80754532907E+01  0.47787269144E+02  0.19999991333E+02 0.  0.
        -12    1    1    2    0    0 -0.36753999669E+02 -0.21622997048E+02 -0.80754532907E+01  0.43400730856E+02  0.00000000000E+00 0.  1.
         11    1    3    3    0    0 -0.16307449816E+01 -0.51073883566E+00  0.17339589030E+01  0.24345014052E+01  0.51100000000E-03 0.  1.
        -11    1    3    3    0    0  0.22094995761E+02  0.16166236319E+02  0.58594959241E+01  0.27997673602E+02  0.51100000000E-03 0. -1.
        -12    1    3    3    0    0  0.16289748890E+02  0.59674995649E+01  0.48199846357E+00  0.17355094136E+02  0.00000000000E+00 0.  1.
</event>
<event>
 7    1  0.2458979E-009  0.4778727E+02  0.7816164E-02  0.1312668E+00
        -11   -1    0    0    0    0  0.00000000000E+00  0.00000000000E+00  0.45593999997E+02  0.45594000000E+02  0.51100000000E-03 0.  1.
         11   -1    0    0    0    0 -0.00000000000E+00 -0.00000000000E+00 -0.45593999997E+02  0.45594000000E+02  0.51100000000E-03 0. -1.
    9900012    2    1    2    0    0 -0.19356112005E+02  0.17182606409E+02 -0.34838516109E+02  0.47787271439E+02  0.20000001800E+02 0.  0.
        -12    1    1    2    0    0  0.19356112005E+02 -0.17182606409E+02  0.34838516109E+02  0.43400728561E+02  0.00000000000E+00 0.  1.
         11    1    3    3    0    0 -0.16850110531E+02  0.19668091898E+02 -0.22130436841E+02  0.34066351417E+02  0.51100000000E-03 0. -1.
        -11    1    3    3    0    0 -0.17609946093E+01 -0.24223262757E+00 -0.98636470769E+01  0.10022540226E+02  0.51100000000E-03 0.  1.
         12    1    3    3    0    0 -0.74500686413E+00 -0.22432528617E+01 -0.28444321909E+01  0.36983797963E+01  0.00000000000E+00 0. -1.
</event>
<event>
 7    1  0.2458979E-009  0.4778726E+02  0.7816164E-02  0.1312668E+00
        -11   -1    0    0    0    0  0.00000000000E+00  0.00000000000E+00  0.45593999997E+02  0.45594000000E+02  0.51100000000E-03 0.  1.
         11   -1    0    0    0    0 -0.00000000000E+00 -0.00000000000E+00 -0.45593999997E+02  0.45594000000E+02  0.51100000000E-03 0. -1.
    9900012    2    1    2    0    0 -0.33682226113E+02 -0.20286986190E+02 -0.18373072321E+02  0.47787263243E+02  0.19999964428E+02 0.  0.
        -12    1    1    2    0    0  0.33682226113E+02  0.20286986190E+02  0.18373072321E+02  0.43400736757E+02  0.00000000000E+00 0.  1.
         11    1    3    3    0    0 -0.59866758938E+01 -0.38394148426E+01 -0.10902661162E+02  0.13017273726E+02  0.51100000000E-03 0. -1.
        -11    1    3    3    0    0 -0.18378869607E+02 -0.84461071615E+01  0.31495081701E+00  0.20229156396E+02  0.51100000000E-03 0.  1.
         12    1    3    3    0    0 -0.93166806124E+01 -0.80014641856E+01 -0.77853619760E+01  0.14540833121E+02  0.00000000000E+00 0. -1.
</event>
<event>
 7    1  0.2458979E-009  0.4778727E+02  0.7816164E-02  0.1312668E+00
        -11   -1    0    0    0    0  0.00000000000E+00  0.00000000000E+00  0.45593999997E+02  0.45594000000E+02  0.51100000000E-03 0. -1.
         11   -1    0    0    0    0 -0.00000000000E+00 -0.00000000000E+00 -0.45593999997E+02  0.45594000000E+02  0.51100000000E-03 0.  1.
    9900012    2    1    2    0    0  0.29886268418E+02  0.18636594673E+01  0.31415938398E+02  0.47787268993E+02  0.19999990646E+02 0.  0.
        -12    1    1    2    0    0 -0.29886268418E+02 -0.18636594673E+01 -0.31415938398E+02  0.43400731007E+02  0.00000000000E+00 0.  1.
         11    1    3    3    0    0  0.74191031799E+01  0.89231603031E+00  0.12007610934E+02  0.14142914851E+02  0.51100000000E-03 0. -1.
        -11    1    3    3    0    0  0.13165942729E+02  0.79995506940E+01  0.13904027053E+02  0.20752272835E+02  0.51100000000E-03 0.  1.
        -12    1    3    3    0    0  0.93012225088E+01 -0.70282072570E+01  0.55043004104E+01  0.12892081306E+02  0.00000000000E+00 0.  1.
</event>
<event>
 7    1  0.2458979E-009  0.4778727E+02  0.7816164E-02  0.1312668E+00
        -11   -1    0    0    0    0  0.00000000000E+00  0.00000000000E+00  0.45593999997E+02  0.45594000000E+02  0.51100000000E-03 0.  1.
         11   -1    0    0    0    0 -0.00000000000E+00 -0.00000000000E+00 -0.45593999997E+02  0.45594000000E+02  0.51100000000E-03 0. -1.
    9900012    2    1    2    0    0  0.33693799037E+02 -0.13330230833E+02 -0.23888418804E+02  0.47787266129E+02  0.19999977589E+02 0.  0.
        -12    1    1    2    0    0 -0.33693799037E+02  0.13330230833E+02  0.23888418804E+02  0.43400733871E+02  0.00000000000E+00 0.  1.
         11    1    3    3    0    0  0.24828094938E+02 -0.81375154873E+01 -0.72440264414E+01  0.27113269369E+02  0.51100000000E-03 0. -1.
        -11    1    3    3    0    0 -0.95721427894E+00 -0.11156012947E+01 -0.32789567479E+01  0.35933804475E+01  0.51100000000E-03 0.  1.
         12    1    3    3    0    0  0.98229183778E+01 -0.40771140506E+01 -0.13365435615E+02  0.17080616312E+02  0.00000000000E+00 0. -1.
</event>
<event>
 7    1  0.2458979E-009  0.4778727E+02  0.7816164E-02  0.1312668E+00
        -11   -1    0    0    0    0  0.00000000000E+00  0.00000000000E+00  0.45593999997E+02  0.45594000000E+02  0.51100000000E-03 0. -1.
         11   -1    0    0    0    0 -0.00000000000E+00 -0.00000000000E+00 -0.45593999997E+02  0.45594000000E+02  0.51100000000E-03 0.  1.
    9900012    2    1    2    0    0  0.39170463068E+02  0.67256553719E+01  0.17437420608E+02  0.47787271267E+02  0.20000001013E+02 0.  0.
        -12    1    1    2    0    0 -0.39170463068E+02 -0.67256553719E+01 -0.17437420608E+02  0.43400728733E+02  0.00000000000E+00 0.  1.
         11    1    3    3    0    0  0.21840385494E+02  0.17029188137E+01  0.79946694025E+00  0.21921257233E+02  0.51100000000E-03 0. -1.
        -11    1    3    3    0    0  0.86782276051E+01  0.60462226547E+01  0.12001217177E+02  0.15996801454E+02  0.51100000000E-03 0.  1.
         12    1    3    3    0    0  0.86518499684E+01 -0.10234860966E+01  0.46367364904E+01  0.98692125799E+01  0.00000000000E+00 0. -1.
</event>
<event>
 7    1  0.2458979E-009  0.4778728E+02  0.7816164E-02  0.1312668E+00
        -11   -1    0    0    0    0  0.00000000000E+00  0.00000000000E+00  0.45593999997E+02  0.45594000000E+02  0.51100000000E-03 0. -1.
         11   -1    0    0    0    0 -0.00000000000E+00 -0.00000000000E+00 -0.45593999997E+02  0.45594000000E+02  0.51100000000E-03 0.  1.
    9900012    2    1    2    0    0  0.13708515150E+02 -0.39725920797E+02  0.10842081188E+02  0.47787275406E+02  0.20000019888E+02 0.  0.
        -12    1    1    2    0    0 -0.13708515150E+02  0.39725920797E+02 -0.10842081188E+02  0.43400724594E+02  0.00000000000E+00 0.  1.
         11    1    3    3    0    0  0.52884854766E+01 -0.24153816509E+02  0.99857437467E+01  0.26666271000E+02  0.51100000000E-03 0. -1.
        -11    1    3    3    0    0  0.59417806634E+01 -0.66054754342E+00 -0.37595507511E-01  0.59785026714E+01  0.51100000000E-03 0.  1.
        -12    1    3    3    0    0  0.24782490102E+01 -0.14911556744E+02  0.89393294887E+00  0.15142501735E+02  0.00000000000E+00 0.  1.
</event>
<event>
 7    1 -0.2458979E-009  0.4778727E+02  0.7816164E-02  0.1312668E+00
        -11   -1    0    0    0    0  0.00000000000E+00  0.00000000000E+00  0.45593999997E+02  0.45594000000E+02  0.51100000000E-03 0.  1.
         11   -1    0    0    0    0 -0.00000000000E+00 -0.00000000000E+00 -0.45593999997E+02  0.45594000000E+02  0.51100000000E-03 0. -1.
    9900012    2    1    2    0    0 -0.66912560795E+01  0.11448036565E+02 -0.41325449278E+02  0.47787271814E+02  0.20000003508E+02 0.  0.
        -12    1    1    2    0    0  0.66912560795E+01 -0.11448036565E+02  0.41325449278E+02  0.43400728186E+02  0.00000000000E+00 0.  1.
         11    1    3    3    0    0 -0.64285074773E+01  0.60554886925E+01 -0.18359428303E+02  0.20373101373E+02  0.51100000000E-03 0. -1.
        -11    1    3    3    0    0  0.34603203074E+01  0.18225571118E+01 -0.21770932464E+02  0.22119426568E+02  0.51100000000E-03 0.  1.
        -12    1    3    3    0    0 -0.37230689096E+01  0.35699907602E+01 -0.11950885105E+01  0.52947438731E+01  0.00000000000E+00 0.  1.
</event>
<event>
 7    1  0.2458979E-009  0.4778727E+02  0.7816164E-02  0.1312668E+00
        -11   -1    0    0    0    0  0.00000000000E+00  0.00000000000E+00  0.45593999997E+02  0.45594000000E+02  0.51100000000E-03 0.  1.
         11   -1    0    0    0    0 -0.00000000000E+00 -0.00000000000E+00 -0.45593999997E+02  0.45594000000E+02  0.51100000000E-03 0. -1.
    9900012    2    1    2    0    0 -0.36630568328E+02 -0.11918517237E+02 -0.19994348206E+02  0.47787267871E+02  0.19999985529E+02 0.  0.
        -12    1    1    2    0    0  0.36630568328E+02  0.11918517237E+02  0.19994348206E+02  0.43400732129E+02  0.00000000000E+00 0.  1.
         11    1    3    3    0    0 -0.29686789226E+02 -0.12939972919E+02 -0.77474591055E+01  0.33298220321E+02  0.51100000000E-03 0. -1.
        -11    1    3    3    0    0 -0.52590410202E+01  0.53237231676E+00 -0.59802930723E+01  0.79815310704E+01  0.51100000000E-03 0.  1.
         12    1    3    3    0    0 -0.16847380823E+01  0.48908336565E+00 -0.62665960282E+01  0.65075164791E+01  0.00000000000E+00 0. -1.
</event>
<event>
 7    1  0.2458979E-009  0.4778727E+02  0.7816164E-02  0.1312668E+00
        -11   -1    0    0    0    0  0.00000000000E+00  0.00000000000E+00  0.45593999997E+02  0.45594000000E+02  0.51100000000E-03 0.  1.
         11   -1    0    0    0    0 -0.00000000000E+00 -0.00000000000E+00 -0.45593999997E+02  0.45594000000E+02  0.51100000000E-03 0. -1.
    9900012    2    1    2    0    0  0.21095416197E+02 -0.32111865788E+01 -0.37792795353E+02  0.47787266315E+02  0.19999978438E+02 0.  0.
        -12    1    1    2    0    0 -0.21095416197E+02  0.32111865788E+01  0.37792795353E+02  0.43400733685E+02  0.00000000000E+00 0.  1.
         11    1    3    3    0    0  0.14647559049E+00  0.18042557725E+01 -0.41653899516E+00  0.18574980449E+01  0.51100000000E-03 0.  1.
        -11    1    3    3    0    0  0.15649012118E+02 -0.56600087579E+00 -0.12288887450E+02  0.19905494023E+02  0.51100000000E-03 0. -1.
         12    1    3    3    0    0  0.52999284888E+01 -0.44494414754E+01 -0.25087368907E+02  0.26024274248E+02  0.00000000000E+00 0. -1.
</event>
<event>
 7    1  0.2458979E-009  0.4778727E+02  0.7816164E-02  0.1312668E+00
        -11   -1    0    0    0    0  0.00000000000E+00  0.00000000000E+00  0.45593999997E+02  0.45594000000E+02  0.51100000000E-03 0.  1.
         11   -1    0    0    0    0 -0.00000000000E+00 -0.00000000000E+00 -0.45593999997E+02  0.45594000000E+02  0.51100000000E-03 0. -1.
    9900012    2    1    2    0    0  0.25970564363E+02  0.31306364110E+02 -0.15134875059E+02  0.47787273161E+02  0.20000009652E+02 0.  0.
        -12    1    1    2    0    0 -0.25970564363E+02 -0.31306364110E+02  0.15134875059E+02  0.43400726839E+02  0.00000000000E+00 0.  1.
         11    1    3    3    0    0  0.66078719669E+01  0.20357249761E+02 -0.10130296597E+02  0.23679199715E+02  0.51100000000E-03 0. -1.
        -11    1    3    3    0    0  0.11792505693E+02  0.94039640066E+01 -0.34799206790E+00  0.15087041734E+02  0.51100000000E-03 0.  1.
         12    1    3    3    0    0  0.75701867027E+01  0.15451503419E+01 -0.46565863944E+01  0.90210317116E+01  0.00000000000E+00 0. -1.
</event>
<event>
 7    1  0.2458979E-009  0.4778727E+02  0.7816164E-02  0.1312668E+00
        -11   -1    0    0    0    0  0.00000000000E+00  0.00000000000E+00  0.45593999997E+02  0.45594000000E+02  0.51100000000E-03 0.  1.
         11   -1    0    0    0    0 -0.00000000000E+00 -0.00000000000E+00 -0.45593999997E+02  0.45594000000E+02  0.51100000000E-03 0. -1.
    9900012    2    1    2    0    0 -0.54101296503E+01 -0.10600616371E+02 -0.41737043226E+02  0.47787270196E+02  0.19999996130E+02 0.  0.
        -12    1    1    2    0    0  0.54101296503E+01  0.10600616371E+02  0.41737043226E+02  0.43400729804E+02  0.00000000000E+00 0.  1.
         11    1    3    3    0    0 -0.47146978340E+01 -0.12302570441E+01 -0.19393756599E+02  0.19996492276E+02  0.51100000000E-03 0. -1.
        -11    1    3    3    0    0  0.61299144175E+01 -0.36011758680E+01 -0.66695325873E+01  0.97481784756E+01  0.51100000000E-03 0.  1.
        -12    1    3    3    0    0 -0.68253462338E+01 -0.57691834584E+01 -0.15673754040E+02  0.18042599444E+02  0.00000000000E+00 0.  1.
</event>
<event>
 7    1  0.2458979E-009  0.4778727E+02  0.7816164E-02  0.1312668E+00
        -11   -1    0    0    0    0  0.00000000000E+00  0.00000000000E+00  0.45593999997E+02  0.45594000000E+02  0.51100000000E-03 0.  1.
         11   -1    0    0    0    0 -0.00000000000E+00 -0.00000000000E+00 -0.45593999997E+02  0.45594000000E+02  0.51100000000E-03 0. -1.
    9900012    2    1    2    0    0  0.24792517148E+02  0.19257883980E+02 -0.29968125655E+02  0.47787267781E+02  0.19999985119E+02 0.  0.
        -12    1    1    2    0    0 -0.24792517148E+02 -0.19257883980E+02  0.29968125655E+02  0.43400732219E+02  0.00000000000E+00 0.  1.
         11    1    3    3    0    0  0.31360111185E+01  0.49506149918E+01 -0.14661870621E+01  0.60409319889E+01  0.51100000000E-03 0. -1.
        -11    1    3    3    0    0 -0.14993640263E+01 -0.17047186001E+01 -0.29860821239E+01  0.37511124618E+01  0.51100000000E-03 0.  1.
        -12    1    3    3    0    0  0.23155870056E+02  0.16011987589E+02 -0.25515856469E+02  0.37995223330E+02  0.00000000000E+00 0.  1.
</event>
<event>
 7    1  0.2458979E-009  0.4778727E+02  0.7816164E-02  0.1312668E+00
        -11   -1    0    0    0    0  0.00000000000E+00  0.00000000000E+00  0.45593999997E+02  0.45594000000E+02  0.51100000000E-03 0. -1.
         11   -1    0    0    0    0 -0.00000000000E+00 -0.00000000000E+00 -0.45593999997E+02  0.45594000000E+02  0.51100000000E-03 0.  1.
    9900012    2    1    2    0    0 -0.40489160707E+02 -0.12261302181E+02 -0.96908159578E+01  0.47787267519E+02  0.19999983927E+02 0.  0.
        -12    1    1    2    0    0  0.40489160707E+02  0.12261302181E+02  0.96908159578E+01  0.43400732481E+02  0.00000000000E+00 0.  1.
         11    1    3    3    0    0 -0.25860688361E+01  0.11174967491E+01  0.33394771472E+01  0.43690569791E+01  0.51100000000E-03 0. -1.
        -11    1    3    3    0    0 -0.29317001657E+02 -0.56542666020E+01 -0.98244364582E+01  0.31432099341E+02  0.51100000000E-03 0.  1.
        -12    1    3    3    0    0 -0.85860902136E+01 -0.77245323279E+01 -0.32058566469E+01  0.11986111199E+02  0.00000000000E+00 0.  1.
</event>
<event>
 7    1  0.2458979E-009  0.4778727E+02  0.7816164E-02  0.1312668E+00
        -11   -1    0    0    0    0  0.00000000000E+00  0.00000000000E+00  0.45593999997E+02  0.45594000000E+02  0.51100000000E-03 0.  1.
         11   -1    0    0    0    0 -0.00000000000E+00 -0.00000000000E+00 -0.45593999997E+02  0.45594000000E+02  0.51100000000E-03 0. -1.
    9900012    2    1    2    0    0 -0.15394886790E+02 -0.40559913694E+02 -0.12306576082E+01  0.47787266638E+02  0.19999979911E+02 0.  0.
        -12    1    1    2    0    0  0.15394886790E+02  0.40559913694E+02  0.12306576082E+01  0.43400733362E+02  0.00000000000E+00 0.  1.
         11    1    3    3    0    0 -0.10246702376E+02 -0.99186290138E+01  0.50452050063E+01  0.15127068616E+02  0.51100000000E-03 0. -1.
        -11    1    3    3    0    0 -0.40758387760E+01 -0.28531967745E+02 -0.77839368996E+01  0.29854234524E+02  0.51100000000E-03 0.  1.
        -12    1    3    3    0    0 -0.10723456384E+01 -0.21093169362E+01  0.15080742851E+01  0.28059634985E+01  0.00000000000E+00 0.  1.
</event>
<event>
 7    1  0.2458979E-009  0.4778727E+02  0.7816164E-02  0.1312668E+00
        -11   -1    0    0    0    0  0.00000000000E+00  0.00000000000E+00  0.45593999997E+02  0.45594000000E+02  0.51100000000E-03 0.  1.
         11   -1    0    0    0    0 -0.00000000000E+00 -0.00000000000E+00 -0.45593999997E+02  0.45594000000E+02  0.51100000000E-03 0. -1.
    9900012    2    1    2    0    0 -0.33974025490E+02  0.44415603890E+00 -0.27003542051E+02  0.47787274593E+02  0.20000016179E+02 0.  0.
        -12    1    1    2    0    0  0.33974025490E+02 -0.44415603890E+00  0.27003542051E+02  0.43400725407E+02  0.00000000000E+00 0.  1.
         11    1    3    3    0    0 -0.77162266480E+01  0.22242025823E+01 -0.12349638394E+02  0.14730947001E+02  0.51100000000E-03 0. -1.
        -11    1    3    3    0    0 -0.34852631657E+01  0.74399422188E+00  0.25687996859E+01  0.43930990000E+01  0.51100000000E-03 0.  1.
        -12    1    3    3    0    0 -0.22772535676E+02 -0.25240407653E+01 -0.17222703343E+02  0.28663228592E+02  0.00000000000E+00 0.  1.
</event>
<event>
 7    1  0.2458979E-009  0.4778727E+02  0.7816164E-02  0.1312668E+00
        -11   -1    0    0    0    0  0.00000000000E+00  0.00000000000E+00  0.45593999997E+02  0.45594000000E+02  0.51100000000E-03 0. -1.
         11   -1    0    0    0    0 -0.00000000000E+00 -0.00000000000E+00 -0.45593999997E+02  0.45594000000E+02  0.51100000000E-03 0.  1.
    9900012    2    1    2    0    0  0.31452115578E+02  0.25341181802E+02  0.15881189549E+02  0.47787271308E+02  0.20000001203E+02 0.  0.
        -12    1    1    2    0    0 -0.31452115578E+02 -0.25341181802E+02 -0.15881189549E+02  0.43400728692E+02  0.00000000000E+00 0.  1.
         11    1    3    3    0    0  0.11916217512E+02  0.68300347949E+01  0.10843935058E+02  0.17499615507E+02  0.51100000000E-03 0. -1.
        -11    1    3    3    0    0  0.44153902213E+01  0.44448553845E+01 -0.43249347102E+01  0.76129804088E+01  0.51100000000E-03 0.  1.
        -12    1    3    3    0    0  0.15120507845E+02  0.14066291623E+02  0.93621892014E+01  0.22674675392E+02  0.00000000000E+00 0.  1.
</event>
<event>
 7    1  0.2458979E-009  0.4778727E+02  0.7816164E-02  0.1312668E+00
        -11   -1    0    0    0    0  0.00000000000E+00  0.00000000000E+00  0.45593999997E+02  0.45594000000E+02  0.51100000000E-03 0.  1.
         11   -1    0    0    0    0 -0.00000000000E+00 -0.00000000000E+00 -0.45593999997E+02  0.45594000000E+02  0.51100000000E-03 0. -1.
    9900012    2    1    2    0    0 -0.34642618443E+02  0.14396335577E+02 -0.21823327466E+02  0.47787272905E+02  0.20000008484E+02 0.  0.
        -12    1    1    2    0    0  0.34642618443E+02 -0.14396335577E+02  0.21823327466E+02  0.43400727095E+02  0.00000000000E+00 0.  1.
         11    1    3    3    0    0 -0.28551314158E+02  0.11005077236E+02 -0.14641044561E+02  0.33921224200E+02  0.51100000000E-03 0. -1.
        -11    1    3    3    0    0 -0.70260644584E+01  0.37241902809E+01 -0.14931440683E+01  0.80910230807E+01  0.51100000000E-03 0.  1.
         12    1    3    3    0    0  0.93476017295E+00 -0.33293193963E+00 -0.56891388375E+01  0.57750256250E+01  0.00000000000E+00 0. -1.
</event>
<event>
 7    1  0.2458979E-009  0.4778725E+02  0.7816164E-02  0.1312668E+00
        -11   -1    0    0    0    0  0.00000000000E+00  0.00000000000E+00  0.45593999997E+02  0.45594000000E+02  0.51100000000E-03 0. -1.
         11   -1    0    0    0    0 -0.00000000000E+00 -0.00000000000E+00 -0.45593999997E+02  0.45594000000E+02  0.51100000000E-03 0.  1.
    9900012    2    1    2    0    0 -0.82629322691E+00 -0.41927919002E+02 -0.11179968297E+02  0.47787252962E+02  0.19999917553E+02 0.  0.
        -12    1    1    2    0    0  0.82629322691E+00  0.41927919002E+02  0.11179968297E+02  0.43400747038E+02  0.00000000000E+00 0.  1.
         11    1    3    3    0    0  0.60149400919E+01 -0.24586524598E+02 -0.42799732131E+01  0.25670895331E+02  0.51100000000E-03 0. -1.
        -11    1    3    3    0    0  0.19190522054E+01 -0.18081261793E+01 -0.27435141626E+01  0.38051217942E+01  0.51100000000E-03 0.  1.
         12    1    3    3    0    0 -0.87602855242E+01 -0.15533268225E+02 -0.41564809209E+01  0.18311235837E+02  0.00000000000E+00 0. -1.
</event>
<event>
 7    1  0.2458979E-009  0.4778727E+02  0.7816164E-02  0.1312668E+00
        -11   -1    0    0    0    0  0.00000000000E+00  0.00000000000E+00  0.45593999997E+02  0.45594000000E+02  0.51100000000E-03 0.  1.
         11   -1    0    0    0    0 -0.00000000000E+00 -0.00000000000E+00 -0.45593999997E+02  0.45594000000E+02  0.51100000000E-03 0. -1.
    9900012    2    1    2    0    0 -0.36615291922E+02 -0.68573714729E+01 -0.22269264863E+02  0.47787270702E+02  0.19999998439E+02 0.  0.
        -12    1    1    2    0    0  0.36615291922E+02  0.68573714729E+01  0.22269264863E+02  0.43400729298E+02  0.00000000000E+00 0.  1.
         11    1    3    3    0    0 -0.22220713515E+02 -0.16323674413E+01 -0.23192429537E+02  0.32160745026E+02  0.51100000000E-03 0. -1.
        -11    1    3    3    0    0 -0.47271451428E+01 -0.11230809568E+01  0.15669335151E+01  0.51051437726E+01  0.51100000000E-03 0.  1.
         12    1    3    3    0    0 -0.96674332645E+01 -0.41019230749E+01 -0.64376884194E+00  0.10521381903E+02  0.00000000000E+00 0. -1.
</event>
<event>
 7    1  0.2458979E-009  0.4778727E+02  0.7816164E-02  0.1312668E+00
        -11   -1    0    0    0    0  0.00000000000E+00  0.00000000000E+00  0.45593999997E+02  0.45594000000E+02  0.51100000000E-03 0.  1.
         11   -1    0    0    0    0 -0.00000000000E+00 -0.00000000000E+00 -0.45593999997E+02  0.45594000000E+02  0.51100000000E-03 0. -1.
    9900012    2    1    2    0    0  0.32767228952E+02  0.88832943256E+01 -0.27037358680E+02  0.47787274480E+02  0.20000015663E+02 0.  0.
        -12    1    1    2    0    0 -0.32767228952E+02 -0.88832943256E+01  0.27037358680E+02  0.43400725520E+02  0.00000000000E+00 0.  1.
         11    1    3    3    0    0  0.24898913145E+02  0.16939244862E+01 -0.23714684965E+02  0.34426901388E+02  0.51100000000E-03 0. -1.
        -11    1    3    3    0    0 -0.10044082530E+01  0.23549779696E+01  0.40170558316E+00  0.25915487285E+01  0.51100000000E-03 0.  1.
        -12    1    3    3    0    0  0.88727240603E+01  0.48343918699E+01 -0.37243792984E+01  0.10768824363E+02  0.00000000000E+00 0.  1.
</event>
<event>
 7    1  0.2458979E-009  0.4778728E+02  0.7816164E-02  0.1312668E+00
        -11   -1    0    0    0    0  0.00000000000E+00  0.00000000000E+00  0.45593999997E+02  0.45594000000E+02  0.51100000000E-03 0.  1.
         11   -1    0    0    0    0 -0.00000000000E+00 -0.00000000000E+00 -0.45593999997E+02  0.45594000000E+02  0.51100000000E-03 0. -1.
    9900012    2    1    2    0    0  0.21694668632E+02 -0.94223728310E+00 -0.37577600702E+02  0.47787279583E+02  0.20000038931E+02 0.  0.
        -12    1    1    2    0    0 -0.21694668632E+02  0.94223728310E+00  0.37577600702E+02  0.43400720417E+02  0.00000000000E+00 0.  1.
         11    1    3    3    0    0  0.19905945961E+02  0.20615804964E+01 -0.26339354442E+02  0.33079576651E+02  0.51100000000E-03 0. -1.
        -11    1    3    3    0    0  0.27117073822E+01 -0.55772314238E+01 -0.98547086564E+01  0.11643631317E+02  0.51100000000E-03 0.  1.
         12    1    3    3    0    0 -0.92298471041E+00  0.25734136443E+01 -0.13835376041E+01  0.30640716151E+01  0.00000000000E+00 0. -1.
</event>
<event>
 7    1  0.2458979E-009  0.4778727E+02  0.7816164E-02  0.1312668E+00
        -11   -1    0    0    0    0  0.00000000000E+00  0.00000000000E+00  0.45593999997E+02  0.45594000000E+02  0.51100000000E-03 0.  1.
         11   -1    0    0    0    0 -0.00000000000E+00 -0.00000000000E+00 -0.45593999997E+02  0.45594000000E+02  0.51100000000E-03 0. -1.
    9900012    2    1    2    0    0  0.31653758958E+02 -0.53132105392E+01 -0.29213563838E+02  0.47787274494E+02  0.20000015726E+02 0.  0.
        -12    1    1    2    0    0 -0.31653758958E+02  0.53132105392E+01  0.29213563838E+02  0.43400725506E+02  0.00000000000E+00 0.  1.
         11    1    3    3    0    0  0.21708880620E+02 -0.86355685802E+01 -0.21185549464E+02  0.31538485202E+02  0.51100000000E-03 0. -1.
        -11    1    3    3    0    0  0.99408836837E+01  0.24954727174E+01 -0.23557417409E+01  0.10516561791E+02  0.51100000000E-03 0.  1.
        -12    1    3    3    0    0  0.39946537581E-02  0.82688532353E+00 -0.56722726332E+01  0.57322275008E+01  0.00000000000E+00 0.  1.
</event>
<event>
 7    1  0.2458979E-009  0.4778727E+02  0.7816164E-02  0.1312668E+00
        -11   -1    0    0    0    0  0.00000000000E+00  0.00000000000E+00  0.45593999997E+02  0.45594000000E+02  0.51100000000E-03 0.  1.
         11   -1    0    0    0    0 -0.00000000000E+00 -0.00000000000E+00 -0.45593999997E+02  0.45594000000E+02  0.51100000000E-03 0. -1.
    9900012    2    1    2    0    0  0.35434370699E+02 -0.22301231949E+02  0.11431714330E+02  0.47787266529E+02  0.19999979413E+02 0.  0.
        -12    1    1    2    0    0 -0.35434370699E+02  0.22301231949E+02 -0.11431714330E+02  0.43400733471E+02  0.00000000000E+00 0.  1.
         11    1    3    3    0    0  0.26163747955E+02 -0.19075917784E+02  0.96791954736E+01  0.33795253685E+02  0.51100000000E-03 0. -1.
        -11    1    3    3    0    0  0.29538469543E+01 -0.40736434502E+01  0.47761474458E+01  0.69376773832E+01  0.51100000000E-03 0.  1.
         12    1    3    3    0    0  0.63167757891E+01  0.84832928474E+00 -0.30236285894E+01  0.70543354607E+01  0.00000000000E+00 0. -1.
</event>
<event>
 7    1  0.2458979E-009  0.4778727E+02  0.7816164E-02  0.1312668E+00
        -11   -1    0    0    0    0  0.00000000000E+00  0.00000000000E+00  0.45593999997E+02  0.45594000000E+02  0.51100000000E-03 0.  1.
         11   -1    0    0    0    0 -0.00000000000E+00 -0.00000000000E+00 -0.45593999997E+02  0.45594000000E+02  0.51100000000E-03 0. -1.
    9900012    2    1    2    0    0  0.24455506453E+02  0.35068822725E+02  0.74652039431E+01  0.47787269671E+02  0.19999993739E+02 0.  0.
        -12    1    1    2    0    0 -0.24455506453E+02 -0.35068822725E+02 -0.74652039431E+01  0.43400730329E+02  0.00000000000E+00 0.  1.
         11    1    3    3    0    0  0.12579154990E+02  0.20990971899E+02 -0.43710500428E+01  0.24858843904E+02  0.51100000000E-03 0. -1.
        -11    1    3    3    0    0  0.10966742993E+02  0.14826353274E+02  0.10885095022E+02  0.21414375947E+02  0.51100000000E-03 0.  1.
         12    1    3    3    0    0  0.90960846979E+00 -0.74850244845E+00  0.95115896357E+00  0.15140498201E+01  0.00000000000E+00 0. -1.
</event>
<event>
 7    1  0.2458979E-009  0.4778727E+02  0.7816164E-02  0.1312668E+00
        -11   -1    0    0    0    0  0.00000000000E+00  0.00000000000E+00  0.45593999997E+02  0.45594000000E+02  0.51100000000E-03 0.  1.
         11   -1    0    0    0    0 -0.00000000000E+00 -0.00000000000E+00 -0.45593999997E+02  0.45594000000E+02  0.51100000000E-03 0. -1.
    9900012    2    1    2    0    0 -0.43030134669E+02 -0.49540577343E+01 -0.27364005972E+01  0.47787273440E+02  0.20000010924E+02 0.  0.
        -12    1    1    2    0    0  0.43030134669E+02  0.49540577343E+01  0.27364005972E+01  0.43400726560E+02  0.00000000000E+00 0.  1.
         11    1    3    3    0    0 -0.10255643066E+02  0.27334620616E+01  0.33236439094E+01  0.11121899057E+02  0.51100000000E-03 0. -1.
        -11    1    3    3    0    0 -0.71945273616E+00  0.23835860198E+01 -0.10154212955E+01  0.26888985146E+01  0.51100000000E-03 0.  1.
         12    1    3    3    0    0 -0.32055038867E+02 -0.10071105816E+02 -0.50446232111E+01  0.33976475868E+02  0.00000000000E+00 0. -1.
</event>
<event>
 7    1  0.2458979E-009  0.4778728E+02  0.7816164E-02  0.1312668E+00
        -11   -1    0    0    0    0  0.00000000000E+00  0.00000000000E+00  0.45593999997E+02  0.45594000000E+02  0.51100000000E-03 0. -1.
         11   -1    0    0    0    0 -0.00000000000E+00 -0.00000000000E+00 -0.45593999997E+02  0.45594000000E+02  0.51100000000E-03 0.  1.
    9900012    2    1    2    0    0  0.17931856947E+02 -0.37701725646E+02 -0.11859631240E+02  0.47787280382E+02  0.20000042572E+02 0.  0.
        -12    1    1    2    0    0 -0.17931856947E+02  0.37701725646E+02  0.11859631240E+02  0.43400719618E+02  0.00000000000E+00 0.  1.
         11    1    3    3    0    0  0.37059975370E+01 -0.11371751191E+02  0.38673195417E+01  0.12570095608E+02  0.51100000000E-03 0. -1.
        -11    1    3    3    0    0  0.14274914258E+02 -0.27157073875E+02 -0.15254261627E+02  0.34263279712E+02  0.51100000000E-03 0.  1.
        -12    1    3    3    0    0 -0.49054848600E-01  0.82709942056E+00 -0.47268915437E+00  0.95390506149E+00  0.00000000000E+00 0.  1.
</event>
<event>
 7    1  0.2458979E-009  0.4778727E+02  0.7816164E-02  0.1312668E+00
        -11   -1    0    0    0    0  0.00000000000E+00  0.00000000000E+00  0.45593999997E+02  0.45594000000E+02  0.51100000000E-03 0.  1.
         11   -1    0    0    0    0 -0.00000000000E+00 -0.00000000000E+00 -0.45593999997E+02  0.45594000000E+02  0.51100000000E-03 0. -1.
    9900012    2    1    2    0    0 -0.31444176519E+02  0.29844626258E+02  0.20459284563E+01  0.47787265252E+02  0.19999973592E+02 0.  0.
        -12    1    1    2    0    0  0.31444176519E+02 -0.29844626258E+02 -0.20459284563E+01  0.43400734748E+02  0.00000000000E+00 0.  1.
         11    1    3    3    0    0 -0.23195328631E+02  0.13542666686E+02 -0.33194907707E+01  0.27063741621E+02  0.51100000000E-03 0. -1.
        -11    1    3    3    0    0 -0.96418133568E+01  0.15763532680E+02  0.53215807989E+01  0.19229476067E+02  0.51100000000E-03 0.  1.
        -12    1    3    3    0    0  0.13929654694E+01  0.53842689143E+00  0.43838428094E-01  0.14940475642E+01  0.00000000000E+00 0.  1.
</event>
<event>
 7    1  0.2458979E-009  0.4778727E+02  0.7816164E-02  0.1312668E+00
        -11   -1    0    0    0    0  0.00000000000E+00  0.00000000000E+00  0.45593999997E+02  0.45594000000E+02  0.51100000000E-03 0.  1.
         11   -1    0    0    0    0 -0.00000000000E+00 -0.00000000000E+00 -0.45593999997E+02  0.45594000000E+02  0.51100000000E-03 0. -1.
    9900012    2    1    2    0    0  0.12982086814E+02  0.33671441416E+02 -0.24110645481E+02  0.47787265322E+02  0.19999973909E+02 0.  0.
        -12    1    1    2    0    0 -0.12982086814E+02 -0.33671441416E+02  0.24110645481E+02  0.43400734678E+02  0.00000000000E+00 0.  1.
         11    1    3    3    0    0 -0.39074674094E+01  0.18424394403E+01 -0.30170408733E+00  0.43305785138E+01  0.51100000000E-03 0. -1.
        -11    1    3    3    0    0  0.11759589023E+02  0.21987157352E+02 -0.19059843578E+02  0.31384720166E+02  0.51100000000E-03 0.  1.
         12    1    3    3    0    0  0.51299652003E+01  0.98418446240E+01 -0.47490978155E+01  0.12071966643E+02  0.00000000000E+00 0. -1.
</event>
<event>
 7    1  0.2458979E-009  0.4778727E+02  0.7816164E-02  0.1312668E+00
        -11   -1    0    0    0    0  0.00000000000E+00  0.00000000000E+00  0.45593999997E+02  0.45594000000E+02  0.51100000000E-03 0.  1.
         11   -1    0    0    0    0 -0.00000000000E+00 -0.00000000000E+00 -0.45593999997E+02  0.45594000000E+02  0.51100000000E-03 0. -1.
    9900012    2    1    2    0    0 -0.11299688265E+02 -0.31518385229E+02 -0.27613980685E+02  0.47787268536E+02  0.19999988563E+02 0.  0.
        -12    1    1    2    0    0  0.11299688265E+02  0.31518385229E+02  0.27613980685E+02  0.43400731464E+02  0.00000000000E+00 0.  1.
         11    1    3    3    0    0 -0.94178275255E+01 -0.58221293623E+01 -0.41143855661E+01  0.11811893771E+02  0.51100000000E-03 0. -1.
        -11    1    3    3    0    0  0.84357645904E+00 -0.47142670429E+01 -0.64817531625E+00  0.48328114484E+01  0.51100000000E-03 0.  1.
         12    1    3    3    0    0 -0.27254371989E+01 -0.20981988824E+02 -0.22851419803E+02  0.31142563317E+02  0.00000000000E+00 0. -1.
</event>
<event>
 7    1  0.2458979E-009  0.4778727E+02  0.7816164E-02  0.1312668E+00
        -11   -1    0    0    0    0  0.00000000000E+00  0.00000000000E+00  0.45593999997E+02  0.45594000000E+02  0.51100000000E-03 0.  1.
         11   -1    0    0    0    0 -0.00000000000E+00 -0.00000000000E+00 -0.45593999997E+02  0.45594000000E+02  0.51100000000E-03 0. -1.
    9900012    2    1    2    0    0  0.14202277848E+02 -0.38592376068E+02 -0.13876127237E+02  0.47787273120E+02  0.20000009463E+02 0.  0.
        -12    1    1    2    0    0 -0.14202277848E+02  0.38592376068E+02  0.13876127237E+02  0.43400726880E+02  0.00000000000E+00 0.  1.
         11    1    3    3    0    0  0.65422376977E+01 -0.39886742808E+01  0.24308532591E+01  0.80386220486E+01  0.51100000000E-03 0. -1.
        -11    1    3    3    0    0  0.39931582851E+01 -0.10831643468E+02 -0.18680263390E+01  0.11694414734E+02  0.51100000000E-03 0.  1.
         12    1    3    3    0    0  0.36668818654E+01 -0.23772058319E+02 -0.14438954157E+02  0.28054236338E+02  0.00000000000E+00 0. -1.
</event>
<event>
 7    1  0.2458979E-009  0.4778727E+02  0.7816164E-02  0.1312668E+00
        -11   -1    0    0    0    0  0.00000000000E+00  0.00000000000E+00  0.45593999997E+02  0.45594000000E+02  0.51100000000E-03 0. -1.
         11   -1    0    0    0    0 -0.00000000000E+00 -0.00000000000E+00 -0.45593999997E+02  0.45594000000E+02  0.51100000000E-03 0.  1.
    9900012    2    1    2    0    0 -0.97053192622E+00 -0.42529039252E+02  0.86001222908E+01  0.47787271719E+02  0.20000003075E+02 0.  0.
        -12    1    1    2    0    0  0.97053192622E+00  0.42529039252E+02 -0.86001222908E+01  0.43400728281E+02  0.00000000000E+00 0.  1.
         11    1    3    3    0    0 -0.28804751789E+01 -0.32154683674E+02  0.64651357251E+01  0.32924440764E+02  0.51100000000E-03 0. -1.
        -11    1    3    3    0    0 -0.36632526586E+01 -0.10008783187E+01  0.36597513637E+00  0.38151167100E+01  0.51100000000E-03 0.  1.
         12    1    3    3    0    0  0.55731959113E+01 -0.93734772592E+01  0.17690114293E+01  0.11047714245E+02  0.00000000000E+00 0. -1.
</event>
<event>
 7    1  0.2458979E-009  0.4778727E+02  0.7816164E-02  0.1312668E+00
        -11   -1    0    0    0    0  0.00000000000E+00  0.00000000000E+00  0.45593999997E+02  0.45594000000E+02  0.51100000000E-03 0. -1.
         11   -1    0    0    0    0 -0.00000000000E+00 -0.00000000000E+00 -0.45593999997E+02  0.45594000000E+02  0.51100000000E-03 0.  1.
    9900012    2    1    2    0    0  0.16927234575E+02  0.37518508296E+02 -0.13764220673E+02  0.47787268372E+02  0.19999987815E+02 0.  0.
        -12    1    1    2    0    0 -0.16927234575E+02 -0.37518508296E+02  0.13764220673E+02  0.43400731628E+02  0.00000000000E+00 0.  1.
         11    1    3    3    0    0  0.10802818127E+02  0.98236388855E+01 -0.53199924987E+01  0.15540498090E+02  0.51100000000E-03 0. -1.
        -11    1    3    3    0    0 -0.32083150056E+01  0.61485113019E+01  0.86296156202E+00  0.69887180029E+01  0.51100000000E-03 0.  1.
        -12    1    3    3    0    0  0.93327314534E+01  0.21546358109E+02 -0.93071897362E+01  0.25258052279E+02  0.00000000000E+00 0.  1.
</event>
<event>
 7    1  0.2458979E-009  0.4778726E+02  0.7816164E-02  0.1312668E+00
        -11   -1    0    0    0    0  0.00000000000E+00  0.00000000000E+00  0.45593999997E+02  0.45594000000E+02  0.51100000000E-03 0.  1.
         11   -1    0    0    0    0 -0.00000000000E+00 -0.00000000000E+00 -0.45593999997E+02  0.45594000000E+02  0.51100000000E-03 0. -1.
    9900012    2    1    2    0    0  0.31966940592E+02  0.12832897098E+02 -0.26401811174E+02  0.47787260697E+02  0.19999952822E+02 0.  0.
        -12    1    1    2    0    0 -0.31966940592E+02 -0.12832897098E+02  0.26401811174E+02  0.43400739303E+02  0.00000000000E+00 0.  1.
         11    1    3    3    0    0  0.15160777035E+01  0.21059565225E+01 -0.70647091255E+01  0.75261982280E+01  0.51100000000E-03 0. -1.
        -11    1    3    3    0    0  0.30264285775E+02  0.12358066810E+02 -0.20178335088E+02  0.38416324863E+02  0.51100000000E-03 0.  1.
        -12    1    3    3    0    0  0.18657711343E+00 -0.16311262341E+01  0.84123303888E+00  0.18447376064E+01  0.00000000000E+00 0.  1.
</event>
<event>
 7    1  0.2458979E-009  0.4778727E+02  0.7816164E-02  0.1312668E+00
        -11   -1    0    0    0    0  0.00000000000E+00  0.00000000000E+00  0.45593999997E+02  0.45594000000E+02  0.51100000000E-03 0.  1.
         11   -1    0    0    0    0 -0.00000000000E+00 -0.00000000000E+00 -0.45593999997E+02  0.45594000000E+02  0.51100000000E-03 0. -1.
    9900012    2    1    2    0    0  0.35257837105E+02 -0.61331151149E+01 -0.24553880895E+02  0.47787271373E+02  0.20000001499E+02 0.  0.
        -12    1    1    2    0    0 -0.35257837105E+02  0.61331151149E+01  0.24553880895E+02  0.43400728627E+02  0.00000000000E+00 0.  1.
         11    1    3    3    0    0  0.14127330205E+02 -0.11727375931E+01 -0.19658556585E+02  0.24236658586E+02  0.51100000000E-03 0. -1.
        -11    1    3    3    0    0  0.15983585742E+01 -0.24471593412E+01  0.83651826829E+00  0.30402470372E+01  0.51100000000E-03 0.  1.
         12    1    3    3    0    0  0.19532148326E+02 -0.25132181806E+01 -0.57318425791E+01  0.20510365750E+02  0.00000000000E+00 0. -1.
</event>
<event>
 7    1  0.2458979E-009  0.4778727E+02  0.7816164E-02  0.1312668E+00
        -11   -1    0    0    0    0  0.00000000000E+00  0.00000000000E+00  0.45593999997E+02  0.45594000000E+02  0.51100000000E-03 0.  1.
         11   -1    0    0    0    0 -0.00000000000E+00 -0.00000000000E+00 -0.45593999997E+02  0.45594000000E+02  0.51100000000E-03 0. -1.
    9900012    2    1    2    0    0 -0.42760286223E+02  0.73015209217E+00 -0.73924345427E+01  0.47787270877E+02  0.19999999236E+02 0.  0.
        -12    1    1    2    0    0  0.42760286223E+02 -0.73015209217E+00  0.73924345427E+01  0.43400729123E+02  0.00000000000E+00 0.  1.
         11    1    3    3    0    0 -0.50329051467E+01  0.47331537284E+01  0.89422850521E+00  0.69665287851E+01  0.51100000000E-03 0. -1.
        -11    1    3    3    0    0 -0.25017125352E+02 -0.76614261519E+01 -0.87443206706E+01  0.27586539396E+02  0.51100000000E-03 0.  1.
        -12    1    3    3    0    0 -0.12710255724E+02  0.36584245156E+01  0.45765762269E+00  0.13234202696E+02  0.00000000000E+00 0.  1.
</event>
<event>
 7    1  0.2458979E-009  0.4778727E+02  0.7816164E-02  0.1312668E+00
        -11   -1    0    0    0    0  0.00000000000E+00  0.00000000000E+00  0.45593999997E+02  0.45594000000E+02  0.51100000000E-03 0. -1.
         11   -1    0    0    0    0 -0.00000000000E+00 -0.00000000000E+00 -0.45593999997E+02  0.45594000000E+02  0.51100000000E-03 0.  1.
    9900012    2    1    2    0    0  0.90551718178E+01 -0.30365955918E+02  0.29656964935E+02  0.47787274377E+02  0.20000015195E+02 0.  0.
        -12    1    1    2    0    0 -0.90551718178E+01  0.30365955918E+02 -0.29656964935E+02  0.43400725623E+02  0.00000000000E+00 0.  1.
         11    1    3    3    0    0  0.63241103458E+01 -0.17187409669E+02  0.83879463447E+01  0.20143462138E+02  0.51100000000E-03 0. -1.
        -11    1    3    3    0    0  0.30540397048E+01 -0.13341124954E+02  0.22513913082E+02  0.26347467736E+02  0.51100000000E-03 0.  1.
        -12    1    3    3    0    0 -0.32297823283E+00  0.16257870421E+00 -0.12448944921E+01  0.12963445030E+01  0.00000000000E+00 0.  1.
</event>
<event>
 7    1  0.2458979E-009  0.4778722E+02  0.7816164E-02  0.1312668E+00
        -11   -1    0    0    0    0  0.00000000000E+00  0.00000000000E+00  0.45593999997E+02  0.45594000000E+02  0.51100000000E-03 0.  1.
         11   -1    0    0    0    0 -0.00000000000E+00 -0.00000000000E+00 -0.45593999997E+02  0.45594000000E+02  0.51100000000E-03 0. -1.
    9900012    2    1    2    0    0 -0.26729708412E+02 -0.22303845569E+02 -0.25916954008E+02  0.47787224154E+02  0.19999786208E+02 0.  0.
        -12    1    1    2    0    0  0.26729708412E+02  0.22303845569E+02  0.25916954008E+02  0.43400775846E+02  0.00000000000E+00 0.  1.
         11    1    3    3    0    0 -0.19518759547E+02 -0.15760851112E+02 -0.22057411674E+02  0.33405326103E+02  0.51100000000E-03 0. -1.
        -11    1    3    3    0    0  0.75816103507E-01  0.23340588396E+01 -0.27862397863E+00  0.23518525317E+01  0.51100000000E-03 0.  1.
        -12    1    3    3    0    0 -0.72867649689E+01 -0.88770532965E+01 -0.35809183549E+01  0.12030045520E+02  0.00000000000E+00 0.  1.
</event>
<event>
 7    1  0.2458979E-009  0.4778727E+02  0.7816164E-02  0.1312668E+00
        -11   -1    0    0    0    0  0.00000000000E+00  0.00000000000E+00  0.45593999997E+02  0.45594000000E+02  0.51100000000E-03 0.  1.
         11   -1    0    0    0    0 -0.00000000000E+00 -0.00000000000E+00 -0.45593999997E+02  0.45594000000E+02  0.51100000000E-03 0. -1.
    9900012    2    1    2    0    0  0.32990615416E+02 -0.27932885520E+02  0.38725363474E+01  0.47787270320E+02  0.19999996697E+02 0.  0.
        -12    1    1    2    0    0 -0.32990615416E+02  0.27932885520E+02 -0.38725363474E+01  0.43400729680E+02  0.00000000000E+00 0.  1.
         11    1    3    3    0    0  0.19201964000E+01 -0.74495930308E+01  0.60339393113E+01  0.97771168763E+01  0.51100000000E-03 0.  1.
        -11    1    3    3    0    0  0.19363541947E+02 -0.13815197419E+02 -0.48390547420E+01  0.24273913725E+02  0.51100000000E-03 0. -1.
         12    1    3    3    0    0  0.11706877069E+02 -0.66680950704E+01  0.26776517781E+01  0.13736239719E+02  0.00000000000E+00 0. -1.
</event>
<event>
 7    1  0.2458979E-009  0.4778727E+02  0.7816164E-02  0.1312668E+00
        -11   -1    0    0    0    0  0.00000000000E+00  0.00000000000E+00  0.45593999997E+02  0.45594000000E+02  0.51100000000E-03 0.  1.
         11   -1    0    0    0    0 -0.00000000000E+00 -0.00000000000E+00 -0.45593999997E+02  0.45594000000E+02  0.51100000000E-03 0. -1.
    9900012    2    1    2    0    0  0.52194162806E+01 -0.22429913017E+02 -0.36786953674E+02  0.47787271148E+02  0.20000000474E+02 0.  0.
        -12    1    1    2    0    0 -0.52194162806E+01  0.22429913017E+02  0.36786953674E+02  0.43400728852E+02  0.00000000000E+00 0.  1.
         11    1    3    3    0    0 -0.11854607494E+00 -0.79506597557E+01 -0.16380923825E+02  0.18208836024E+02  0.51100000000E-03 0. -1.
        -11    1    3    3    0    0 -0.14725150046E+01 -0.10756242596E+02 -0.42576592525E+01  0.11661591563E+02  0.51100000000E-03 0.  1.
        -12    1    3    3    0    0  0.68104773601E+01 -0.37230106655E+01 -0.16148370596E+02  0.17916843561E+02  0.00000000000E+00 0.  1.
</event>
<event>
 7    1  0.2458979E-009  0.4778727E+02  0.7816164E-02  0.1312668E+00
        -11   -1    0    0    0    0  0.00000000000E+00  0.00000000000E+00  0.45593999997E+02  0.45594000000E+02  0.51100000000E-03 0. -1.
         11   -1    0    0    0    0 -0.00000000000E+00 -0.00000000000E+00 -0.45593999997E+02  0.45594000000E+02  0.51100000000E-03 0.  1.
    9900012    2    1    2    0    0 -0.26121666675E+01 -0.43194725261E+02 -0.33189895830E+01  0.47787269627E+02  0.19999993536E+02 0.  0.
        -12    1    1    2    0    0  0.26121666675E+01  0.43194725261E+02  0.33189895830E+01  0.43400730373E+02  0.00000000000E+00 0.  1.
         11    1    3    3    0    0  0.52132568422E+00 -0.17525137126E+02 -0.32449525495E+01  0.17830645784E+02  0.51100000000E-03 0. -1.
        -11    1    3    3    0    0  0.47763013400E+01 -0.58776493346E+01  0.35031047150E+01  0.83445526601E+01  0.51100000000E-03 0.  1.
        -12    1    3    3    0    0 -0.79097936918E+01 -0.19791938800E+02 -0.35771417485E+01  0.21612071183E+02  0.00000000000E+00 0.  1.
</event>
<event>
 7    1  0.2458979E-009  0.4778727E+02  0.7816164E-02  0.1312668E+00
        -11   -1    0    0    0    0  0.00000000000E+00  0.00000000000E+00  0.45593999997E+02  0.45594000000E+02  0.51100000000E-03 0.  1.
         11   -1    0    0    0    0 -0.00000000000E+00 -0.00000000000E+00 -0.45593999997E+02  0.45594000000E+02  0.51100000000E-03 0. -1.
    9900012    2    1    2    0    0  0.28087723489E+02 -0.10665345691E+02 -0.31320174997E+02  0.47787272226E+02  0.20000005386E+02 0.  0.
        -12    1    1    2    0    0 -0.28087723489E+02  0.10665345691E+02  0.31320174997E+02  0.43400727774E+02  0.00000000000E+00 0.  1.
         11    1    3    3    0    0  0.24394568971E+02 -0.35579142597E+01 -0.20413276603E+02  0.32007118132E+02  0.51100000000E-03 0. -1.
        -11    1    3    3    0    0  0.55971989828E+00  0.18375717114E+01 -0.16629386270E+01  0.25407324332E+01  0.51100000000E-03 0.  1.
         12    1    3    3    0    0  0.31334346191E+01 -0.89450031423E+01 -0.92439597674E+01  0.13239421661E+02  0.00000000000E+00 0. -1.
</event>
<event>
 7    1  0.2458979E-009  0.4778727E+02  0.7816164E-02  0.1312668E+00
        -11   -1    0    0    0    0  0.00000000000E+00  0.00000000000E+00  0.45593999997E+02  0.45594000000E+02  0.51100000000E-03 0.  1.
         11   -1    0    0    0    0 -0.00000000000E+00 -0.00000000000E+00 -0.45593999997E+02  0.45594000000E+02  0.51100000000E-03 0. -1.
    9900012    2    1    2    0    0  0.18230986238E+01  0.26577656151E+02 -0.34262632723E+02  0.47787268483E+02  0.19999988323E+02 0.  0.
        -12    1    1    2    0    0 -0.18230986238E+01 -0.26577656151E+02  0.34262632723E+02  0.43400731517E+02  0.00000000000E+00 0.  1.
         11    1    3    3    0    0  0.86599569519E+01  0.16170232657E+02 -0.14887108631E+02  0.23624082675E+02  0.51100000000E-03 0. -1.
        -11    1    3    3    0    0 -0.11184608719E+00  0.73209603107E+00  0.61221127876E+00  0.96087307012E+00  0.51100000000E-03 0.  1.
         12    1    3    3    0    0 -0.67250122410E+01  0.96753274627E+01 -0.19987735370E+02  0.23202312738E+02  0.00000000000E+00 0. -1.
</event>
<event>
 7    1  0.2458979E-009  0.4778727E+02  0.7816164E-02  0.1312668E+00
        -11   -1    0    0    0    0  0.00000000000E+00  0.00000000000E+00  0.45593999997E+02  0.45594000000E+02  0.51100000000E-03 0.  1.
         11   -1    0    0    0    0 -0.00000000000E+00 -0.00000000000E+00 -0.45593999997E+02  0.45594000000E+02  0.51100000000E-03 0. -1.
    9900012    2    1    2    0    0  0.20721706387E+02 -0.36214593229E+02 -0.11947279109E+02  0.47787270093E+02  0.19999995663E+02 0.  0.
        -12    1    1    2    0    0 -0.20721706387E+02  0.36214593229E+02  0.11947279109E+02  0.43400729907E+02  0.00000000000E+00 0.  1.
         11    1    3    3    0    0  0.15118871835E+02 -0.93386182487E+01 -0.20037325908E+01  0.17883093158E+02  0.51100000000E-03 0. -1.
        -11    1    3    3    0    0  0.22472955323E+01 -0.10501162603E+02 -0.72905391246E+01  0.12979858019E+02  0.51100000000E-03 0.  1.
         12    1    3    3    0    0  0.33555390199E+01 -0.16374812378E+02 -0.26530073933E+01  0.16924318916E+02  0.00000000000E+00 0. -1.
</event>
<event>
 7    1 -0.2458979E-009  0.4778726E+02  0.7816164E-02  0.1312668E+00
        -11   -1    0    0    0    0  0.00000000000E+00  0.00000000000E+00  0.45593999997E+02  0.45594000000E+02  0.51100000000E-03 0.  1.
         11   -1    0    0    0    0 -0.00000000000E+00 -0.00000000000E+00 -0.45593999997E+02  0.45594000000E+02  0.51100000000E-03 0. -1.
    9900012    2    1    2    0    0 -0.15071393719E+02  0.31280320327E+00 -0.40698641560E+02  0.47787260613E+02  0.19999952440E+02 0.  0.
        -12    1    1    2    0    0  0.15071393719E+02 -0.31280320327E+00  0.40698641560E+02  0.43400739387E+02  0.00000000000E+00 0.  1.
         11    1    3    3    0    0 -0.11391262544E+02 -0.73603603264E+01 -0.22770634196E+02  0.26503538414E+02  0.51100000000E-03 0. -1.
        -11    1    3    3    0    0  0.11619932963E+01  0.20930478931E+00 -0.74280151730E+01  0.75212662888E+01  0.51100000000E-03 0.  1.
         12    1    3    3    0    0 -0.48421244719E+01  0.74638587404E+01 -0.10499992191E+02  0.13762455911E+02  0.00000000000E+00 0. -1.
</event>
<event>
 7    1  0.2458979E-009  0.4778726E+02  0.7816164E-02  0.1312668E+00
        -11   -1    0    0    0    0  0.00000000000E+00  0.00000000000E+00  0.45593999997E+02  0.45594000000E+02  0.51100000000E-03 0.  1.
         11   -1    0    0    0    0 -0.00000000000E+00 -0.00000000000E+00 -0.45593999997E+02  0.45594000000E+02  0.51100000000E-03 0. -1.
    9900012    2    1    2    0    0  0.27580419828E+02 -0.80316276391E+01 -0.32533642687E+02  0.47787256839E+02  0.19999935232E+02 0.  0.
        -12    1    1    2    0    0 -0.27580419828E+02  0.80316276391E+01  0.32533642687E+02  0.43400743161E+02  0.00000000000E+00 0.  1.
         11    1    3    3    0    0  0.25716936706E+02 -0.66477350276E+01 -0.15951099427E+02  0.30983718107E+02  0.51100000000E-03 0. -1.
        -11    1    3    3    0    0  0.52276081566E+00 -0.12581163363E+01 -0.89536029290E+01  0.90566628101E+01  0.51100000000E-03 0.  1.
         12    1    3    3    0    0  0.13407223060E+01 -0.12577627522E+00 -0.76289403310E+01  0.77468759218E+01  0.00000000000E+00 0. -1.
</event>
<event>
 7    1  0.2458979E-009  0.4778727E+02  0.7816164E-02  0.1312668E+00
        -11   -1    0    0    0    0  0.00000000000E+00  0.00000000000E+00  0.45593999997E+02  0.45594000000E+02  0.51100000000E-03 0.  1.
         11   -1    0    0    0    0 -0.00000000000E+00 -0.00000000000E+00 -0.45593999997E+02  0.45594000000E+02  0.51100000000E-03 0. -1.
    9900012    2    1    2    0    0 -0.11693936664E+02 -0.31048911868E+02 -0.27979279265E+02  0.47787272459E+02  0.20000006452E+02 0.  0.
        -12    1    1    2    0    0  0.11693936664E+02  0.31048911868E+02  0.27979279265E+02  0.43400727541E+02  0.00000000000E+00 0.  1.
         11    1    3    3    0    0 -0.48789773245E+00 -0.11993693351E+02 -0.16715594956E+02  0.20579063132E+02  0.51100000000E-03 0. -1.
        -11    1    3    3    0    0 -0.12952488569E+02 -0.15179602530E+02 -0.11349416760E+02  0.22956405514E+02  0.51100000000E-03 0.  1.
        -12    1    3    3    0    0  0.17464496374E+01 -0.38756159866E+01  0.85732450843E-01  0.42518038131E+01  0.00000000000E+00 0.  1.
</event>
<event>
 7    1  0.2458979E-009  0.4778724E+02  0.7816164E-02  0.1312668E+00
        -11   -1    0    0    0    0  0.00000000000E+00  0.00000000000E+00  0.45593999997E+02  0.45594000000E+02  0.51100000000E-03 0.  1.
         11   -1    0    0    0    0 -0.00000000000E+00 -0.00000000000E+00 -0.45593999997E+02  0.45594000000E+02  0.51100000000E-03 0. -1.
    9900012    2    1    2    0    0  0.13215202678E+01  0.25304579164E+02 -0.35235746086E+02  0.47787240275E+02  0.19999859709E+02 0.  0.
        -12    1    1    2    0    0 -0.13215202678E+01 -0.25304579164E+02  0.35235746086E+02  0.43400759725E+02  0.00000000000E+00 0.  1.
         11    1    3    3    0    0  0.76508069584E+01  0.25308923141E+01 -0.11732476808E+02  0.14233456198E+02  0.51100000000E-03 0. -1.
        -11    1    3    3    0    0 -0.37796756644E+01  0.10673230982E+02 -0.13698904869E+02  0.17772557570E+02  0.51100000000E-03 0.  1.
         12    1    3    3    0    0 -0.25496110263E+01  0.12100455868E+02 -0.98043644085E+01  0.15781226507E+02  0.00000000000E+00 0. -1.
</event>
<event>
 7    1  0.2458979E-009  0.4778727E+02  0.7816164E-02  0.1312668E+00
        -11   -1    0    0    0    0  0.00000000000E+00  0.00000000000E+00  0.45593999997E+02  0.45594000000E+02  0.51100000000E-03 0.  1.
         11   -1    0    0    0    0 -0.00000000000E+00 -0.00000000000E+00 -0.45593999997E+02  0.45594000000E+02  0.51100000000E-03 0. -1.
    9900012    2    1    2    0    0  0.16616393524E+01 -0.37586246891E+02 -0.21636460669E+02  0.47787269234E+02  0.19999991746E+02 0.  0.
        -12    1    1    2    0    0 -0.16616393524E+01  0.37586246891E+02  0.21636460669E+02  0.43400730766E+02  0.00000000000E+00 0.  1.
         11    1    3    3    0    0  0.66769372798E+00 -0.43441335831E+01 -0.96998601524E+01  0.10649159532E+02  0.51100000000E-03 0. -1.
        -11    1    3    3    0    0  0.16623579101E+01 -0.10263242623E+02  0.15093849794E+01  0.10505990017E+02  0.51100000000E-03 0.  1.
         12    1    3    3    0    0 -0.66841228565E+00 -0.22978870685E+02 -0.13445985496E+02  0.26632119685E+02  0.00000000000E+00 0. -1.
</event>
<event>
 7    1  0.2458979E-009  0.4778727E+02  0.7816164E-02  0.1312668E+00
        -11   -1    0    0    0    0  0.00000000000E+00  0.00000000000E+00  0.45593999997E+02  0.45594000000E+02  0.51100000000E-03 0. -1.
         11   -1    0    0    0    0 -0.00000000000E+00 -0.00000000000E+00 -0.45593999997E+02  0.45594000000E+02  0.51100000000E-03 0.  1.
    9900012    2    1    2    0    0  0.54199737223E+01  0.40723346440E+02  0.13994873469E+02  0.47787267934E+02  0.19999985820E+02 0.  0.
        -12    1    1    2    0    0 -0.54199737223E+01 -0.40723346440E+02 -0.13994873469E+02  0.43400732066E+02  0.00000000000E+00 0.  1.
         11    1    3    3    0    0  0.59396059478E+01  0.12952378528E+02  0.89898497137E+01  0.16848157955E+02  0.51100000000E-03 0. -1.
        -11    1    3    3    0    0 -0.39520602191E+01  0.18580047598E+01  0.27837904842E+00  0.43758949735E+01  0.51100000000E-03 0.  1.
        -12    1    3    3    0    0  0.34324279936E+01  0.25912963152E+02  0.47266447074E+01  0.26563215006E+02  0.00000000000E+00 0.  1.
</event>
<event>
 7    1  0.2458979E-009  0.4778726E+02  0.7816164E-02  0.1312668E+00
        -11   -1    0    0    0    0  0.00000000000E+00  0.00000000000E+00  0.45593999997E+02  0.45594000000E+02  0.51100000000E-03 0. -1.
         11   -1    0    0    0    0 -0.00000000000E+00 -0.00000000000E+00 -0.45593999997E+02  0.45594000000E+02  0.51100000000E-03 0.  1.
    9900012    2    1    2    0    0  0.10362904136E+02 -0.42006696147E+02  0.34164212462E+01  0.47787259944E+02  0.19999949388E+02 0.  0.
        -12    1    1    2    0    0 -0.10362904136E+02  0.42006696147E+02 -0.34164212462E+01  0.43400740056E+02  0.00000000000E+00 0.  1.
         11    1    3    3    0    0  0.13242963078E+02 -0.19980445653E+02  0.52896332337E+01  0.24547392929E+02  0.51100000000E-03 0. -1.
        -11    1    3    3    0    0 -0.33260905666E+01 -0.12904166906E+02  0.16976368846E+01  0.13433628447E+02  0.51100000000E-03 0.  1.
        -12    1    3    3    0    0  0.44603162428E+00 -0.91220835872E+01 -0.35708488721E+01  0.98062385679E+01  0.00000000000E+00 0.  1.
</event>
<event>
 7    1  0.2458979E-009  0.4778727E+02  0.7816164E-02  0.1312668E+00
        -11   -1    0    0    0    0  0.00000000000E+00  0.00000000000E+00  0.45593999997E+02  0.45594000000E+02  0.51100000000E-03 0.  1.
         11   -1    0    0    0    0 -0.00000000000E+00 -0.00000000000E+00 -0.45593999997E+02  0.45594000000E+02  0.51100000000E-03 0. -1.
    9900012    2    1    2    0    0  0.15634247731E+02 -0.32400454252E+02 -0.24277648576E+02  0.47787270072E+02  0.19999995567E+02 0.  0.
        -12    1    1    2    0    0 -0.15634247731E+02  0.32400454252E+02  0.24277648576E+02  0.43400729928E+02  0.00000000000E+00 0.  1.
         11    1    3    3    0    0  0.38261175950E+01 -0.18724567821E+02 -0.44323439229E+01  0.19618722916E+02  0.51100000000E-03 0.  1.
        -11    1    3    3    0    0  0.13123515120E+02 -0.12803594766E+02 -0.17530431874E+02  0.25366803700E+02  0.51100000000E-03 0. -1.
         12    1    3    3    0    0 -0.13153849840E+01 -0.87229166550E+00 -0.23148727799E+01  0.28017434560E+01  0.00000000000E+00 0. -1.
</event>
<event>
 7    1  0.2458979E-009  0.4778727E+02  0.7816164E-02  0.1312668E+00
        -11   -1    0    0    0    0  0.00000000000E+00  0.00000000000E+00  0.45593999997E+02  0.45594000000E+02  0.51100000000E-03 0.  1.
         11   -1    0    0    0    0 -0.00000000000E+00 -0.00000000000E+00 -0.45593999997E+02  0.45594000000E+02  0.51100000000E-03 0. -1.
    9900012    2    1    2    0    0  0.91963394397E+01  0.14441936995E+02 -0.39880836983E+02  0.47787270032E+02  0.19999995385E+02 0.  0.
        -12    1    1    2    0    0 -0.91963394397E+01 -0.14441936995E+02  0.39880836983E+02  0.43400729968E+02  0.00000000000E+00 0.  1.
         11    1    3    3    0    0  0.69672623554E+01 -0.84208447273E+00 -0.21783477293E+02  0.22886059823E+02  0.51100000000E-03 0. -1.
        -11    1    3    3    0    0  0.34769438791E+01  0.12532892150E+02 -0.17529100441E+02  0.21827319737E+02  0.51100000000E-03 0.  1.
         12    1    3    3    0    0 -0.12478667948E+01  0.27511293179E+01 -0.56825924939E+00  0.30738904723E+01  0.00000000000E+00 0. -1.
</event>
<event>
 7    1  0.2458979E-009  0.4778727E+02  0.7816164E-02  0.1312668E+00
        -11   -1    0    0    0    0  0.00000000000E+00  0.00000000000E+00  0.45593999997E+02  0.45594000000E+02  0.51100000000E-03 0.  1.
         11   -1    0    0    0    0 -0.00000000000E+00 -0.00000000000E+00 -0.45593999997E+02  0.45594000000E+02  0.51100000000E-03 0. -1.
    9900012    2    1    2    0    0  0.21102276431E+02  0.29635894513E+02 -0.23664972919E+02  0.47787271234E+02  0.20000000864E+02 0.  0.
        -12    1    1    2    0    0 -0.21102276431E+02 -0.29635894513E+02  0.23664972919E+02  0.43400728766E+02  0.00000000000E+00 0.  1.
         11    1    3    3    0    0  0.21363390204E+01  0.17826266193E+02 -0.91252218248E+01  0.20139746383E+02  0.51100000000E-03 0. -1.
        -11    1    3    3    0    0  0.14671786410E+01  0.24961707937E+01  0.26323596658E+00  0.29073656858E+01  0.51100000000E-03 0.  1.
         12    1    3    3    0    0  0.17498758769E+02  0.93134575272E+01 -0.14802987060E+02  0.24740159165E+02  0.00000000000E+00 0. -1.
</event>
<event>
 7    1  0.2458979E-009  0.4778727E+02  0.7816164E-02  0.1312668E+00
        -11   -1    0    0    0    0  0.00000000000E+00  0.00000000000E+00  0.45593999997E+02  0.45594000000E+02  0.51100000000E-03 0. -1.
         11   -1    0    0    0    0 -0.00000000000E+00 -0.00000000000E+00 -0.45593999997E+02  0.45594000000E+02  0.51100000000E-03 0.  1.
    9900012    2    1    2    0    0  0.25662086952E+02 -0.34535139866E+02 -0.56925366196E+01  0.47787267686E+02  0.19999984686E+02 0.  0.
        -12    1    1    2    0    0 -0.25662086952E+02  0.34535139866E+02  0.56925366196E+01  0.43400732314E+02  0.00000000000E+00 0.  1.
         11    1    3    3    0    0  0.13159903350E+02 -0.22088828938E+02 -0.12191115064E+02  0.28455626979E+02  0.51100000000E-03 0. -1.
        -11    1    3    3    0    0  0.11046910597E+02 -0.90273425639E+01  0.63423003689E+01  0.15612556540E+02  0.51100000000E-03 0.  1.
        -12    1    3    3    0    0  0.14552730051E+01 -0.34189683642E+01  0.15627807586E+00  0.37190841658E+01  0.00000000000E+00 0.  1.
</event>
<event>
 7    1  0.2458979E-009  0.4778726E+02  0.7816164E-02  0.1312668E+00
        -11   -1    0    0    0    0  0.00000000000E+00  0.00000000000E+00  0.45593999997E+02  0.45594000000E+02  0.51100000000E-03 0.  1.
         11   -1    0    0    0    0 -0.00000000000E+00 -0.00000000000E+00 -0.45593999997E+02  0.45594000000E+02  0.51100000000E-03 0. -1.
    9900012    2    1    2    0    0 -0.23127533098E+02 -0.32103419966E+02 -0.17835696650E+02  0.47787257660E+02  0.19999938975E+02 0.  0.
        -12    1    1    2    0    0  0.23127533098E+02  0.32103419966E+02  0.17835696650E+02  0.43400742340E+02  0.00000000000E+00 0.  1.
         11    1    3    3    0    0 -0.25858688797E+01 -0.79110113935E+01 -0.52373372483E+01  0.98336422980E+01  0.51100000000E-03 0. -1.
        -11    1    3    3    0    0 -0.15016314034E+02 -0.22486946618E+02 -0.15826519732E+02  0.31330993959E+02  0.51100000000E-03 0.  1.
        -12    1    3    3    0    0 -0.55253501836E+01 -0.17054619547E+01  0.32281603304E+01  0.66226214031E+01  0.00000000000E+00 0.  1.
</event>
<event>
 7    1  0.2458979E-009  0.4778727E+02  0.7816164E-02  0.1312668E+00
        -11   -1    0    0    0    0  0.00000000000E+00  0.00000000000E+00  0.45593999997E+02  0.45594000000E+02  0.51100000000E-03 0. -1.
         11   -1    0    0    0    0 -0.00000000000E+00 -0.00000000000E+00 -0.45593999997E+02  0.45594000000E+02  0.51100000000E-03 0.  1.
    9900012    2    1    2    0    0  0.42849256579E+02  0.68501591401E+01  0.79990082021E+00  0.47787270618E+02  0.19999998055E+02 0.  0.
        -12    1    1    2    0    0 -0.42849256579E+02 -0.68501591401E+01 -0.79990082021E+00  0.43400729382E+02  0.00000000000E+00 0.  1.
         11    1    3    3    0    0  0.10785541606E+02  0.26635028980E+01  0.78562754045E+00  0.11137296185E+02  0.51100000000E-03 0. -1.
        -11    1    3    3    0    0  0.24210274666E+02 -0.28975383714E+01  0.51055743302E+01  0.24911844924E+02  0.51100000000E-03 0.  1.
        -12    1    3    3    0    0  0.78534403060E+01  0.70841946136E+01 -0.50913010504E+01  0.11738129508E+02  0.00000000000E+00 0.  1.
</event>
<event>
 7    1  0.2458979E-009  0.4778726E+02  0.7816164E-02  0.1312668E+00
        -11   -1    0    0    0    0  0.00000000000E+00  0.00000000000E+00  0.45593999997E+02  0.45594000000E+02  0.51100000000E-03 0.  1.
         11   -1    0    0    0    0 -0.00000000000E+00 -0.00000000000E+00 -0.45593999997E+02  0.45594000000E+02  0.51100000000E-03 0. -1.
    9900012    2    1    2    0    0  0.42891683958E+01 -0.27281799094E+02 -0.33480297398E+02  0.47787264508E+02  0.19999970199E+02 0.  0.
        -12    1    1    2    0    0 -0.42891683958E+01  0.27281799094E+02  0.33480297398E+02  0.43400735492E+02  0.00000000000E+00 0.  1.
         11    1    3    3    0    0  0.99993157289E+01 -0.16054892948E+02 -0.22432731574E+02  0.29342347363E+02  0.51100000000E-03 0. -1.
        -11    1    3    3    0    0 -0.12968905509E+01 -0.15279127423E+01  0.10998837524E+01  0.22860855144E+01  0.51100000000E-03 0.  1.
         12    1    3    3    0    0 -0.44132567822E+01 -0.96989934034E+01 -0.12147449577E+02  0.16158831631E+02  0.00000000000E+00 0. -1.
</event>
<event>
 7    1  0.2458979E-009  0.4778727E+02  0.7816164E-02  0.1312668E+00
        -11   -1    0    0    0    0  0.00000000000E+00  0.00000000000E+00  0.45593999997E+02  0.45594000000E+02  0.51100000000E-03 0.  1.
         11   -1    0    0    0    0 -0.00000000000E+00 -0.00000000000E+00 -0.45593999997E+02  0.45594000000E+02  0.51100000000E-03 0. -1.
    9900012    2    1    2    0    0  0.26833749858E+02 -0.25626343749E+02 -0.22513636559E+02  0.47787268941E+02  0.19999990408E+02 0.  0.
        -12    1    1    2    0    0 -0.26833749858E+02  0.25626343749E+02  0.22513636559E+02  0.43400731059E+02  0.00000000000E+00 0.  1.
         11    1    3    3    0    0  0.16748264079E+02 -0.17170394053E+02 -0.18969518906E+02  0.30580540044E+02  0.51100000000E-03 0. -1.
        -11    1    3    3    0    0  0.45710591582E+01 -0.66617646408E+01  0.28569788477E+01  0.85694818020E+01  0.51100000000E-03 0.  1.
        -12    1    3    3    0    0  0.55144266206E+01 -0.17941850555E+01 -0.64010965007E+01  0.86372470949E+01  0.00000000000E+00 0.  1.
</event>
<event>
 7    1  0.2458979E-009  0.4778727E+02  0.7816164E-02  0.1312668E+00
        -11   -1    0    0    0    0  0.00000000000E+00  0.00000000000E+00  0.45593999997E+02  0.45594000000E+02  0.51100000000E-03 0. -1.
         11   -1    0    0    0    0 -0.00000000000E+00 -0.00000000000E+00 -0.45593999997E+02  0.45594000000E+02  0.51100000000E-03 0.  1.
    9900012    2    1    2    0    0 -0.40176565665E+02  0.12980599870E+02 -0.10048422125E+02  0.47787272024E+02  0.20000004467E+02 0.  0.
        -12    1    1    2    0    0  0.40176565665E+02 -0.12980599870E+02  0.10048422125E+02  0.43400727976E+02  0.00000000000E+00 0.  1.
         11    1    3    3    0    0 -0.22126200020E+02  0.79985193652E+01 -0.10242596109E+01  0.23549822661E+02  0.51100000000E-03 0. -1.
        -11    1    3    3    0    0 -0.78594708180E+00  0.51616184670E+01 -0.23766166364E+01  0.57365778049E+01  0.51100000000E-03 0.  1.
        -12    1    3    3    0    0 -0.17264418564E+02 -0.17953796249E+00 -0.66475458776E+01  0.18500871558E+02  0.00000000000E+00 0.  1.
</event>
<event>
 7    1  0.2458979E-009  0.4778727E+02  0.7816164E-02  0.1312668E+00
        -11   -1    0    0    0    0  0.00000000000E+00  0.00000000000E+00  0.45593999997E+02  0.45594000000E+02  0.51100000000E-03 0.  1.
         11   -1    0    0    0    0 -0.00000000000E+00 -0.00000000000E+00 -0.45593999997E+02  0.45594000000E+02  0.51100000000E-03 0. -1.
    9900012    2    1    2    0    0  0.15042602433E+02  0.40270655713E+02  0.59680635226E+01  0.47787269802E+02  0.19999994335E+02 0.  0.
        -12    1    1    2    0    0 -0.15042602433E+02 -0.40270655713E+02 -0.59680635226E+01  0.43400730198E+02  0.00000000000E+00 0.  1.
         11    1    3    3    0    0  0.12861129801E+02  0.21696000151E+02 -0.13633523035E+01  0.25258341436E+02  0.51100000000E-03 0. -1.
        -11    1    3    3    0    0 -0.24953217162E+01  0.61051687691E+00 -0.47266241831E-02  0.25689266098E+01  0.51100000000E-03 0.  1.
         12    1    3    3    0    0  0.46767943480E+01  0.17964138685E+02  0.73361424503E+01  0.19960001756E+02  0.00000000000E+00 0. -1.
</event>
<event>
 7    1  0.2458979E-009  0.4778727E+02  0.7816164E-02  0.1312668E+00
        -11   -1    0    0    0    0  0.00000000000E+00  0.00000000000E+00  0.45593999997E+02  0.45594000000E+02  0.51100000000E-03 0. -1.
         11   -1    0    0    0    0 -0.00000000000E+00 -0.00000000000E+00 -0.45593999997E+02  0.45594000000E+02  0.51100000000E-03 0.  1.
    9900012    2    1    2    0    0  0.13276695161E+02  0.72545967271E+00  0.41313753626E+02  0.47787272301E+02  0.20000005730E+02 0.  0.
        -12    1    1    2    0    0 -0.13276695161E+02 -0.72545967271E+00 -0.41313753626E+02  0.43400727699E+02  0.00000000000E+00 0.  1.
         11    1    3    3    0    0  0.83517282733E+00 -0.12971107664E+01  0.75249206631E+00  0.17164657185E+01  0.51100000000E-03 0. -1.
        -11    1    3    3    0    0  0.77618807822E+01  0.99524536684E+01  0.24375751856E+02  0.27449506482E+02  0.51100000000E-03 0.  1.
        -12    1    3    3    0    0  0.46796415517E+01 -0.79298832293E+01  0.16185509703E+02  0.18621300100E+02  0.00000000000E+00 0.  1.
</event>
<event>
 7    1  0.2458979E-009  0.4778727E+02  0.7816164E-02  0.1312668E+00
        -11   -1    0    0    0    0  0.00000000000E+00  0.00000000000E+00  0.45593999997E+02  0.45594000000E+02  0.51100000000E-03 0.  1.
         11   -1    0    0    0    0 -0.00000000000E+00 -0.00000000000E+00 -0.45593999997E+02  0.45594000000E+02  0.51100000000E-03 0. -1.
    9900012    2    1    2    0    0  0.23896405057E+02 -0.10686731916E+01 -0.36213851706E+02  0.47787270831E+02  0.19999999025E+02 0.  0.
        -12    1    1    2    0    0 -0.23896405057E+02  0.10686731916E+01  0.36213851706E+02  0.43400729169E+02  0.00000000000E+00 0.  1.
         11    1    3    3    0    0  0.56335295546E+01  0.29415045299E+01 -0.28270135997E+00  0.63615268971E+01  0.51100000000E-03 0.  1.
        -11    1    3    3    0    0  0.43024417866E+01 -0.48592817061E+01 -0.13723586190E+02  0.15180923628E+02  0.51100000000E-03 0. -1.
         12    1    3    3    0    0  0.13960433716E+02  0.84910398456E+00 -0.22207564156E+02  0.26244820306E+02  0.00000000000E+00 0. -1.
</event>
<event>
 7    1  0.2458979E-009  0.4778727E+02  0.7816164E-02  0.1312668E+00
        -11   -1    0    0    0    0  0.00000000000E+00  0.00000000000E+00  0.45593999997E+02  0.45594000000E+02  0.51100000000E-03 0.  1.
         11   -1    0    0    0    0 -0.00000000000E+00 -0.00000000000E+00 -0.45593999997E+02  0.45594000000E+02  0.51100000000E-03 0. -1.
    9900012    2    1    2    0    0  0.35740830209E+02  0.22062532753E+02 -0.10929817834E+02  0.47787271741E+02  0.20000003175E+02 0.  0.
        -12    1    1    2    0    0 -0.35740830209E+02 -0.22062532753E+02  0.10929817834E+02  0.43400728259E+02  0.00000000000E+00 0.  1.
         11    1    3    3    0    0  0.27580061848E+02  0.13114628869E+02 -0.12148859530E+02  0.32867127803E+02  0.51100000000E-03 0. -1.
        -11    1    3    3    0    0  0.27579215772E+01 -0.63665737118E+00 -0.19891070975E+01  0.34594813688E+01  0.51100000000E-03 0.  1.
         12    1    3    3    0    0  0.54028467847E+01  0.95845612555E+01  0.32081487937E+01  0.11460662569E+02  0.00000000000E+00 0. -1.
</event>
<event>
 7    1  0.2458979E-009  0.4778727E+02  0.7816164E-02  0.1312668E+00
        -11   -1    0    0    0    0  0.00000000000E+00  0.00000000000E+00  0.45593999997E+02  0.45594000000E+02  0.51100000000E-03 0. -1.
         11   -1    0    0    0    0 -0.00000000000E+00 -0.00000000000E+00 -0.45593999997E+02  0.45594000000E+02  0.51100000000E-03 0.  1.
    9900012    2    1    2    0    0 -0.14152986870E+02 -0.29707050933E+02  0.28298537115E+02  0.47787272871E+02  0.20000008327E+02 0.  0.
        -12    1    1    2    0    0  0.14152986870E+02  0.29707050933E+02 -0.28298537115E+02  0.43400727129E+02  0.00000000000E+00 0.  1.
         11    1    3    3    0    0 -0.36039402166E+01 -0.30999644525E+01  0.73933047278E+01  0.87897167048E+01  0.51100000000E-03 0. -1.
        -11    1    3    3    0    0 -0.58780025190E+01 -0.36556592686E-01  0.28283457483E+01  0.65231733023E+01  0.51100000000E-03 0.  1.
        -12    1    3    3    0    0 -0.46710441348E+01 -0.26570529887E+02  0.18076886639E+02  0.32474382864E+02  0.00000000000E+00 0.  1.
</event>
<event>
 7    1  0.2458979E-009  0.4778727E+02  0.7816164E-02  0.1312668E+00
        -11   -1    0    0    0    0  0.00000000000E+00  0.00000000000E+00  0.45593999997E+02  0.45594000000E+02  0.51100000000E-03 0.  1.
         11   -1    0    0    0    0 -0.00000000000E+00 -0.00000000000E+00 -0.45593999997E+02  0.45594000000E+02  0.51100000000E-03 0. -1.
    9900012    2    1    2    0    0  0.12625246568E+01 -0.18164787088E+02 -0.39396319193E+02  0.47787269310E+02  0.19999992093E+02 0.  0.
        -12    1    1    2    0    0 -0.12625246568E+01  0.18164787088E+02  0.39396319193E+02  0.43400730690E+02  0.00000000000E+00 0.  1.
         11    1    3    3    0    0 -0.11629185098E+01 -0.44941512325E+01 -0.64213981849E+01  0.79236437118E+01  0.51100000000E-03 0. -1.
        -11    1    3    3    0    0  0.95914661697E+01 -0.11131603094E+02 -0.23499956348E+02  0.27715641059E+02  0.51100000000E-03 0.  1.
        -12    1    3    3    0    0 -0.71660230031E+01 -0.25390327616E+01 -0.94749646602E+01  0.12147984539E+02  0.00000000000E+00 0.  1.
</event>
<event>
 7    1  0.2458979E-009  0.4778725E+02  0.7816164E-02  0.1312668E+00
        -11   -1    0    0    0    0  0.00000000000E+00  0.00000000000E+00  0.45593999997E+02  0.45594000000E+02  0.51100000000E-03 0. -1.
         11   -1    0    0    0    0 -0.00000000000E+00 -0.00000000000E+00 -0.45593999997E+02  0.45594000000E+02  0.51100000000E-03 0.  1.
    9900012    2    1    2    0    0 -0.36247016308E+02  0.17271916308E+02  0.16476035369E+02  0.47787250863E+02  0.19999907986E+02 0.  0.
        -12    1    1    2    0    0  0.36247016308E+02 -0.17271916308E+02 -0.16476035369E+02  0.43400749137E+02  0.00000000000E+00 0.  1.
         11    1    3    3    0    0 -0.30531967407E+02  0.18436041884E+02  0.17851795921E+02  0.39884524467E+02  0.51100000000E-03 0. -1.
        -11    1    3    3    0    0 -0.55154026037E+01 -0.26536535411E+01 -0.44884679592E+00  0.61370193665E+01  0.51100000000E-03 0.  1.
         12    1    3    3    0    0 -0.19964629686E+00  0.14895279648E+01 -0.92691375685E+00  0.17657070296E+01  0.00000000000E+00 0. -1.
</event>
<event>
 7    1  0.2458979E-009  0.4778726E+02  0.7816164E-02  0.1312668E+00
        -11   -1    0    0    0    0  0.00000000000E+00  0.00000000000E+00  0.45593999997E+02  0.45594000000E+02  0.51100000000E-03 0.  1.
         11   -1    0    0    0    0 -0.00000000000E+00 -0.00000000000E+00 -0.45593999997E+02  0.45594000000E+02  0.51100000000E-03 0. -1.
    9900012    2    1    2    0    0 -0.40457429108E+02 -0.11039162129E+02 -0.11178433055E+02  0.47787262263E+02  0.19999959964E+02 0.  0.
        -12    1    1    2    0    0  0.40457429108E+02  0.11039162129E+02  0.11178433055E+02  0.43400737737E+02  0.00000000000E+00 0.  1.
         11    1    3    3    0    0 -0.24391517272E+02 -0.15344270628E+02 -0.36606374208E+01  0.29048115645E+02  0.51100000000E-03 0. -1.
        -11    1    3    3    0    0 -0.67355162052E+01  0.34811710274E+01 -0.48480185884E+01  0.89993896886E+01  0.51100000000E-03 0.  1.
         12    1    3    3    0    0 -0.93303956309E+01  0.82393747191E+00 -0.26697770453E+01  0.97397569301E+01  0.00000000000E+00 0. -1.
</event>
<event>
 7    1  0.2458979E-009  0.4778727E+02  0.7816164E-02  0.1312668E+00
        -11   -1    0    0    0    0  0.00000000000E+00  0.00000000000E+00  0.45593999997E+02  0.45594000000E+02  0.51100000000E-03 0.  1.
         11   -1    0    0    0    0 -0.00000000000E+00 -0.00000000000E+00 -0.45593999997E+02  0.45594000000E+02  0.51100000000E-03 0. -1.
    9900012    2    1    2    0    0  0.36212049929E+02 -0.21603884851E+02 -0.10275350853E+02  0.47787271482E+02  0.20000001995E+02 0.  0.
        -12    1    1    2    0    0 -0.36212049929E+02  0.21603884851E+02  0.10275350853E+02  0.43400728518E+02  0.00000000000E+00 0.  1.
         11    1    3    3    0    0  0.13358579933E+02 -0.17522397376E+01 -0.98808859298E+01  0.16707899597E+02  0.51100000000E-03 0. -1.
        -11    1    3    3    0    0  0.82680463243E+01 -0.11791076610E+02  0.23449254134E+00  0.14402953331E+02  0.51100000000E-03 0.  1.
         12    1    3    3    0    0  0.14585423672E+02 -0.80605685032E+01 -0.62895746460E+00  0.16676418554E+02  0.00000000000E+00 0. -1.
</event>
<event>
 7    1  0.2458979E-009  0.4778727E+02  0.7816164E-02  0.1312668E+00
        -11   -1    0    0    0    0  0.00000000000E+00  0.00000000000E+00  0.45593999997E+02  0.45594000000E+02  0.51100000000E-03 0.  1.
         11   -1    0    0    0    0 -0.00000000000E+00 -0.00000000000E+00 -0.45593999997E+02  0.45594000000E+02  0.51100000000E-03 0. -1.
    9900012    2    1    2    0    0 -0.75699296349E+01  0.24890427889E+02 -0.34738824589E+02  0.47787272253E+02  0.20000005508E+02 0.  0.
        -12    1    1    2    0    0  0.75699296349E+01 -0.24890427889E+02  0.34738824589E+02  0.43400727747E+02  0.00000000000E+00 0.  1.
         11    1    3    3    0    0 -0.62514248552E+01  0.75171314023E+01 -0.23072979217E+02  0.25058929495E+02  0.51100000000E-03 0. -1.
        -11    1    3    3    0    0 -0.41300792342E+00  0.12481885683E+02 -0.12516783056E+02  0.17681569616E+02  0.51100000000E-03 0.  1.
         12    1    3    3    0    0 -0.90549685633E+00  0.48914108028E+01  0.85093768332E+00  0.50467731412E+01  0.00000000000E+00 0. -1.
</event>
<event>
 7    1  0.2458979E-009  0.4778728E+02  0.7816164E-02  0.1312668E+00
        -11   -1    0    0    0    0  0.00000000000E+00  0.00000000000E+00  0.45593999997E+02  0.45594000000E+02  0.51100000000E-03 0. -1.
         11   -1    0    0    0    0 -0.00000000000E+00 -0.00000000000E+00 -0.45593999997E+02  0.45594000000E+02  0.51100000000E-03 0.  1.
    9900012    2    1    2    0    0 -0.96433702684E+01 -0.29838973991E+02  0.30004387496E+02  0.47787283094E+02  0.20000054937E+02 0.  0.
        -12    1    1    2    0    0  0.96433702684E+01  0.29838973991E+02 -0.30004387496E+02  0.43400716906E+02  0.00000000000E+00 0.  1.
         11    1    3    3    0    0 -0.89845908743E+01 -0.20655490816E+02  0.13977228132E+02  0.26509150883E+02  0.51100000000E-03 0. -1.
        -11    1    3    3    0    0 -0.14097409092E+01 -0.11908664236E+01  0.12281681591E+02  0.12419550525E+02  0.51100000000E-03 0.  1.
        -12    1    3    3    0    0  0.75096151511E+00 -0.79926167516E+01  0.37454777727E+01  0.88585816856E+01  0.00000000000E+00 0.  1.
</event>
<event>
 7    1  0.2458979E-009  0.4778727E+02  0.7816164E-02  0.1312668E+00
        -11   -1    0    0    0    0  0.00000000000E+00  0.00000000000E+00  0.45593999997E+02  0.45594000000E+02  0.51100000000E-03 0. -1.
         11   -1    0    0    0    0 -0.00000000000E+00 -0.00000000000E+00 -0.45593999997E+02  0.45594000000E+02  0.51100000000E-03 0.  1.
    9900012    2    1    2    0    0  0.29382600190E+02  0.32471362309E+01  0.31776441424E+02  0.47787270545E+02  0.19999997725E+02 0.  0.
        -12    1    1    2    0    0 -0.29382600190E+02 -0.32471362309E+01 -0.31776441424E+02  0.43400729455E+02  0.00000000000E+00 0.  1.
         11    1    3    3    0    0  0.76294258475E+01  0.70593640801E+00  0.14119071766E+02  0.16064080203E+02  0.51100000000E-03 0. -1.
        -11    1    3    3    0    0 -0.38699253796E+00  0.36603189597E+01  0.55044874744E+00  0.37216518101E+01  0.51100000000E-03 0.  1.
        -12    1    3    3    0    0  0.22140166880E+02 -0.11191191369E+01  0.17106920911E+02  0.28001538532E+02  0.00000000000E+00 0.  1.
</event>
<event>
 7    1  0.2458979E-009  0.4778727E+02  0.7816164E-02  0.1312668E+00
        -11   -1    0    0    0    0  0.00000000000E+00  0.00000000000E+00  0.45593999997E+02  0.45594000000E+02  0.51100000000E-03 0. -1.
         11   -1    0    0    0    0 -0.00000000000E+00 -0.00000000000E+00 -0.45593999997E+02  0.45594000000E+02  0.51100000000E-03 0.  1.
    9900012    2    1    2    0    0  0.37106936873E+02  0.10266769796E+02  0.20032272225E+02  0.47787271243E+02  0.20000000903E+02 0.  0.
        -12    1    1    2    0    0 -0.37106936873E+02 -0.10266769796E+02 -0.20032272225E+02  0.43400728757E+02  0.00000000000E+00 0.  1.
         11    1    3    3    0    0 -0.58475999890E+00  0.34196774216E+01  0.20469015688E+01  0.40281440165E+01  0.51100000000E-03 0. -1.
        -11    1    3    3    0    0  0.19215639518E+02  0.34167354132E+01  0.15251705294E+02  0.24769525583E+02  0.51100000000E-03 0.  1.
         12    1    3    3    0    0  0.18476057354E+02  0.34303569617E+01  0.27336653623E+01  0.18989601643E+02  0.00000000000E+00 0. -1.
</event>
<event>
 7    1  0.2458979E-009  0.4778727E+02  0.7816164E-02  0.1312668E+00
        -11   -1    0    0    0    0  0.00000000000E+00  0.00000000000E+00  0.45593999997E+02  0.45594000000E+02  0.51100000000E-03 0.  1.
         11   -1    0    0    0    0 -0.00000000000E+00 -0.00000000000E+00 -0.45593999997E+02  0.45594000000E+02  0.51100000000E-03 0. -1.
    9900012    2    1    2    0    0 -0.10169314982E+02 -0.13805692914E+02 -0.39869928528E+02  0.47787270457E+02  0.19999997321E+02 0.  0.
        -12    1    1    2    0    0  0.10169314982E+02  0.13805692914E+02  0.39869928528E+02  0.43400729543E+02  0.00000000000E+00 0.  1.
         11    1    3    3    0    0  0.16361189817E-01 -0.78124958523E+01 -0.52196905826E+01  0.93957718773E+01  0.51100000000E-03 0. -1.
        -11    1    3    3    0    0 -0.73310314828E+01 -0.14186219504E+01 -0.30983817255E+02  0.31870887073E+02  0.51100000000E-03 0.  1.
        -12    1    3    3    0    0 -0.28546446887E+01 -0.45745751108E+01 -0.36664206908E+01  0.65206115070E+01  0.00000000000E+00 0.  1.
</event>
<event>
 7    1  0.2458979E-009  0.4778727E+02  0.7816164E-02  0.1312668E+00
        -11   -1    0    0    0    0  0.00000000000E+00  0.00000000000E+00  0.45593999997E+02  0.45594000000E+02  0.51100000000E-03 0. -1.
         11   -1    0    0    0    0 -0.00000000000E+00 -0.00000000000E+00 -0.45593999997E+02  0.45594000000E+02  0.51100000000E-03 0.  1.
    9900012    2    1    2    0    0 -0.40454783062E+02  0.18637009395E+01  0.15606422654E+02  0.47787270953E+02  0.19999999583E+02 0.  0.
        -12    1    1    2    0    0  0.40454783062E+02 -0.18637009395E+01 -0.15606422654E+02  0.43400729047E+02  0.00000000000E+00 0.  1.
         11    1    3    3    0    0 -0.24254343431E+02  0.88726893808E+01  0.90072140224E+01  0.27351923092E+02  0.51100000000E-03 0. -1.
        -11    1    3    3    0    0 -0.10636735768E+01 -0.99524020892E+00 -0.16306920289E+01  0.21865638124E+01  0.51100000000E-03 0.  1.
         12    1    3    3    0    0 -0.15136766054E+02 -0.60137482324E+01  0.82299006603E+01  0.18248784049E+02  0.00000000000E+00 0. -1.
</event>
<event>
 7    1  0.2458979E-009  0.4778727E+02  0.7816164E-02  0.1312668E+00
        -11   -1    0    0    0    0  0.00000000000E+00  0.00000000000E+00  0.45593999997E+02  0.45594000000E+02  0.51100000000E-03 0.  1.
         11   -1    0    0    0    0 -0.00000000000E+00 -0.00000000000E+00 -0.45593999997E+02  0.45594000000E+02  0.51100000000E-03 0. -1.
    9900012    2    1    2    0    0  0.81796034383E+01  0.39225159964E+01 -0.42442094305E+02  0.47787269440E+02  0.19999992682E+02 0.  0.
        -12    1    1    2    0    0 -0.81796034383E+01 -0.39225159964E+01  0.42442094305E+02  0.43400730560E+02  0.00000000000E+00 0.  1.
         11    1    3    3    0    0  0.99768501630E+01  0.37354401631E+01 -0.31102880887E+02  0.32876743332E+02  0.51100000000E-03 0. -1.
        -11    1    3    3    0    0  0.24571406783E+00  0.18751855566E+01  0.11028923329E+01  0.21893076609E+01  0.51100000000E-03 0.  1.
         12    1    3    3    0    0 -0.20429607925E+01 -0.16881097234E+01 -0.12442105751E+02  0.12721218447E+02  0.00000000000E+00 0. -1.
</event>
<event>
 7    1  0.2458979E-009  0.4778727E+02  0.7816164E-02  0.1312668E+00
        -11   -1    0    0    0    0  0.00000000000E+00  0.00000000000E+00  0.45593999997E+02  0.45594000000E+02  0.51100000000E-03 0. -1.
         11   -1    0    0    0    0 -0.00000000000E+00 -0.00000000000E+00 -0.45593999997E+02  0.45594000000E+02  0.51100000000E-03 0.  1.
    9900012    2    1    2    0    0  0.14832982857E+02  0.39412455108E+01  0.40596461143E+02  0.47787268969E+02  0.19999990539E+02 0.  0.
        -12    1    1    2    0    0 -0.14832982857E+02 -0.39412455108E+01 -0.40596461143E+02  0.43400731031E+02  0.00000000000E+00 0.  1.
         11    1    3    3    0    0  0.27163770117E+01 -0.20280462572E+01  0.10970935172E+02  0.11482730272E+02  0.51100000000E-03 0. -1.
        -11    1    3    3    0    0 -0.31106480593E+01 -0.18746349362E+01  0.33624736182E+01  0.49494056802E+01  0.51100000000E-03 0.  1.
        -12    1    3    3    0    0  0.15227253905E+02  0.78439267042E+01  0.26263052353E+02  0.31355133017E+02  0.00000000000E+00 0.  1.
</event>
<event>
 7    1  0.2458979E-009  0.4778727E+02  0.7816164E-02  0.1312668E+00
        -11   -1    0    0    0    0  0.00000000000E+00  0.00000000000E+00  0.45593999997E+02  0.45594000000E+02  0.51100000000E-03 0. -1.
         11   -1    0    0    0    0 -0.00000000000E+00 -0.00000000000E+00 -0.45593999997E+02  0.45594000000E+02  0.51100000000E-03 0.  1.
    9900012    2    1    2    0    0  0.22389788889E+02  0.37175409498E+02  0.55609501205E+00  0.47787274666E+02  0.20000016514E+02 0.  0.
        -12    1    1    2    0    0 -0.22389788889E+02 -0.37175409498E+02 -0.55609501205E+00  0.43400725334E+02  0.00000000000E+00 0.  1.
         11    1    3    3    0    0  0.27170467144E+01  0.47713639019E+01 -0.13381101814E+01  0.56514418914E+01  0.51100000000E-03 0. -1.
        -11    1    3    3    0    0  0.12711954446E+02  0.12222614482E+02 -0.70472785052E+01  0.18990793169E+02  0.51100000000E-03 0.  1.
        -12    1    3    3    0    0  0.69607877283E+01  0.20181431114E+02  0.89414836987E+01  0.23145039606E+02  0.00000000000E+00 0.  1.
</event>
<event>
 7    1  0.2458979E-009  0.4778731E+02  0.7816164E-02  0.1312668E+00
        -11   -1    0    0    0    0  0.00000000000E+00  0.00000000000E+00  0.45593999997E+02  0.45594000000E+02  0.51100000000E-03 0. -1.
         11   -1    0    0    0    0 -0.00000000000E+00 -0.00000000000E+00 -0.45593999997E+02  0.45594000000E+02  0.51100000000E-03 0.  1.
    9900012    2    1    2    0    0 -0.28790712856E+02 -0.32475967587E+02  0.16090041880E+00  0.47787314448E+02  0.20000197893E+02 0.  0.
        -12    1    1    2    0    0  0.28790712856E+02  0.32475967587E+02 -0.16090041880E+00  0.43400685552E+02  0.00000000000E+00 0.  1.
         11    1    3    3    0    0 -0.10808928261E+02 -0.22388468616E+02  0.22649702615E+01  0.24964105184E+02  0.51100000000E-03 0. -1.
        -11    1    3    3    0    0  0.11084217396E+01 -0.12528994763E+01 -0.39303781226E+00  0.17183814575E+01  0.51100000000E-03 0.  1.
         12    1    3    3    0    0 -0.19090206335E+02 -0.88345994947E+01 -0.17110320305E+01  0.21104827806E+02  0.00000000000E+00 0. -1.
</event>
<event>
 7    1  0.2458979E-009  0.4778727E+02  0.7816164E-02  0.1312668E+00
        -11   -1    0    0    0    0  0.00000000000E+00  0.00000000000E+00  0.45593999997E+02  0.45594000000E+02  0.51100000000E-03 0.  1.
         11   -1    0    0    0    0 -0.00000000000E+00 -0.00000000000E+00 -0.45593999997E+02  0.45594000000E+02  0.51100000000E-03 0. -1.
    9900012    2    1    2    0    0 -0.10313161929E+02  0.40229502281E+02 -0.12603541304E+02  0.47787269405E+02  0.19999992525E+02 0.  0.
        -12    1    1    2    0    0  0.10313161929E+02 -0.40229502281E+02  0.12603541304E+02  0.43400730595E+02  0.00000000000E+00 0.  1.
         11    1    3    3    0    0  0.16606440493E+01  0.17291908538E+02 -0.89533109974E+01  0.19543019665E+02  0.51100000000E-03 0. -1.
        -11    1    3    3    0    0 -0.12756241175E+02  0.20718115030E+02 -0.53000498881E+00  0.24336040863E+02  0.51100000000E-03 0.  1.
        -12    1    3    3    0    0  0.78243519652E+00  0.22194787133E+01 -0.31202253179E+01  0.39082088775E+01  0.00000000000E+00 0.  1.
</event>
<event>
 7    1  0.2458979E-009  0.4778727E+02  0.7816164E-02  0.1312668E+00
        -11   -1    0    0    0    0  0.00000000000E+00  0.00000000000E+00  0.45593999997E+02  0.45594000000E+02  0.51100000000E-03 0.  1.
         11   -1    0    0    0    0 -0.00000000000E+00 -0.00000000000E+00 -0.45593999997E+02  0.45594000000E+02  0.51100000000E-03 0. -1.
    9900012    2    1    2    0    0  0.17765097511E+02  0.96213768636E+01 -0.38411637917E+02  0.47787268326E+02  0.19999987607E+02 0.  0.
        -12    1    1    2    0    0 -0.17765097511E+02 -0.96213768636E+01  0.38411637917E+02  0.43400731674E+02  0.00000000000E+00 0.  1.
         11    1    3    3    0    0  0.50318976100E+01  0.57227431879E+01 -0.26903309597E+02  0.27961721168E+02  0.51100000000E-03 0. -1.
        -11    1    3    3    0    0  0.62939812577E+01  0.58079371548E+01 -0.32012041031E+01  0.91429777445E+01  0.51100000000E-03 0.  1.
         12    1    3    3    0    0  0.64392186437E+01 -0.19093034791E+01 -0.83071242168E+01  0.10682569413E+02  0.00000000000E+00 0. -1.
</event>
<event>
 7    1  0.2458979E-009  0.4778727E+02  0.7816164E-02  0.1312668E+00
        -11   -1    0    0    0    0  0.00000000000E+00  0.00000000000E+00  0.45593999997E+02  0.45594000000E+02  0.51100000000E-03 0.  1.
         11   -1    0    0    0    0 -0.00000000000E+00 -0.00000000000E+00 -0.45593999997E+02  0.45594000000E+02  0.51100000000E-03 0. -1.
    9900012    2    1    2    0    0 -0.66543510662E+01 -0.21526703304E+01 -0.42833503378E+02  0.47787269715E+02  0.19999993939E+02 0.  0.
        -12    1    1    2    0    0  0.66543510662E+01  0.21526703304E+01  0.42833503378E+02  0.43400730285E+02  0.00000000000E+00 0.  1.
         11    1    3    3    0    0 -0.11528651979E+02 -0.47315342315E+01 -0.31862972771E+02  0.34213246948E+02  0.51100000000E-03 0. -1.
        -11    1    3    3    0    0  0.28375916940E+01  0.34830641359E+01 -0.10315470791E+02  0.11251337711E+02  0.51100000000E-03 0.  1.
         12    1    3    3    0    0  0.20367092188E+01 -0.90420023483E+00 -0.65505981566E+00  0.23226850558E+01  0.00000000000E+00 0. -1.
</event>
<event>
 7    1  0.2458979E-009  0.4778727E+02  0.7816164E-02  0.1312668E+00
        -11   -1    0    0    0    0  0.00000000000E+00  0.00000000000E+00  0.45593999997E+02  0.45594000000E+02  0.51100000000E-03 0.  1.
         11   -1    0    0    0    0 -0.00000000000E+00 -0.00000000000E+00 -0.45593999997E+02  0.45594000000E+02  0.51100000000E-03 0. -1.
    9900012    2    1    2    0    0  0.12853027141E+01  0.30986951549E+02  0.30360832663E+02  0.47787270405E+02  0.19999997086E+02 0.  0.
        -12    1    1    2    0    0 -0.12853027141E+01 -0.30986951549E+02 -0.30360832663E+02  0.43400729595E+02  0.00000000000E+00 0.  1.
         11    1    3    3    0    0  0.28385288327E+01  0.11191916901E+02  0.19588261142E+01  0.11711244591E+02  0.51100000000E-03 0. -1.
        -11    1    3    3    0    0  0.49434778775E+00  0.17623286824E+02  0.27966254882E+02  0.33059583037E+02  0.51100000000E-03 0.  1.
         12    1    3    3    0    0 -0.20475739063E+01  0.21717478244E+01  0.43575166655E+00  0.30164427775E+01  0.00000000000E+00 0. -1.
</event>
<event>
 7    1  0.2458979E-009  0.4778728E+02  0.7816164E-02  0.1312668E+00
        -11   -1    0    0    0    0  0.00000000000E+00  0.00000000000E+00  0.45593999997E+02  0.45594000000E+02  0.51100000000E-03 0.  1.
         11   -1    0    0    0    0 -0.00000000000E+00 -0.00000000000E+00 -0.45593999997E+02  0.45594000000E+02  0.51100000000E-03 0. -1.
    9900012    2    1    2    0    0  0.38940146806E+02  0.40022473959E+01 -0.18742188320E+02  0.47787278341E+02  0.20000033267E+02 0.  0.
        -12    1    1    2    0    0 -0.38940146806E+02 -0.40022473959E+01  0.18742188320E+02  0.43400721659E+02  0.00000000000E+00 0.  1.
         11    1    3    3    0    0  0.18608140573E+02  0.61372291585E+01 -0.99769810784E+01  0.21987920071E+02  0.51100000000E-03 0. -1.
        -11    1    3    3    0    0  0.11489106857E+02 -0.43459038008E+01  0.11424140644E+01  0.12336594602E+02  0.51100000000E-03 0.  1.
        -12    1    3    3    0    0  0.88428993760E+01  0.22109220382E+01 -0.99076213062E+01  0.13462763668E+02  0.00000000000E+00 0.  1.
</event>
<event>
 7    1  0.2458979E-009  0.4778727E+02  0.7816164E-02  0.1312668E+00
        -11   -1    0    0    0    0  0.00000000000E+00  0.00000000000E+00  0.45593999997E+02  0.45594000000E+02  0.51100000000E-03 0.  1.
         11   -1    0    0    0    0 -0.00000000000E+00 -0.00000000000E+00 -0.45593999997E+02  0.45594000000E+02  0.51100000000E-03 0. -1.
    9900012    2    1    2    0    0 -0.30187491068E+02 -0.21764934925E+02 -0.22329937111E+02  0.47787273040E+02  0.20000009097E+02 0.  0.
        -12    1    1    2    0    0  0.30187491068E+02  0.21764934925E+02  0.22329937111E+02  0.43400726960E+02  0.00000000000E+00 0.  1.
         11    1    3    3    0    0 -0.59759856248E+01 -0.62565995686E+01 -0.12939235867E+02  0.15565386839E+02  0.51100000000E-03 0. -1.
        -11    1    3    3    0    0 -0.93978432185E+01 -0.50522339770E+01  0.19341721382E+01  0.10843686985E+02  0.51100000000E-03 0.  1.
        -12    1    3    3    0    0 -0.14813662225E+02 -0.10456101379E+02 -0.11324873382E+02  0.21378199215E+02  0.00000000000E+00 0.  1.
</event>
<event>
 7    1  0.2458979E-009  0.4778728E+02  0.7816164E-02  0.1312668E+00
        -11   -1    0    0    0    0  0.00000000000E+00  0.00000000000E+00  0.45593999997E+02  0.45594000000E+02  0.51100000000E-03 0. -1.
         11   -1    0    0    0    0 -0.00000000000E+00 -0.00000000000E+00 -0.45593999997E+02  0.45594000000E+02  0.51100000000E-03 0.  1.
    9900012    2    1    2    0    0 -0.31907935389E+02  0.24912076292E+02  0.15649119519E+02  0.47787276184E+02  0.20000023434E+02 0.  0.
        -12    1    1    2    0    0  0.31907935389E+02 -0.24912076292E+02 -0.15649119519E+02  0.43400723816E+02  0.00000000000E+00 0.  1.
         11    1    3    3    0    0 -0.10826770731E+02  0.31014944455E+01  0.87092208333E+01  0.14236880278E+02  0.51100000000E-03 0. -1.
        -11    1    3    3    0    0 -0.19602355011E+02  0.15150443924E+02  0.14917713729E+01  0.24819622381E+02  0.51100000000E-03 0.  1.
        -12    1    3    3    0    0 -0.14788096470E+01  0.66601379233E+01  0.54481273124E+01  0.87307735248E+01  0.00000000000E+00 0.  1.
</event>
<event>
 7    1  0.2458979E-009  0.4778726E+02  0.7816164E-02  0.1312668E+00
        -11   -1    0    0    0    0  0.00000000000E+00  0.00000000000E+00  0.45593999997E+02  0.45594000000E+02  0.51100000000E-03 0. -1.
         11   -1    0    0    0    0 -0.00000000000E+00 -0.00000000000E+00 -0.45593999997E+02  0.45594000000E+02  0.51100000000E-03 0.  1.
    9900012    2    1    2    0    0 -0.15438571288E+01  0.11564196995E+00  0.43373113662E+02  0.47787264331E+02  0.19999969389E+02 0.  0.
        -12    1    1    2    0    0  0.15438571288E+01 -0.11564196995E+00 -0.43373113662E+02  0.43400735669E+02  0.00000000000E+00 0.  1.
         11    1    3    3    0    0 -0.84347663075E+01  0.16205485014E+01  0.37669709337E+02  0.38636491325E+02  0.51100000000E-03 0. -1.
        -11    1    3    3    0    0  0.42490954039E+00 -0.42243250707E+00  0.43980162929E+00  0.74325169007E+00  0.51100000000E-03 0.  1.
         12    1    3    3    0    0  0.64659996382E+01 -0.10824740244E+01  0.52636026962E+01  0.84075213160E+01  0.00000000000E+00 0. -1.
</event>
<event>
 7    1  0.2458979E-009  0.4778728E+02  0.7816164E-02  0.1312668E+00
        -11   -1    0    0    0    0  0.00000000000E+00  0.00000000000E+00  0.45593999997E+02  0.45594000000E+02  0.51100000000E-03 0. -1.
         11   -1    0    0    0    0 -0.00000000000E+00 -0.00000000000E+00 -0.45593999997E+02  0.45594000000E+02  0.51100000000E-03 0.  1.
    9900012    2    1    2    0    0 -0.30035009652E+02  0.29992148606E+02 -0.90549492061E+01  0.47787275491E+02  0.20000020272E+02 0.  0.
        -12    1    1    2    0    0  0.30035009652E+02 -0.29992148606E+02  0.90549492061E+01  0.43400724509E+02  0.00000000000E+00 0.  1.
         11    1    3    3    0    0 -0.11245754933E+02  0.21639195067E+02 -0.41654596879E+01  0.24740105534E+02  0.51100000000E-03 0. -1.
        -11    1    3    3    0    0 -0.12621903496E+02  0.38560589224E+01  0.12428222914E+01  0.13256177646E+02  0.51100000000E-03 0.  1.
         12    1    3    3    0    0 -0.61673512236E+01  0.44968946169E+01 -0.61323118096E+01  0.97909923113E+01  0.00000000000E+00 0. -1.
</event>
<event>
 7    1  0.2458979E-009  0.4778727E+02  0.7816164E-02  0.1312668E+00
        -11   -1    0    0    0    0  0.00000000000E+00  0.00000000000E+00  0.45593999997E+02  0.45594000000E+02  0.51100000000E-03 0. -1.
         11   -1    0    0    0    0 -0.00000000000E+00 -0.00000000000E+00 -0.45593999997E+02  0.45594000000E+02  0.51100000000E-03 0.  1.
    9900012    2    1    2    0    0  0.75455465022E+01 -0.39282911969E+02 -0.16838671351E+02  0.47787270771E+02  0.19999998751E+02 0.  0.
        -12    1    1    2    0    0 -0.75455465022E+01  0.39282911969E+02  0.16838671351E+02  0.43400729229E+02  0.00000000000E+00 0.  1.
         11    1    3    3    0    0  0.10259065105E+02 -0.14905758742E+02 -0.63105598762E+01  0.19163852084E+02  0.51100000000E-03 0. -1.
        -11    1    3    3    0    0 -0.61940526558E+01 -0.98181019548E+01 -0.53677627092E+01  0.12789616533E+02  0.51100000000E-03 0.  1.
        -12    1    3    3    0    0  0.34805340532E+01 -0.14559051272E+02 -0.51603487651E+01  0.15833802153E+02  0.00000000000E+00 0.  1.
</event>
<event>
 7    1  0.2458979E-009  0.4778727E+02  0.7816164E-02  0.1312668E+00
        -11   -1    0    0    0    0  0.00000000000E+00  0.00000000000E+00  0.45593999997E+02  0.45594000000E+02  0.51100000000E-03 0. -1.
         11   -1    0    0    0    0 -0.00000000000E+00 -0.00000000000E+00 -0.45593999997E+02  0.45594000000E+02  0.51100000000E-03 0.  1.
    9900012    2    1    2    0    0  0.35323693751E+02 -0.77752888643E+01  0.23987598928E+02  0.47787270059E+02  0.19999995505E+02 0.  0.
        -12    1    1    2    0    0 -0.35323693751E+02  0.77752888643E+01 -0.23987598928E+02  0.43400729941E+02  0.00000000000E+00 0.  1.
         11    1    3    3    0    0  0.58867080563E+01 -0.42018486700E+01  0.13502375295E+02  0.15317408490E+02  0.51100000000E-03 0. -1.
        -11    1    3    3    0    0  0.83508493272E+01 -0.21111175804E+01 -0.53989022309E+00  0.86304683325E+01  0.51100000000E-03 0.  1.
         12    1    3    3    0    0  0.21086136367E+02 -0.14623226139E+01  0.11025113856E+02  0.23839393236E+02  0.00000000000E+00 0. -1.
</event>
<event>
 7    1  0.2458979E-009  0.4778727E+02  0.7816164E-02  0.1312668E+00
        -11   -1    0    0    0    0  0.00000000000E+00  0.00000000000E+00  0.45593999997E+02  0.45594000000E+02  0.51100000000E-03 0.  1.
         11   -1    0    0    0    0 -0.00000000000E+00 -0.00000000000E+00 -0.45593999997E+02  0.45594000000E+02  0.51100000000E-03 0. -1.
    9900012    2    1    2    0    0 -0.10703903743E+02  0.12501964849E+02 -0.40159069194E+02  0.47787268221E+02  0.19999987128E+02 0.  0.
        -12    1    1    2    0    0  0.10703903743E+02 -0.12501964849E+02  0.40159069194E+02  0.43400731779E+02  0.00000000000E+00 0.  1.
         11    1    3    3    0    0  0.45007908173E+01  0.28132916023E+01 -0.44061478893E+01  0.68982510178E+01  0.51100000000E-03 0. -1.
        -11    1    3    3    0    0 -0.97261639323E+01  0.17856011355E+01 -0.14374943460E+02  0.17447797454E+02  0.51100000000E-03 0.  1.
         12    1    3    3    0    0 -0.54785306280E+01  0.79030721110E+01 -0.21377977844E+02  0.23441219750E+02  0.00000000000E+00 0. -1.
</event>
<event>
 7    1  0.2458979E-009  0.4778726E+02  0.7816164E-02  0.1312668E+00
        -11   -1    0    0    0    0  0.00000000000E+00  0.00000000000E+00  0.45593999997E+02  0.45594000000E+02  0.51100000000E-03 0.  1.
         11   -1    0    0    0    0 -0.00000000000E+00 -0.00000000000E+00 -0.45593999997E+02  0.45594000000E+02  0.51100000000E-03 0. -1.
    9900012    2    1    2    0    0 -0.14664289015E+02  0.28076107969E+02 -0.29670101165E+02  0.47787261364E+02  0.19999955862E+02 0.  0.
        -12    1    1    2    0    0  0.14664289015E+02 -0.28076107969E+02  0.29670101165E+02  0.43400738636E+02  0.00000000000E+00 0.  1.
         11    1    3    3    0    0 -0.91477028864E+00  0.15954360001E+02 -0.22419243207E+02  0.27531815668E+02  0.51100000000E-03 0. -1.
        -11    1    3    3    0    0 -0.12684849297E+02  0.10856061691E+02 -0.79099464424E+01  0.18475029908E+02  0.51100000000E-03 0.  1.
         12    1    3    3    0    0 -0.10646694295E+01  0.12656862770E+01  0.65908848460E+00  0.17804157875E+01  0.00000000000E+00 0. -1.
</event>
<event>
 7    1  0.2458979E-009  0.4778725E+02  0.7816164E-02  0.1312668E+00
        -11   -1    0    0    0    0  0.00000000000E+00  0.00000000000E+00  0.45593999997E+02  0.45594000000E+02  0.51100000000E-03 0.  1.
         11   -1    0    0    0    0 -0.00000000000E+00 -0.00000000000E+00 -0.45593999997E+02  0.45594000000E+02  0.51100000000E-03 0. -1.
    9900012    2    1    2    0    0  0.30554093921E+02 -0.92352260568E+00 -0.30809401498E+02  0.47787253808E+02  0.19999921412E+02 0.  0.
        -12    1    1    2    0    0 -0.30554093921E+02  0.92352260568E+00  0.30809401498E+02  0.43400746192E+02  0.00000000000E+00 0.  1.
         11    1    3    3    0    0  0.38752682250E+01  0.14943128137E+01 -0.36496993371E+01  0.55291030116E+01  0.51100000000E-03 0. -1.
        -11    1    3    3    0    0  0.27121363346E+02  0.25354817139E+01 -0.24404406605E+02  0.36572832530E+02  0.51100000000E-03 0.  1.
        -12    1    3    3    0    0 -0.44253764930E+00 -0.49533171333E+01 -0.27552955562E+01  0.56853182669E+01  0.00000000000E+00 0.  1.
</event>
<event>
 7    1  0.2458979E-009  0.4778727E+02  0.7816164E-02  0.1312668E+00
        -11   -1    0    0    0    0  0.00000000000E+00  0.00000000000E+00  0.45593999997E+02  0.45594000000E+02  0.51100000000E-03 0. -1.
         11   -1    0    0    0    0 -0.00000000000E+00 -0.00000000000E+00 -0.45593999997E+02  0.45594000000E+02  0.51100000000E-03 0.  1.
    9900012    2    1    2    0    0 -0.66435999062E+01 -0.40267484793E+02  0.14765361094E+02  0.47787266832E+02  0.19999980793E+02 0.  0.
        -12    1    1    2    0    0  0.66435999062E+01  0.40267484793E+02 -0.14765361094E+02  0.43400733168E+02  0.00000000000E+00 0.  1.
         11    1    3    3    0    0  0.48005137075E+01 -0.15152326987E+02  0.14529951211E+01  0.15960862761E+02  0.51100000000E-03 0. -1.
        -11    1    3    3    0    0  0.61890255590E+00 -0.15431153559E+01  0.29605961726E+01  0.33954933859E+01  0.51100000000E-03 0.  1.
         12    1    3    3    0    0 -0.12063016170E+02 -0.23572042450E+02  0.10351769800E+02  0.28430910685E+02  0.00000000000E+00 0. -1.
</event>
<event>
 7    1  0.2458979E-009  0.4778727E+02  0.7816164E-02  0.1312668E+00
        -11   -1    0    0    0    0  0.00000000000E+00  0.00000000000E+00  0.45593999997E+02  0.45594000000E+02  0.51100000000E-03 0.  1.
         11   -1    0    0    0    0 -0.00000000000E+00 -0.00000000000E+00 -0.45593999997E+02  0.45594000000E+02  0.51100000000E-03 0. -1.
    9900012    2    1    2    0    0  0.14252036691E+02 -0.37481243567E+02 -0.16602985203E+02  0.47787270895E+02  0.19999999319E+02 0.  0.
        -12    1    1    2    0    0 -0.14252036691E+02  0.37481243567E+02  0.16602985203E+02  0.43400729105E+02  0.00000000000E+00 0.  1.
         11    1    3    3    0    0  0.45382975688E+01 -0.25048122152E+02 -0.15352167131E+02  0.29726984442E+02  0.51100000000E-03 0. -1.
        -11    1    3    3    0    0  0.12466146150E+00 -0.57989130354E+01  0.16773562883E+01  0.60379182879E+01  0.51100000000E-03 0.  1.
         12    1    3    3    0    0  0.95890776604E+01 -0.66342083803E+01 -0.29281743599E+01  0.12022368165E+02  0.00000000000E+00 0. -1.
</event>
<event>
 7    1  0.2458979E-009  0.4778727E+02  0.7816164E-02  0.1312668E+00
        -11   -1    0    0    0    0  0.00000000000E+00  0.00000000000E+00  0.45593999997E+02  0.45594000000E+02  0.51100000000E-03 0. -1.
         11   -1    0    0    0    0 -0.00000000000E+00 -0.00000000000E+00 -0.45593999997E+02  0.45594000000E+02  0.51100000000E-03 0.  1.
    9900012    2    1    2    0    0  0.30869939554E+02 -0.30478086232E+02 -0.13252441471E+01  0.47787272120E+02  0.20000004905E+02 0.  0.
        -12    1    1    2    0    0 -0.30869939554E+02  0.30478086232E+02  0.13252441471E+01  0.43400727880E+02  0.00000000000E+00 0.  1.
         11    1    3    3    0    0  0.26795015998E+02 -0.31550388738E+02  0.25957261349E+01  0.41474542870E+02  0.51100000000E-03 0. -1.
        -11    1    3    3    0    0  0.39139531044E+01  0.26809865307E+00 -0.38381897026E+01  0.54884065306E+01  0.51100000000E-03 0.  1.
         12    1    3    3    0    0  0.16097045168E+00  0.80420385221E+00 -0.82780579401E-01  0.82432271990E+00  0.00000000000E+00 0. -1.
</event>
<event>
 7    1  0.2458979E-009  0.4778726E+02  0.7816164E-02  0.1312668E+00
        -11   -1    0    0    0    0  0.00000000000E+00  0.00000000000E+00  0.45593999997E+02  0.45594000000E+02  0.51100000000E-03 0. -1.
         11   -1    0    0    0    0 -0.00000000000E+00 -0.00000000000E+00 -0.45593999997E+02  0.45594000000E+02  0.51100000000E-03 0.  1.
    9900012    2    1    2    0    0 -0.22969172428E+02 -0.61140952024E+01  0.36313341372E+02  0.47787264939E+02  0.19999972164E+02 0.  0.
        -12    1    1    2    0    0  0.22969172428E+02  0.61140952024E+01 -0.36313341372E+02  0.43400735061E+02  0.00000000000E+00 0.  1.
         11    1    3    3    0    0 -0.16609658873E+02 -0.91494002742E+01  0.19750960451E+02  0.27380517385E+02  0.51100000000E-03 0. -1.
        -11    1    3    3    0    0  0.22387679698E+01  0.18288450817E+01  0.22357969927E+01  0.36545238827E+01  0.51100000000E-03 0.  1.
        -12    1    3    3    0    0 -0.85982815247E+01  0.12064599901E+01  0.14326583928E+02  0.16752223672E+02  0.00000000000E+00 0.  1.
</event>
<event>
 7    1  0.2458979E-009  0.4778727E+02  0.7816164E-02  0.1312668E+00
        -11   -1    0    0    0    0  0.00000000000E+00  0.00000000000E+00  0.45593999997E+02  0.45594000000E+02  0.51100000000E-03 0.  1.
         11   -1    0    0    0    0 -0.00000000000E+00 -0.00000000000E+00 -0.45593999997E+02  0.45594000000E+02  0.51100000000E-03 0. -1.
    9900012    2    1    2    0    0  0.20111523945E+02 -0.19221404916E+02 -0.33311967903E+02  0.47787274108E+02  0.20000013969E+02 0.  0.
        -12    1    1    2    0    0 -0.20111523945E+02  0.19221404916E+02  0.33311967903E+02  0.43400725892E+02  0.00000000000E+00 0.  1.
         11    1    3    3    0    0  0.11382295880E+02 -0.50819288373E+01 -0.15035676183E+02  0.19530852996E+02  0.51100000000E-03 0. -1.
        -11    1    3    3    0    0  0.18343379560E+01 -0.83026198103E+01 -0.74615527381E+00  0.85355163525E+01  0.51100000000E-03 0.  1.
        -12    1    3    3    0    0  0.68948901088E+01 -0.58368562685E+01 -0.17530136446E+02  0.19720904760E+02  0.00000000000E+00 0.  1.
</event>
<event>
 7    1  0.2458979E-009  0.4778726E+02  0.7816164E-02  0.1312668E+00
        -11   -1    0    0    0    0  0.00000000000E+00  0.00000000000E+00  0.45593999997E+02  0.45594000000E+02  0.51100000000E-03 0. -1.
         11   -1    0    0    0    0 -0.00000000000E+00 -0.00000000000E+00 -0.45593999997E+02  0.45594000000E+02  0.51100000000E-03 0.  1.
    9900012    2    1    2    0    0  0.23807558146E+02 -0.37680438208E+01  0.36091913872E+02  0.47787260075E+02  0.19999949986E+02 0.  0.
        -12    1    1    2    0    0 -0.23807558146E+02  0.37680438208E+01 -0.36091913872E+02  0.43400739925E+02  0.00000000000E+00 0.  1.
         11    1    3    3    0    0  0.22104481904E+02  0.20332049024E+01  0.23942079466E+02  0.32649122681E+02  0.51100000000E-03 0. -1.
        -11    1    3    3    0    0 -0.17833467338E+01 -0.16854632368E+01  0.81548522211E+00  0.25857548810E+01  0.51100000000E-03 0.  1.
        -12    1    3    3    0    0  0.34864229753E+01 -0.41157854864E+01  0.11334349184E+02  0.12552382513E+02  0.00000000000E+00 0.  1.
</event>
<event>
 7    1  0.2458979E-009  0.4778727E+02  0.7816164E-02  0.1312668E+00
        -11   -1    0    0    0    0  0.00000000000E+00  0.00000000000E+00  0.45593999997E+02  0.45594000000E+02  0.51100000000E-03 0. -1.
         11   -1    0    0    0    0 -0.00000000000E+00 -0.00000000000E+00 -0.45593999997E+02  0.45594000000E+02  0.51100000000E-03 0.  1.
    9900012    2    1    2    0    0  0.36478464064E+02 -0.22062817142E+02  0.81349236528E+01  0.47787271624E+02  0.20000002644E+02 0.  0.
        -12    1    1    2    0    0 -0.36478464064E+02  0.22062817142E+02 -0.81349236528E+01  0.43400728376E+02  0.00000000000E+00 0.  1.
         11    1    3    3    0    0  0.18132629500E+02 -0.14510245921E+02 -0.14386703083E+00  0.23224129419E+02  0.51100000000E-03 0. -1.
        -11    1    3    3    0    0  0.36285628410E+00  0.24304001131E+01  0.20053104056E+00  0.24655065102E+01  0.51100000000E-03 0.  1.
         12    1    3    3    0    0  0.17982978280E+02 -0.99829713332E+01  0.80782596430E+01  0.22097635696E+02  0.00000000000E+00 0. -1.
</event>
<event>
 7    1  0.2458979E-009  0.4778727E+02  0.7816164E-02  0.1312668E+00
        -11   -1    0    0    0    0  0.00000000000E+00  0.00000000000E+00  0.45593999997E+02  0.45594000000E+02  0.51100000000E-03 0.  1.
         11   -1    0    0    0    0 -0.00000000000E+00 -0.00000000000E+00 -0.45593999997E+02  0.45594000000E+02  0.51100000000E-03 0. -1.
    9900012    2    1    2    0    0  0.12293008748E+02  0.24872365740E+02 -0.33374697955E+02  0.47787272988E+02  0.20000008862E+02 0.  0.
        -12    1    1    2    0    0 -0.12293008748E+02 -0.24872365740E+02  0.33374697955E+02  0.43400727012E+02  0.00000000000E+00 0.  1.
         11    1    3    3    0    0  0.72045760409E+01  0.49423717798E+01 -0.15477356696E+02  0.17773056161E+02  0.51100000000E-03 0. -1.
        -11    1    3    3    0    0 -0.33785236302E+01  0.11311548678E+02 -0.10811446023E+02  0.16007901823E+02  0.51100000000E-03 0.  1.
        -12    1    3    3    0    0  0.84669563372E+01  0.86184452828E+01 -0.70858952360E+01  0.14006315004E+02  0.00000000000E+00 0.  1.
</event>
<event>
 7    1  0.2458979E-009  0.4778727E+02  0.7816164E-02  0.1312668E+00
        -11   -1    0    0    0    0  0.00000000000E+00  0.00000000000E+00  0.45593999997E+02  0.45594000000E+02  0.51100000000E-03 0.  1.
         11   -1    0    0    0    0 -0.00000000000E+00 -0.00000000000E+00 -0.45593999997E+02  0.45594000000E+02  0.51100000000E-03 0. -1.
    9900012    2    1    2    0    0 -0.21541431143E+02 -0.26722490065E+02 -0.26561228338E+02  0.47787267497E+02  0.19999983827E+02 0.  0.
        -12    1    1    2    0    0  0.21541431143E+02  0.26722490065E+02  0.26561228338E+02  0.43400732503E+02  0.00000000000E+00 0.  1.
         11    1    3    3    0    0 -0.68267579861E+00 -0.29271831234E+01 -0.16081858729E+01  0.34089161543E+01  0.51100000000E-03 0. -1.
        -11    1    3    3    0    0 -0.66830510663E+01 -0.19090499469E+01  0.16322278448E+01  0.71394545487E+01  0.51100000000E-03 0.  1.
        -12    1    3    3    0    0 -0.14175704278E+02 -0.21886256995E+02 -0.26585270310E+02  0.37238896794E+02  0.00000000000E+00 0.  1.
</event>
<event>
 7    1  0.2458979E-009  0.4778725E+02  0.7816164E-02  0.1312668E+00
        -11   -1    0    0    0    0  0.00000000000E+00  0.00000000000E+00  0.45593999997E+02  0.45594000000E+02  0.51100000000E-03 0. -1.
         11   -1    0    0    0    0 -0.00000000000E+00 -0.00000000000E+00 -0.45593999997E+02  0.45594000000E+02  0.51100000000E-03 0.  1.
    9900012    2    1    2    0    0  0.19478827803E+02 -0.16707227196E+02  0.35000980346E+02  0.47787253482E+02  0.19999919926E+02 0.  0.
        -12    1    1    2    0    0 -0.19478827803E+02  0.16707227196E+02 -0.35000980346E+02  0.43400746518E+02  0.00000000000E+00 0.  1.
         11    1    3    3    0    0  0.65432816744E+01 -0.89362242629E+01  0.21617661458E+02  0.24289790578E+02  0.51100000000E-03 0.  1.
        -11    1    3    3    0    0  0.45394035576E+01  0.31371385344E+01  0.44348519279E+01  0.70792467626E+01  0.51100000000E-03 0. -1.
         12    1    3    3    0    0  0.83961425710E+01 -0.10908141467E+02  0.89484669600E+01  0.16418216142E+02  0.00000000000E+00 0. -1.
</event>
<event>
 7    1  0.2458979E-009  0.4778728E+02  0.7816164E-02  0.1312668E+00
        -11   -1    0    0    0    0  0.00000000000E+00  0.00000000000E+00  0.45593999997E+02  0.45594000000E+02  0.51100000000E-03 0. -1.
         11   -1    0    0    0    0 -0.00000000000E+00 -0.00000000000E+00 -0.45593999997E+02  0.45594000000E+02  0.51100000000E-03 0.  1.
    9900012    2    1    2    0    0 -0.16997801323E+02 -0.72883584638E+01  0.39262926646E+02  0.47787276184E+02  0.20000023435E+02 0.  0.
        -12    1    1    2    0    0  0.16997801323E+02  0.72883584638E+01 -0.39262926646E+02  0.43400723816E+02  0.00000000000E+00 0.  1.
         11    1    3    3    0    0 -0.50451920260E+01  0.42809191471E+01  0.20600302531E+02  0.21636836552E+02  0.51100000000E-03 0. -1.
        -11    1    3    3    0    0 -0.12049470880E+02 -0.76171554833E+01  0.15728481179E+02  0.21227244913E+02  0.51100000000E-03 0.  1.
        -12    1    3    3    0    0  0.96861583336E-01 -0.39521221275E+01  0.29341429357E+01  0.49231947193E+01  0.00000000000E+00 0.  1.
</event>
<event>
 7    1  0.2458979E-009  0.4778726E+02  0.7816164E-02  0.1312668E+00
        -11   -1    0    0    0    0  0.00000000000E+00  0.00000000000E+00  0.45593999997E+02  0.45594000000E+02  0.51100000000E-03 0.  1.
         11   -1    0    0    0    0 -0.00000000000E+00 -0.00000000000E+00 -0.45593999997E+02  0.45594000000E+02  0.51100000000E-03 0. -1.
    9900012    2    1    2    0    0 -0.21187224626E+02 -0.37813154263E+02 -0.22115891096E+01  0.47787259810E+02  0.19999948776E+02 0.  0.
        -12    1    1    2    0    0  0.21187224626E+02  0.37813154263E+02  0.22115891096E+01  0.43400740190E+02  0.00000000000E+00 0.  1.
         11    1    3    3    0    0 -0.11051344228E+02 -0.33438898204E+02  0.11100082812E+01  0.35235269844E+02  0.51100000000E-03 0. -1.
        -11    1    3    3    0    0  0.47913104535E+00 -0.61556260525E+00  0.91198087575E-01  0.78536694093E+00  0.51100000000E-03 0.  1.
        -12    1    3    3    0    0 -0.10615011444E+02 -0.37586934541E+01 -0.34127954784E+01  0.11766623025E+02  0.00000000000E+00 0.  1.
</event>
<event>
 7    1  0.2458979E-009  0.4778728E+02  0.7816164E-02  0.1312668E+00
        -11   -1    0    0    0    0  0.00000000000E+00  0.00000000000E+00  0.45593999997E+02  0.45594000000E+02  0.51100000000E-03 0.  1.
         11   -1    0    0    0    0 -0.00000000000E+00 -0.00000000000E+00 -0.45593999997E+02  0.45594000000E+02  0.51100000000E-03 0. -1.
    9900012    2    1    2    0    0  0.14035488685E+02 -0.18403523353E+02 -0.36714279250E+02  0.47787275176E+02  0.20000018836E+02 0.  0.
        -12    1    1    2    0    0 -0.14035488685E+02  0.18403523353E+02  0.36714279250E+02  0.43400724824E+02  0.00000000000E+00 0.  1.
         11    1    3    3    0    0  0.18958102402E+01 -0.20939298043E+01 -0.11649771398E+02  0.11987318815E+02  0.51100000000E-03 0. -1.
        -11    1    3    3    0    0  0.24065674947E+01 -0.14672097673E+02 -0.10483148940E+02  0.18192262893E+02  0.51100000000E-03 0.  1.
        -12    1    3    3    0    0  0.97331109502E+01 -0.16374958765E+01 -0.14581358912E+02  0.17607693467E+02  0.00000000000E+00 0.  1.
</event>
<event>
 7    1  0.2458979E-009  0.4778727E+02  0.7816164E-02  0.1312668E+00
        -11   -1    0    0    0    0  0.00000000000E+00  0.00000000000E+00  0.45593999997E+02  0.45594000000E+02  0.51100000000E-03 0.  1.
         11   -1    0    0    0    0 -0.00000000000E+00 -0.00000000000E+00 -0.45593999997E+02  0.45594000000E+02  0.51100000000E-03 0. -1.
    9900012    2    1    2    0    0 -0.98387141031E+01  0.15589355751E+02 -0.39291157421E+02  0.47787270059E+02  0.19999995508E+02 0.  0.
        -12    1    1    2    0    0  0.98387141031E+01 -0.15589355751E+02  0.39291157421E+02  0.43400729941E+02  0.00000000000E+00 0.  1.
         11    1    3    3    0    0  0.17794411684E+01  0.66547819980E+01 -0.14673054025E+02  0.16209597435E+02  0.51100000000E-03 0. -1.
        -11    1    3    3    0    0 -0.95138817284E+01  0.28751116174E+01 -0.22859340466E+02  0.24926485094E+02  0.51100000000E-03 0.  1.
        -12    1    3    3    0    0 -0.21042735431E+01  0.60594621358E+01 -0.17587629299E+01  0.66511875303E+01  0.00000000000E+00 0.  1.
</event>
<event>
 7    1  0.2458979E-009  0.4778727E+02  0.7816164E-02  0.1312668E+00
        -11   -1    0    0    0    0  0.00000000000E+00  0.00000000000E+00  0.45593999997E+02  0.45594000000E+02  0.51100000000E-03 0.  1.
         11   -1    0    0    0    0 -0.00000000000E+00 -0.00000000000E+00 -0.45593999997E+02  0.45594000000E+02  0.51100000000E-03 0. -1.
    9900012    2    1    2    0    0  0.27929475456E+02  0.12731940545E+01 -0.33195582214E+02  0.47787270733E+02  0.19999998581E+02 0.  0.
        -12    1    1    2    0    0 -0.27929475456E+02 -0.12731940545E+01  0.33195582214E+02  0.43400729267E+02  0.00000000000E+00 0.  1.
         11    1    3    3    0    0  0.10072671542E+02  0.74926010852E+01 -0.17572425512E+02  0.21596016337E+02  0.51100000000E-03 0. -1.
        -11    1    3    3    0    0  0.13598848648E+02 -0.86461545110E+01 -0.11719428020E+02  0.19925603272E+02  0.51100000000E-03 0.  1.
        -12    1    3    3    0    0  0.42579552663E+01  0.24267474802E+01 -0.39037286822E+01  0.62656511239E+01  0.00000000000E+00 0.  1.
</event>
<event>
 7    1  0.2458979E-009  0.4778727E+02  0.7816164E-02  0.1312668E+00
        -11   -1    0    0    0    0  0.00000000000E+00  0.00000000000E+00  0.45593999997E+02  0.45594000000E+02  0.51100000000E-03 0.  1.
         11   -1    0    0    0    0 -0.00000000000E+00 -0.00000000000E+00 -0.45593999997E+02  0.45594000000E+02  0.51100000000E-03 0. -1.
    9900012    2    1    2    0    0  0.22520140066E+02  0.28499030949E+02  0.23754413782E+02  0.47787266737E+02  0.19999980362E+02 0.  0.
        -12    1    1    2    0    0 -0.22520140066E+02 -0.28499030949E+02 -0.23754413782E+02  0.43400733263E+02  0.00000000000E+00 0.  1.
         11    1    3    3    0    0  0.14258109022E+02  0.25700836580E+02  0.14289795997E+02  0.32680650907E+02  0.51100000000E-03 0. -1.
        -11    1    3    3    0    0  0.60600026236E+01 -0.71281772055E+00  0.17475635767E+01  0.63471032461E+01  0.51100000000E-03 0.  1.
         12    1    3    3    0    0  0.22020284199E+01  0.35110120892E+01  0.77170542085E+01  0.87595125840E+01  0.00000000000E+00 0. -1.
</event>
<event>
 7    1  0.2458979E-009  0.4778727E+02  0.7816164E-02  0.1312668E+00
        -11   -1    0    0    0    0  0.00000000000E+00  0.00000000000E+00  0.45593999997E+02  0.45594000000E+02  0.51100000000E-03 0.  1.
         11   -1    0    0    0    0 -0.00000000000E+00 -0.00000000000E+00 -0.45593999997E+02  0.45594000000E+02  0.51100000000E-03 0. -1.
    9900012    2    1    2    0    0 -0.82765699697E+01 -0.36373186400E+02 -0.22183615281E+02  0.47787273205E+02  0.20000009853E+02 0.  0.
        -12    1    1    2    0    0  0.82765699697E+01  0.36373186400E+02  0.22183615281E+02  0.43400726795E+02  0.00000000000E+00 0.  1.
         11    1    3    3    0    0 -0.13868652189E+01 -0.24407643465E+02 -0.17811768556E+02  0.30247571043E+02  0.51100000000E-03 0. -1.
        -11    1    3    3    0    0 -0.17164212566E+01 -0.10800377364E+02 -0.53060289550E+01  0.12155171602E+02  0.51100000000E-03 0.  1.
         12    1    3    3    0    0 -0.51732834943E+01 -0.11651655707E+01  0.93418222959E+00  0.53845305606E+01  0.00000000000E+00 0. -1.
</event>
<event>
 7    1  0.2458979E-009  0.4778726E+02  0.7816164E-02  0.1312668E+00
        -11   -1    0    0    0    0  0.00000000000E+00  0.00000000000E+00  0.45593999997E+02  0.45594000000E+02  0.51100000000E-03 0.  1.
         11   -1    0    0    0    0 -0.00000000000E+00 -0.00000000000E+00 -0.45593999997E+02  0.45594000000E+02  0.51100000000E-03 0. -1.
    9900012    2    1    2    0    0  0.55295332765E+01 -0.20201912091E+02 -0.38012248483E+02  0.47787262390E+02  0.19999960540E+02 0.  0.
        -12    1    1    2    0    0 -0.55295332765E+01  0.20201912091E+02  0.38012248483E+02  0.43400737610E+02  0.00000000000E+00 0.  1.
         11    1    3    3    0    0  0.95006424675E+01 -0.16184061283E+02 -0.15832386679E+02  0.24553014379E+02  0.51100000000E-03 0. -1.
        -11    1    3    3    0    0 -0.34186862397E+01 -0.45425902762E+01 -0.15476247039E+02  0.16487472963E+02  0.51100000000E-03 0.  1.
         12    1    3    3    0    0 -0.55242295128E+00  0.52473946808E+00 -0.67036147651E+01  0.67467750478E+01  0.00000000000E+00 0. -1.
</event>
<event>
 7    1  0.2458979E-009  0.4778727E+02  0.7816164E-02  0.1312668E+00
        -11   -1    0    0    0    0  0.00000000000E+00  0.00000000000E+00  0.45593999997E+02  0.45594000000E+02  0.51100000000E-03 0.  1.
         11   -1    0    0    0    0 -0.00000000000E+00 -0.00000000000E+00 -0.45593999997E+02  0.45594000000E+02  0.51100000000E-03 0. -1.
    9900012    2    1    2    0    0 -0.12526347720E+02  0.39615114006E+02 -0.12544181538E+02  0.47787272640E+02  0.20000007276E+02 0.  0.
        -12    1    1    2    0    0  0.12526347720E+02 -0.39615114006E+02  0.12544181538E+02  0.43400727360E+02  0.00000000000E+00 0.  1.
         11    1    3    3    0    0 -0.10864899975E+02  0.30302842204E+02 -0.41079962872E+01  0.32452795424E+02  0.51100000000E-03 0. -1.
        -11    1    3    3    0    0 -0.36862445949E+01  0.71121006922E+01 -0.92491085665E+01  0.12235864702E+02  0.51100000000E-03 0.  1.
        -12    1    3    3    0    0  0.20247968496E+01  0.22001711102E+01  0.81292331609E+00  0.30986125144E+01  0.00000000000E+00 0.  1.
</event>
<event>
 7    1  0.2458979E-009  0.4778728E+02  0.7816164E-02  0.1312668E+00
        -11   -1    0    0    0    0  0.00000000000E+00  0.00000000000E+00  0.45593999997E+02  0.45594000000E+02  0.51100000000E-03 0.  1.
         11   -1    0    0    0    0 -0.00000000000E+00 -0.00000000000E+00 -0.45593999997E+02  0.45594000000E+02  0.51100000000E-03 0. -1.
    9900012    2    1    2    0    0  0.13184062592E+02 -0.34593965591E+02 -0.22650842551E+02  0.47787278462E+02  0.20000033822E+02 0.  0.
        -12    1    1    2    0    0 -0.13184062592E+02  0.34593965591E+02  0.22650842551E+02  0.43400721538E+02  0.00000000000E+00 0.  1.
         11    1    3    3    0    0 -0.11488861090E+01 -0.17680843444E+02 -0.69371427663E+01  0.19027772182E+02  0.51100000000E-03 0. -1.
        -11    1    3    3    0    0  0.74053613787E+01 -0.33326716778E+01 -0.89383091584E+01  0.12076400479E+02  0.51100000000E-03 0.  1.
         12    1    3    3    0    0  0.69275873224E+01 -0.13580450469E+02 -0.67753906263E+01  0.16683105802E+02  0.00000000000E+00 0. -1.
</event>
<event>
 7    1  0.2458979E-009  0.4778727E+02  0.7816164E-02  0.1312668E+00
        -11   -1    0    0    0    0  0.00000000000E+00  0.00000000000E+00  0.45593999997E+02  0.45594000000E+02  0.51100000000E-03 0.  1.
         11   -1    0    0    0    0 -0.00000000000E+00 -0.00000000000E+00 -0.45593999997E+02  0.45594000000E+02  0.51100000000E-03 0. -1.
    9900012    2    1    2    0    0 -0.31769185154E+02  0.19326208166E+02 -0.22379450030E+02  0.47787271538E+02  0.20000002249E+02 0.  0.
        -12    1    1    2    0    0  0.31769185154E+02 -0.19326208166E+02  0.22379450030E+02  0.43400728462E+02  0.00000000000E+00 0.  1.
         11    1    3    3    0    0 -0.22835843480E+02  0.14816554003E+02 -0.17833944896E+02  0.32543134619E+02  0.51100000000E-03 0. -1.
        -11    1    3    3    0    0 -0.45588064663E+01  0.94916959084E+00  0.32090642573E+01  0.56552394271E+01  0.51100000000E-03 0.  1.
         12    1    3    3    0    0 -0.43745352070E+01  0.35604845712E+01 -0.77545693917E+01  0.95888974919E+01  0.00000000000E+00 0. -1.
</event>
<event>
 7    1  0.2458979E-009  0.4778727E+02  0.7816164E-02  0.1312668E+00
        -11   -1    0    0    0    0  0.00000000000E+00  0.00000000000E+00  0.45593999997E+02  0.45594000000E+02  0.51100000000E-03 0.  1.
         11   -1    0    0    0    0 -0.00000000000E+00 -0.00000000000E+00 -0.45593999997E+02  0.45594000000E+02  0.51100000000E-03 0. -1.
    9900012    2    1    2    0    0 -0.42005466149E+02  0.86584286171E+01  0.66479796649E+01  0.47787271824E+02  0.20000003556E+02 0.  0.
        -12    1    1    2    0    0  0.42005466149E+02 -0.86584286171E+01 -0.66479796649E+01  0.43400728176E+02  0.00000000000E+00 0.  1.
         11    1    3    3    0    0 -0.99164014669E+01  0.40817079672E+00  0.26686354261E+01  0.10277316612E+02  0.51100000000E-03 0. -1.
        -11    1    3    3    0    0 -0.48641570042E+01  0.68241835260E+01 -0.37384292317E+01  0.91763477234E+01  0.51100000000E-03 0.  1.
        -12    1    3    3    0    0 -0.27224907678E+02  0.14260742944E+01  0.77177734706E+01  0.28333607489E+02  0.00000000000E+00 0.  1.
</event>
<event>
 7    1  0.2458979E-009  0.4778727E+02  0.7816164E-02  0.1312668E+00
        -11   -1    0    0    0    0  0.00000000000E+00  0.00000000000E+00  0.45593999997E+02  0.45594000000E+02  0.51100000000E-03 0.  1.
         11   -1    0    0    0    0 -0.00000000000E+00 -0.00000000000E+00 -0.45593999997E+02  0.45594000000E+02  0.51100000000E-03 0. -1.
    9900012    2    1    2    0    0 -0.39933114042E+02  0.15808095170E+02 -0.62508982065E+01  0.47787271914E+02  0.20000003966E+02 0.  0.
        -12    1    1    2    0    0  0.39933114042E+02 -0.15808095170E+02  0.62508982065E+01  0.43400728086E+02  0.00000000000E+00 0.  1.
         11    1    3    3    0    0 -0.95906361512E+01 -0.94612247543E+00 -0.71015231061E+01  0.11971093526E+02  0.51100000000E-03 0. -1.
        -11    1    3    3    0    0 -0.14281250836E+02  0.12910855244E+02 -0.37832021763E+00  0.19255841582E+02  0.51100000000E-03 0.  1.
        -12    1    3    3    0    0 -0.16061227054E+02  0.38433624018E+01  0.12289451172E+01  0.16560336807E+02  0.00000000000E+00 0.  1.
</event>
<event>
 7    1  0.2458979E-009  0.4778728E+02  0.7816164E-02  0.1312668E+00
        -11   -1    0    0    0    0  0.00000000000E+00  0.00000000000E+00  0.45593999997E+02  0.45594000000E+02  0.51100000000E-03 0.  1.
         11   -1    0    0    0    0 -0.00000000000E+00 -0.00000000000E+00 -0.45593999997E+02  0.45594000000E+02  0.51100000000E-03 0. -1.
    9900012    2    1    2    0    0  0.20358468547E+02 -0.30341682465E+02 -0.23420875881E+02  0.47787281533E+02  0.20000047822E+02 0.  0.
        -12    1    1    2    0    0 -0.20358468547E+02  0.30341682465E+02  0.23420875881E+02  0.43400718467E+02  0.00000000000E+00 0.  1.
         11    1    3    3    0    0  0.18632062948E+02 -0.13658841134E+02 -0.11976474032E+02  0.26022175953E+02  0.51100000000E-03 0. -1.
        -11    1    3    3    0    0  0.23725776810E+01 -0.44291938562E+01 -0.57426895855E-01  0.50249558384E+01  0.51100000000E-03 0.  1.
         12    1    3    3    0    0 -0.64617208148E+00 -0.12253647474E+02 -0.11386974954E+02  0.16740149742E+02  0.00000000000E+00 0. -1.
</event>
<event>
 7    1  0.2458979E-009  0.4778727E+02  0.7816164E-02  0.1312668E+00
        -11   -1    0    0    0    0  0.00000000000E+00  0.00000000000E+00  0.45593999997E+02  0.45594000000E+02  0.51100000000E-03 0.  1.
         11   -1    0    0    0    0 -0.00000000000E+00 -0.00000000000E+00 -0.45593999997E+02  0.45594000000E+02  0.51100000000E-03 0. -1.
    9900012    2    1    2    0    0  0.22930885677E+02  0.17660540057E+02 -0.32340424349E+02  0.47787271433E+02  0.20000001772E+02 0.  0.
        -12    1    1    2    0    0 -0.22930885677E+02 -0.17660540057E+02  0.32340424349E+02  0.43400728567E+02  0.00000000000E+00 0.  1.
         11    1    3    3    0    0  0.92540208369E+00 -0.31957018750E+01 -0.91308915039E+00  0.34500161664E+01  0.51100000000E-03 0. -1.
        -11    1    3    3    0    0  0.57275435598E+01  0.10428830902E+02 -0.13143241940E+02  0.17728792349E+02  0.51100000000E-03 0.  1.
         12    1    3    3    0    0  0.16277940034E+02  0.10427411030E+02 -0.18284093259E+02  0.26608462918E+02  0.00000000000E+00 0. -1.
</event>
<event>
 7    1  0.2458979E-009  0.4778727E+02  0.7816164E-02  0.1312668E+00
        -11   -1    0    0    0    0  0.00000000000E+00  0.00000000000E+00  0.45593999997E+02  0.45594000000E+02  0.51100000000E-03 0.  1.
         11   -1    0    0    0    0 -0.00000000000E+00 -0.00000000000E+00 -0.45593999997E+02  0.45594000000E+02  0.51100000000E-03 0. -1.
    9900012    2    1    2    0    0  0.30354710112E+02 -0.23260483182E+02 -0.20522305655E+02  0.47787268057E+02  0.19999986377E+02 0.  0.
        -12    1    1    2    0    0 -0.30354710112E+02  0.23260483182E+02  0.20522305655E+02  0.43400731943E+02  0.00000000000E+00 0.  1.
         11    1    3    3    0    0  0.29358170091E+02 -0.23663045648E+02 -0.15850247794E+02  0.40903205691E+02  0.51100000000E-03 0. -1.
        -11    1    3    3    0    0 -0.15098126998E+01  0.90845387701E+00 -0.37895053807E+01  0.41791355717E+01  0.51100000000E-03 0.  1.
        -12    1    3    3    0    0  0.25063527203E+01 -0.50589141147E+00 -0.88255248050E+00  0.27049267937E+01  0.00000000000E+00 0.  1.
</event>
<event>
 7    1  0.2458979E-009  0.4778727E+02  0.7816164E-02  0.1312668E+00
        -11   -1    0    0    0    0  0.00000000000E+00  0.00000000000E+00  0.45593999997E+02  0.45594000000E+02  0.51100000000E-03 0.  1.
         11   -1    0    0    0    0 -0.00000000000E+00 -0.00000000000E+00 -0.45593999997E+02  0.45594000000E+02  0.51100000000E-03 0. -1.
    9900012    2    1    2    0    0  0.38667037292E+02 -0.19350188326E+02  0.37488695126E+01  0.47787267474E+02  0.19999983721E+02 0.  0.
        -12    1    1    2    0    0 -0.38667037292E+02  0.19350188326E+02 -0.37488695126E+01  0.43400732526E+02  0.00000000000E+00 0.  1.
         11    1    3    3    0    0  0.21217463126E+02 -0.10764056687E+02 -0.97813160817E+00  0.23811812186E+02  0.51100000000E-03 0. -1.
        -11    1    3    3    0    0  0.97478328198E+01 -0.10810169549E+02 -0.21577039595E+00  0.14557697877E+02  0.51100000000E-03 0.  1.
        -12    1    3    3    0    0  0.77017413460E+01  0.22240379103E+01  0.49427715167E+01  0.94177574111E+01  0.00000000000E+00 0.  1.
</event>
<event>
 7    1  0.2458979E-009  0.4778727E+02  0.7816164E-02  0.1312668E+00
        -11   -1    0    0    0    0  0.00000000000E+00  0.00000000000E+00  0.45593999997E+02  0.45594000000E+02  0.51100000000E-03 0. -1.
         11   -1    0    0    0    0 -0.00000000000E+00 -0.00000000000E+00 -0.45593999997E+02  0.45594000000E+02  0.51100000000E-03 0.  1.
    9900012    2    1    2    0    0  0.42611412141E+02 -0.63724297961E+01  0.52233393380E+01  0.47787267518E+02  0.19999983921E+02 0.  0.
        -12    1    1    2    0    0 -0.42611412141E+02  0.63724297961E+01 -0.52233393380E+01  0.43400732482E+02  0.00000000000E+00 0.  1.
         11    1    3    3    0    0  0.95213485505E+01 -0.87770449036E+01  0.29537242434E+00  0.12952985779E+02  0.51100000000E-03 0.  1.
        -11    1    3    3    0    0  0.15135727246E+02  0.53431005884E+01  0.26635016292E+00  0.16053345628E+02  0.51100000000E-03 0. -1.
        -12    1    3    3    0    0  0.17954336344E+02 -0.29384854809E+01  0.46616167507E+01  0.18780936111E+02  0.00000000000E+00 0.  1.
</event>
<event>
 7    1  0.2458979E-009  0.4778727E+02  0.7816164E-02  0.1312668E+00
        -11   -1    0    0    0    0  0.00000000000E+00  0.00000000000E+00  0.45593999997E+02  0.45594000000E+02  0.51100000000E-03 0.  1.
         11   -1    0    0    0    0 -0.00000000000E+00 -0.00000000000E+00 -0.45593999997E+02  0.45594000000E+02  0.51100000000E-03 0. -1.
    9900012    2    1    2    0    0  0.40724610799E+02  0.29220355824E+01 -0.14717032924E+02  0.47787271034E+02  0.19999999953E+02 0.  0.
        -12    1    1    2    0    0 -0.40724610799E+02 -0.29220355824E+01  0.14717032924E+02  0.43400728966E+02  0.00000000000E+00 0.  1.
         11    1    3    3    0    0  0.18573326189E+02  0.10335886524E+02 -0.92045462754E+01  0.23162958973E+02  0.51100000000E-03 0. -1.
        -11    1    3    3    0    0  0.17538689326E+02 -0.40377289474E+01 -0.25224479287E+01  0.18173376740E+02  0.51100000000E-03 0.  1.
         12    1    3    3    0    0  0.46125952838E+01 -0.33761219945E+01 -0.29900387194E+01  0.64509353211E+01  0.00000000000E+00 0. -1.
</event>
<event>
 7    1  0.2458979E-009  0.4778727E+02  0.7816164E-02  0.1312668E+00
        -11   -1    0    0    0    0  0.00000000000E+00  0.00000000000E+00  0.45593999997E+02  0.45594000000E+02  0.51100000000E-03 0.  1.
         11   -1    0    0    0    0 -0.00000000000E+00 -0.00000000000E+00 -0.45593999997E+02  0.45594000000E+02  0.51100000000E-03 0. -1.
    9900012    2    1    2    0    0  0.14208192968E+02 -0.24465645193E+02 -0.32911745758E+02  0.47787267852E+02  0.19999985443E+02 0.  0.
        -12    1    1    2    0    0 -0.14208192968E+02  0.24465645193E+02  0.32911745758E+02  0.43400732148E+02  0.00000000000E+00 0.  1.
         11    1    3    3    0    0  0.32072179381E+00 -0.67639687858E+01 -0.57754906821E+01  0.89000241058E+01  0.51100000000E-03 0. -1.
        -11    1    3    3    0    0  0.16514341231E+02 -0.13609433491E+02 -0.26376296398E+02  0.33965411203E+02  0.51100000000E-03 0.  1.
        -12    1    3    3    0    0 -0.26268700570E+01 -0.40922429166E+01 -0.75995867807E+00  0.49218325426E+01  0.00000000000E+00 0.  1.
</event>
<event>
 7    1  0.2458979E-009  0.4778727E+02  0.7816164E-02  0.1312668E+00
        -11   -1    0    0    0    0  0.00000000000E+00  0.00000000000E+00  0.45593999997E+02  0.45594000000E+02  0.51100000000E-03 0.  1.
         11   -1    0    0    0    0 -0.00000000000E+00 -0.00000000000E+00 -0.45593999997E+02  0.45594000000E+02  0.51100000000E-03 0. -1.
    9900012    2    1    2    0    0  0.39327395450E+02  0.18207375379E+02  0.23390319094E+01  0.47787267041E+02  0.19999981747E+02 0.  0.
        -12    1    1    2    0    0 -0.39327395450E+02 -0.18207375379E+02 -0.23390319094E+01  0.43400732959E+02  0.00000000000E+00 0.  1.
         11    1    3    3    0    0  0.13822587044E+02  0.90422231749E+01 -0.21479968564E+01  0.16656518342E+02  0.51100000000E-03 0. -1.
        -11    1    3    3    0    0  0.20904510295E+02  0.12576808043E+02  0.61642100998E+01  0.25162911947E+02  0.51100000000E-03 0.  1.
        -12    1    3    3    0    0  0.46002981108E+01 -0.34116558385E+01 -0.16771813340E+01  0.59678367518E+01  0.00000000000E+00 0.  1.
</event>
<event>
 7    1  0.2458979E-009  0.4778727E+02  0.7816164E-02  0.1312668E+00
        -11   -1    0    0    0    0  0.00000000000E+00  0.00000000000E+00  0.45593999997E+02  0.45594000000E+02  0.51100000000E-03 0.  1.
         11   -1    0    0    0    0 -0.00000000000E+00 -0.00000000000E+00 -0.45593999997E+02  0.45594000000E+02  0.51100000000E-03 0. -1.
    9900012    2    1    2    0    0  0.38006915194E+02  0.18308282365E+02 -0.10193355164E+02  0.47787270799E+02  0.19999998881E+02 0.  0.
        -12    1    1    2    0    0 -0.38006915194E+02 -0.18308282365E+02  0.10193355164E+02  0.43400729201E+02  0.00000000000E+00 0.  1.
         11    1    3    3    0    0  0.21375139326E+02  0.13745015314E+02 -0.70289594958E+01  0.26367182236E+02  0.51100000000E-03 0. -1.
        -11    1    3    3    0    0 -0.11746782390E+01  0.72285435598E+00 -0.28898546902E+01  0.32021317551E+01  0.51100000000E-03 0.  1.
        -12    1    3    3    0    0  0.17806454107E+02  0.38404126945E+01 -0.27454097758E+00  0.18217956808E+02  0.00000000000E+00 0.  1.
</event>
<event>
 7    1  0.2458979E-009  0.4778727E+02  0.7816164E-02  0.1312668E+00
        -11   -1    0    0    0    0  0.00000000000E+00  0.00000000000E+00  0.45593999997E+02  0.45594000000E+02  0.51100000000E-03 0.  1.
         11   -1    0    0    0    0 -0.00000000000E+00 -0.00000000000E+00 -0.45593999997E+02  0.45594000000E+02  0.51100000000E-03 0. -1.
    9900012    2    1    2    0    0  0.39175841735E+01 -0.38254521413E+02 -0.20121321136E+02  0.47787269148E+02  0.19999991353E+02 0.  0.
        -12    1    1    2    0    0 -0.39175841735E+01  0.38254521413E+02  0.20121321136E+02  0.43400730852E+02  0.00000000000E+00 0.  1.
         11    1    3    3    0    0 -0.66171974293E+01 -0.20311188528E+02 -0.14030638701E+02  0.25557591903E+02  0.51100000000E-03 0. -1.
        -11    1    3    3    0    0  0.85684995267E+01 -0.17300970858E+02 -0.56261823196E+01  0.20109617215E+02  0.51100000000E-03 0.  1.
         12    1    3    3    0    0  0.19662820761E+01 -0.64236202633E+00 -0.46450011490E+00  0.21200600304E+01  0.00000000000E+00 0. -1.
</event>
<event>
 7    1  0.2458979E-009  0.4778727E+02  0.7816164E-02  0.1312668E+00
        -11   -1    0    0    0    0  0.00000000000E+00  0.00000000000E+00  0.45593999997E+02  0.45594000000E+02  0.51100000000E-03 0. -1.
         11   -1    0    0    0    0 -0.00000000000E+00 -0.00000000000E+00 -0.45593999997E+02  0.45594000000E+02  0.51100000000E-03 0.  1.
    9900012    2    1    2    0    0  0.18712518579E+02 -0.28070557175E+02  0.27304002083E+02  0.47787273492E+02  0.20000011158E+02 0.  0.
        -12    1    1    2    0    0 -0.18712518579E+02  0.28070557175E+02 -0.27304002083E+02  0.43400726508E+02  0.00000000000E+00 0.  1.
         11    1    3    3    0    0  0.32858263302E+01 -0.96832682022E+01  0.81047941825E+01  0.13047989376E+02  0.51100000000E-03 0. -1.
        -11    1    3    3    0    0  0.55989909296E+01 -0.15973813250E+02  0.17731625526E+02  0.24513709496E+02  0.51100000000E-03 0.  1.
        -12    1    3    3    0    0  0.98277013195E+01 -0.24134757227E+01  0.14675823742E+01  0.10225574620E+02  0.00000000000E+00 0.  1.
</event>
<event>
 7    1  0.2458979E-009  0.4778727E+02  0.7816164E-02  0.1312668E+00
        -11   -1    0    0    0    0  0.00000000000E+00  0.00000000000E+00  0.45593999997E+02  0.45594000000E+02  0.51100000000E-03 0. -1.
         11   -1    0    0    0    0 -0.00000000000E+00 -0.00000000000E+00 -0.45593999997E+02  0.45594000000E+02  0.51100000000E-03 0.  1.
    9900012    2    1    2    0    0 -0.95985422922E+01  0.28593823574E+02  0.31207123308E+02  0.47787270676E+02  0.19999998319E+02 0.  0.
        -12    1    1    2    0    0  0.95985422922E+01 -0.28593823574E+02 -0.31207123308E+02  0.43400729324E+02  0.00000000000E+00 0.  1.
         11    1    3    3    0    0 -0.44927642353E+01  0.65188164132E+01  0.20802119270E+02  0.22257764135E+02  0.51100000000E-03 0. -1.
        -11    1    3    3    0    0 -0.42124049825E+01  0.19042002906E+02  0.10880350421E+02  0.22332135052E+02  0.51100000000E-03 0.  1.
         12    1    3    3    0    0 -0.89337307438E+00  0.30330042545E+01 -0.47534638272E+00  0.31973714894E+01  0.00000000000E+00 0. -1.
</event>
<event>
 7    1  0.2458979E-009  0.4778727E+02  0.7816164E-02  0.1312668E+00
        -11   -1    0    0    0    0  0.00000000000E+00  0.00000000000E+00  0.45593999997E+02  0.45594000000E+02  0.51100000000E-03 0.  1.
         11   -1    0    0    0    0 -0.00000000000E+00 -0.00000000000E+00 -0.45593999997E+02  0.45594000000E+02  0.51100000000E-03 0. -1.
    9900012    2    1    2    0    0  0.12526567646E+02 -0.23604954040E+02 -0.34198165054E+02  0.47787271374E+02  0.20000001502E+02 0.  0.
        -12    1    1    2    0    0 -0.12526567646E+02  0.23604954040E+02  0.34198165054E+02  0.43400728626E+02  0.00000000000E+00 0.  1.
         11    1    3    3    0    0  0.31999673750E+01 -0.10116126953E+02 -0.99097678592E+01  0.14518240768E+02  0.51100000000E-03 0. -1.
        -11    1    3    3    0    0  0.12391976959E+02 -0.89422331274E+01 -0.10811588620E+02  0.18719376993E+02  0.51100000000E-03 0.  1.
        -12    1    3    3    0    0 -0.30653766880E+01 -0.45465939595E+01 -0.13476808575E+02  0.14549653612E+02  0.00000000000E+00 0.  1.
</event>
<event>
 7    1  0.2458979E-009  0.4778727E+02  0.7816164E-02  0.1312668E+00
        -11   -1    0    0    0    0  0.00000000000E+00  0.00000000000E+00  0.45593999997E+02  0.45594000000E+02  0.51100000000E-03 0.  1.
         11   -1    0    0    0    0 -0.00000000000E+00 -0.00000000000E+00 -0.45593999997E+02  0.45594000000E+02  0.51100000000E-03 0. -1.
    9900012    2    1    2    0    0  0.15375553311E+02  0.14530126720E+02 -0.37895787715E+02  0.47787274792E+02  0.20000017085E+02 0.  0.
        -12    1    1    2    0    0 -0.15375553311E+02 -0.14530126720E+02  0.37895787715E+02  0.43400725208E+02  0.00000000000E+00 0.  1.
         11    1    3    3    0    0  0.11884223005E+02  0.11239380697E+02 -0.27440192812E+02  0.31945619680E+02  0.51100000000E-03 0. -1.
        -11    1    3    3    0    0  0.12768689056E+01 -0.27760676474E+01  0.52711804872E+00  0.31007740136E+01  0.51100000000E-03 0.  1.
        -12    1    3    3    0    0  0.22144614007E+01  0.60668136698E+01 -0.10982712951E+02  0.12740881098E+02  0.00000000000E+00 0.  1.
</event>
<event>
 7    1  0.2458979E-009  0.4778727E+02  0.7816164E-02  0.1312668E+00
        -11   -1    0    0    0    0  0.00000000000E+00  0.00000000000E+00  0.45593999997E+02  0.45594000000E+02  0.51100000000E-03 0.  1.
         11   -1    0    0    0    0 -0.00000000000E+00 -0.00000000000E+00 -0.45593999997E+02  0.45594000000E+02  0.51100000000E-03 0. -1.
    9900012    2    1    2    0    0  0.32065852511E+02  0.11147255824E+02 -0.27039657181E+02  0.47787271088E+02  0.20000000197E+02 0.  0.
        -12    1    1    2    0    0 -0.32065852511E+02 -0.11147255824E+02  0.27039657181E+02  0.43400728912E+02  0.00000000000E+00 0.  1.
         11    1    3    3    0    0  0.39392808029E+01 -0.44745656473E+01 -0.11899295671E+01  0.60791120743E+01  0.51100000000E-03 0. -1.
        -11    1    3    3    0    0  0.15726005009E+02  0.67326152517E+01 -0.10535328705E+02  0.20090507532E+02  0.51100000000E-03 0.  1.
         12    1    3    3    0    0  0.12400566699E+02  0.88892062193E+01 -0.15314398908E+02  0.21617651482E+02  0.00000000000E+00 0. -1.
</event>
<event>
 7    1  0.2458979E-009  0.4778727E+02  0.7816164E-02  0.1312668E+00
        -11   -1    0    0    0    0  0.00000000000E+00  0.00000000000E+00  0.45593999997E+02  0.45594000000E+02  0.51100000000E-03 0.  1.
         11   -1    0    0    0    0 -0.00000000000E+00 -0.00000000000E+00 -0.45593999997E+02  0.45594000000E+02  0.51100000000E-03 0. -1.
    9900012    2    1    2    0    0  0.19480002980E+02  0.31721716393E+02 -0.22313354208E+02  0.47787267483E+02  0.19999983761E+02 0.  0.
        -12    1    1    2    0    0 -0.19480002980E+02 -0.31721716393E+02  0.22313354208E+02  0.43400732517E+02  0.00000000000E+00 0.  1.
         11    1    3    3    0    0  0.15485453014E+02  0.30753156653E+02 -0.16781148296E+02  0.38303561682E+02  0.51100000000E-03 0. -1.
        -11    1    3    3    0    0  0.92711918195E-01 -0.79887344922E+00 -0.51173805217E+01  0.51801909185E+01  0.51100000000E-03 0.  1.
         12    1    3    3    0    0  0.39018380486E+01  0.17674331893E+01 -0.41482539036E+00  0.43035148821E+01  0.00000000000E+00 0. -1.
</event>
<event>
 7    1  0.2458979E-009  0.4778727E+02  0.7816164E-02  0.1312668E+00
        -11   -1    0    0    0    0  0.00000000000E+00  0.00000000000E+00  0.45593999997E+02  0.45594000000E+02  0.51100000000E-03 0.  1.
         11   -1    0    0    0    0 -0.00000000000E+00 -0.00000000000E+00 -0.45593999997E+02  0.45594000000E+02  0.51100000000E-03 0. -1.
    9900012    2    1    2    0    0 -0.10243888347E+01  0.32392346485E+02 -0.28867106225E+02  0.47787270684E+02  0.19999998358E+02 0.  0.
        -12    1    1    2    0    0  0.10243888347E+01 -0.32392346485E+02  0.28867106225E+02  0.43400729316E+02  0.00000000000E+00 0.  1.
         11    1    3    3    0    0  0.17754742290E+01  0.13034240971E+02 -0.60557560200E+01  0.14481572002E+02  0.51100000000E-03 0. -1.
        -11    1    3    3    0    0 -0.78586449941E+01  0.84482421959E+01 -0.15163363425E+02  0.19054098981E+02  0.51100000000E-03 0.  1.
        -12    1    3    3    0    0  0.50587819304E+01  0.10909863319E+02 -0.76479867798E+01  0.14251599701E+02  0.00000000000E+00 0.  1.
</event>
<event>
 7    1  0.2458979E-009  0.4778727E+02  0.7816164E-02  0.1312668E+00
        -11   -1    0    0    0    0  0.00000000000E+00  0.00000000000E+00  0.45593999997E+02  0.45594000000E+02  0.51100000000E-03 0.  1.
         11   -1    0    0    0    0 -0.00000000000E+00 -0.00000000000E+00 -0.45593999997E+02  0.45594000000E+02  0.51100000000E-03 0. -1.
    9900012    2    1    2    0    0 -0.28444968866E+01  0.42394874617E+02 -0.88434426617E+01  0.47787273802E+02  0.20000012575E+02 0.  0.
        -12    1    1    2    0    0  0.28444968866E+01 -0.42394874617E+02  0.88434426617E+01  0.43400726198E+02  0.00000000000E+00 0.  1.
         11    1    3    3    0    0 -0.29708774155E+01  0.26235854483E+02  0.98000753300E+00  0.26421706760E+02  0.51100000000E-03 0. -1.
        -11    1    3    3    0    0 -0.25299701205E+01  0.14588217723E+01 -0.47750011780E+01  0.55972802579E+01  0.51100000000E-03 0.  1.
        -12    1    3    3    0    0  0.26563506494E+01  0.14700198362E+02 -0.50484490167E+01  0.15768286785E+02  0.00000000000E+00 0.  1.
</event>
<event>
 7    1  0.2458979E-009  0.4778727E+02  0.7816164E-02  0.1312668E+00
        -11   -1    0    0    0    0  0.00000000000E+00  0.00000000000E+00  0.45593999997E+02  0.45594000000E+02  0.51100000000E-03 0.  1.
         11   -1    0    0    0    0 -0.00000000000E+00 -0.00000000000E+00 -0.45593999997E+02  0.45594000000E+02  0.51100000000E-03 0. -1.
    9900012    2    1    2    0    0  0.53039141830E+01  0.19226373470E+02 -0.38546574420E+02  0.47787270259E+02  0.19999996421E+02 0.  0.
        -12    1    1    2    0    0 -0.53039141830E+01 -0.19226373470E+02  0.38546574420E+02  0.43400729741E+02  0.00000000000E+00 0.  1.
         11    1    3    3    0    0 -0.22281296165E+01  0.15423890466E+02 -0.16766932560E+02  0.22890849404E+02  0.51100000000E-03 0. -1.
        -11    1    3    3    0    0  0.32645114047E+00 -0.21887312885E+01 -0.18916758068E+01  0.29112802372E+01  0.51100000000E-03 0.  1.
         12    1    3    3    0    0  0.72055926589E+01  0.59912142927E+01 -0.19887966054E+02  0.21985140619E+02  0.00000000000E+00 0. -1.
</event>
<event>
 7    1  0.2458979E-009  0.4778727E+02  0.7816164E-02  0.1312668E+00
        -11   -1    0    0    0    0  0.00000000000E+00  0.00000000000E+00  0.45593999997E+02  0.45594000000E+02  0.51100000000E-03 0.  1.
         11   -1    0    0    0    0 -0.00000000000E+00 -0.00000000000E+00 -0.45593999997E+02  0.45594000000E+02  0.51100000000E-03 0. -1.
    9900012    2    1    2    0    0 -0.48748945180E+01 -0.31853064300E+02 -0.29073026925E+02  0.47787271937E+02  0.20000004069E+02 0.  0.
        -12    1    1    2    0    0  0.48748945180E+01  0.31853064300E+02  0.29073026925E+02  0.43400728063E+02  0.00000000000E+00 0.  1.
         11    1    3    3    0    0 -0.96508532356E+01 -0.23483675207E+02 -0.20683739755E+02  0.32748115365E+02  0.51100000000E-03 0. -1.
        -11    1    3    3    0    0  0.43860717964E+01 -0.61900339169E+01 -0.98155128673E+01  0.12405580954E+02  0.51100000000E-03 0.  1.
         12    1    3    3    0    0  0.38988692115E+00 -0.21793551762E+01  0.14262256981E+01  0.26335756183E+01  0.00000000000E+00 0. -1.
</event>
<event>
 7    1  0.2458979E-009  0.4778727E+02  0.7816164E-02  0.1312668E+00
        -11   -1    0    0    0    0  0.00000000000E+00  0.00000000000E+00  0.45593999997E+02  0.45594000000E+02  0.51100000000E-03 0.  1.
         11   -1    0    0    0    0 -0.00000000000E+00 -0.00000000000E+00 -0.45593999997E+02  0.45594000000E+02  0.51100000000E-03 0. -1.
    9900012    2    1    2    0    0  0.23764318172E+01  0.36400432669E+01 -0.43182470558E+02  0.47787272971E+02  0.20000008785E+02 0.  0.
        -12    1    1    2    0    0 -0.23764318172E+01 -0.36400432669E+01  0.43182470558E+02  0.43400727029E+02  0.00000000000E+00 0.  1.
         11    1    3    3    0    0 -0.17660698873E+01  0.41320226982E+01 -0.22598613634E+02  0.23041049300E+02  0.51100000000E-03 0. -1.
        -11    1    3    3    0    0  0.86092187263E+01  0.12983336968E+01 -0.11061105419E+02  0.14076660500E+02  0.51100000000E-03 0.  1.
        -12    1    3    3    0    0 -0.44667170219E+01 -0.17903131280E+01 -0.95227515042E+01  0.10669563171E+02  0.00000000000E+00 0.  1.
</event>
<event>
 7    1  0.2458979E-009  0.4778727E+02  0.7816164E-02  0.1312668E+00
        -11   -1    0    0    0    0  0.00000000000E+00  0.00000000000E+00  0.45593999997E+02  0.45594000000E+02  0.51100000000E-03 0.  1.
         11   -1    0    0    0    0 -0.00000000000E+00 -0.00000000000E+00 -0.45593999997E+02  0.45594000000E+02  0.51100000000E-03 0. -1.
    9900012    2    1    2    0    0 -0.21190024107E+02 -0.12740251583E+01 -0.37854760161E+02  0.47787272718E+02  0.20000007630E+02 0.  0.
        -12    1    1    2    0    0  0.21190024107E+02  0.12740251583E+01  0.37854760161E+02  0.43400727282E+02  0.00000000000E+00 0.  1.
         11    1    3    3    0    0  0.16149288994E+01  0.10526547971E+01 -0.13611940034E+02  0.13747763063E+02  0.51100000000E-03 0. -1.
        -11    1    3    3    0    0 -0.18996538214E+02  0.55023893256E+00 -0.20660209644E+02  0.28071613594E+02  0.51100000000E-03 0.  1.
         12    1    3    3    0    0 -0.38084147929E+01 -0.28769188880E+01 -0.35826104832E+01  0.59678960612E+01  0.00000000000E+00 0. -1.
</event>
<event>
 7    1  0.2458979E-009  0.4778727E+02  0.7816164E-02  0.1312668E+00
        -11   -1    0    0    0    0  0.00000000000E+00  0.00000000000E+00  0.45593999997E+02  0.45594000000E+02  0.51100000000E-03 0. -1.
         11   -1    0    0    0    0 -0.00000000000E+00 -0.00000000000E+00 -0.45593999997E+02  0.45594000000E+02  0.51100000000E-03 0.  1.
    9900012    2    1    2    0    0 -0.28268957584E+02  0.32114532933E+02  0.72901281646E+01  0.47787272390E+02  0.20000006135E+02 0.  0.
        -12    1    1    2    0    0  0.28268957584E+02 -0.32114532933E+02 -0.72901281646E+01  0.43400727610E+02  0.00000000000E+00 0.  1.
         11    1    3    3    0    0 -0.28695050028E+02  0.27012033341E+02  0.74864735543E+01  0.40113627708E+02  0.51100000000E-03 0. -1.
        -11    1    3    3    0    0 -0.72620538029E+00  0.39465856704E+00 -0.22595511505E+01  0.24059720077E+01  0.51100000000E-03 0.  1.
         12    1    3    3    0    0  0.11522978241E+01  0.47078410255E+01  0.20632057608E+01  0.52676726747E+01  0.00000000000E+00 0. -1.
</event>
<event>
 7    1  0.2458979E-009  0.4778728E+02  0.7816164E-02  0.1312668E+00
        -11   -1    0    0    0    0  0.00000000000E+00  0.00000000000E+00  0.45593999997E+02  0.45594000000E+02  0.51100000000E-03 0.  1.
         11   -1    0    0    0    0 -0.00000000000E+00 -0.00000000000E+00 -0.45593999997E+02  0.45594000000E+02  0.51100000000E-03 0. -1.
    9900012    2    1    2    0    0  0.13995260677E+02 -0.20925306982E+02 -0.35353740845E+02  0.47787276672E+02  0.20000025658E+02 0.  0.
        -12    1    1    2    0    0 -0.13995260677E+02  0.20925306982E+02  0.35353740845E+02  0.43400723328E+02  0.00000000000E+00 0.  1.
         11    1    3    3    0    0  0.28967951525E+01 -0.13473263441E+02 -0.21351835324E+02  0.25413010878E+02  0.51100000000E-03 0. -1.
        -11    1    3    3    0    0  0.12262320127E+02 -0.89587813685E+01 -0.10750275568E+02  0.18606253883E+02  0.51100000000E-03 0.  1.
        -12    1    3    3    0    0 -0.11638546028E+01  0.15067378272E+01 -0.32516299521E+01  0.37680119111E+01  0.00000000000E+00 0.  1.
</event>
<event>
 7    1  0.2458979E-009  0.4778727E+02  0.7816164E-02  0.1312668E+00
        -11   -1    0    0    0    0  0.00000000000E+00  0.00000000000E+00  0.45593999997E+02  0.45594000000E+02  0.51100000000E-03 0.  1.
         11   -1    0    0    0    0 -0.00000000000E+00 -0.00000000000E+00 -0.45593999997E+02  0.45594000000E+02  0.51100000000E-03 0. -1.
    9900012    2    1    2    0    0 -0.43932854397E+01  0.16123665275E+02 -0.40054333233E+02  0.47787272476E+02  0.20000006529E+02 0.  0.
        -12    1    1    2    0    0  0.43932854397E+01 -0.16123665275E+02  0.40054333233E+02  0.43400727524E+02  0.00000000000E+00 0.  1.
         11    1    3    3    0    0  0.46451346262E+00  0.14500368262E+02 -0.28588141972E+02  0.32058669875E+02  0.51100000000E-03 0. -1.
        -11    1    3    3    0    0 -0.19928043657E+01 -0.35075494288E+01 -0.78572404865E+01  0.88323496624E+01  0.51100000000E-03 0.  1.
         12    1    3    3    0    0 -0.28649945367E+01  0.51308464418E+01 -0.36089507743E+01  0.68962529388E+01  0.00000000000E+00 0. -1.
</event>
<event>
 7    1  0.2458979E-009  0.4778729E+02  0.7816164E-02  0.1312668E+00
        -11   -1    0    0    0    0  0.00000000000E+00  0.00000000000E+00  0.45593999997E+02  0.45594000000E+02  0.51100000000E-03 0. -1.
         11   -1    0    0    0    0 -0.00000000000E+00 -0.00000000000E+00 -0.45593999997E+02  0.45594000000E+02  0.51100000000E-03 0.  1.
    9900012    2    1    2    0    0  0.35483324243E+02  0.55046891151E+01  0.24377328334E+02  0.47787285279E+02  0.20000064902E+02 0.  0.
        -12    1    1    2    0    0 -0.35483324243E+02 -0.55046891151E+01 -0.24377328334E+02  0.43400714721E+02  0.00000000000E+00 0.  1.
         11    1    3    3    0    0  0.20374167970E+02  0.11914466157E+02  0.15543576608E+02  0.28260643982E+02  0.51100000000E-03 0. -1.
        -11    1    3    3    0    0  0.29817605673E+01 -0.40978827613E+01  0.25024224667E+01  0.56520489797E+01  0.51100000000E-03 0.  1.
         12    1    3    3    0    0  0.12127395706E+02 -0.23118942809E+01  0.63313292598E+01  0.13874592317E+02  0.00000000000E+00 0. -1.
</event>
<event>
 7    1  0.2458979E-009  0.4778725E+02  0.7816164E-02  0.1312668E+00
        -11   -1    0    0    0    0  0.00000000000E+00  0.00000000000E+00  0.45593999997E+02  0.45594000000E+02  0.51100000000E-03 0. -1.
         11   -1    0    0    0    0 -0.00000000000E+00 -0.00000000000E+00 -0.45593999997E+02  0.45594000000E+02  0.51100000000E-03 0.  1.
    9900012    2    1    2    0    0  0.35756986876E+02 -0.23615041826E+02  0.68842450794E+01  0.47787249532E+02  0.19999901915E+02 0.  0.
        -12    1    1    2    0    0 -0.35756986876E+02  0.23615041826E+02 -0.68842450794E+01  0.43400750468E+02  0.00000000000E+00 0.  1.
         11    1    3    3    0    0 -0.11296965296E+01 -0.38100495840E+01 -0.10513012191E+01  0.41107087705E+01  0.51100000000E-03 0. -1.
        -11    1    3    3    0    0  0.47163207053E+00 -0.55649272469E+00  0.19153843097E+01  0.20495897827E+01  0.51100000000E-03 0.  1.
         12    1    3    3    0    0  0.36415051335E+02 -0.19248499517E+02  0.60201619888E+01  0.41626950979E+02  0.00000000000E+00 0. -1.
</event>
<event>
 7    1  0.2458979E-009  0.4778727E+02  0.7816164E-02  0.1312668E+00
        -11   -1    0    0    0    0  0.00000000000E+00  0.00000000000E+00  0.45593999997E+02  0.45594000000E+02  0.51100000000E-03 0.  1.
         11   -1    0    0    0    0 -0.00000000000E+00 -0.00000000000E+00 -0.45593999997E+02  0.45594000000E+02  0.51100000000E-03 0. -1.
    9900012    2    1    2    0    0 -0.26376502308E+02 -0.24733117050E+02 -0.24003668342E+02  0.47787273660E+02  0.20000011925E+02 0.  0.
        -12    1    1    2    0    0  0.26376502308E+02  0.24733117050E+02  0.24003668342E+02  0.43400726340E+02  0.00000000000E+00 0.  1.
         11    1    3    3    0    0  0.19161176463E+01 -0.36361995505E+01 -0.35743006240E+00  0.41256769767E+01  0.51100000000E-03 0. -1.
        -11    1    3    3    0    0 -0.27393637431E+02 -0.16926094439E+02 -0.19158426897E+02  0.37469312324E+02  0.51100000000E-03 0.  1.
         12    1    3    3    0    0 -0.89898252324E+00 -0.41708230599E+01 -0.44878113828E+01  0.61922843589E+01  0.00000000000E+00 0. -1.
</event>
<event>
 7    1  0.2458979E-009  0.4778727E+02  0.7816164E-02  0.1312668E+00
        -11   -1    0    0    0    0  0.00000000000E+00  0.00000000000E+00  0.45593999997E+02  0.45594000000E+02  0.51100000000E-03 0.  1.
         11   -1    0    0    0    0 -0.00000000000E+00 -0.00000000000E+00 -0.45593999997E+02  0.45594000000E+02  0.51100000000E-03 0. -1.
    9900012    2    1    2    0    0  0.10807379996E+02 -0.37372811061E+02 -0.19237896744E+02  0.47787272585E+02  0.20000007026E+02 0.  0.
        -12    1    1    2    0    0 -0.10807379996E+02  0.37372811061E+02  0.19237896744E+02  0.43400727415E+02  0.00000000000E+00 0.  1.
         11    1    3    3    0    0  0.65156268389E+01 -0.22924334193E+02 -0.41071662758E+01  0.24183616487E+02  0.51100000000E-03 0. -1.
        -11    1    3    3    0    0  0.44857049507E+01 -0.11814709318E+01 -0.55748099450E+01  0.72523050578E+01  0.51100000000E-03 0.  1.
         12    1    3    3    0    0 -0.19395179380E+00 -0.13267005936E+02 -0.95559205232E+01  0.16351351041E+02  0.00000000000E+00 0. -1.
</event>
<event>
 7    1  0.2458979E-009  0.4778727E+02  0.7816164E-02  0.1312668E+00
        -11   -1    0    0    0    0  0.00000000000E+00  0.00000000000E+00  0.45593999997E+02  0.45594000000E+02  0.51100000000E-03 0.  1.
         11   -1    0    0    0    0 -0.00000000000E+00 -0.00000000000E+00 -0.45593999997E+02  0.45594000000E+02  0.51100000000E-03 0. -1.
    9900012    2    1    2    0    0  0.74490115711E+01 -0.88582822690E+01 -0.41829013184E+02  0.47787270949E+02  0.19999999567E+02 0.  0.
        -12    1    1    2    0    0 -0.74490115711E+01  0.88582822690E+01  0.41829013184E+02  0.43400729051E+02  0.00000000000E+00 0.  1.
         11    1    3    3    0    0 -0.56287364577E+01 -0.27853031086E+00 -0.74051358929E+01  0.93057128205E+01  0.51100000000E-03 0. -1.
        -11    1    3    3    0    0  0.73020084696E+01 -0.74009892944E+01 -0.27433229631E+02  0.29337281034E+02  0.51100000000E-03 0.  1.
        -12    1    3    3    0    0  0.57757395592E+01 -0.11787626638E+01 -0.69906476608E+01  0.91442770950E+01  0.00000000000E+00 0.  1.
</event>
<event>
 7    1  0.2458979E-009  0.4778727E+02  0.7816164E-02  0.1312668E+00
        -11   -1    0    0    0    0  0.00000000000E+00  0.00000000000E+00  0.45593999997E+02  0.45594000000E+02  0.51100000000E-03 0. -1.
         11   -1    0    0    0    0 -0.00000000000E+00 -0.00000000000E+00 -0.45593999997E+02  0.45594000000E+02  0.51100000000E-03 0.  1.
    9900012    2    1    2    0    0 -0.13534438850E+02  0.34070926947E+02  0.23229593251E+02  0.47787273040E+02  0.20000009100E+02 0.  0.
        -12    1    1    2    0    0  0.13534438850E+02 -0.34070926947E+02 -0.23229593251E+02  0.43400726960E+02  0.00000000000E+00 0.  1.
         11    1    3    3    0    0 -0.56382387911E+01  0.74931267768E+01  0.54653647781E+01  0.10853888611E+02  0.51100000000E-03 0. -1.
        -11    1    3    3    0    0 -0.13116715429E+01  0.37785496160E+01  0.11806957533E+02  0.12466040506E+02  0.51100000000E-03 0.  1.
        -12    1    3    3    0    0 -0.65845285162E+01  0.22799250555E+02  0.59572709391E+01  0.24467343923E+02  0.00000000000E+00 0.  1.
</event>
<event>
 7    1  0.2458979E-009  0.4778727E+02  0.7816164E-02  0.1312668E+00
        -11   -1    0    0    0    0  0.00000000000E+00  0.00000000000E+00  0.45593999997E+02  0.45594000000E+02  0.51100000000E-03 0.  1.
         11   -1    0    0    0    0 -0.00000000000E+00 -0.00000000000E+00 -0.45593999997E+02  0.45594000000E+02  0.51100000000E-03 0. -1.
    9900012    2    1    2    0    0  0.26800273470E+02  0.29472740329E+02 -0.17225738534E+02  0.47787272488E+02  0.20000006582E+02 0.  0.
        -12    1    1    2    0    0 -0.26800273470E+02 -0.29472740329E+02  0.17225738534E+02  0.43400727512E+02  0.00000000000E+00 0.  1.
         11    1    3    3    0    0  0.15145209306E+02  0.85053004209E+01 -0.41436775820E+01  0.17857423228E+02  0.51100000000E-03 0. -1.
        -11    1    3    3    0    0  0.41109368776E+01  0.18220283694E+02 -0.73852037379E+01  0.20085312405E+02  0.51100000000E-03 0.  1.
        -12    1    3    3    0    0  0.75441272864E+01  0.27471562135E+01 -0.56968572139E+01  0.98445368550E+01  0.00000000000E+00 0.  1.
</event>
<event>
 7    1  0.2458979E-009  0.4778727E+02  0.7816164E-02  0.1312668E+00
        -11   -1    0    0    0    0  0.00000000000E+00  0.00000000000E+00  0.45593999997E+02  0.45594000000E+02  0.51100000000E-03 0.  1.
         11   -1    0    0    0    0 -0.00000000000E+00 -0.00000000000E+00 -0.45593999997E+02  0.45594000000E+02  0.51100000000E-03 0. -1.
    9900012    2    1    2    0    0 -0.26932438579E+02 -0.14216096089E+02 -0.30921993352E+02  0.47787270644E+02  0.19999998174E+02 0.  0.
        -12    1    1    2    0    0  0.26932438579E+02  0.14216096089E+02  0.30921993352E+02  0.43400729356E+02  0.00000000000E+00 0.  1.
         11    1    3    3    0    0 -0.20971143036E+02 -0.12789485434E+02 -0.16441842123E+02  0.29558314406E+02  0.51100000000E-03 0.  1.
        -11    1    3    3    0    0 -0.42628750805E+01 -0.17771034569E+00 -0.15362216488E+02  0.15943694071E+02  0.51100000000E-03 0. -1.
        -12    1    3    3    0    0 -0.16984204626E+01 -0.12489003091E+01  0.88206525971E+00  0.22852621671E+01  0.00000000000E+00 0.  1.
</event>
<event>
 7    1  0.2458979E-009  0.4778727E+02  0.7816164E-02  0.1312668E+00
        -11   -1    0    0    0    0  0.00000000000E+00  0.00000000000E+00  0.45593999997E+02  0.45594000000E+02  0.51100000000E-03 0.  1.
         11   -1    0    0    0    0 -0.00000000000E+00 -0.00000000000E+00 -0.45593999997E+02  0.45594000000E+02  0.51100000000E-03 0. -1.
    9900012    2    1    2    0    0  0.15712292218E+02 -0.32742487029E+02 -0.23762925582E+02  0.47787271713E+02  0.20000003050E+02 0.  0.
        -12    1    1    2    0    0 -0.15712292218E+02  0.32742487029E+02  0.23762925582E+02  0.43400728287E+02  0.00000000000E+00 0.  1.
         11    1    3    3    0    0  0.85730562513E+01 -0.77442373560E+01 -0.72583039965E+01  0.13643807492E+02  0.51100000000E-03 0. -1.
        -11    1    3    3    0    0 -0.26648041579E+01 -0.97147040467E+01 -0.74625424683E+00  0.10101165852E+02  0.51100000000E-03 0.  1.
        -12    1    3    3    0    0  0.98040401244E+01 -0.15283545627E+02 -0.15758367338E+02  0.24042298369E+02  0.00000000000E+00 0.  1.
</event>
<event>
 7    1  0.2458979E-009  0.4778727E+02  0.7816164E-02  0.1312668E+00
        -11   -1    0    0    0    0  0.00000000000E+00  0.00000000000E+00  0.45593999997E+02  0.45594000000E+02  0.51100000000E-03 0.  1.
         11   -1    0    0    0    0 -0.00000000000E+00 -0.00000000000E+00 -0.45593999997E+02  0.45594000000E+02  0.51100000000E-03 0. -1.
    9900012    2    1    2    0    0  0.56165942174E+01  0.19650703214E+02 -0.38287428804E+02  0.47787268764E+02  0.19999989601E+02 0.  0.
        -12    1    1    2    0    0 -0.56165942174E+01 -0.19650703214E+02  0.38287428804E+02  0.43400731236E+02  0.00000000000E+00 0.  1.
         11    1    3    3    0    0  0.56640126177E+00  0.40777476852E+01 -0.78327124152E+01  0.88487411881E+01  0.51100000000E-03 0. -1.
        -11    1    3    3    0    0 -0.60677358704E+00  0.10721749803E+02 -0.40089023810E+01  0.11462782890E+02  0.51100000000E-03 0.  1.
        -12    1    3    3    0    0  0.56569665427E+01  0.48512057257E+01 -0.26445814008E+02  0.27475744685E+02  0.00000000000E+00 0.  1.
</event>
<event>
 7    1  0.2458979E-009  0.4778727E+02  0.7816164E-02  0.1312668E+00
        -11   -1    0    0    0    0  0.00000000000E+00  0.00000000000E+00  0.45593999997E+02  0.45594000000E+02  0.51100000000E-03 0. -1.
         11   -1    0    0    0    0 -0.00000000000E+00 -0.00000000000E+00 -0.45593999997E+02  0.45594000000E+02  0.51100000000E-03 0.  1.
    9900012    2    1    2    0    0 -0.27938730057E+02 -0.91475784462E+01  0.31927614243E+02  0.47787269823E+02  0.19999994432E+02 0.  0.
        -12    1    1    2    0    0  0.27938730057E+02  0.91475784462E+01 -0.31927614243E+02  0.43400730177E+02  0.00000000000E+00 0.  1.
         11    1    3    3    0    0 -0.14333045638E+02 -0.89297344127E+01  0.10610717280E+02  0.19944013523E+02  0.51100000000E-03 0. -1.
        -11    1    3    3    0    0 -0.15560153966E+01  0.46374900090E+01  0.65559151890E+01  0.81797018115E+01  0.51100000000E-03 0.  1.
        -12    1    3    3    0    0 -0.12049669022E+02 -0.48553340424E+01  0.14760981774E+02  0.19663554489E+02  0.00000000000E+00 0.  1.
</event>
<event>
 7    1  0.2458979E-009  0.4778726E+02  0.7816164E-02  0.1312668E+00
        -11   -1    0    0    0    0  0.00000000000E+00  0.00000000000E+00  0.45593999997E+02  0.45594000000E+02  0.51100000000E-03 0.  1.
         11   -1    0    0    0    0 -0.00000000000E+00 -0.00000000000E+00 -0.45593999997E+02  0.45594000000E+02  0.51100000000E-03 0. -1.
    9900012    2    1    2    0    0 -0.17178968188E+02  0.22778131671E+02 -0.32705712358E+02  0.47787264392E+02  0.19999969671E+02 0.  0.
        -12    1    1    2    0    0  0.17178968188E+02 -0.22778131671E+02  0.32705712358E+02  0.43400735608E+02  0.00000000000E+00 0.  1.
         11    1    3    3    0    0 -0.15110193853E+02  0.76694198026E+01 -0.12314278673E+02  0.20947062273E+02  0.51100000000E-03 0.  1.
        -11    1    3    3    0    0 -0.29275032751E+01  0.13128042435E+02 -0.11518801286E+02  0.17708714152E+02  0.51100000000E-03 0. -1.
         12    1    3    3    0    0  0.85872893971E+00  0.19806694328E+01 -0.88726323992E+01  0.91314879666E+01  0.00000000000E+00 0. -1.
</event>
<event>
 7    1  0.2458979E-009  0.4778727E+02  0.7816164E-02  0.1312668E+00
        -11   -1    0    0    0    0  0.00000000000E+00  0.00000000000E+00  0.45593999997E+02  0.45594000000E+02  0.51100000000E-03 0.  1.
         11   -1    0    0    0    0 -0.00000000000E+00 -0.00000000000E+00 -0.45593999997E+02  0.45594000000E+02  0.51100000000E-03 0. -1.
    9900012    2    1    2    0    0 -0.10255377575E+02  0.33955487006E+02 -0.25009509066E+02  0.47787269468E+02  0.19999992811E+02 0.  0.
        -12    1    1    2    0    0  0.10255377575E+02 -0.33955487006E+02  0.25009509066E+02  0.43400730532E+02  0.00000000000E+00 0.  1.
         11    1    3    3    0    0 -0.94292066398E+00  0.14060143090E+02 -0.11736268501E+01  0.14140513546E+02  0.51100000000E-03 0. -1.
        -11    1    3    3    0    0 -0.53418771652E+01  0.42673318877E+01 -0.34604073370E+01  0.76629101709E+01  0.51100000000E-03 0.  1.
         12    1    3    3    0    0 -0.39705797458E+01  0.15628012028E+02 -0.20375474879E+02  0.25983845751E+02  0.00000000000E+00 0. -1.
</event>
<event>
 7    1  0.2458979E-009  0.4778728E+02  0.7816164E-02  0.1312668E+00
        -11   -1    0    0    0    0  0.00000000000E+00  0.00000000000E+00  0.45593999997E+02  0.45594000000E+02  0.51100000000E-03 0.  1.
         11   -1    0    0    0    0 -0.00000000000E+00 -0.00000000000E+00 -0.45593999997E+02  0.45594000000E+02  0.51100000000E-03 0. -1.
    9900012    2    1    2    0    0  0.13997442784E+02  0.33345850352E+02 -0.23994764750E+02  0.47787275633E+02  0.20000020919E+02 0.  0.
        -12    1    1    2    0    0 -0.13997442784E+02 -0.33345850352E+02  0.23994764750E+02  0.43400724367E+02  0.00000000000E+00 0.  1.
         11    1    3    3    0    0  0.95249452729E+01  0.40456871834E+01 -0.64542454961E+01  0.12196288469E+02  0.51100000000E-03 0. -1.
        -11    1    3    3    0    0  0.31707469292E+01  0.68166060596E+01 -0.86371704062E+00  0.75674144626E+01  0.51100000000E-03 0.  1.
         12    1    3    3    0    0  0.13017505819E+01  0.22483557109E+02 -0.16676802213E+02  0.28023572701E+02  0.00000000000E+00 0. -1.
</event>
<event>
 7    1  0.2458979E-009  0.4778727E+02  0.7816164E-02  0.1312668E+00
        -11   -1    0    0    0    0  0.00000000000E+00  0.00000000000E+00  0.45593999997E+02  0.45594000000E+02  0.51100000000E-03 0.  1.
         11   -1    0    0    0    0 -0.00000000000E+00 -0.00000000000E+00 -0.45593999997E+02  0.45594000000E+02  0.51100000000E-03 0. -1.
    9900012    2    1    2    0    0  0.66551340447E+01  0.19346312053E+02 -0.38276006798E+02  0.47787270794E+02  0.19999998860E+02 0.  0.
        -12    1    1    2    0    0 -0.66551340447E+01 -0.19346312053E+02  0.38276006798E+02  0.43400729206E+02  0.00000000000E+00 0.  1.
         11    1    3    3    0    0  0.19437311642E+01  0.10698997997E+02 -0.31205379954E+02  0.33045762018E+02  0.51100000000E-03 0. -1.
        -11    1    3    3    0    0  0.17326596320E+00  0.22885374070E+01  0.18033449026E+01  0.29188144265E+01  0.51100000000E-03 0.  1.
        -12    1    3    3    0    0  0.45381369173E+01  0.63587766482E+01 -0.88739717461E+01  0.11822694350E+02  0.00000000000E+00 0.  1.
</event>
<event>
 7    1  0.2458979E-009  0.4778727E+02  0.7816164E-02  0.1312668E+00
        -11   -1    0    0    0    0  0.00000000000E+00  0.00000000000E+00  0.45593999997E+02  0.45594000000E+02  0.51100000000E-03 0.  1.
         11   -1    0    0    0    0 -0.00000000000E+00 -0.00000000000E+00 -0.45593999997E+02  0.45594000000E+02  0.51100000000E-03 0. -1.
    9900012    2    1    2    0    0  0.37381312706E+02  0.22013962169E+02  0.12829955718E+01  0.47787272499E+02  0.20000006631E+02 0.  0.
        -12    1    1    2    0    0 -0.37381312706E+02 -0.22013962169E+02 -0.12829955718E+01  0.43400727501E+02  0.00000000000E+00 0.  1.
         11    1    3    3    0    0  0.21104490421E+02  0.46217822157E+01  0.71825795759E+01  0.22767297521E+02  0.51100000000E-03 0. -1.
        -11    1    3    3    0    0  0.82316566087E+01  0.12005539460E+02 -0.45073414992E+01  0.15238414481E+02  0.51100000000E-03 0.  1.
         12    1    3    3    0    0  0.80451656763E+01  0.53866404939E+01 -0.13922425049E+01  0.97815604973E+01  0.00000000000E+00 0. -1.
</event>
<event>
 7    1  0.2458979E-009  0.4778728E+02  0.7816164E-02  0.1312668E+00
        -11   -1    0    0    0    0  0.00000000000E+00  0.00000000000E+00  0.45593999997E+02  0.45594000000E+02  0.51100000000E-03 0.  1.
         11   -1    0    0    0    0 -0.00000000000E+00 -0.00000000000E+00 -0.45593999997E+02  0.45594000000E+02  0.51100000000E-03 0. -1.
    9900012    2    1    2    0    0 -0.35284070323E+02 -0.16016807239E+02 -0.19547860599E+02  0.47787278962E+02  0.20000036097E+02 0.  0.
        -12    1    1    2    0    0  0.35284070323E+02  0.16016807239E+02  0.19547860599E+02  0.43400721038E+02  0.00000000000E+00 0.  1.
         11    1    3    3    0    0 -0.68044173341E+01  0.30777920054E+01 -0.41180976449E+01  0.85282839633E+01  0.51100000000E-03 0. -1.
        -11    1    3    3    0    0 -0.14810537864E+02 -0.11976208520E+02 -0.26345326501E+01  0.19228165926E+02  0.51100000000E-03 0.  1.
         12    1    3    3    0    0 -0.13669115125E+02 -0.71183907244E+01 -0.12795230304E+02  0.20030829073E+02  0.00000000000E+00 0. -1.
</event>
<event>
 7    1  0.2458979E-009  0.4778726E+02  0.7816164E-02  0.1312668E+00
        -11   -1    0    0    0    0  0.00000000000E+00  0.00000000000E+00  0.45593999997E+02  0.45594000000E+02  0.51100000000E-03 0. -1.
         11   -1    0    0    0    0 -0.00000000000E+00 -0.00000000000E+00 -0.45593999997E+02  0.45594000000E+02  0.51100000000E-03 0.  1.
    9900012    2    1    2    0    0  0.38883898031E+02  0.35494296783E+01  0.18949094862E+02  0.47787260683E+02  0.19999952758E+02 0.  0.
        -12    1    1    2    0    0 -0.38883898031E+02 -0.35494296783E+01 -0.18949094862E+02  0.43400739317E+02  0.00000000000E+00 0.  1.
         11    1    3    3    0    0  0.99216687690E+01 -0.28034189651E+01  0.78774239109E+01  0.12975071360E+02  0.51100000000E-03 0. -1.
        -11    1    3    3    0    0  0.36299323732E+00  0.17239194410E+01  0.48776234396E+01  0.51860267074E+01  0.51100000000E-03 0.  1.
        -12    1    3    3    0    0  0.28599236025E+02  0.46289292024E+01  0.61940475119E+01  0.29626162616E+02  0.00000000000E+00 0.  1.
</event>
<event>
 7    1  0.2458979E-009  0.4778726E+02  0.7816164E-02  0.1312668E+00
        -11   -1    0    0    0    0  0.00000000000E+00  0.00000000000E+00  0.45593999997E+02  0.45594000000E+02  0.51100000000E-03 0.  1.
         11   -1    0    0    0    0 -0.00000000000E+00 -0.00000000000E+00 -0.45593999997E+02  0.45594000000E+02  0.51100000000E-03 0. -1.
    9900012    2    1    2    0    0 -0.24457538051E+02  0.26618601054E+02 -0.24018799219E+02  0.47787264920E+02  0.19999972077E+02 0.  0.
        -12    1    1    2    0    0  0.24457538051E+02 -0.26618601054E+02  0.24018799219E+02  0.43400735080E+02  0.00000000000E+00 0.  1.
         11    1    3    3    0    0 -0.12059454336E+02  0.17249223470E+02 -0.93207001758E+01  0.23018288408E+02  0.51100000000E-03 0. -1.
        -11    1    3    3    0    0 -0.11072139950E+02  0.18172689154E+01 -0.12490038720E+02  0.16789753330E+02  0.51100000000E-03 0.  1.
        -12    1    3    3    0    0 -0.13259437644E+01  0.75521086685E+01 -0.22080603234E+01  0.79792231827E+01  0.00000000000E+00 0.  1.
</event>
<event>
 7    1  0.2458979E-009  0.4778727E+02  0.7816164E-02  0.1312668E+00
        -11   -1    0    0    0    0  0.00000000000E+00  0.00000000000E+00  0.45593999997E+02  0.45594000000E+02  0.51100000000E-03 0.  1.
         11   -1    0    0    0    0 -0.00000000000E+00 -0.00000000000E+00 -0.45593999997E+02  0.45594000000E+02  0.51100000000E-03 0. -1.
    9900012    2    1    2    0    0  0.73284600365E+01 -0.41179833780E+02 -0.11581814074E+02  0.47787268971E+02  0.19999990545E+02 0.  0.
        -12    1    1    2    0    0 -0.73284600365E+01  0.41179833780E+02  0.11581814074E+02  0.43400731029E+02  0.00000000000E+00 0.  1.
         11    1    3    3    0    0  0.18847491778E+01 -0.10001322198E+02 -0.58414806729E+01  0.11734633436E+02  0.51100000000E-03 0. -1.
        -11    1    3    3    0    0  0.97396843567E+01 -0.29349618285E+02 -0.50237724045E+01  0.31328897751E+02  0.51100000000E-03 0.  1.
        -12    1    3    3    0    0 -0.42959734980E+01 -0.18288932970E+01 -0.71656099637E+00  0.47237377837E+01  0.00000000000E+00 0.  1.
</event>
<event>
 7    1  0.2458979E-009  0.4778726E+02  0.7816164E-02  0.1312668E+00
        -11   -1    0    0    0    0  0.00000000000E+00  0.00000000000E+00  0.45593999997E+02  0.45594000000E+02  0.51100000000E-03 0.  1.
         11   -1    0    0    0    0 -0.00000000000E+00 -0.00000000000E+00 -0.45593999997E+02  0.45594000000E+02  0.51100000000E-03 0. -1.
    9900012    2    1    2    0    0 -0.20516025717E+02 -0.24990136871E+02 -0.28951857263E+02  0.47787259326E+02  0.19999946570E+02 0.  0.
        -12    1    1    2    0    0  0.20516025717E+02  0.24990136871E+02  0.28951857263E+02  0.43400740674E+02  0.00000000000E+00 0.  1.
         11    1    3    3    0    0 -0.19709268807E+02 -0.11757363339E+02 -0.11070911005E+02  0.25480501179E+02  0.51100000000E-03 0. -1.
        -11    1    3    3    0    0  0.54666300080E-01 -0.64522021071E+01 -0.77297773724E+01  0.10068930376E+02  0.51100000000E-03 0.  1.
         12    1    3    3    0    0 -0.86142321087E+00 -0.67805714244E+01 -0.10151168886E+02  0.12237827771E+02  0.00000000000E+00 0. -1.
</event>
<event>
 7    1  0.2458979E-009  0.4778727E+02  0.7816164E-02  0.1312668E+00
        -11   -1    0    0    0    0  0.00000000000E+00  0.00000000000E+00  0.45593999997E+02  0.45594000000E+02  0.51100000000E-03 0.  1.
         11   -1    0    0    0    0 -0.00000000000E+00 -0.00000000000E+00 -0.45593999997E+02  0.45594000000E+02  0.51100000000E-03 0. -1.
    9900012    2    1    2    0    0 -0.35194121104E+02 -0.11414653291E+02 -0.22687073480E+02  0.47787265293E+02  0.19999973776E+02 0.  0.
        -12    1    1    2    0    0  0.35194121104E+02  0.11414653291E+02  0.22687073480E+02  0.43400734707E+02  0.00000000000E+00 0.  1.
         11    1    3    3    0    0  0.89179299556E+00 -0.50147607265E+00 -0.22600874406E+01  0.24808805893E+01  0.51100000000E-03 0. -1.
        -11    1    3    3    0    0 -0.10480029283E+02  0.15972545202E+01 -0.65630777398E+00  0.10621345297E+02  0.51100000000E-03 0.  1.
        -12    1    3    3    0    0 -0.25605884817E+02 -0.12510431739E+02 -0.19770678265E+02  0.34685039406E+02  0.00000000000E+00 0.  1.
</event>
<event>
 7    1  0.2458979E-009  0.4778727E+02  0.7816164E-02  0.1312668E+00
        -11   -1    0    0    0    0  0.00000000000E+00  0.00000000000E+00  0.45593999997E+02  0.45594000000E+02  0.51100000000E-03 0. -1.
         11   -1    0    0    0    0 -0.00000000000E+00 -0.00000000000E+00 -0.45593999997E+02  0.45594000000E+02  0.51100000000E-03 0.  1.
    9900012    2    1    2    0    0  0.23640063593E+02 -0.19101312099E+02  0.30982424919E+02  0.47787269770E+02  0.19999994191E+02 0.  0.
        -12    1    1    2    0    0 -0.23640063593E+02  0.19101312099E+02 -0.30982424919E+02  0.43400730230E+02  0.00000000000E+00 0.  1.
         11    1    3    3    0    0  0.22884948475E+02 -0.14606193517E+02  0.22272592402E+02  0.35115952619E+02  0.51100000000E-03 0. -1.
        -11    1    3    3    0    0 -0.17739780466E+01 -0.52907989172E+01  0.29083219189E+01  0.62926852724E+01  0.51100000000E-03 0.  1.
         12    1    3    3    0    0  0.25290931647E+01  0.79568033489E+00  0.58015105981E+01  0.63786318793E+01  0.00000000000E+00 0. -1.
</event>
<event>
 7    1  0.2458979E-009  0.4778727E+02  0.7816164E-02  0.1312668E+00
        -11   -1    0    0    0    0  0.00000000000E+00  0.00000000000E+00  0.45593999997E+02  0.45594000000E+02  0.51100000000E-03 0.  1.
         11   -1    0    0    0    0 -0.00000000000E+00 -0.00000000000E+00 -0.45593999997E+02  0.45594000000E+02  0.51100000000E-03 0. -1.
    9900012    2    1    2    0    0 -0.22784199720E+02  0.34519462644E+01 -0.36777541272E+02  0.47787271528E+02  0.20000002203E+02 0.  0.
        -12    1    1    2    0    0  0.22784199720E+02 -0.34519462644E+01  0.36777541272E+02  0.43400728472E+02  0.00000000000E+00 0.  1.
         11    1    3    3    0    0 -0.25551798693E+01  0.71060059856E+01 -0.94376290729E+01  0.12086898196E+02  0.51100000000E-03 0.  1.
        -11    1    3    3    0    0 -0.13840744723E+02 -0.13348687044E+01 -0.24824578960E+02  0.28453608027E+02  0.51100000000E-03 0. -1.
        -12    1    3    3    0    0 -0.63882751271E+01 -0.23191910168E+01 -0.25153332401E+01  0.72467653046E+01  0.00000000000E+00 0.  1.
</event>
<event>
 7    1  0.2458979E-009  0.4778727E+02  0.7816164E-02  0.1312668E+00
        -11   -1    0    0    0    0  0.00000000000E+00  0.00000000000E+00  0.45593999997E+02  0.45594000000E+02  0.51100000000E-03 0.  1.
         11   -1    0    0    0    0 -0.00000000000E+00 -0.00000000000E+00 -0.45593999997E+02  0.45594000000E+02  0.51100000000E-03 0. -1.
    9900012    2    1    2    0    0  0.28991551562E+02 -0.23725770813E+02 -0.21913491760E+02  0.47787269779E+02  0.19999994229E+02 0.  0.
        -12    1    1    2    0    0 -0.28991551562E+02  0.23725770813E+02  0.21913491760E+02  0.43400730221E+02  0.00000000000E+00 0.  1.
         11    1    3    3    0    0  0.81729424498E+01  0.27241101438E+00 -0.69152132973E+01  0.10709405738E+02  0.51100000000E-03 0. -1.
        -11    1    3    3    0    0  0.10752709103E+02 -0.77601760220E+01 -0.81835753325E+00  0.13285736496E+02  0.51100000000E-03 0.  1.
         12    1    3    3    0    0  0.10065900009E+02 -0.16238005806E+02 -0.14179920929E+02  0.23792127545E+02  0.00000000000E+00 0. -1.
</event>
<event>
 7    1  0.2458979E-009  0.4778727E+02  0.7816164E-02  0.1312668E+00
        -11   -1    0    0    0    0  0.00000000000E+00  0.00000000000E+00  0.45593999997E+02  0.45594000000E+02  0.51100000000E-03 0.  1.
         11   -1    0    0    0    0 -0.00000000000E+00 -0.00000000000E+00 -0.45593999997E+02  0.45594000000E+02  0.51100000000E-03 0. -1.
    9900012    2    1    2    0    0  0.38094419558E+02 -0.20571044216E+02  0.30447198730E+01  0.47787274422E+02  0.20000015399E+02 0.  0.
        -12    1    1    2    0    0 -0.38094419558E+02  0.20571044216E+02 -0.30447198730E+01  0.43400725578E+02  0.00000000000E+00 0.  1.
         11    1    3    3    0    0  0.32590581802E+02 -0.23448439533E+02  0.23064784545E+01  0.40215608684E+02  0.51100000000E-03 0. -1.
        -11    1    3    3    0    0  0.59134415836E+01  0.29137096877E+01  0.14497879924E+01  0.67498430345E+01  0.51100000000E-03 0.  1.
         12    1    3    3    0    0 -0.40960382696E+00 -0.36314370352E-01 -0.71154657387E+00  0.82182270311E+00  0.00000000000E+00 0. -1.
</event>
<event>
 7    1  0.2458979E-009  0.4778727E+02  0.7816164E-02  0.1312668E+00
        -11   -1    0    0    0    0  0.00000000000E+00  0.00000000000E+00  0.45593999997E+02  0.45594000000E+02  0.51100000000E-03 0. -1.
         11   -1    0    0    0    0 -0.00000000000E+00 -0.00000000000E+00 -0.45593999997E+02  0.45594000000E+02  0.51100000000E-03 0.  1.
    9900012    2    1    2    0    0 -0.42613759920E+02  0.79432231200E+01 -0.21439351989E+01  0.47787265142E+02  0.19999973090E+02 0.  0.
        -12    1    1    2    0    0  0.42613759920E+02 -0.79432231200E+01  0.21439351989E+01  0.43400734858E+02  0.00000000000E+00 0.  1.
         11    1    3    3    0    0 -0.11125544932E+02  0.71605069768E+01  0.39428107197E+01  0.13805664303E+02  0.51100000000E-03 0. -1.
        -11    1    3    3    0    0 -0.17522409974E+02 -0.38240612286E+01  0.32705994039E+00  0.17937816591E+02  0.51100000000E-03 0.  1.
         12    1    3    3    0    0 -0.13965805013E+02  0.46067773718E+01 -0.64138058590E+01  0.16043784249E+02  0.00000000000E+00 0. -1.
</event>
<event>
 7    1  0.2458979E-009  0.4778728E+02  0.7816164E-02  0.1312668E+00
        -11   -1    0    0    0    0  0.00000000000E+00  0.00000000000E+00  0.45593999997E+02  0.45594000000E+02  0.51100000000E-03 0. -1.
         11   -1    0    0    0    0 -0.00000000000E+00 -0.00000000000E+00 -0.45593999997E+02  0.45594000000E+02  0.51100000000E-03 0.  1.
    9900012    2    1    2    0    0  0.31252172108E+02 -0.28066970368E+02 -0.10916479811E+02  0.47787278593E+02  0.20000034419E+02 0.  0.
        -12    1    1    2    0    0 -0.31252172108E+02  0.28066970368E+02  0.10916479811E+02  0.43400721407E+02  0.00000000000E+00 0.  1.
         11    1    3    3    0    0  0.16482365224E+02 -0.69352734805E+01  0.81558887121E-01  0.17882198795E+02  0.51100000000E-03 0. -1.
        -11    1    3    3    0    0 -0.91014247817E+00 -0.39025485840E+00  0.87476396484E+00  0.13213139068E+01  0.51100000000E-03 0.  1.
         12    1    3    3    0    0  0.15679949362E+02 -0.20741442029E+02 -0.11872802663E+02  0.28583765892E+02  0.00000000000E+00 0. -1.
</event>
<event>
 7    1  0.2458979E-009  0.4778727E+02  0.7816164E-02  0.1312668E+00
        -11   -1    0    0    0    0  0.00000000000E+00  0.00000000000E+00  0.45593999997E+02  0.45594000000E+02  0.51100000000E-03 0. -1.
         11   -1    0    0    0    0 -0.00000000000E+00 -0.00000000000E+00 -0.45593999997E+02  0.45594000000E+02  0.51100000000E-03 0.  1.
    9900012    2    1    2    0    0  0.42782901229E+01  0.28609835893E+02  0.32354237455E+02  0.47787272385E+02  0.20000006113E+02 0.  0.
        -12    1    1    2    0    0 -0.42782901229E+01 -0.28609835893E+02 -0.32354237455E+02  0.43400727615E+02  0.00000000000E+00 0.  1.
         11    1    3    3    0    0  0.48918953271E+01 -0.61205558565E+00  0.14062720632E+01  0.51266805350E+01  0.51100000000E-03 0.  1.
        -11    1    3    3    0    0 -0.13416033918E+01  0.26745818836E+02  0.28368908671E+02  0.39011968732E+02  0.51100000000E-03 0. -1.
        -12    1    3    3    0    0  0.72799818759E+00  0.24760726422E+01  0.25790567205E+01  0.36486231181E+01  0.00000000000E+00 0.  1.
</event>
<event>
 7    1  0.2458979E-009  0.4778727E+02  0.7816164E-02  0.1312668E+00
        -11   -1    0    0    0    0  0.00000000000E+00  0.00000000000E+00  0.45593999997E+02  0.45594000000E+02  0.51100000000E-03 0.  1.
         11   -1    0    0    0    0 -0.00000000000E+00 -0.00000000000E+00 -0.45593999997E+02  0.45594000000E+02  0.51100000000E-03 0. -1.
    9900012    2    1    2    0    0 -0.35130829270E+02 -0.19790126066E+02 -0.16056122649E+02  0.47787270404E+02  0.19999997081E+02 0.  0.
        -12    1    1    2    0    0  0.35130829270E+02  0.19790126066E+02  0.16056122649E+02  0.43400729596E+02  0.00000000000E+00 0.  1.
         11    1    3    3    0    0 -0.16896473237E+02 -0.10082703001E+02 -0.43598189757E+00  0.19681000689E+02  0.51100000000E-03 0. -1.
        -11    1    3    3    0    0 -0.12555190778E+02 -0.45499563590E+01 -0.15465442401E+02  0.20433179568E+02  0.51100000000E-03 0.  1.
        -12    1    3    3    0    0 -0.56791652558E+01 -0.51574667062E+01 -0.15469835033E+00  0.76730901472E+01  0.00000000000E+00 0.  1.
</event>
<event>
 7    1  0.2458979E-009  0.4778727E+02  0.7816164E-02  0.1312668E+00
        -11   -1    0    0    0    0  0.00000000000E+00  0.00000000000E+00  0.45593999997E+02  0.45594000000E+02  0.51100000000E-03 0.  1.
         11   -1    0    0    0    0 -0.00000000000E+00 -0.00000000000E+00 -0.45593999997E+02  0.45594000000E+02  0.51100000000E-03 0. -1.
    9900012    2    1    2    0    0  0.36547756667E+00  0.29067069515E+02 -0.32227238293E+02  0.47787274291E+02  0.20000014802E+02 0.  0.
        -12    1    1    2    0    0 -0.36547756667E+00 -0.29067069515E+02  0.32227238293E+02  0.43400725709E+02  0.00000000000E+00 0.  1.
         11    1    3    3    0    0  0.66435735465E+00  0.26661493888E+02 -0.22428793118E+02  0.34847200577E+02  0.51100000000E-03 0. -1.
        -11    1    3    3    0    0 -0.10022417829E+01  0.53761066188E+00  0.12632159424E+01  0.16997731005E+01  0.51100000000E-03 0.  1.
         12    1    3    3    0    0  0.70336199489E+00  0.18679649654E+01 -0.11061661118E+02  0.11240300614E+02  0.00000000000E+00 0. -1.
</event>
<event>
 7    1  0.2458979E-009  0.4778727E+02  0.7816164E-02  0.1312668E+00
        -11   -1    0    0    0    0  0.00000000000E+00  0.00000000000E+00  0.45593999997E+02  0.45594000000E+02  0.51100000000E-03 0.  1.
         11   -1    0    0    0    0 -0.00000000000E+00 -0.00000000000E+00 -0.45593999997E+02  0.45594000000E+02  0.51100000000E-03 0. -1.
    9900012    2    1    2    0    0  0.17532080701E+01 -0.26023302906E+01 -0.43287149659E+02  0.47787272045E+02  0.20000004561E+02 0.  0.
        -12    1    1    2    0    0 -0.17532080701E+01  0.26023302906E+01  0.43287149659E+02  0.43400727955E+02  0.00000000000E+00 0.  1.
         11    1    3    3    0    0  0.18781011564E+01 -0.28624673340E+01 -0.10322579666E+02  0.10875506168E+02  0.51100000000E-03 0. -1.
        -11    1    3    3    0    0 -0.36688849412E+01 -0.56850812652E+01 -0.59033786386E+01  0.89794624179E+01  0.51100000000E-03 0.  1.
        -12    1    3    3    0    0  0.35439918548E+01  0.59452183086E+01 -0.27061191354E+02  0.27932303459E+02  0.00000000000E+00 0.  1.
</event>
<event>
 7    1  0.2458979E-009  0.4778727E+02  0.7816164E-02  0.1312668E+00
        -11   -1    0    0    0    0  0.00000000000E+00  0.00000000000E+00  0.45593999997E+02  0.45594000000E+02  0.51100000000E-03 0.  1.
         11   -1    0    0    0    0 -0.00000000000E+00 -0.00000000000E+00 -0.45593999997E+02  0.45594000000E+02  0.51100000000E-03 0. -1.
    9900012    2    1    2    0    0  0.15800649377E+02 -0.26333100396E+01 -0.40336440404E+02  0.47787271124E+02  0.20000000363E+02 0.  0.
        -12    1    1    2    0    0 -0.15800649377E+02  0.26333100396E+01  0.40336440404E+02  0.43400728876E+02  0.00000000000E+00 0.  1.
         11    1    3    3    0    0  0.41708016105E+01  0.28577962323E+01 -0.18174606140E+02  0.18864752688E+02  0.51100000000E-03 0. -1.
        -11    1    3    3    0    0  0.92128026633E+01 -0.58533969304E+01 -0.57638882207E+01  0.12343435349E+02  0.51100000000E-03 0.  1.
        -12    1    3    3    0    0  0.24170451031E+01  0.36229065856E+00 -0.16397946044E+02  0.16579083087E+02  0.00000000000E+00 0.  1.
</event>
<event>
 7    1  0.2458979E-009  0.4778727E+02  0.7816164E-02  0.1312668E+00
        -11   -1    0    0    0    0  0.00000000000E+00  0.00000000000E+00  0.45593999997E+02  0.45594000000E+02  0.51100000000E-03 0.  1.
         11   -1    0    0    0    0 -0.00000000000E+00 -0.00000000000E+00 -0.45593999997E+02  0.45594000000E+02  0.51100000000E-03 0. -1.
    9900012    2    1    2    0    0 -0.38259672685E+02  0.52436940402E+00 -0.20482816961E+02  0.47787270653E+02  0.19999998214E+02 0.  0.
        -12    1    1    2    0    0  0.38259672685E+02 -0.52436940402E+00  0.20482816961E+02  0.43400729347E+02  0.00000000000E+00 0.  1.
         11    1    3    3    0    0 -0.32025879236E+02 -0.28063948851E+01 -0.16201881150E+02  0.36000468693E+02  0.51100000000E-03 0. -1.
        -11    1    3    3    0    0 -0.59683164942E+01  0.17723819072E+01  0.97182715363E+00  0.63013163448E+01  0.51100000000E-03 0.  1.
         12    1    3    3    0    0 -0.26547695468E+00  0.15583823820E+01 -0.52527629654E+01  0.54854856150E+01  0.00000000000E+00 0. -1.
</event>
<event>
 7    1  0.2458979E-009  0.4778727E+02  0.7816164E-02  0.1312668E+00
        -11   -1    0    0    0    0  0.00000000000E+00  0.00000000000E+00  0.45593999997E+02  0.45594000000E+02  0.51100000000E-03 0.  1.
         11   -1    0    0    0    0 -0.00000000000E+00 -0.00000000000E+00 -0.45593999997E+02  0.45594000000E+02  0.51100000000E-03 0. -1.
    9900012    2    1    2    0    0  0.19965078785E+02 -0.13321645554E+02 -0.36160099257E+02  0.47787269713E+02  0.19999993930E+02 0.  0.
        -12    1    1    2    0    0 -0.19965078785E+02  0.13321645554E+02  0.36160099257E+02  0.43400730287E+02  0.00000000000E+00 0.  1.
         11    1    3    3    0    0  0.14041013844E+02 -0.74445428438E+00 -0.22259731939E+02  0.26328690590E+02  0.51100000000E-03 0. -1.
        -11    1    3    3    0    0  0.21947683854E+01  0.56069137710E+00 -0.48862572431E+00  0.23173559169E+01  0.51100000000E-03 0.  1.
         12    1    3    3    0    0  0.37292965560E+01 -0.13137882647E+02 -0.13411741594E+02  0.19141223206E+02  0.00000000000E+00 0. -1.
</event>
<event>
 7    1  0.2458979E-009  0.4778727E+02  0.7816164E-02  0.1312668E+00
        -11   -1    0    0    0    0  0.00000000000E+00  0.00000000000E+00  0.45593999997E+02  0.45594000000E+02  0.51100000000E-03 0.  1.
         11   -1    0    0    0    0 -0.00000000000E+00 -0.00000000000E+00 -0.45593999997E+02  0.45594000000E+02  0.51100000000E-03 0. -1.
    9900012    2    1    2    0    0  0.17015092302E+02 -0.19135668446E+02 -0.35041922805E+02  0.47787268130E+02  0.19999986714E+02 0.  0.
        -12    1    1    2    0    0 -0.17015092302E+02  0.19135668446E+02  0.35041922805E+02  0.43400731870E+02  0.00000000000E+00 0.  1.
         11    1    3    3    0    0  0.27841321964E+01 -0.54748188662E+01 -0.17402527607E+02  0.18454620047E+02  0.51100000000E-03 0. -1.
        -11    1    3    3    0    0  0.14369338904E+02 -0.15720141583E+02 -0.15367950374E+02  0.26263561276E+02  0.51100000000E-03 0.  1.
        -12    1    3    3    0    0 -0.13837879853E+00  0.20592920025E+01 -0.22714448233E+01  0.30690868070E+01  0.00000000000E+00 0.  1.
</event>
<event>
 7    1  0.2458979E-009  0.4778728E+02  0.7816164E-02  0.1312668E+00
        -11   -1    0    0    0    0  0.00000000000E+00  0.00000000000E+00  0.45593999997E+02  0.45594000000E+02  0.51100000000E-03 0.  1.
         11   -1    0    0    0    0 -0.00000000000E+00 -0.00000000000E+00 -0.45593999997E+02  0.45594000000E+02  0.51100000000E-03 0. -1.
    9900012    2    1    2    0    0 -0.39495133787E+02 -0.15769618248E+01 -0.17924020437E+02  0.47787275236E+02  0.20000019110E+02 0.  0.
        -12    1    1    2    0    0  0.39495133787E+02  0.15769618248E+01  0.17924020437E+02  0.43400724764E+02  0.00000000000E+00 0.  1.
         11    1    3    3    0    0 -0.26468439789E+02 -0.31619212559E+01 -0.39396638993E+01  0.26946187167E+02  0.51100000000E-03 0. -1.
        -11    1    3    3    0    0  0.11615526132E+01  0.28084686660E+00 -0.12872922018E+01  0.17564739991E+01  0.51100000000E-03 0.  1.
         12    1    3    3    0    0 -0.14188246611E+02  0.13041125645E+01 -0.12697064336E+02  0.19084614070E+02  0.00000000000E+00 0. -1.
</event>
<event>
 7    1  0.2458979E-009  0.4778727E+02  0.7816164E-02  0.1312668E+00
        -11   -1    0    0    0    0  0.00000000000E+00  0.00000000000E+00  0.45593999997E+02  0.45594000000E+02  0.51100000000E-03 0. -1.
         11   -1    0    0    0    0 -0.00000000000E+00 -0.00000000000E+00 -0.45593999997E+02  0.45594000000E+02  0.51100000000E-03 0.  1.
    9900012    2    1    2    0    0 -0.38817834024E+01  0.39043609424E+02  0.18551317748E+02  0.47787273400E+02  0.20000010741E+02 0.  0.
        -12    1    1    2    0    0  0.38817834024E+01 -0.39043609424E+02 -0.18551317748E+02  0.43400726600E+02  0.00000000000E+00 0.  1.
         11    1    3    3    0    0 -0.25487986203E+01  0.23479864017E+02  0.18681398090E+02  0.30113037435E+02  0.51100000000E-03 0. -1.
        -11    1    3    3    0    0  0.29903052722E+01  0.44371590673E+01 -0.17459387655E+01  0.56283753112E+01  0.51100000000E-03 0.  1.
        -12    1    3    3    0    0 -0.43232900543E+01  0.11126586339E+02  0.16158584228E+01  0.12045860654E+02  0.00000000000E+00 0.  1.
</event>
<event>
 7    1  0.2458979E-009  0.4778728E+02  0.7816164E-02  0.1312668E+00
        -11   -1    0    0    0    0  0.00000000000E+00  0.00000000000E+00  0.45593999997E+02  0.45594000000E+02  0.51100000000E-03 0.  1.
         11   -1    0    0    0    0 -0.00000000000E+00 -0.00000000000E+00 -0.45593999997E+02  0.45594000000E+02  0.51100000000E-03 0. -1.
    9900012    2    1    2    0    0  0.85862229916E+01 -0.33729340230E+02 -0.25927419870E+02  0.47787277440E+02  0.20000029158E+02 0.  0.
        -12    1    1    2    0    0 -0.85862229916E+01  0.33729340230E+02  0.25927419870E+02  0.43400722560E+02  0.00000000000E+00 0.  1.
         11    1    3    3    0    0  0.97203613289E+01 -0.19877158454E+02 -0.77476822517E+01  0.23443835717E+02  0.51100000000E-03 0. -1.
        -11    1    3    3    0    0  0.24850678092E+00 -0.46016501479E+00  0.87078970535E+00  0.10157669187E+01  0.51100000000E-03 0.  1.
         12    1    3    3    0    0 -0.13826451181E+01 -0.13392016761E+02 -0.19050527324E+02  0.23327674804E+02  0.00000000000E+00 0. -1.
</event>
<event>
 7    1  0.2458979E-009  0.4778729E+02  0.7816164E-02  0.1312668E+00
        -11   -1    0    0    0    0  0.00000000000E+00  0.00000000000E+00  0.45593999997E+02  0.45594000000E+02  0.51100000000E-03 0.  1.
         11   -1    0    0    0    0 -0.00000000000E+00 -0.00000000000E+00 -0.45593999997E+02  0.45594000000E+02  0.51100000000E-03 0. -1.
    9900012    2    1    2    0    0 -0.15716215965E+02  0.25077012843E+02 -0.31745328092E+02  0.47787287183E+02  0.20000073582E+02 0.  0.
        -12    1    1    2    0    0  0.15716215965E+02 -0.25077012843E+02  0.31745328092E+02  0.43400712817E+02  0.00000000000E+00 0.  1.
         11    1    3    3    0    0 -0.14783725208E+02  0.18327432029E+02 -0.11163399123E+02  0.26059063223E+02  0.51100000000E-03 0. -1.
        -11    1    3    3    0    0 -0.38898676721E+00  0.60613039416E+01 -0.18404193348E+02  0.19380532739E+02  0.51100000000E-03 0.  1.
         12    1    3    3    0    0 -0.54350398957E+00  0.68827687159E+00 -0.21777356202E+01  0.23476912212E+01  0.00000000000E+00 0. -1.
</event>
<event>
 7    1  0.2458979E-009  0.4778727E+02  0.7816164E-02  0.1312668E+00
        -11   -1    0    0    0    0  0.00000000000E+00  0.00000000000E+00  0.45593999997E+02  0.45594000000E+02  0.51100000000E-03 0.  1.
         11   -1    0    0    0    0 -0.00000000000E+00 -0.00000000000E+00 -0.45593999997E+02  0.45594000000E+02  0.51100000000E-03 0. -1.
    9900012    2    1    2    0    0  0.27467853970E+01  0.16938747824E+02 -0.39864235350E+02  0.47787271114E+02  0.20000000315E+02 0.  0.
        -12    1    1    2    0    0 -0.27467853970E+01 -0.16938747824E+02  0.39864235350E+02  0.43400728886E+02  0.00000000000E+00 0.  1.
         11    1    3    3    0    0  0.34926856664E+01  0.52970610495E+01 -0.20370353703E+02  0.21335627930E+02  0.51100000000E-03 0. -1.
        -11    1    3    3    0    0 -0.71198195960E+01  0.55602669537E+01 -0.10709050745E+02  0.14010430679E+02  0.51100000000E-03 0.  1.
        -12    1    3    3    0    0  0.63739193267E+01  0.60814198211E+01 -0.87848309011E+01  0.12441212505E+02  0.00000000000E+00 0.  1.
</event>
<event>
 7    1  0.2458979E-009  0.4778727E+02  0.7816164E-02  0.1312668E+00
        -11   -1    0    0    0    0  0.00000000000E+00  0.00000000000E+00  0.45593999997E+02  0.45594000000E+02  0.51100000000E-03 0.  1.
         11   -1    0    0    0    0 -0.00000000000E+00 -0.00000000000E+00 -0.45593999997E+02  0.45594000000E+02  0.51100000000E-03 0. -1.
    9900012    2    1    2    0    0 -0.69018898716E+01  0.42435802631E+01 -0.42637764384E+02  0.47787274097E+02  0.20000013919E+02 0.  0.
        -12    1    1    2    0    0  0.69018898716E+01 -0.42435802631E+01  0.42637764384E+02  0.43400725903E+02  0.00000000000E+00 0.  1.
         11    1    3    3    0    0  0.26397098247E+01 -0.25456267230E+01 -0.17824578453E+02  0.18197908689E+02  0.51100000000E-03 0. -1.
        -11    1    3    3    0    0 -0.92129476977E+01  0.72233645869E+01 -0.25872709668E+02  0.28398107456E+02  0.51100000000E-03 0.  1.
        -12    1    3    3    0    0 -0.32865199856E+00 -0.43415760083E+00  0.10595237375E+01  0.11912579522E+01  0.00000000000E+00 0.  1.
</event>
<event>
 7    1  0.2458979E-009  0.4778727E+02  0.7816164E-02  0.1312668E+00
        -11   -1    0    0    0    0  0.00000000000E+00  0.00000000000E+00  0.45593999997E+02  0.45594000000E+02  0.51100000000E-03 0.  1.
         11   -1    0    0    0    0 -0.00000000000E+00 -0.00000000000E+00 -0.45593999997E+02  0.45594000000E+02  0.51100000000E-03 0. -1.
    9900012    2    1    2    0    0 -0.34286367372E+02  0.62376972892E+00 -0.26602243014E+02  0.47787269481E+02  0.19999992870E+02 0.  0.
        -12    1    1    2    0    0  0.34286367372E+02 -0.62376972892E+00  0.26602243014E+02  0.43400730519E+02  0.00000000000E+00 0.  1.
         11    1    3    3    0    0 -0.11725813402E+02  0.57309343520E+01 -0.10808547743E+02  0.16945884842E+02  0.51100000000E-03 0. -1.
        -11    1    3    3    0    0 -0.82974334160E+01 -0.82061974133E+01 -0.50402667341E+01  0.12711937944E+02  0.51100000000E-03 0.  1.
        -12    1    3    3    0    0 -0.14263120554E+02  0.30990327902E+01 -0.10753428536E+02  0.18129446695E+02  0.00000000000E+00 0.  1.
</event>
<event>
 7    1  0.2458979E-009  0.4778727E+02  0.7816164E-02  0.1312668E+00
        -11   -1    0    0    0    0  0.00000000000E+00  0.00000000000E+00  0.45593999997E+02  0.45594000000E+02  0.51100000000E-03 0.  1.
         11   -1    0    0    0    0 -0.00000000000E+00 -0.00000000000E+00 -0.45593999997E+02  0.45594000000E+02  0.51100000000E-03 0. -1.
    9900012    2    1    2    0    0 -0.36297641771E+02 -0.11861971421E+02 -0.20625191335E+02  0.47787266346E+02  0.19999978577E+02 0.  0.
        -12    1    1    2    0    0  0.36297641771E+02  0.11861971421E+02  0.20625191335E+02  0.43400733654E+02  0.00000000000E+00 0.  1.
         11    1    3    3    0    0 -0.91094191171E+01  0.30129078848E+01 -0.10736955824E+02  0.14399352457E+02  0.51100000000E-03 0. -1.
        -11    1    3    3    0    0 -0.79632458450E+01 -0.42419486391E+01  0.60146667460E+00  0.90426309814E+01  0.51100000000E-03 0.  1.
         12    1    3    3    0    0 -0.19224976809E+02 -0.10632930667E+02 -0.10489702186E+02  0.24345282907E+02  0.00000000000E+00 0. -1.
</event>
<event>
 7    1  0.2458979E-009  0.4778728E+02  0.7816164E-02  0.1312668E+00
        -11   -1    0    0    0    0  0.00000000000E+00  0.00000000000E+00  0.45593999997E+02  0.45594000000E+02  0.51100000000E-03 0. -1.
         11   -1    0    0    0    0 -0.00000000000E+00 -0.00000000000E+00 -0.45593999997E+02  0.45594000000E+02  0.51100000000E-03 0.  1.
    9900012    2    1    2    0    0  0.47411630958E+01 -0.12421767830E+02  0.41313966669E+02  0.47787276672E+02  0.20000025657E+02 0.  0.
        -12    1    1    2    0    0 -0.47411630958E+01  0.12421767830E+02 -0.41313966669E+02  0.43400723328E+02  0.00000000000E+00 0.  1.
         11    1    3    3    0    0  0.47177196361E+01 -0.12101983111E+02  0.27093547213E+02  0.30046217309E+02  0.51100000000E-03 0. -1.
        -11    1    3    3    0    0  0.10839319658E+01  0.19651550315E+01  0.14950769332E+02  0.15118275255E+02  0.51100000000E-03 0.  1.
        -12    1    3    3    0    0 -0.10604885061E+01 -0.22849397505E+01 -0.73034987543E+00  0.26227841077E+01  0.00000000000E+00 0.  1.
</event>
<event>
 7    1  0.2458979E-009  0.4778728E+02  0.7816164E-02  0.1312668E+00
        -11   -1    0    0    0    0  0.00000000000E+00  0.00000000000E+00  0.45593999997E+02  0.45594000000E+02  0.51100000000E-03 0.  1.
         11   -1    0    0    0    0 -0.00000000000E+00 -0.00000000000E+00 -0.45593999997E+02  0.45594000000E+02  0.51100000000E-03 0. -1.
    9900012    2    1    2    0    0  0.14151626256E+02  0.13164466749E+01 -0.41007576168E+02  0.47787275805E+02  0.20000021704E+02 0.  0.
        -12    1    1    2    0    0 -0.14151626256E+02 -0.13164466749E+01  0.41007576168E+02  0.43400724195E+02  0.00000000000E+00 0.  1.
         11    1    3    3    0    0  0.10027352940E+02  0.66758721696E+01 -0.28158348398E+02  0.30626910732E+02  0.51100000000E-03 0. -1.
        -11    1    3    3    0    0 -0.14307609946E+01 -0.48725857148E+01 -0.91618482618E+01  0.10475143551E+02  0.51100000000E-03 0.  1.
        -12    1    3    3    0    0  0.55550343111E+01 -0.48683977997E+00 -0.36873795077E+01  0.66852215223E+01  0.00000000000E+00 0.  1.
</event>
<event>
 7    1  0.2458979E-009  0.4778727E+02  0.7816164E-02  0.1312668E+00
        -11   -1    0    0    0    0  0.00000000000E+00  0.00000000000E+00  0.45593999997E+02  0.45594000000E+02  0.51100000000E-03 0.  1.
         11   -1    0    0    0    0 -0.00000000000E+00 -0.00000000000E+00 -0.45593999997E+02  0.45594000000E+02  0.51100000000E-03 0. -1.
    9900012    2    1    2    0    0  0.63606190457E+01 -0.25939019727E+02 -0.34210129258E+02  0.47787272323E+02  0.20000005829E+02 0.  0.
        -12    1    1    2    0    0 -0.63606190457E+01  0.25939019727E+02  0.34210129258E+02  0.43400727677E+02  0.00000000000E+00 0.  1.
         11    1    3    3    0    0  0.57204864444E+00 -0.26330637982E+02 -0.25457366474E+02  0.36629322192E+02  0.51100000000E-03 0. -1.
        -11    1    3    3    0    0  0.61023731250E+01  0.20324720093E+00 -0.66674003450E+01  0.90407131800E+01  0.51100000000E-03 0.  1.
        -12    1    3    3    0    0 -0.31380272377E+00  0.18837105414E+00 -0.20853624390E+01  0.21172369508E+01  0.00000000000E+00 0.  1.
</event>
<event>
 7    1  0.2458979E-009  0.4778727E+02  0.7816164E-02  0.1312668E+00
        -11   -1    0    0    0    0  0.00000000000E+00  0.00000000000E+00  0.45593999997E+02  0.45594000000E+02  0.51100000000E-03 0.  1.
         11   -1    0    0    0    0 -0.00000000000E+00 -0.00000000000E+00 -0.45593999997E+02  0.45594000000E+02  0.51100000000E-03 0. -1.
    9900012    2    1    2    0    0 -0.10991845611E+02  0.41628156456E+02 -0.54680172388E+01  0.47787270832E+02  0.19999999029E+02 0.  0.
        -12    1    1    2    0    0  0.10991845611E+02 -0.41628156456E+02  0.54680172388E+01  0.43400729168E+02  0.00000000000E+00 0.  1.
         11    1    3    3    0    0 -0.39123203720E+01  0.97431148567E+01 -0.39955411586E+01  0.11233827808E+02  0.51100000000E-03 0. -1.
        -11    1    3    3    0    0 -0.21914283688E+01  0.29061308392E+02  0.30735744240E+01  0.29305440856E+02  0.51100000000E-03 0.  1.
        -12    1    3    3    0    0 -0.48880968703E+01  0.28237332065E+01 -0.45460505042E+01  0.72480021676E+01  0.00000000000E+00 0.  1.
</event>
<event>
 7    1  0.2458979E-009  0.4778727E+02  0.7816164E-02  0.1312668E+00
        -11   -1    0    0    0    0  0.00000000000E+00  0.00000000000E+00  0.45593999997E+02  0.45594000000E+02  0.51100000000E-03 0.  1.
         11   -1    0    0    0    0 -0.00000000000E+00 -0.00000000000E+00 -0.45593999997E+02  0.45594000000E+02  0.51100000000E-03 0. -1.
    9900012    2    1    2    0    0  0.13780648255E+02  0.66127164883E+01 -0.40620054902E+02  0.47787272518E+02  0.20000006720E+02 0.  0.
        -12    1    1    2    0    0 -0.13780648255E+02 -0.66127164883E+01  0.40620054902E+02  0.43400727482E+02  0.00000000000E+00 0.  1.
         11    1    3    3    0    0  0.10455007050E+02 -0.23391587127E+01 -0.24323714501E+02  0.26578598972E+02  0.51100000000E-03 0. -1.
        -11    1    3    3    0    0 -0.16352075415E+01  0.13498147450E+01 -0.98486385778E+01  0.10074303234E+02  0.51100000000E-03 0.  1.
         12    1    3    3    0    0  0.49608487471E+01  0.76020604560E+01 -0.64477018229E+01  0.11134370313E+02  0.00000000000E+00 0. -1.
</event>
<event>
 7    1  0.2458979E-009  0.4778727E+02  0.7816164E-02  0.1312668E+00
        -11   -1    0    0    0    0  0.00000000000E+00  0.00000000000E+00  0.45593999997E+02  0.45594000000E+02  0.51100000000E-03 0.  1.
         11   -1    0    0    0    0 -0.00000000000E+00 -0.00000000000E+00 -0.45593999997E+02  0.45594000000E+02  0.51100000000E-03 0. -1.
    9900012    2    1    2    0    0 -0.35412387695E+02  0.82650154554E+00 -0.25077940197E+02  0.47787269688E+02  0.19999993817E+02 0.  0.
        -12    1    1    2    0    0  0.35412387695E+02 -0.82650154554E+00  0.25077940197E+02  0.43400730312E+02  0.00000000000E+00 0.  1.
         11    1    3    3    0    0 -0.16687114425E+02  0.85287715362E+01 -0.12725481111E+02  0.22652540730E+02  0.51100000000E-03 0. -1.
        -11    1    3    3    0    0 -0.39906957696E+01  0.31772660396E+00  0.45462288940E+00  0.40290551191E+01  0.51100000000E-03 0.  1.
         12    1    3    3    0    0 -0.14734577500E+02 -0.80199965946E+01 -0.12807081976E+02  0.21105673839E+02  0.00000000000E+00 0. -1.
</event>
<event>
 7    1  0.2458979E-009  0.4778727E+02  0.7816164E-02  0.1312668E+00
        -11   -1    0    0    0    0  0.00000000000E+00  0.00000000000E+00  0.45593999997E+02  0.45594000000E+02  0.51100000000E-03 0. -1.
         11   -1    0    0    0    0 -0.00000000000E+00 -0.00000000000E+00 -0.45593999997E+02  0.45594000000E+02  0.51100000000E-03 0.  1.
    9900012    2    1    2    0    0 -0.32271012351E+01 -0.37718332926E+02  0.21225848765E+02  0.47787268705E+02  0.19999989334E+02 0.  0.
        -12    1    1    2    0    0  0.32271012351E+01  0.37718332926E+02 -0.21225848765E+02  0.43400731295E+02  0.00000000000E+00 0.  1.
         11    1    3    3    0    0 -0.12267373906E+01 -0.29194832193E+02  0.98415306941E+01  0.30833404581E+02  0.51100000000E-03 0. -1.
        -11    1    3    3    0    0 -0.28656731173E+01 -0.64457840823E+01  0.12566926376E+02  0.14411379311E+02  0.51100000000E-03 0.  1.
         12    1    3    3    0    0  0.86530927282E+00 -0.20777166514E+01 -0.11826083048E+01  0.25424848129E+01  0.00000000000E+00 0. -1.
</event>
<event>
 7    1  0.2458979E-009  0.4778727E+02  0.7816164E-02  0.1312668E+00
        -11   -1    0    0    0    0  0.00000000000E+00  0.00000000000E+00  0.45593999997E+02  0.45594000000E+02  0.51100000000E-03 0.  1.
         11   -1    0    0    0    0 -0.00000000000E+00 -0.00000000000E+00 -0.45593999997E+02  0.45594000000E+02  0.51100000000E-03 0. -1.
    9900012    2    1    2    0    0 -0.28610052051E+02  0.22247115586E+02 -0.23877895001E+02  0.47787273048E+02  0.20000009136E+02 0.  0.
        -12    1    1    2    0    0  0.28610052051E+02 -0.22247115586E+02  0.23877895001E+02  0.43400726952E+02  0.00000000000E+00 0.  1.
         11    1    3    3    0    0 -0.50248570940E+01  0.39628609295E+01 -0.67882038013E+01  0.93291568039E+01  0.51100000000E-03 0. -1.
        -11    1    3    3    0    0 -0.97485830181E+01  0.94231344292E+01 -0.17357309690E+02  0.22025134126E+02  0.51100000000E-03 0.  1.
        -12    1    3    3    0    0 -0.13836611939E+02  0.88611202273E+01  0.26761849077E+00  0.16432982118E+02  0.00000000000E+00 0.  1.
</event>
<event>
 7    1  0.2458979E-009  0.4778727E+02  0.7816164E-02  0.1312668E+00
        -11   -1    0    0    0    0  0.00000000000E+00  0.00000000000E+00  0.45593999997E+02  0.45594000000E+02  0.51100000000E-03 0.  1.
         11   -1    0    0    0    0 -0.00000000000E+00 -0.00000000000E+00 -0.45593999997E+02  0.45594000000E+02  0.51100000000E-03 0. -1.
    9900012    2    1    2    0    0  0.33522725603E+02  0.18744851991E+02  0.20210907417E+02  0.47787269745E+02  0.19999994078E+02 0.  0.
        -12    1    1    2    0    0 -0.33522725603E+02 -0.18744851991E+02 -0.20210907417E+02  0.43400730255E+02  0.00000000000E+00 0.  1.
         11    1    3    3    0    0  0.10579302981E+02  0.23607406212E+00  0.23392179177E+01  0.10837403898E+02  0.51100000000E-03 0. -1.
        -11    1    3    3    0    0  0.12041317123E+02  0.14613881396E+02  0.16816419270E+02  0.25324904834E+02  0.51100000000E-03 0.  1.
        -12    1    3    3    0    0  0.10902105499E+02  0.38948965330E+01  0.10552702293E+01  0.11624961013E+02  0.00000000000E+00 0.  1.
</event>
<event>
 7    1  0.2458979E-009  0.4778727E+02  0.7816164E-02  0.1312668E+00
        -11   -1    0    0    0    0  0.00000000000E+00  0.00000000000E+00  0.45593999997E+02  0.45594000000E+02  0.51100000000E-03 0.  1.
         11   -1    0    0    0    0 -0.00000000000E+00 -0.00000000000E+00 -0.45593999997E+02  0.45594000000E+02  0.51100000000E-03 0. -1.
    9900012    2    1    2    0    0  0.23675278556E+01  0.21610073211E+02 -0.37563584384E+02  0.47787270465E+02  0.19999997359E+02 0.  0.
        -12    1    1    2    0    0 -0.23675278556E+01 -0.21610073211E+02  0.37563584384E+02  0.43400729535E+02  0.00000000000E+00 0.  1.
         11    1    3    3    0    0  0.10415706234E+02  0.13800668290E+02 -0.28090568519E+02  0.32985230355E+02  0.51100000000E-03 0. -1.
        -11    1    3    3    0    0 -0.59512996517E+01  0.57091096583E+01 -0.79964291113E+01  0.11487157152E+02  0.51100000000E-03 0.  1.
         12    1    3    3    0    0 -0.20968787265E+01  0.21002952636E+01 -0.14765867545E+01  0.33148829589E+01  0.00000000000E+00 0. -1.
</event>
<event>
 7    1  0.2458979E-009  0.4778727E+02  0.7816164E-02  0.1312668E+00
        -11   -1    0    0    0    0  0.00000000000E+00  0.00000000000E+00  0.45593999997E+02  0.45594000000E+02  0.51100000000E-03 0. -1.
         11   -1    0    0    0    0 -0.00000000000E+00 -0.00000000000E+00 -0.45593999997E+02  0.45594000000E+02  0.51100000000E-03 0.  1.
    9900012    2    1    2    0    0 -0.12637543993E+02  0.16810997916E+02  0.37964541300E+02  0.47787267688E+02  0.19999984697E+02 0.  0.
        -12    1    1    2    0    0  0.12637543993E+02 -0.16810997916E+02 -0.37964541300E+02  0.43400732312E+02  0.00000000000E+00 0.  1.
         11    1    3    3    0    0 -0.12591885889E+02  0.13258972768E+02  0.26441466326E+02  0.32148205095E+02  0.51100000000E-03 0. -1.
        -11    1    3    3    0    0  0.11797694688E+01 -0.25846659280E+01  0.79287304701E+01  0.84224177697E+01  0.51100000000E-03 0.  1.
        -12    1    3    3    0    0 -0.12254275737E+01  0.61366910757E+01  0.35943445032E+01  0.72166448232E+01  0.00000000000E+00 0.  1.
</event>
<event>
 7    1  0.2458979E-009  0.4778727E+02  0.7816164E-02  0.1312668E+00
        -11   -1    0    0    0    0  0.00000000000E+00  0.00000000000E+00  0.45593999997E+02  0.45594000000E+02  0.51100000000E-03 0.  1.
         11   -1    0    0    0    0 -0.00000000000E+00 -0.00000000000E+00 -0.45593999997E+02  0.45594000000E+02  0.51100000000E-03 0. -1.
    9900012    2    1    2    0    0  0.87643046963E+01 -0.17031770655E+02 -0.38945203571E+02  0.47787272706E+02  0.20000007575E+02 0.  0.
        -12    1    1    2    0    0 -0.87643046963E+01  0.17031770655E+02  0.38945203571E+02  0.43400727294E+02  0.00000000000E+00 0.  1.
         11    1    3    3    0    0  0.27593806982E+01  0.38933518435E+01 -0.10520848475E+02  0.11552515887E+02  0.51100000000E-03 0. -1.
        -11    1    3    3    0    0  0.25197943205E+00 -0.10184061299E+02 -0.11248658209E+02  0.15175997824E+02  0.51100000000E-03 0.  1.
         12    1    3    3    0    0  0.57529445660E+01 -0.10741061199E+02 -0.17175696887E+02  0.21058758995E+02  0.00000000000E+00 0. -1.
</event>
<event>
 7    1  0.2458979E-009  0.4778726E+02  0.7816164E-02  0.1312668E+00
        -11   -1    0    0    0    0  0.00000000000E+00  0.00000000000E+00  0.45593999997E+02  0.45594000000E+02  0.51100000000E-03 0.  1.
         11   -1    0    0    0    0 -0.00000000000E+00 -0.00000000000E+00 -0.45593999997E+02  0.45594000000E+02  0.51100000000E-03 0. -1.
    9900012    2    1    2    0    0  0.28225351180E+02 -0.31279528987E+02 -0.10418496747E+02  0.47787257410E+02  0.19999937836E+02 0.  0.
        -12    1    1    2    0    0 -0.28225351180E+02  0.31279528987E+02  0.10418496747E+02  0.43400742590E+02  0.00000000000E+00 0.  1.
         11    1    3    3    0    0  0.26061499324E+01 -0.12375195214E+02  0.31123696137E+01  0.13023990131E+02  0.51100000000E-03 0. -1.
        -11    1    3    3    0    0  0.70258448524E+01 -0.44416154426E+01 -0.50568484627E+01  0.97294480967E+01  0.51100000000E-03 0.  1.
         12    1    3    3    0    0  0.18593356395E+02 -0.14462718331E+02 -0.84740178976E+01  0.25033819183E+02  0.00000000000E+00 0. -1.
</event>
<event>
 7    1  0.2458979E-009  0.4778727E+02  0.7816164E-02  0.1312668E+00
        -11   -1    0    0    0    0  0.00000000000E+00  0.00000000000E+00  0.45593999997E+02  0.45594000000E+02  0.51100000000E-03 0. -1.
         11   -1    0    0    0    0 -0.00000000000E+00 -0.00000000000E+00 -0.45593999997E+02  0.45594000000E+02  0.51100000000E-03 0.  1.
    9900012    2    1    2    0    0  0.21493400881E+02 -0.49369740326E+01  0.37380253000E+02  0.47787270647E+02  0.19999998189E+02 0.  0.
        -12    1    1    2    0    0 -0.21493400881E+02  0.49369740326E+01 -0.37380253000E+02  0.43400729353E+02  0.00000000000E+00 0.  1.
         11    1    3    3    0    0  0.10580591881E+02  0.32211023604E+01  0.16269891461E+02  0.19673174462E+02  0.51100000000E-03 0. -1.
        -11    1    3    3    0    0  0.10662027579E+02 -0.88586619242E+01  0.10279105842E+02  0.17257309766E+02  0.51100000000E-03 0.  1.
        -12    1    3    3    0    0  0.25078142079E+00  0.70058553123E+00  0.10831255696E+02  0.10856786420E+02  0.00000000000E+00 0.  1.
</event>
<event>
 7    1  0.2458979E-009  0.4778727E+02  0.7816164E-02  0.1312668E+00
        -11   -1    0    0    0    0  0.00000000000E+00  0.00000000000E+00  0.45593999997E+02  0.45594000000E+02  0.51100000000E-03 0. -1.
         11   -1    0    0    0    0 -0.00000000000E+00 -0.00000000000E+00 -0.45593999997E+02  0.45594000000E+02  0.51100000000E-03 0.  1.
    9900012    2    1    2    0    0  0.68652525145E+01  0.26002390438E+02  0.34064164587E+02  0.47787270633E+02  0.19999998126E+02 0.  0.
        -12    1    1    2    0    0 -0.68652525145E+01 -0.26002390438E+02 -0.34064164587E+02  0.43400729367E+02  0.00000000000E+00 0.  1.
         11    1    3    3    0    0  0.28591668766E+01  0.90611797856E+01  0.21381553360E+02  0.23397663103E+02  0.51100000000E-03 0. -1.
        -11    1    3    3    0    0  0.43269220061E+01  0.10031589422E+02  0.12082360130E+01  0.10991582002E+02  0.51100000000E-03 0.  1.
        -12    1    3    3    0    0 -0.32083636824E+00  0.69096212305E+01  0.11474375214E+02  0.13398025529E+02  0.00000000000E+00 0.  1.
</event>
<event>
 7    1  0.2458979E-009  0.4778727E+02  0.7816164E-02  0.1312668E+00
        -11   -1    0    0    0    0  0.00000000000E+00  0.00000000000E+00  0.45593999997E+02  0.45594000000E+02  0.51100000000E-03 0.  1.
         11   -1    0    0    0    0 -0.00000000000E+00 -0.00000000000E+00 -0.45593999997E+02  0.45594000000E+02  0.51100000000E-03 0. -1.
    9900012    2    1    2    0    0 -0.19539161719E+02  0.27642850190E+02 -0.27160944883E+02  0.47787274957E+02  0.20000017837E+02 0.  0.
        -12    1    1    2    0    0  0.19539161719E+02 -0.27642850190E+02  0.27160944883E+02  0.43400725043E+02  0.00000000000E+00 0.  1.
         11    1    3    3    0    0 -0.16029772659E+01  0.36369750645E+01 -0.27777047378E+01  0.48489965566E+01  0.51100000000E-03 0. -1.
        -11    1    3    3    0    0 -0.50448098307E+01  0.21260895683E+02 -0.12397879034E+02  0.25123359574E+02  0.51100000000E-03 0.  1.
        -12    1    3    3    0    0 -0.12891374623E+02  0.27449794430E+01 -0.11985361112E+02  0.17814918826E+02  0.00000000000E+00 0.  1.
</event>
<event>
 7    1  0.2458979E-009  0.4778727E+02  0.7816164E-02  0.1312668E+00
        -11   -1    0    0    0    0  0.00000000000E+00  0.00000000000E+00  0.45593999997E+02  0.45594000000E+02  0.51100000000E-03 0.  1.
         11   -1    0    0    0    0 -0.00000000000E+00 -0.00000000000E+00 -0.45593999997E+02  0.45594000000E+02  0.51100000000E-03 0. -1.
    9900012    2    1    2    0    0  0.23799691762E+02  0.96378371821E+01 -0.34990138784E+02  0.47787273674E+02  0.20000011988E+02 0.  0.
        -12    1    1    2    0    0 -0.23799691762E+02 -0.96378371821E+01  0.34990138784E+02  0.43400726326E+02  0.00000000000E+00 0.  1.
         11    1    3    3    0    0  0.17217108247E+02  0.12282348882E+02 -0.26675905865E+02  0.34042456792E+02  0.51100000000E-03 0. -1.
        -11    1    3    3    0    0  0.32693117035E+00  0.93291978825E+00  0.13601561299E+01  0.16814423214E+01  0.51100000000E-03 0.  1.
         12    1    3    3    0    0  0.62556523451E+01 -0.35774314885E+01 -0.96743890488E+01  0.12063374560E+02  0.00000000000E+00 0. -1.
</event>
<event>
 7    1  0.2458979E-009  0.4778726E+02  0.7816164E-02  0.1312668E+00
        -11   -1    0    0    0    0  0.00000000000E+00  0.00000000000E+00  0.45593999997E+02  0.45594000000E+02  0.51100000000E-03 0. -1.
         11   -1    0    0    0    0 -0.00000000000E+00 -0.00000000000E+00 -0.45593999997E+02  0.45594000000E+02  0.51100000000E-03 0.  1.
    9900012    2    1    2    0    0 -0.27583002910E+02 -0.12938595638E+02  0.30909466596E+02  0.47787257703E+02  0.19999939172E+02 0.  0.
        -12    1    1    2    0    0  0.27583002910E+02  0.12938595638E+02 -0.30909466596E+02  0.43400742297E+02  0.00000000000E+00 0.  1.
         11    1    3    3    0    0 -0.28459699290E+01 -0.95757140245E+01  0.41876224408E+01  0.10831898536E+02  0.51100000000E-03 0. -1.
        -11    1    3    3    0    0 -0.32830747180E+00  0.70797168756E+00  0.76110190953E+00  0.10900853564E+01  0.51100000000E-03 0.  1.
         12    1    3    3    0    0 -0.24408725510E+02 -0.40708533009E+01  0.25960742246E+02  0.35865273811E+02  0.00000000000E+00 0. -1.
</event>
<event>
 7    1  0.2458979E-009  0.4778725E+02  0.7816164E-02  0.1312668E+00
        -11   -1    0    0    0    0  0.00000000000E+00  0.00000000000E+00  0.45593999997E+02  0.45594000000E+02  0.51100000000E-03 0. -1.
         11   -1    0    0    0    0 -0.00000000000E+00 -0.00000000000E+00 -0.45593999997E+02  0.45594000000E+02  0.51100000000E-03 0.  1.
    9900012    2    1    2    0    0 -0.21354672441E+02  0.37481571319E+02  0.47680876032E+01  0.47787252506E+02  0.19999915476E+02 0.  0.
        -12    1    1    2    0    0  0.21354672441E+02 -0.37481571319E+02 -0.47680876032E+01  0.43400747494E+02  0.00000000000E+00 0.  1.
         11    1    3    3    0    0 -0.14400124843E+02  0.33983781787E+02  0.42709496964E+01  0.37155107746E+02  0.51100000000E-03 0. -1.
        -11    1    3    3    0    0 -0.84240048782E+01  0.26044930591E+01 -0.81233343268E-01  0.88178138674E+01  0.51100000000E-03 0.  1.
        -12    1    3    3    0    0  0.14694572796E+01  0.89329647309E+00  0.57837125008E+00  0.18143308927E+01  0.00000000000E+00 0.  1.
</event>
<event>
 7    1  0.2458979E-009  0.4778727E+02  0.7816164E-02  0.1312668E+00
        -11   -1    0    0    0    0  0.00000000000E+00  0.00000000000E+00  0.45593999997E+02  0.45594000000E+02  0.51100000000E-03 0. -1.
         11   -1    0    0    0    0 -0.00000000000E+00 -0.00000000000E+00 -0.45593999997E+02  0.45594000000E+02  0.51100000000E-03 0.  1.
    9900012    2    1    2    0    0  0.37900880553E+02 -0.47348321110E+01  0.20608936820E+02  0.47787266611E+02  0.19999979787E+02 0.  0.
        -12    1    1    2    0    0 -0.37900880553E+02  0.47348321110E+01 -0.20608936820E+02  0.43400733389E+02  0.00000000000E+00 0.  1.
         11    1    3    3    0    0  0.12359256758E+02 -0.72282460813E+01  0.47329417937E+01  0.15079771460E+02  0.51100000000E-03 0. -1.
        -11    1    3    3    0    0  0.82876486535E+01  0.55033423751E+01  0.10316293673E+02  0.14331706560E+02  0.51100000000E-03 0.  1.
         12    1    3    3    0    0  0.17253975142E+02 -0.30099284049E+01  0.55597013534E+01  0.18375788591E+02  0.00000000000E+00 0. -1.
</event>
<event>
 7    1  0.2458979E-009  0.4778726E+02  0.7816164E-02  0.1312668E+00
        -11   -1    0    0    0    0  0.00000000000E+00  0.00000000000E+00  0.45593999997E+02  0.45594000000E+02  0.51100000000E-03 0.  1.
         11   -1    0    0    0    0 -0.00000000000E+00 -0.00000000000E+00 -0.45593999997E+02  0.45594000000E+02  0.51100000000E-03 0. -1.
    9900012    2    1    2    0    0 -0.34773037384E+01  0.25328979654E+02 -0.35071006751E+02  0.47787258461E+02  0.19999942627E+02 0.  0.
        -12    1    1    2    0    0  0.34773037384E+01 -0.25328979654E+02  0.35071006751E+02  0.43400741539E+02  0.00000000000E+00 0.  1.
         11    1    3    3    0    0  0.18617680214E+01 -0.95415332707E+00 -0.60040438378E+01  0.63580760773E+01  0.51100000000E-03 0. -1.
        -11    1    3    3    0    0 -0.17418871105E+01 -0.99525947337E+00 -0.20202764200E+01  0.28471440426E+01  0.51100000000E-03 0.  1.
         12    1    3    3    0    0 -0.35971846494E+01  0.27278392455E+02 -0.27046686493E+02  0.38582038341E+02  0.00000000000E+00 0. -1.
</event>
<event>
 7    1  0.2458979E-009  0.4778727E+02  0.7816164E-02  0.1312668E+00
        -11   -1    0    0    0    0  0.00000000000E+00  0.00000000000E+00  0.45593999997E+02  0.45594000000E+02  0.51100000000E-03 0. -1.
         11   -1    0    0    0    0 -0.00000000000E+00 -0.00000000000E+00 -0.45593999997E+02  0.45594000000E+02  0.51100000000E-03 0.  1.
    9900012    2    1    2    0    0 -0.30699097446E+02  0.71551183417E+01  0.29832747636E+02  0.47787272656E+02  0.20000007348E+02 0.  0.
        -12    1    1    2    0    0  0.30699097446E+02 -0.71551183417E+01 -0.29832747636E+02  0.43400727344E+02  0.00000000000E+00 0.  1.
         11    1    3    3    0    0 -0.19513165844E+02 -0.47048591020E+01  0.19910155986E+02  0.28272135612E+02  0.51100000000E-03 0. -1.
        -11    1    3    3    0    0 -0.57582659144E+01  0.89533574902E+01  0.61374757667E+01  0.12287751859E+02  0.51100000000E-03 0.  1.
        -12    1    3    3    0    0 -0.54276656877E+01  0.29066199535E+01  0.37851158831E+01  0.72273851855E+01  0.00000000000E+00 0.  1.
</event>
<event>
 7    1  0.2458979E-009  0.4778726E+02  0.7816164E-02  0.1312668E+00
        -11   -1    0    0    0    0  0.00000000000E+00  0.00000000000E+00  0.45593999997E+02  0.45594000000E+02  0.51100000000E-03 0.  1.
         11   -1    0    0    0    0 -0.00000000000E+00 -0.00000000000E+00 -0.45593999997E+02  0.45594000000E+02  0.51100000000E-03 0. -1.
    9900012    2    1    2    0    0  0.36282620214E+01  0.62714368207E+01 -0.42791690585E+02  0.47787262815E+02  0.19999962478E+02 0.  0.
        -12    1    1    2    0    0 -0.36282620214E+01 -0.62714368207E+01  0.42791690585E+02  0.43400737185E+02  0.00000000000E+00 0.  1.
         11    1    3    3    0    0  0.56562958512E+01  0.15166404029E+01 -0.27578608044E+01  0.64729960101E+01  0.51100000000E-03 0. -1.
        -11    1    3    3    0    0 -0.21231516348E+01 -0.17892373608E+01 -0.54488097960E+01  0.61154453355E+01  0.51100000000E-03 0.  1.
         12    1    3    3    0    0  0.95117804927E-01  0.65440337786E+01 -0.34585019985E+02  0.35198821469E+02  0.00000000000E+00 0. -1.
</event>
<event>
 7    1  0.2458979E-009  0.4778726E+02  0.7816164E-02  0.1312668E+00
        -11   -1    0    0    0    0  0.00000000000E+00  0.00000000000E+00  0.45593999997E+02  0.45594000000E+02  0.51100000000E-03 0.  1.
         11   -1    0    0    0    0 -0.00000000000E+00 -0.00000000000E+00 -0.45593999997E+02  0.45594000000E+02  0.51100000000E-03 0. -1.
    9900012    2    1    2    0    0  0.43220050622E+02  0.30534458018E+01 -0.25155751364E+01  0.47787257779E+02  0.19999939519E+02 0.  0.
        -12    1    1    2    0    0 -0.43220050622E+02 -0.30534458018E+01  0.25155751364E+01  0.43400742221E+02  0.00000000000E+00 0.  1.
         11    1    3    3    0    0  0.93146533782E+01  0.73284389090E+01  0.48235510568E+01  0.12795914561E+02  0.51100000000E-03 0. -1.
        -11    1    3    3    0    0  0.34606483343E+01 -0.81628792248E+00 -0.43074176228E+00  0.35816129876E+01  0.51100000000E-03 0.  1.
         12    1    3    3    0    0  0.30444748910E+02 -0.34587051847E+01 -0.69083844309E+01  0.31409730231E+02  0.00000000000E+00 0. -1.
</event>
<event>
 7    1  0.2458979E-009  0.4778727E+02  0.7816164E-02  0.1312668E+00
        -11   -1    0    0    0    0  0.00000000000E+00  0.00000000000E+00  0.45593999997E+02  0.45594000000E+02  0.51100000000E-03 0.  1.
         11   -1    0    0    0    0 -0.00000000000E+00 -0.00000000000E+00 -0.45593999997E+02  0.45594000000E+02  0.51100000000E-03 0. -1.
    9900012    2    1    2    0    0 -0.20908099525E+02 -0.19569353129E+02 -0.32611578161E+02  0.47787271460E+02  0.20000001896E+02 0.  0.
        -12    1    1    2    0    0  0.20908099525E+02  0.19569353129E+02  0.32611578161E+02  0.43400728540E+02  0.00000000000E+00 0.  1.
         11    1    3    3    0    0 -0.14792555835E+02 -0.72029054492E+01 -0.22573934976E+02  0.27933565751E+02  0.51100000000E-03 0. -1.
        -11    1    3    3    0    0 -0.18602282465E+01 -0.95080405384E+00 -0.69897400828E+01  0.72952686149E+01  0.51100000000E-03 0.  1.
         12    1    3    3    0    0 -0.42553154442E+01 -0.11415643626E+02 -0.30479031019E+01  0.12558437094E+02  0.00000000000E+00 0. -1.
</event>
<event>
 7    1  0.2458979E-009  0.4778727E+02  0.7816164E-02  0.1312668E+00
        -11   -1    0    0    0    0  0.00000000000E+00  0.00000000000E+00  0.45593999997E+02  0.45594000000E+02  0.51100000000E-03 0. -1.
         11   -1    0    0    0    0 -0.00000000000E+00 -0.00000000000E+00 -0.45593999997E+02  0.45594000000E+02  0.51100000000E-03 0.  1.
    9900012    2    1    2    0    0  0.13067223676E+02 -0.40416658357E+02  0.89086891494E+01  0.47787270171E+02  0.19999996016E+02 0.  0.
        -12    1    1    2    0    0 -0.13067223676E+02  0.40416658357E+02 -0.89086891494E+01  0.43400729829E+02  0.00000000000E+00 0.  1.
         11    1    3    3    0    0  0.96247229799E+01 -0.15536837779E+02  0.62046482696E+00  0.18286978905E+02  0.51100000000E-03 0. -1.
        -11    1    3    3    0    0 -0.38017685397E+01 -0.20766412082E+01  0.19379612171E+01  0.47456903267E+01  0.51100000000E-03 0.  1.
        -12    1    3    3    0    0  0.72442692353E+01 -0.22803179370E+02  0.63502631054E+01  0.24754600939E+02  0.00000000000E+00 0.  1.
</event>
<event>
 7    1  0.2458979E-009  0.4778727E+02  0.7816164E-02  0.1312668E+00
        -11   -1    0    0    0    0  0.00000000000E+00  0.00000000000E+00  0.45593999997E+02  0.45594000000E+02  0.51100000000E-03 0.  1.
         11   -1    0    0    0    0 -0.00000000000E+00 -0.00000000000E+00 -0.45593999997E+02  0.45594000000E+02  0.51100000000E-03 0. -1.
    9900012    2    1    2    0    0 -0.96690250802E+00  0.37920097289E+02 -0.21089216979E+02  0.47787265540E+02  0.19999974904E+02 0.  0.
        -12    1    1    2    0    0  0.96690250802E+00 -0.37920097289E+02  0.21089216979E+02  0.43400734460E+02  0.00000000000E+00 0.  1.
         11    1    3    3    0    0  0.31503539960E+01  0.15582451949E+02 -0.18010440036E+02  0.24023186500E+02  0.51100000000E-03 0. -1.
        -11    1    3    3    0    0 -0.20209262415E-01  0.15975773889E+02 -0.25570798564E+01  0.16179135250E+02  0.51100000000E-03 0.  1.
         12    1    3    3    0    0 -0.40970472416E+01  0.63618714505E+01 -0.52169708603E+00  0.75849437903E+01  0.00000000000E+00 0. -1.
</event>
<event>
 7    1  0.2458979E-009  0.4778727E+02  0.7816164E-02  0.1312668E+00
        -11   -1    0    0    0    0  0.00000000000E+00  0.00000000000E+00  0.45593999997E+02  0.45594000000E+02  0.51100000000E-03 0.  1.
         11   -1    0    0    0    0 -0.00000000000E+00 -0.00000000000E+00 -0.45593999997E+02  0.45594000000E+02  0.51100000000E-03 0. -1.
    9900012    2    1    2    0    0  0.10319611507E+01 -0.21505357118E+02 -0.37683922543E+02  0.47787270204E+02  0.19999996168E+02 0.  0.
        -12    1    1    2    0    0 -0.10319611507E+01  0.21505357118E+02  0.37683922543E+02  0.43400729796E+02  0.00000000000E+00 0.  1.
         11    1    3    3    0    0  0.30035545190E+01 -0.15562563424E-01 -0.15723101504E+02  0.16007420252E+02  0.51100000000E-03 0. -1.
        -11    1    3    3    0    0  0.16887726623E+01 -0.10611828983E+02 -0.66203846496E+01  0.12621107742E+02  0.51100000000E-03 0.  1.
        -12    1    3    3    0    0 -0.36603660307E+01 -0.10877965571E+02 -0.15340436389E+02  0.19158742210E+02  0.00000000000E+00 0.  1.
</event>
<event>
 7    1  0.2458979E-009  0.4778727E+02  0.7816164E-02  0.1312668E+00
        -11   -1    0    0    0    0  0.00000000000E+00  0.00000000000E+00  0.45593999997E+02  0.45594000000E+02  0.51100000000E-03 0.  1.
         11   -1    0    0    0    0 -0.00000000000E+00 -0.00000000000E+00 -0.45593999997E+02  0.45594000000E+02  0.51100000000E-03 0. -1.
    9900012    2    1    2    0    0  0.11757372483E+02  0.31720271628E+02 -0.27188458585E+02  0.47787265904E+02  0.19999976563E+02 0.  0.
        -12    1    1    2    0    0 -0.11757372483E+02 -0.31720271628E+02  0.27188458585E+02  0.43400734096E+02  0.00000000000E+00 0.  1.
         11    1    3    3    0    0  0.12885043666E+02  0.88433174933E+01 -0.75719105331E+01  0.17365553373E+02  0.51100000000E-03 0.  1.
        -11    1    3    3    0    0  0.35148551707E+00  0.18433045060E+02 -0.16883133612E+02  0.24998817833E+02  0.51100000000E-03 0. -1.
        -12    1    3    3    0    0 -0.14791567000E+01  0.44439090744E+01 -0.27334144403E+01  0.54228946982E+01  0.00000000000E+00 0.  1.
</event>
<event>
 7    1  0.2458979E-009  0.4778726E+02  0.7816164E-02  0.1312668E+00
        -11   -1    0    0    0    0  0.00000000000E+00  0.00000000000E+00  0.45593999997E+02  0.45594000000E+02  0.51100000000E-03 0.  1.
         11   -1    0    0    0    0 -0.00000000000E+00 -0.00000000000E+00 -0.45593999997E+02  0.45594000000E+02  0.51100000000E-03 0. -1.
    9900012    2    1    2    0    0 -0.40659765797E+02 -0.15055125466E+02 -0.19367011918E+01  0.47787260733E+02  0.19999952985E+02 0.  0.
        -12    1    1    2    0    0  0.40659765797E+02  0.15055125466E+02  0.19367011918E+01  0.43400739267E+02  0.00000000000E+00 0.  1.
         11    1    3    3    0    0 -0.11636691221E+02 -0.11481253508E+02 -0.33607916417E+01  0.16689118772E+02  0.51100000000E-03 0. -1.
        -11    1    3    3    0    0 -0.24102777832E+02 -0.72917838060E+00 -0.24227584147E+01  0.24235209076E+02  0.51100000000E-03 0.  1.
        -12    1    3    3    0    0 -0.49202967437E+01 -0.28446935770E+01  0.38468488646E+01  0.68629328847E+01  0.00000000000E+00 0.  1.
</event>
<event>
 7    1  0.2458979E-009  0.4778726E+02  0.7816164E-02  0.1312668E+00
        -11   -1    0    0    0    0  0.00000000000E+00  0.00000000000E+00  0.45593999997E+02  0.45594000000E+02  0.51100000000E-03 0. -1.
         11   -1    0    0    0    0 -0.00000000000E+00 -0.00000000000E+00 -0.45593999997E+02  0.45594000000E+02  0.51100000000E-03 0.  1.
    9900012    2    1    2    0    0 -0.25450951444E+02 -0.16037792489E+02  0.31283581212E+02  0.47787260712E+02  0.19999952888E+02 0.  0.
        -12    1    1    2    0    0  0.25450951444E+02  0.16037792489E+02 -0.31283581212E+02  0.43400739288E+02  0.00000000000E+00 0.  1.
         11    1    3    3    0    0 -0.35628746444E+01 -0.89759170633E+01  0.15795453648E+02  0.18513711650E+02  0.51100000000E-03 0. -1.
        -11    1    3    3    0    0  0.12104521604E+00 -0.16968560335E+01 -0.20759117534E+00  0.17137872388E+01  0.51100000000E-03 0.  1.
         12    1    3    3    0    0 -0.22009122015E+02 -0.53650193927E+01  0.15695718740E+02  0.27559761823E+02  0.00000000000E+00 0. -1.
</event>
<event>
 7    1  0.2458979E-009  0.4778727E+02  0.7816164E-02  0.1312668E+00
        -11   -1    0    0    0    0  0.00000000000E+00  0.00000000000E+00  0.45593999997E+02  0.45594000000E+02  0.51100000000E-03 0.  1.
         11   -1    0    0    0    0 -0.00000000000E+00 -0.00000000000E+00 -0.45593999997E+02  0.45594000000E+02  0.51100000000E-03 0. -1.
    9900012    2    1    2    0    0 -0.71284488557E+00 -0.13071213029E+02 -0.41379450172E+02  0.47787266660E+02  0.19999980012E+02 0.  0.
        -12    1    1    2    0    0  0.71284488557E+00  0.13071213029E+02  0.41379450172E+02  0.43400733340E+02  0.00000000000E+00 0.  1.
         11    1    3    3    0    0  0.18238603937E+00 -0.11267693918E+02 -0.34271438790E+02  0.36076664312E+02  0.51100000000E-03 0. -1.
        -11    1    3    3    0    0 -0.13861548882E+01  0.34759449211E+01 -0.43358434603E+01  0.57274040579E+01  0.51100000000E-03 0.  1.
         12    1    3    3    0    0  0.49092396323E+00 -0.52794640315E+01 -0.27721679219E+01  0.59831982906E+01  0.00000000000E+00 0. -1.
</event>
<event>
 7    1  0.2458979E-009  0.4778727E+02  0.7816164E-02  0.1312668E+00
        -11   -1    0    0    0    0  0.00000000000E+00  0.00000000000E+00  0.45593999997E+02  0.45594000000E+02  0.51100000000E-03 0.  1.
         11   -1    0    0    0    0 -0.00000000000E+00 -0.00000000000E+00 -0.45593999997E+02  0.45594000000E+02  0.51100000000E-03 0. -1.
    9900012    2    1    2    0    0 -0.25287091563E+02 -0.18463475452E+02 -0.30054722522E+02  0.47787271074E+02  0.20000000133E+02 0.  0.
        -12    1    1    2    0    0  0.25287091563E+02  0.18463475452E+02  0.30054722522E+02  0.43400728926E+02  0.00000000000E+00 0.  1.
         11    1    3    3    0    0 -0.11036979343E+02 -0.12032610354E+02 -0.15519919456E+02  0.22527017671E+02  0.51100000000E-03 0. -1.
        -11    1    3    3    0    0 -0.14271943039E+02 -0.17169493157E+00 -0.11360008963E+02  0.18241919887E+02  0.51100000000E-03 0.  1.
        -12    1    3    3    0    0  0.21830818552E-01 -0.62591701657E+01 -0.31747941026E+01  0.70183335160E+01  0.00000000000E+00 0.  1.
</event>
<event>
 7    1  0.2458979E-009  0.4778727E+02  0.7816164E-02  0.1312668E+00
        -11   -1    0    0    0    0  0.00000000000E+00  0.00000000000E+00  0.45593999997E+02  0.45594000000E+02  0.51100000000E-03 0.  1.
         11   -1    0    0    0    0 -0.00000000000E+00 -0.00000000000E+00 -0.45593999997E+02  0.45594000000E+02  0.51100000000E-03 0. -1.
    9900012    2    1    2    0    0 -0.14471731915E+02 -0.17448745569E+02 -0.37009911848E+02  0.47787270495E+02  0.19999997495E+02 0.  0.
        -12    1    1    2    0    0  0.14471731915E+02  0.17448745569E+02  0.37009911848E+02  0.43400729505E+02  0.00000000000E+00 0.  1.
         11    1    3    3    0    0 -0.36973277826E+01  0.15764163049E+01 -0.13125939449E+02  0.13727549227E+02  0.51100000000E-03 0. -1.
        -11    1    3    3    0    0 -0.11658800821E+02 -0.16173178017E+02 -0.15790596854E+02  0.25433094052E+02  0.51100000000E-03 0.  1.
        -12    1    3    3    0    0  0.88439668850E+00 -0.28519838564E+01 -0.80933755453E+01  0.86266272168E+01  0.00000000000E+00 0.  1.
</event>
<event>
 7    1  0.2458979E-009  0.4778727E+02  0.7816164E-02  0.1312668E+00
        -11   -1    0    0    0    0  0.00000000000E+00  0.00000000000E+00  0.45593999997E+02  0.45594000000E+02  0.51100000000E-03 0.  1.
         11   -1    0    0    0    0 -0.00000000000E+00 -0.00000000000E+00 -0.45593999997E+02  0.45594000000E+02  0.51100000000E-03 0. -1.
    9900012    2    1    2    0    0 -0.78863918615E+01  0.28855818409E+01 -0.42580528868E+02  0.47787271920E+02  0.20000003992E+02 0.  0.
        -12    1    1    2    0    0  0.78863918615E+01 -0.28855818409E+01  0.42580528868E+02  0.43400728080E+02  0.00000000000E+00 0.  1.
         11    1    3    3    0    0 -0.73260578128E+01  0.15117088082E+01 -0.11833858202E+02  0.13999878099E+02  0.51100000000E-03 0. -1.
        -11    1    3    3    0    0  0.54993713339E+00 -0.96749384174E+00 -0.31145700880E+02  0.31165576503E+02  0.51100000000E-03 0.  1.
        -12    1    3    3    0    0 -0.11102711821E+01  0.23413668744E+01  0.39903021310E+00  0.26218173181E+01  0.00000000000E+00 0.  1.
</event>
<event>
 7    1  0.2458979E-009  0.4778726E+02  0.7816164E-02  0.1312668E+00
        -11   -1    0    0    0    0  0.00000000000E+00  0.00000000000E+00  0.45593999997E+02  0.45594000000E+02  0.51100000000E-03 0.  1.
         11   -1    0    0    0    0 -0.00000000000E+00 -0.00000000000E+00 -0.45593999997E+02  0.45594000000E+02  0.51100000000E-03 0. -1.
    9900012    2    1    2    0    0  0.23489425811E+02 -0.20923987654E+02  0.29900804343E+02  0.47787257096E+02  0.19999936403E+02 0.  0.
        -12    1    1    2    0    0 -0.23489425811E+02  0.20923987654E+02 -0.29900804343E+02  0.43400742904E+02  0.00000000000E+00 0.  1.
         11    1    3    3    0    0  0.62006518020E+01  0.14745021688E+01  0.12493980857E+01  0.64948622197E+01  0.51100000000E-03 0. -1.
        -11    1    3    3    0    0  0.16902445875E+02 -0.23177488422E+02  0.28446259877E+02  0.40398989435E+02  0.51100000000E-03 0.  1.
        -12    1    3    3    0    0  0.38632813439E+00  0.77899859945E+00  0.20514637979E+00  0.89340544128E+00  0.00000000000E+00 0.  1.
</event>
<event>
 7    1  0.2458979E-009  0.4778727E+02  0.7816164E-02  0.1312668E+00
        -11   -1    0    0    0    0  0.00000000000E+00  0.00000000000E+00  0.45593999997E+02  0.45594000000E+02  0.51100000000E-03 0.  1.
         11   -1    0    0    0    0 -0.00000000000E+00 -0.00000000000E+00 -0.45593999997E+02  0.45594000000E+02  0.51100000000E-03 0. -1.
    9900012    2    1    2    0    0  0.61425473423E+01  0.39107782430E+02  0.17789705414E+02  0.47787272435E+02  0.20000006339E+02 0.  0.
        -12    1    1    2    0    0 -0.61425473423E+01 -0.39107782430E+02 -0.17789705414E+02  0.43400727565E+02  0.00000000000E+00 0.  1.
         11    1    3    3    0    0  0.89843697409E+01  0.12724935624E+02  0.10101943506E+02  0.18565886704E+02  0.51100000000E-03 0. -1.
        -11    1    3    3    0    0 -0.48988624882E+01  0.21269361455E+02  0.30902766471E+01  0.22043919805E+02  0.51100000000E-03 0.  1.
        -12    1    3    3    0    0  0.20570400896E+01  0.51134853518E+01  0.45974852616E+01  0.71774659249E+01  0.00000000000E+00 0.  1.
</event>
<event>
 7    1  0.2458979E-009  0.4778727E+02  0.7816164E-02  0.1312668E+00
        -11   -1    0    0    0    0  0.00000000000E+00  0.00000000000E+00  0.45593999997E+02  0.45594000000E+02  0.51100000000E-03 0.  1.
         11   -1    0    0    0    0 -0.00000000000E+00 -0.00000000000E+00 -0.45593999997E+02  0.45594000000E+02  0.51100000000E-03 0. -1.
    9900012    2    1    2    0    0 -0.38351020259E+02  0.20113630458E+02 -0.28747813019E+01  0.47787271289E+02  0.20000001116E+02 0.  0.
        -12    1    1    2    0    0  0.38351020259E+02 -0.20113630458E+02  0.28747813019E+01  0.43400728711E+02  0.00000000000E+00 0.  1.
         11    1    3    3    0    0 -0.13624780749E+02  0.32121252024E+01 -0.35088053043E+01  0.14431358692E+02  0.51100000000E-03 0. -1.
        -11    1    3    3    0    0 -0.19893117687E+02  0.12630175835E+02  0.67038197852E+01  0.24498952485E+02  0.51100000000E-03 0.  1.
        -12    1    3    3    0    0 -0.48331218240E+01  0.42713294207E+01 -0.60697957828E+01  0.88569601123E+01  0.00000000000E+00 0.  1.
</event>
<event>
 7    1  0.2458979E-009  0.4778734E+02  0.7816164E-02  0.1312667E+00
        -11   -1    0    0    0    0  0.00000000000E+00  0.00000000000E+00  0.45593999997E+02  0.45594000000E+02  0.51100000000E-03 0. -1.
         11   -1    0    0    0    0 -0.00000000000E+00 -0.00000000000E+00 -0.45593999997E+02  0.45594000000E+02  0.51100000000E-03 0.  1.
    9900012    2    1    2    0    0  0.21565778447E+02 -0.30073251308E+02  0.22674531501E+02  0.47787336145E+02  0.20000296816E+02 0.  0.
        -12    1    1    2    0    0 -0.21565778447E+02  0.30073251308E+02 -0.22674531501E+02  0.43400663855E+02  0.00000000000E+00 0.  1.
         11    1    3    3    0    0  0.88138096684E+01 -0.25771787589E+02  0.18440416111E+02  0.32892510136E+02  0.51100000000E-03 0. -1.
        -11    1    3    3    0    0  0.89109683044E+01 -0.32781948146E+01  0.60782238616E+00  0.95142716841E+01  0.51100000000E-03 0.  1.
         12    1    3    3    0    0  0.38410004745E+01 -0.10232689044E+01  0.36262930039E+01  0.53805543252E+01  0.00000000000E+00 0. -1.
</event>
<event>
 7    1  0.2458979E-009  0.4778727E+02  0.7816164E-02  0.1312668E+00
        -11   -1    0    0    0    0  0.00000000000E+00  0.00000000000E+00  0.45593999997E+02  0.45594000000E+02  0.51100000000E-03 0.  1.
         11   -1    0    0    0    0 -0.00000000000E+00 -0.00000000000E+00 -0.45593999997E+02  0.45594000000E+02  0.51100000000E-03 0. -1.
    9900012    2    1    2    0    0  0.17504523389E+02 -0.17508355548E+02 -0.35646496222E+02  0.47787267910E+02  0.19999985708E+02 0.  0.
        -12    1    1    2    0    0 -0.17504523389E+02  0.17508355548E+02  0.35646496222E+02  0.43400732090E+02  0.00000000000E+00 0.  1.
         11    1    3    3    0    0  0.10282389006E+02 -0.12714584040E+02 -0.15244831007E+02  0.22356051612E+02  0.51100000000E-03 0. -1.
        -11    1    3    3    0    0  0.93281716878E+00  0.37520075975E+01 -0.93136366080E+01  0.10084222132E+02  0.51100000000E-03 0.  1.
        -12    1    3    3    0    0  0.62893172136E+01 -0.85457791052E+01 -0.11088028607E+02  0.15346994165E+02  0.00000000000E+00 0.  1.
</event>
<event>
 7    1  0.2458979E-009  0.4778727E+02  0.7816164E-02  0.1312668E+00
        -11   -1    0    0    0    0  0.00000000000E+00  0.00000000000E+00  0.45593999997E+02  0.45594000000E+02  0.51100000000E-03 0. -1.
         11   -1    0    0    0    0 -0.00000000000E+00 -0.00000000000E+00 -0.45593999997E+02  0.45594000000E+02  0.51100000000E-03 0.  1.
    9900012    2    1    2    0    0 -0.22286482285E+02 -0.37222906519E+02 -0.11796251978E+01  0.47787267541E+02  0.19999984028E+02 0.  0.
        -12    1    1    2    0    0  0.22286482285E+02  0.37222906519E+02  0.11796251978E+01  0.43400732459E+02  0.00000000000E+00 0.  1.
         11    1    3    3    0    0 -0.14314630364E+02 -0.30438051875E+02 -0.48457948195E+00  0.33639537184E+02  0.51100000000E-03 0. -1.
        -11    1    3    3    0    0 -0.97674664036E+01 -0.52280671387E+01 -0.22538929840E+01  0.11305579145E+02  0.51100000000E-03 0.  1.
         12    1    3    3    0    0  0.17956144835E+01 -0.15567875054E+01  0.15588472681E+01  0.28421512127E+01  0.00000000000E+00 0. -1.
</event>
<event>
 7    1  0.2458979E-009  0.4778727E+02  0.7816164E-02  0.1312668E+00
        -11   -1    0    0    0    0  0.00000000000E+00  0.00000000000E+00  0.45593999997E+02  0.45594000000E+02  0.51100000000E-03 0.  1.
         11   -1    0    0    0    0 -0.00000000000E+00 -0.00000000000E+00 -0.45593999997E+02  0.45594000000E+02  0.51100000000E-03 0. -1.
    9900012    2    1    2    0    0 -0.31076876143E+02  0.26449270381E+02 -0.14774550000E+02  0.47787268875E+02  0.19999990109E+02 0.  0.
        -12    1    1    2    0    0  0.31076876143E+02 -0.26449270381E+02  0.14774550000E+02  0.43400731125E+02  0.00000000000E+00 0.  1.
         11    1    3    3    0    0 -0.29123466412E+01  0.38837397370E+01  0.63706123975E+00  0.48960233443E+01  0.51100000000E-03 0. -1.
        -11    1    3    3    0    0  0.74431839055E+00  0.15170397326E+01  0.24046673694E+01  0.29390210675E+01  0.51100000000E-03 0.  1.
        -12    1    3    3    0    0 -0.28908847892E+02  0.21048490911E+02 -0.17816278609E+02  0.39952224463E+02  0.00000000000E+00 0.  1.
</event>
<event>
 7    1  0.2458979E-009  0.4778728E+02  0.7816164E-02  0.1312668E+00
        -11   -1    0    0    0    0  0.00000000000E+00  0.00000000000E+00  0.45593999997E+02  0.45594000000E+02  0.51100000000E-03 0.  1.
         11   -1    0    0    0    0 -0.00000000000E+00 -0.00000000000E+00 -0.45593999997E+02  0.45594000000E+02  0.51100000000E-03 0. -1.
    9900012    2    1    2    0    0 -0.13472084733E+02 -0.31488626401E+02 -0.26656933205E+02  0.47787277108E+02  0.20000027647E+02 0.  0.
        -12    1    1    2    0    0  0.13472084733E+02  0.31488626401E+02  0.26656933205E+02  0.43400722892E+02  0.00000000000E+00 0.  1.
         11    1    3    3    0    0 -0.11225699996E+02 -0.28038597051E+02 -0.22210021758E+02  0.37489522960E+02  0.51100000000E-03 0. -1.
        -11    1    3    3    0    0 -0.24845590713E+01  0.23756675487E+01 -0.19779003492E+01  0.39659702638E+01  0.51100000000E-03 0.  1.
         12    1    3    3    0    0  0.23817433434E+00 -0.58256968980E+01 -0.24690110970E+01  0.63317838844E+01  0.00000000000E+00 0. -1.
</event>
<event>
 7    1  0.2458979E-009  0.4778727E+02  0.7816164E-02  0.1312668E+00
        -11   -1    0    0    0    0  0.00000000000E+00  0.00000000000E+00  0.45593999997E+02  0.45594000000E+02  0.51100000000E-03 0. -1.
         11   -1    0    0    0    0 -0.00000000000E+00 -0.00000000000E+00 -0.45593999997E+02  0.45594000000E+02  0.51100000000E-03 0.  1.
    9900012    2    1    2    0    0 -0.40625017929E+02  0.11549224011E+02 -0.99923147426E+01  0.47787274074E+02  0.20000013814E+02 0.  0.
        -12    1    1    2    0    0  0.40625017929E+02 -0.11549224011E+02  0.99923147426E+01  0.43400725926E+02  0.00000000000E+00 0.  1.
         11    1    3    3    0    0 -0.28520030589E+02  0.68029319839E+01 -0.56345042579E+01  0.29856651970E+02  0.51100000000E-03 0. -1.
        -11    1    3    3    0    0 -0.67342047130E+00 -0.30934845142E+01  0.57459308642E+00  0.32176542771E+01  0.51100000000E-03 0.  1.
        -12    1    3    3    0    0 -0.11431566868E+02  0.78397765414E+01 -0.49324035711E+01  0.14712967827E+02  0.00000000000E+00 0.  1.
</event>
<event>
 7    1  0.2458979E-009  0.4778727E+02  0.7816164E-02  0.1312668E+00
        -11   -1    0    0    0    0  0.00000000000E+00  0.00000000000E+00  0.45593999997E+02  0.45594000000E+02  0.51100000000E-03 0.  1.
         11   -1    0    0    0    0 -0.00000000000E+00 -0.00000000000E+00 -0.45593999997E+02  0.45594000000E+02  0.51100000000E-03 0. -1.
    9900012    2    1    2    0    0  0.21372536450E+02  0.15689078561E+02 -0.34361180092E+02  0.47787271922E+02  0.20000004002E+02 0.  0.
        -12    1    1    2    0    0 -0.21372536450E+02 -0.15689078561E+02  0.34361180092E+02  0.43400728078E+02  0.00000000000E+00 0.  1.
         11    1    3    3    0    0  0.25380368739E+01 -0.20074475829E+01 -0.79231820481E+01  0.85585215429E+01  0.51100000000E-03 0. -1.
        -11    1    3    3    0    0 -0.17771847760E+01 -0.43154081424E-01 -0.13903969716E+01  0.22568677415E+01  0.51100000000E-03 0.  1.
        -12    1    3    3    0    0  0.20611684352E+02  0.17739680225E+02 -0.25047601072E+02  0.36971882638E+02  0.00000000000E+00 0.  1.
</event>
<event>
 7    1  0.2458979E-009  0.4778727E+02  0.7816164E-02  0.1312668E+00
        -11   -1    0    0    0    0  0.00000000000E+00  0.00000000000E+00  0.45593999997E+02  0.45594000000E+02  0.51100000000E-03 0. -1.
         11   -1    0    0    0    0 -0.00000000000E+00 -0.00000000000E+00 -0.45593999997E+02  0.45594000000E+02  0.51100000000E-03 0.  1.
    9900012    2    1    2    0    0  0.72938522768E+01  0.38285484777E+02  0.19095671867E+02  0.47787270632E+02  0.19999998119E+02 0.  0.
        -12    1    1    2    0    0 -0.72938522768E+01 -0.38285484777E+02 -0.19095671867E+02  0.43400729368E+02  0.00000000000E+00 0.  1.
         11    1    3    3    0    0  0.52517666660E+00  0.18285439240E+02  0.29403424094E+01  0.18527782179E+02  0.51100000000E-03 0. -1.
        -11    1    3    3    0    0  0.67494102728E+01  0.14414902350E+02  0.17353152200E+02  0.23547310681E+02  0.51100000000E-03 0.  1.
        -12    1    3    3    0    0  0.19265337409E-01  0.55851431867E+01 -0.11978227425E+01  0.57121777714E+01  0.00000000000E+00 0.  1.
</event>
<event>
 7    1  0.2458979E-009  0.4778727E+02  0.7816164E-02  0.1312668E+00
        -11   -1    0    0    0    0  0.00000000000E+00  0.00000000000E+00  0.45593999997E+02  0.45594000000E+02  0.51100000000E-03 0. -1.
         11   -1    0    0    0    0 -0.00000000000E+00 -0.00000000000E+00 -0.45593999997E+02  0.45594000000E+02  0.51100000000E-03 0.  1.
    9900012    2    1    2    0    0  0.36152873783E+02 -0.20667702302E+02  0.12224526160E+02  0.47787271423E+02  0.20000001724E+02 0.  0.
        -12    1    1    2    0    0 -0.36152873783E+02  0.20667702302E+02 -0.12224526160E+02  0.43400728577E+02  0.00000000000E+00 0.  1.
         11    1    3    3    0    0  0.24000303438E+02 -0.27730303742E+01  0.45407382660E+01  0.24582973108E+02  0.51100000000E-03 0. -1.
        -11    1    3    3    0    0  0.58387749659E+01 -0.90418697675E+01  0.20458073981E+01  0.10955913023E+02  0.51100000000E-03 0.  1.
         12    1    3    3    0    0  0.63137953792E+01 -0.88528021604E+01  0.56379804959E+01  0.12248385292E+02  0.00000000000E+00 0. -1.
</event>
<event>
 7    1  0.2458979E-009  0.4778727E+02  0.7816164E-02  0.1312668E+00
        -11   -1    0    0    0    0  0.00000000000E+00  0.00000000000E+00  0.45593999997E+02  0.45594000000E+02  0.51100000000E-03 0. -1.
         11   -1    0    0    0    0 -0.00000000000E+00 -0.00000000000E+00 -0.45593999997E+02  0.45594000000E+02  0.51100000000E-03 0.  1.
    9900012    2    1    2    0    0  0.35291951771E+01 -0.12676572917E+02  0.41357857493E+02  0.47787273095E+02  0.20000009348E+02 0.  0.
        -12    1    1    2    0    0 -0.35291951771E+01  0.12676572917E+02 -0.41357857493E+02  0.43400726905E+02  0.00000000000E+00 0.  1.
         11    1    3    3    0    0 -0.31328609910E+01 -0.50762938632E+01  0.17059082050E+02  0.18071963315E+02  0.51100000000E-03 0. -1.
        -11    1    3    3    0    0  0.10537614382E+02 -0.30570119058E+01  0.13723647180E+02  0.17570575712E+02  0.51100000000E-03 0.  1.
        -12    1    3    3    0    0 -0.38755582135E+01 -0.45432671476E+01  0.10575128262E+02  0.12144734069E+02  0.00000000000E+00 0.  1.
</event>
<event>
 7    1  0.2458979E-009  0.4778727E+02  0.7816164E-02  0.1312668E+00
        -11   -1    0    0    0    0  0.00000000000E+00  0.00000000000E+00  0.45593999997E+02  0.45594000000E+02  0.51100000000E-03 0.  1.
         11   -1    0    0    0    0 -0.00000000000E+00 -0.00000000000E+00 -0.45593999997E+02  0.45594000000E+02  0.51100000000E-03 0. -1.
    9900012    2    1    2    0    0 -0.16447819023E+02  0.39878047001E+02 -0.47784582708E+01  0.47787273662E+02  0.20000011932E+02 0.  0.
        -12    1    1    2    0    0  0.16447819023E+02 -0.39878047001E+02  0.47784582708E+01  0.43400726338E+02  0.00000000000E+00 0.  1.
         11    1    3    3    0    0  0.17649177861E+01 -0.69092801156E+00 -0.74329778543E-01  0.18967976924E+01  0.51100000000E-03 0. -1.
        -11    1    3    3    0    0 -0.41440825315E+01  0.20921440759E+01 -0.10508949027E+01  0.47597129346E+01  0.51100000000E-03 0.  1.
         12    1    3    3    0    0 -0.14068654278E+02  0.38476830937E+02 -0.36532335895E+01  0.41130763035E+02  0.00000000000E+00 0. -1.
</event>
<event>
 7    1  0.2458979E-009  0.4778727E+02  0.7816164E-02  0.1312668E+00
        -11   -1    0    0    0    0  0.00000000000E+00  0.00000000000E+00  0.45593999997E+02  0.45594000000E+02  0.51100000000E-03 0.  1.
         11   -1    0    0    0    0 -0.00000000000E+00 -0.00000000000E+00 -0.45593999997E+02  0.45594000000E+02  0.51100000000E-03 0. -1.
    9900012    2    1    2    0    0  0.21888324868E+02 -0.28114885205E+02 -0.24780592890E+02  0.47787270518E+02  0.19999997600E+02 0.  0.
        -12    1    1    2    0    0 -0.21888324868E+02  0.28114885205E+02  0.24780592890E+02  0.43400729482E+02  0.00000000000E+00 0.  1.
         11    1    3    3    0    0  0.19575751494E+02 -0.11094729802E+02 -0.97271771792E+01  0.24513691115E+02  0.51100000000E-03 0. -1.
        -11    1    3    3    0    0 -0.54822890923E-02  0.28750626155E+00 -0.24204626452E+00  0.37586774431E+00  0.51100000000E-03 0.  1.
         12    1    3    3    0    0  0.23180556630E+01 -0.17307661664E+02 -0.14811369446E+02  0.22897711659E+02  0.00000000000E+00 0. -1.
</event>
<event>
 7    1  0.2458979E-009  0.4778727E+02  0.7816164E-02  0.1312668E+00
        -11   -1    0    0    0    0  0.00000000000E+00  0.00000000000E+00  0.45593999997E+02  0.45594000000E+02  0.51100000000E-03 0.  1.
         11   -1    0    0    0    0 -0.00000000000E+00 -0.00000000000E+00 -0.45593999997E+02  0.45594000000E+02  0.51100000000E-03 0. -1.
    9900012    2    1    2    0    0  0.28871844357E+02  0.19235181752E+02 -0.26077720693E+02  0.47787272700E+02  0.20000007547E+02 0.  0.
        -12    1    1    2    0    0 -0.28871844357E+02 -0.19235181752E+02  0.26077720693E+02  0.43400727300E+02  0.00000000000E+00 0.  1.
         11    1    3    3    0    0  0.19701323194E+02  0.17284475253E+02 -0.27103291348E+02  0.37702567851E+02  0.51100000000E-03 0. -1.
        -11    1    3    3    0    0  0.80269728507E+01  0.62126112327E+00 -0.44337818888E-02  0.80509799682E+01  0.51100000000E-03 0.  1.
         12    1    3    3    0    0  0.11435483123E+01  0.13294453758E+01  0.10300044370E+01  0.20337248806E+01  0.00000000000E+00 0. -1.
</event>
<event>
 7    1  0.2458979E-009  0.4778727E+02  0.7816164E-02  0.1312668E+00
        -11   -1    0    0    0    0  0.00000000000E+00  0.00000000000E+00  0.45593999997E+02  0.45594000000E+02  0.51100000000E-03 0.  1.
         11   -1    0    0    0    0 -0.00000000000E+00 -0.00000000000E+00 -0.45593999997E+02  0.45594000000E+02  0.51100000000E-03 0. -1.
    9900012    2    1    2    0    0  0.11334640324E+02 -0.39863203202E+02 -0.12886981858E+02  0.47787270257E+02  0.19999996411E+02 0.  0.
        -12    1    1    2    0    0 -0.11334640324E+02  0.39863203202E+02  0.12886981858E+02  0.43400729743E+02  0.00000000000E+00 0.  1.
         11    1    3    3    0    0 -0.15243772826E+01 -0.12826809836E+02  0.32135681679E+00  0.12921069891E+02  0.51100000000E-03 0. -1.
        -11    1    3    3    0    0  0.25807145503E+01 -0.18414853196E+02 -0.54873759182E+01  0.19387578512E+02  0.51100000000E-03 0.  1.
         12    1    3    3    0    0  0.10278303057E+02 -0.86215401700E+01 -0.77209627570E+01  0.15478621855E+02  0.00000000000E+00 0. -1.
</event>
<event>
 7    1  0.2458979E-009  0.4778727E+02  0.7816164E-02  0.1312668E+00
        -11   -1    0    0    0    0  0.00000000000E+00  0.00000000000E+00  0.45593999997E+02  0.45594000000E+02  0.51100000000E-03 0. -1.
         11   -1    0    0    0    0 -0.00000000000E+00 -0.00000000000E+00 -0.45593999997E+02  0.45594000000E+02  0.51100000000E-03 0.  1.
    9900012    2    1    2    0    0  0.80347765313E+01  0.13442149988E+02  0.40476831898E+02  0.47787274768E+02  0.20000016977E+02 0.  0.
        -12    1    1    2    0    0 -0.80347765313E+01 -0.13442149988E+02 -0.40476831898E+02  0.43400725232E+02  0.00000000000E+00 0.  1.
         11    1    3    3    0    0  0.11524674380E+01 -0.29224585931E+01  0.76180980336E+01  0.82404103863E+01  0.51100000000E-03 0. -1.
        -11    1    3    3    0    0  0.92351442887E+01  0.16931550297E+02  0.26762722423E+02  0.32988006870E+02  0.51100000000E-03 0.  1.
        -12    1    3    3    0    0 -0.23528351954E+01 -0.56694171647E+00  0.60960114407E+01  0.65588575112E+01  0.00000000000E+00 0.  1.
</event>
<event>
 7    1  0.2458979E-009  0.4778727E+02  0.7816164E-02  0.1312668E+00
        -11   -1    0    0    0    0  0.00000000000E+00  0.00000000000E+00  0.45593999997E+02  0.45594000000E+02  0.51100000000E-03 0. -1.
         11   -1    0    0    0    0 -0.00000000000E+00 -0.00000000000E+00 -0.45593999997E+02  0.45594000000E+02  0.51100000000E-03 0.  1.
    9900012    2    1    2    0    0  0.40083517096E+02  0.13265746772E+00  0.16640824598E+02  0.47787274383E+02  0.20000015224E+02 0.  0.
        -12    1    1    2    0    0 -0.40083517096E+02 -0.13265746772E+00 -0.16640824598E+02  0.43400725617E+02  0.00000000000E+00 0.  1.
         11    1    3    3    0    0  0.24512279260E+02 -0.73855207142E+00  0.39116318370E+01  0.24833408094E+02  0.51100000000E-03 0. -1.
        -11    1    3    3    0    0  0.32042386363E+01 -0.44049941402E+01  0.52638518552E+01  0.75749095855E+01  0.51100000000E-03 0.  1.
        -12    1    3    3    0    0  0.12366999200E+02  0.52762036794E+01  0.74653409055E+01  0.15378956704E+02  0.00000000000E+00 0.  1.
</event>
<event>
 7    1  0.2458979E-009  0.4778727E+02  0.7816164E-02  0.1312668E+00
        -11   -1    0    0    0    0  0.00000000000E+00  0.00000000000E+00  0.45593999997E+02  0.45594000000E+02  0.51100000000E-03 0.  1.
         11   -1    0    0    0    0 -0.00000000000E+00 -0.00000000000E+00 -0.45593999997E+02  0.45594000000E+02  0.51100000000E-03 0. -1.
    9900012    2    1    2    0    0  0.34800573085E+01 -0.33710603320E+02 -0.27112864824E+02  0.47787274038E+02  0.20000013648E+02 0.  0.
        -12    1    1    2    0    0 -0.34800573085E+01  0.33710603320E+02  0.27112864824E+02  0.43400725962E+02  0.00000000000E+00 0.  1.
         11    1    3    3    0    0  0.49160476294E+01 -0.23253466917E+01 -0.32413863477E+01  0.63309831186E+01  0.51100000000E-03 0. -1.
        -11    1    3    3    0    0  0.31550300369E+01 -0.27859853976E+02 -0.20739908388E+02  0.34875055244E+02  0.51100000000E-03 0.  1.
         12    1    3    3    0    0 -0.45910203578E+01 -0.35254026526E+01 -0.31315700885E+01  0.65812356749E+01  0.00000000000E+00 0. -1.
</event>
<event>
 7    1  0.2458979E-009  0.4778726E+02  0.7816164E-02  0.1312668E+00
        -11   -1    0    0    0    0  0.00000000000E+00  0.00000000000E+00  0.45593999997E+02  0.45594000000E+02  0.51100000000E-03 0. -1.
         11   -1    0    0    0    0 -0.00000000000E+00 -0.00000000000E+00 -0.45593999997E+02  0.45594000000E+02  0.51100000000E-03 0.  1.
    9900012    2    1    2    0    0  0.17776985233E+01  0.20586647649E+02  0.38166132049E+02  0.47787263726E+02  0.19999966634E+02 0.  0.
        -12    1    1    2    0    0 -0.17776985233E+01 -0.20586647649E+02 -0.38166132049E+02  0.43400736274E+02  0.00000000000E+00 0.  1.
         11    1    3    3    0    0 -0.59358562239E+01  0.16842823016E+02  0.26270204128E+02  0.31765369531E+02  0.51100000000E-03 0. -1.
        -11    1    3    3    0    0  0.62473200817E+01  0.41988569772E+01  0.51914247309E+01  0.91438667486E+01  0.51100000000E-03 0.  1.
        -12    1    3    3    0    0  0.14662346655E+01 -0.45503234373E+00  0.67045031907E+01  0.68780274471E+01  0.00000000000E+00 0.  1.
</event>
<event>
 7    1  0.2458979E-009  0.4778728E+02  0.7816164E-02  0.1312668E+00
        -11   -1    0    0    0    0  0.00000000000E+00  0.00000000000E+00  0.45593999997E+02  0.45594000000E+02  0.51100000000E-03 0.  1.
         11   -1    0    0    0    0 -0.00000000000E+00 -0.00000000000E+00 -0.45593999997E+02  0.45594000000E+02  0.51100000000E-03 0. -1.
    9900012    2    1    2    0    0  0.50303222480E+01  0.36439574170E+02  0.23032069270E+02  0.47787275093E+02  0.20000018459E+02 0.  0.
        -12    1    1    2    0    0 -0.50303222480E+01 -0.36439574170E+02 -0.23032069270E+02  0.43400724907E+02  0.00000000000E+00 0.  1.
         11    1    3    3    0    0 -0.25620103921E+00 -0.37592120242E+00 -0.98264013727E-01  0.46541572861E+00  0.51100000000E-03 0. -1.
        -11    1    3    3    0    0  0.27306506164E+01  0.97932259605E+00 -0.19597739378E+01  0.35008912700E+01  0.51100000000E-03 0.  1.
        -12    1    3    3    0    0  0.25558726708E+01  0.35836172776E+02  0.25090107221E+02  0.43820968094E+02  0.00000000000E+00 0.  1.
</event>
<event>
 7    1  0.2458979E-009  0.4778727E+02  0.7816164E-02  0.1312668E+00
        -11   -1    0    0    0    0  0.00000000000E+00  0.00000000000E+00  0.45593999997E+02  0.45594000000E+02  0.51100000000E-03 0.  1.
         11   -1    0    0    0    0 -0.00000000000E+00 -0.00000000000E+00 -0.45593999997E+02  0.45594000000E+02  0.51100000000E-03 0. -1.
    9900012    2    1    2    0    0 -0.35005895611E+02 -0.12605731170E+02 -0.22345164185E+02  0.47787267883E+02  0.19999985585E+02 0.  0.
        -12    1    1    2    0    0  0.35005895611E+02  0.12605731170E+02  0.22345164185E+02  0.43400732117E+02  0.00000000000E+00 0.  1.
         11    1    3    3    0    0 -0.75067716668E+01 -0.87570902592E+01 -0.10920311724E+02  0.15883685311E+02  0.51100000000E-03 0. -1.
        -11    1    3    3    0    0 -0.28283715277E+02 -0.39962629008E+01 -0.99892596555E+01  0.30260931508E+02  0.51100000000E-03 0.  1.
        -12    1    3    3    0    0  0.78459133260E+00  0.14762199002E+00 -0.14355928059E+01  0.16426510633E+01  0.00000000000E+00 0.  1.
</event>
<event>
 7    1  0.2458979E-009  0.4778727E+02  0.7816164E-02  0.1312668E+00
        -11   -1    0    0    0    0  0.00000000000E+00  0.00000000000E+00  0.45593999997E+02  0.45594000000E+02  0.51100000000E-03 0. -1.
         11   -1    0    0    0    0 -0.00000000000E+00 -0.00000000000E+00 -0.45593999997E+02  0.45594000000E+02  0.51100000000E-03 0.  1.
    9900012    2    1    2    0    0 -0.75859415753E+00  0.68047843632E+01  0.42857237787E+02  0.47787269752E+02  0.19999994105E+02 0.  0.
        -12    1    1    2    0    0  0.75859415753E+00 -0.68047843632E+01 -0.42857237787E+02  0.43400730248E+02  0.00000000000E+00 0.  1.
         11    1    3    3    0    0  0.80133014920E+00  0.12945655787E+01  0.35064397101E+01  0.38227149707E+01  0.51100000000E-03 0. -1.
        -11    1    3    3    0    0 -0.95922052556E+01 -0.44981112486E+00  0.19529665595E+02  0.21762825419E+02  0.51100000000E-03 0.  1.
        -12    1    3    3    0    0  0.80322809489E+01  0.59600299093E+01  0.19821132483E+02  0.22201729362E+02  0.00000000000E+00 0.  1.
</event>
<event>
 7    1  0.2458979E-009  0.4778727E+02  0.7816164E-02  0.1312668E+00
        -11   -1    0    0    0    0  0.00000000000E+00  0.00000000000E+00  0.45593999997E+02  0.45594000000E+02  0.51100000000E-03 0.  1.
         11   -1    0    0    0    0 -0.00000000000E+00 -0.00000000000E+00 -0.45593999997E+02  0.45594000000E+02  0.51100000000E-03 0. -1.
    9900012    2    1    2    0    0 -0.39545727595E+02 -0.89883924674E+01 -0.15458578309E+02  0.47787269436E+02  0.19999992664E+02 0.  0.
        -12    1    1    2    0    0  0.39545727595E+02  0.89883924674E+01  0.15458578309E+02  0.43400730564E+02  0.00000000000E+00 0.  1.
         11    1    3    3    0    0 -0.12933236333E+02 -0.41685019273E+00 -0.49731369906E+01  0.13862700239E+02  0.51100000000E-03 0. -1.
        -11    1    3    3    0    0 -0.24881498664E+02 -0.46567543917E+01 -0.13500729749E+02  0.28688744156E+02  0.51100000000E-03 0.  1.
        -12    1    3    3    0    0 -0.17309925989E+01 -0.39147878830E+01  0.30152884300E+01  0.52358250413E+01  0.00000000000E+00 0.  1.
</event>
<event>
 7    1  0.2458979E-009  0.4778727E+02  0.7816164E-02  0.1312668E+00
        -11   -1    0    0    0    0  0.00000000000E+00  0.00000000000E+00  0.45593999997E+02  0.45594000000E+02  0.51100000000E-03 0.  1.
         11   -1    0    0    0    0 -0.00000000000E+00 -0.00000000000E+00 -0.45593999997E+02  0.45594000000E+02  0.51100000000E-03 0. -1.
    9900012    2    1    2    0    0  0.14401151730E+02  0.24641628162E+02 -0.32695875142E+02  0.47787271193E+02  0.20000000679E+02 0.  0.
        -12    1    1    2    0    0 -0.14401151730E+02 -0.24641628162E+02  0.32695875142E+02  0.43400728807E+02  0.00000000000E+00 0.  1.
         11    1    3    3    0    0  0.87781920421E+01  0.90847348918E+01 -0.24253613247E+02  0.27346422423E+02  0.51100000000E-03 0. -1.
        -11    1    3    3    0    0  0.17651648888E+01  0.13705716925E+02 -0.42678331601E+01  0.14462948650E+02  0.51100000000E-03 0.  1.
        -12    1    3    3    0    0  0.38577947991E+01  0.18511763453E+01 -0.41744287355E+01  0.59779001197E+01  0.00000000000E+00 0.  1.
</event>
<event>
 7    1  0.2458979E-009  0.4778726E+02  0.7816164E-02  0.1312668E+00
        -11   -1    0    0    0    0  0.00000000000E+00  0.00000000000E+00  0.45593999997E+02  0.45594000000E+02  0.51100000000E-03 0.  1.
         11   -1    0    0    0    0 -0.00000000000E+00 -0.00000000000E+00 -0.45593999997E+02  0.45594000000E+02  0.51100000000E-03 0. -1.
    9900012    2    1    2    0    0 -0.40606555582E+01  0.21919237422E+02 -0.37238182197E+02  0.47787261457E+02  0.19999956289E+02 0.  0.
        -12    1    1    2    0    0  0.40606555582E+01 -0.21919237422E+02  0.37238182197E+02  0.43400738543E+02  0.00000000000E+00 0.  1.
         11    1    3    3    0    0 -0.55064552810E+01  0.17586482686E+02 -0.32106336501E+02  0.37019214833E+02  0.51100000000E-03 0. -1.
        -11    1    3    3    0    0  0.25922746636E+01  0.54465817054E+01 -0.71910547324E+00  0.60747224750E+01  0.51100000000E-03 0.  1.
        -12    1    3    3    0    0 -0.11464749408E+01 -0.11138269694E+01 -0.44127402220E+01  0.46933241497E+01  0.00000000000E+00 0.  1.
</event>
<event>
 7    1  0.2458979E-009  0.4778727E+02  0.7816164E-02  0.1312668E+00
        -11   -1    0    0    0    0  0.00000000000E+00  0.00000000000E+00  0.45593999997E+02  0.45594000000E+02  0.51100000000E-03 0. -1.
         11   -1    0    0    0    0 -0.00000000000E+00 -0.00000000000E+00 -0.45593999997E+02  0.45594000000E+02  0.51100000000E-03 0.  1.
    9900012    2    1    2    0    0 -0.82438692121E+01 -0.41731298588E+02 -0.86116399991E+01  0.47787274143E+02  0.20000014128E+02 0.  0.
        -12    1    1    2    0    0  0.82438692121E+01  0.41731298588E+02  0.86116399991E+01  0.43400725857E+02  0.00000000000E+00 0.  1.
         11    1    3    3    0    0 -0.76845813889E+01 -0.16665733391E+02 -0.11051664989E+02  0.21422856016E+02  0.51100000000E-03 0. -1.
        -11    1    3    3    0    0  0.35839625779E+01 -0.13398651708E+02  0.13915256035E+01  0.13939332807E+02  0.51100000000E-03 0.  1.
         12    1    3    3    0    0 -0.41432504011E+01 -0.11666913489E+02  0.10484993862E+01  0.12425085320E+02  0.00000000000E+00 0. -1.
</event>
<event>
 7    1  0.2458979E-009  0.4778726E+02  0.7816164E-02  0.1312668E+00
        -11   -1    0    0    0    0  0.00000000000E+00  0.00000000000E+00  0.45593999997E+02  0.45594000000E+02  0.51100000000E-03 0.  1.
         11   -1    0    0    0    0 -0.00000000000E+00 -0.00000000000E+00 -0.45593999997E+02  0.45594000000E+02  0.51100000000E-03 0. -1.
    9900012    2    1    2    0    0  0.30653801795E+02  0.30537520180E+02 -0.33805609305E+01  0.47787263884E+02  0.19999967353E+02 0.  0.
        -12    1    1    2    0    0 -0.30653801795E+02 -0.30537520180E+02  0.33805609305E+01  0.43400736116E+02  0.00000000000E+00 0.  1.
         11    1    3    3    0    0  0.11390388344E+02  0.22194276758E+02 -0.76717666447E+01  0.26099480285E+02  0.51100000000E-03 0. -1.
        -11    1    3    3    0    0  0.11851306391E+02  0.34169578643E+01  0.30114872691E+01  0.12696382164E+02  0.51100000000E-03 0.  1.
        -12    1    3    3    0    0  0.74121070599E+01  0.49262855567E+01  0.12797184451E+01  0.89914014343E+01  0.00000000000E+00 0.  1.
</event>
<event>
 7    1  0.2458979E-009  0.4778727E+02  0.7816164E-02  0.1312668E+00
        -11   -1    0    0    0    0  0.00000000000E+00  0.00000000000E+00  0.45593999997E+02  0.45594000000E+02  0.51100000000E-03 0.  1.
         11   -1    0    0    0    0 -0.00000000000E+00 -0.00000000000E+00 -0.45593999997E+02  0.45594000000E+02  0.51100000000E-03 0. -1.
    9900012    2    1    2    0    0 -0.21314042458E+01 -0.32146734515E+02 -0.29080368951E+02  0.47787270946E+02  0.19999999553E+02 0.  0.
        -12    1    1    2    0    0  0.21314042458E+01  0.32146734515E+02  0.29080368951E+02  0.43400729054E+02  0.00000000000E+00 0.  1.
         11    1    3    3    0    0  0.53160949936E+01 -0.14005401226E+02 -0.22575876496E+02  0.27093953741E+02  0.51100000000E-03 0. -1.
        -11    1    3    3    0    0 -0.28554331589E+01 -0.66235553980E+01 -0.18239829691E+01  0.74398856690E+01  0.51100000000E-03 0.  1.
         12    1    3    3    0    0 -0.45920660805E+01 -0.11517777891E+02 -0.46805094854E+01  0.13253431536E+02  0.00000000000E+00 0. -1.
</event>
<event>
 7    1  0.3996733E-009  0.4778727E+02  0.7816164E-02  0.1312668E+00
        -11   -1    0    0    0    0  0.00000000000E+00  0.00000000000E+00  0.45593999997E+02  0.45594000000E+02  0.51100000000E-03 0. -1.
         11   -1    0    0    0    0 -0.00000000000E+00 -0.00000000000E+00 -0.45593999997E+02  0.45594000000E+02  0.51100000000E-03 0.  1.
    9900012    2    1    2    0    0  0.12489977451E+01  0.40387190019E+01  0.43194351621E+02  0.47787271221E+02  0.20000000806E+02 0.  0.
        -12    1    1    2    0    0 -0.12489977451E+01 -0.40387190019E+01 -0.43194351621E+02  0.43400728779E+02  0.00000000000E+00 0.  1.
         11    1    3    3    0    0  0.21123967149E+01  0.31395307881E+01  0.31302703379E+02  0.31530590108E+02  0.51100000000E-03 0. -1.
        -11    1    3    3    0    0 -0.41668242524E+01 -0.35684633769E+01  0.66175270319E+01  0.85958140686E+01  0.51100000000E-03 0.  1.
        -12    1    3    3    0    0  0.33034252826E+01  0.44676515908E+01  0.52741212100E+01  0.76608670444E+01  0.00000000000E+00 0.  1.
</event>
<event>
 7    1  0.2458979E-009  0.4778727E+02  0.7816164E-02  0.1312668E+00
        -11   -1    0    0    0    0  0.00000000000E+00  0.00000000000E+00  0.45593999997E+02  0.45594000000E+02  0.51100000000E-03 0. -1.
         11   -1    0    0    0    0 -0.00000000000E+00 -0.00000000000E+00 -0.45593999997E+02  0.45594000000E+02  0.51100000000E-03 0.  1.
    9900012    2    1    2    0    0 -0.14887891537E+02 -0.25267302696E+02  0.31992765855E+02  0.47787274580E+02  0.20000016119E+02 0.  0.
        -12    1    1    2    0    0  0.14887891537E+02  0.25267302696E+02 -0.31992765855E+02  0.43400725420E+02  0.00000000000E+00 0.  1.
         11    1    3    3    0    0 -0.56377256909E+01 -0.11674859607E+02  0.88254200563E+01  0.15683569021E+02  0.51100000000E-03 0. -1.
        -11    1    3    3    0    0  0.16139754570E+01  0.19064057279E+01  0.62010308400E+01  0.66852137823E+01  0.51100000000E-03 0.  1.
        -12    1    3    3    0    0 -0.10864141303E+02 -0.15498848817E+02  0.16966314959E+02  0.25418491777E+02  0.00000000000E+00 0.  1.
</event>
<event>
 7    1  0.2458979E-009  0.4778727E+02  0.7816164E-02  0.1312668E+00
        -11   -1    0    0    0    0  0.00000000000E+00  0.00000000000E+00  0.45593999997E+02  0.45594000000E+02  0.51100000000E-03 0.  1.
         11   -1    0    0    0    0 -0.00000000000E+00 -0.00000000000E+00 -0.45593999997E+02  0.45594000000E+02  0.51100000000E-03 0. -1.
    9900012    2    1    2    0    0  0.31052855116E+02  0.30279287162E+02  0.15837543992E+01  0.47787270514E+02  0.19999997581E+02 0.  0.
        -12    1    1    2    0    0 -0.31052855116E+02 -0.30279287162E+02 -0.15837543992E+01  0.43400729486E+02  0.00000000000E+00 0.  1.
         11    1    3    3    0    0  0.40097756520E+00  0.37275424220E+01 -0.28746823105E+01  0.47243152057E+01  0.51100000000E-03 0. -1.
        -11    1    3    3    0    0  0.23061528756E+02  0.18480560460E+02  0.92859729820E+01  0.30977322640E+02  0.51100000000E-03 0.  1.
        -12    1    3    3    0    0  0.75903487954E+01  0.80711842804E+01 -0.48275362723E+01  0.12085632668E+02  0.00000000000E+00 0.  1.
</event>
<event>
 7    1  0.2458979E-009  0.4778727E+02  0.7816164E-02  0.1312668E+00
        -11   -1    0    0    0    0  0.00000000000E+00  0.00000000000E+00  0.45593999997E+02  0.45594000000E+02  0.51100000000E-03 0.  1.
         11   -1    0    0    0    0 -0.00000000000E+00 -0.00000000000E+00 -0.45593999997E+02  0.45594000000E+02  0.51100000000E-03 0. -1.
    9900012    2    1    2    0    0  0.88150569372E+01 -0.44826809826E+01 -0.42259010544E+02  0.47787266944E+02  0.19999981306E+02 0.  0.
        -12    1    1    2    0    0 -0.88150569372E+01  0.44826809826E+01  0.42259010544E+02  0.43400733056E+02  0.00000000000E+00 0.  1.
         11    1    3    3    0    0 -0.20417547181E+01  0.39621803955E+01 -0.90112896178E+01  0.10053406221E+02  0.51100000000E-03 0. -1.
        -11    1    3    3    0    0  0.53648163091E+01 -0.97364964743E+01 -0.15244422653E+02  0.18867247810E+02  0.51100000000E-03 0.  1.
         12    1    3    3    0    0  0.54919953462E+01  0.12916350962E+01 -0.18003298273E+02  0.18866612913E+02  0.00000000000E+00 0. -1.
</event>
<event>
 7    1  0.2458979E-009  0.4778727E+02  0.7816164E-02  0.1312668E+00
        -11   -1    0    0    0    0  0.00000000000E+00  0.00000000000E+00  0.45593999997E+02  0.45594000000E+02  0.51100000000E-03 0.  1.
         11   -1    0    0    0    0 -0.00000000000E+00 -0.00000000000E+00 -0.45593999997E+02  0.45594000000E+02  0.51100000000E-03 0. -1.
    9900012    2    1    2    0    0  0.16485807579E+02  0.14790524209E+01 -0.40120488852E+02  0.47787273355E+02  0.20000010535E+02 0.  0.
        -12    1    1    2    0    0 -0.16485807579E+02 -0.14790524209E+01  0.40120488852E+02  0.43400726645E+02  0.00000000000E+00 0.  1.
         11    1    3    3    0    0  0.58456379587E+01 -0.23656260079E+01 -0.79048591755E+01  0.10112095154E+02  0.51100000000E-03 0. -1.
        -11    1    3    3    0    0  0.12313157416E+02  0.13742106413E+01 -0.32397766708E+02  0.34685985475E+02  0.51100000000E-03 0.  1.
        -12    1    3    3    0    0 -0.16729877964E+01  0.24704677875E+01  0.18213703154E+00  0.29891927262E+01  0.00000000000E+00 0.  1.
</event>
<event>
 7    1  0.2458979E-009  0.4778727E+02  0.7816164E-02  0.1312668E+00
        -11   -1    0    0    0    0  0.00000000000E+00  0.00000000000E+00  0.45593999997E+02  0.45594000000E+02  0.51100000000E-03 0.  1.
         11   -1    0    0    0    0 -0.00000000000E+00 -0.00000000000E+00 -0.45593999997E+02  0.45594000000E+02  0.51100000000E-03 0. -1.
    9900012    2    1    2    0    0  0.18351521980E+02 -0.84605710595E+00 -0.39320851338E+02  0.47787268191E+02  0.19999986988E+02 0.  0.
        -12    1    1    2    0    0 -0.18351521980E+02  0.84605710595E+00  0.39320851338E+02  0.43400731809E+02  0.00000000000E+00 0.  1.
         11    1    3    3    0    0  0.80747857458E+01 -0.38678194820E+00 -0.13943133331E+02  0.16117156464E+02  0.51100000000E-03 0. -1.
        -11    1    3    3    0    0  0.11926450749E+02 -0.37726838705E+01 -0.10478013109E+02  0.16317540563E+02  0.51100000000E-03 0.  1.
        -12    1    3    3    0    0 -0.16497145151E+01  0.33134087128E+01 -0.14899704898E+02  0.15352571164E+02  0.00000000000E+00 0.  1.
</event>
<event>
 7    1  0.2458979E-009  0.4778727E+02  0.7816164E-02  0.1312668E+00
        -11   -1    0    0    0    0  0.00000000000E+00  0.00000000000E+00  0.45593999997E+02  0.45594000000E+02  0.51100000000E-03 0.  1.
         11   -1    0    0    0    0 -0.00000000000E+00 -0.00000000000E+00 -0.45593999997E+02  0.45594000000E+02  0.51100000000E-03 0. -1.
    9900012    2    1    2    0    0  0.25057755862E+01 -0.30590666798E+02 -0.30684774830E+02  0.47787271748E+02  0.20000003209E+02 0.  0.
        -12    1    1    2    0    0 -0.25057755862E+01  0.30590666798E+02  0.30684774830E+02  0.43400728252E+02  0.00000000000E+00 0.  1.
         11    1    3    3    0    0  0.61120066468E+01 -0.25089579774E+02 -0.20709244743E+02  0.33101608067E+02  0.51100000000E-03 0. -1.
        -11    1    3    3    0    0 -0.44341435793E+01 -0.58905147553E+01 -0.11044045864E+02  0.13278958644E+02  0.51100000000E-03 0.  1.
        -12    1    3    3    0    0  0.82791251866E+00  0.38942773161E+00  0.10685157774E+01  0.14067050377E+01  0.00000000000E+00 0.  1.
</event>
<event>
 7    1  0.2458979E-009  0.4778726E+02  0.7816164E-02  0.1312668E+00
        -11   -1    0    0    0    0  0.00000000000E+00  0.00000000000E+00  0.45593999997E+02  0.45594000000E+02  0.51100000000E-03 0.  1.
         11   -1    0    0    0    0 -0.00000000000E+00 -0.00000000000E+00 -0.45593999997E+02  0.45594000000E+02  0.51100000000E-03 0. -1.
    9900012    2    1    2    0    0  0.97472100468E+01 -0.57101454333E+01 -0.41904776304E+02  0.47787261048E+02  0.19999954420E+02 0.  0.
        -12    1    1    2    0    0 -0.97472100468E+01  0.57101454333E+01  0.41904776304E+02  0.43400738952E+02  0.00000000000E+00 0.  1.
         11    1    3    3    0    0  0.39315286227E+01  0.60444270946E+01 -0.14521550550E+02  0.16213187437E+02  0.51100000000E-03 0. -1.
        -11    1    3    3    0    0  0.14245139245E+01 -0.10548539304E+02 -0.22535986197E+02  0.24923314296E+02  0.51100000000E-03 0.  1.
        -12    1    3    3    0    0  0.43911674996E+01 -0.12060332236E+01 -0.48472395564E+01  0.66507593147E+01  0.00000000000E+00 0.  1.
</event>
<event>
 7    1  0.2458979E-009  0.4778727E+02  0.7816164E-02  0.1312668E+00
        -11   -1    0    0    0    0  0.00000000000E+00  0.00000000000E+00  0.45593999997E+02  0.45594000000E+02  0.51100000000E-03 0. -1.
         11   -1    0    0    0    0 -0.00000000000E+00 -0.00000000000E+00 -0.45593999997E+02  0.45594000000E+02  0.51100000000E-03 0.  1.
    9900012    2    1    2    0    0 -0.42171789464E+02 -0.35509693866E+01  0.96204967067E+01  0.47787272275E+02  0.20000005612E+02 0.  0.
        -12    1    1    2    0    0  0.42171789464E+02  0.35509693866E+01 -0.96204967067E+01  0.43400727725E+02  0.00000000000E+00 0.  1.
         11    1    3    3    0    0 -0.58783369105E+01  0.29767352430E+01 -0.32805973606E+01  0.73605785672E+01  0.51100000000E-03 0. -1.
        -11    1    3    3    0    0 -0.22403140146E+02 -0.82610056612E+01  0.11036801110E+02  0.26305054304E+02  0.51100000000E-03 0.  1.
         12    1    3    3    0    0 -0.13890312407E+02  0.17333010316E+01  0.18642929573E+01  0.14121639404E+02  0.00000000000E+00 0. -1.
</event>
<event>
 7    1  0.2458979E-009  0.4778727E+02  0.7816164E-02  0.1312668E+00
        -11   -1    0    0    0    0  0.00000000000E+00  0.00000000000E+00  0.45593999997E+02  0.45594000000E+02  0.51100000000E-03 0.  1.
         11   -1    0    0    0    0 -0.00000000000E+00 -0.00000000000E+00 -0.45593999997E+02  0.45594000000E+02  0.51100000000E-03 0. -1.
    9900012    2    1    2    0    0  0.22489477843E+02 -0.87543157280E+01 -0.36072268533E+02  0.47787271727E+02  0.20000003111E+02 0.  0.
        -12    1    1    2    0    0 -0.22489477843E+02  0.87543157280E+01  0.36072268533E+02  0.43400728273E+02  0.00000000000E+00 0.  1.
         11    1    3    3    0    0  0.81720174957E+01 -0.34461716851E+01 -0.22309367170E+02  0.24007620312E+02  0.51100000000E-03 0. -1.
        -11    1    3    3    0    0  0.15228036508E+02 -0.17642842180E+01 -0.90105086804E+01  0.17781874526E+02  0.51100000000E-03 0.  1.
         12    1    3    3    0    0 -0.91057616143E+00 -0.35438598249E+01 -0.47523926826E+01  0.59977768893E+01  0.00000000000E+00 0. -1.
</event>
<event>
 7    1  0.2458979E-009  0.4778727E+02  0.7816164E-02  0.1312668E+00
        -11   -1    0    0    0    0  0.00000000000E+00  0.00000000000E+00  0.45593999997E+02  0.45594000000E+02  0.51100000000E-03 0.  1.
         11   -1    0    0    0    0 -0.00000000000E+00 -0.00000000000E+00 -0.45593999997E+02  0.45594000000E+02  0.51100000000E-03 0. -1.
    9900012    2    1    2    0    0  0.33421054721E+02  0.20591370825E+02 -0.18510853744E+02  0.47787272386E+02  0.20000006116E+02 0.  0.
        -12    1    1    2    0    0 -0.33421054721E+02 -0.20591370825E+02  0.18510853744E+02  0.43400727614E+02  0.00000000000E+00 0.  1.
         11    1    3    3    0    0  0.27631263069E+02  0.13996033564E+02 -0.16972488371E+02  0.35319131021E+02  0.51100000000E-03 0. -1.
        -11    1    3    3    0    0  0.39162286455E+01  0.47004562227E+01  0.32949354220E+01  0.69489377031E+01  0.51100000000E-03 0.  1.
        -12    1    3    3    0    0  0.18735630061E+01  0.18948810385E+01 -0.48333007945E+01  0.55192036616E+01  0.00000000000E+00 0.  1.
</event>
<event>
 7    1  0.2458979E-009  0.4778729E+02  0.7816164E-02  0.1312668E+00
        -11   -1    0    0    0    0  0.00000000000E+00  0.00000000000E+00  0.45593999997E+02  0.45594000000E+02  0.51100000000E-03 0.  1.
         11   -1    0    0    0    0 -0.00000000000E+00 -0.00000000000E+00 -0.45593999997E+02  0.45594000000E+02  0.51100000000E-03 0. -1.
    9900012    2    1    2    0    0 -0.26922820475E+01 -0.25509224635E+02 -0.35009326021E+02  0.47787287650E+02  0.20000075709E+02 0.  0.
        -12    1    1    2    0    0  0.26922820475E+01  0.25509224635E+02  0.35009326021E+02  0.43400712350E+02  0.00000000000E+00 0.  1.
         11    1    3    3    0    0 -0.66490894047E+01 -0.36119516815E+01 -0.60246026033E+01  0.96722500820E+01  0.51100000000E-03 0. -1.
        -11    1    3    3    0    0  0.39997605913E+01 -0.13146203073E+02 -0.24938624796E+02  0.28473772968E+02  0.51100000000E-03 0.  1.
         12    1    3    3    0    0 -0.42953234111E-01 -0.87510698805E+01 -0.40460986211E+01  0.96412645999E+01  0.00000000000E+00 0. -1.
</event>
<event>
 7    1  0.2458979E-009  0.4778727E+02  0.7816164E-02  0.1312668E+00
        -11   -1    0    0    0    0  0.00000000000E+00  0.00000000000E+00  0.45593999997E+02  0.45594000000E+02  0.51100000000E-03 0.  1.
         11   -1    0    0    0    0 -0.00000000000E+00 -0.00000000000E+00 -0.45593999997E+02  0.45594000000E+02  0.51100000000E-03 0. -1.
    9900012    2    1    2    0    0 -0.62161910642E+01 -0.16532728920E+01 -0.42921427292E+02  0.47787271165E+02  0.20000000551E+02 0.  0.
        -12    1    1    2    0    0  0.62161910642E+01  0.16532728920E+01  0.42921427292E+02  0.43400728835E+02  0.00000000000E+00 0.  1.
         11    1    3    3    0    0 -0.24500134313E+00  0.72994209652E+00 -0.15823374296E+02  0.15842096310E+02  0.51100000000E-03 0. -1.
        -11    1    3    3    0    0 -0.62425555468E+01  0.59143665873E+01 -0.14475949749E+02  0.16837528123E+02  0.51100000000E-03 0.  1.
        -12    1    3    3    0    0  0.27136582575E+00 -0.82975815758E+01 -0.12622103247E+02  0.15107646732E+02  0.00000000000E+00 0.  1.
</event>
<event>
 7    1  0.2458979E-009  0.4778727E+02  0.7816164E-02  0.1312668E+00
        -11   -1    0    0    0    0  0.00000000000E+00  0.00000000000E+00  0.45593999997E+02  0.45594000000E+02  0.51100000000E-03 0. -1.
         11   -1    0    0    0    0 -0.00000000000E+00 -0.00000000000E+00 -0.45593999997E+02  0.45594000000E+02  0.51100000000E-03 0.  1.
    9900012    2    1    2    0    0 -0.31512691895E+02  0.42143978931E+01  0.29543395348E+02  0.47787272947E+02  0.20000008675E+02 0.  0.
        -12    1    1    2    0    0  0.31512691895E+02 -0.42143978931E+01 -0.29543395348E+02  0.43400727053E+02  0.00000000000E+00 0.  1.
         11    1    3    3    0    0 -0.13548708351E+02 -0.52238216815E+01  0.21248534282E+02  0.25736278292E+02  0.51100000000E-03 0. -1.
        -11    1    3    3    0    0 -0.99954164753E+01  0.45949956935E+01  0.56006727246E+01  0.12344629244E+02  0.51100000000E-03 0.  1.
         12    1    3    3    0    0 -0.79685670678E+01  0.48432238811E+01  0.26941883415E+01  0.97063654112E+01  0.00000000000E+00 0. -1.
</event>
<event>
 7    1  0.2458979E-009  0.4778728E+02  0.7816164E-02  0.1312668E+00
        -11   -1    0    0    0    0  0.00000000000E+00  0.00000000000E+00  0.45593999997E+02  0.45594000000E+02  0.51100000000E-03 0.  1.
         11   -1    0    0    0    0 -0.00000000000E+00 -0.00000000000E+00 -0.45593999997E+02  0.45594000000E+02  0.51100000000E-03 0. -1.
    9900012    2    1    2    0    0  0.11351116355E+02 -0.39521576222E+02 -0.13885964436E+02  0.47787276067E+02  0.20000022898E+02 0.  0.
        -12    1    1    2    0    0 -0.11351116355E+02  0.39521576222E+02  0.13885964436E+02  0.43400723933E+02  0.00000000000E+00 0.  1.
         11    1    3    3    0    0  0.36898109640E+01 -0.16658409087E+02 -0.14521769352E+02  0.22405336053E+02  0.51100000000E-03 0. -1.
        -11    1    3    3    0    0  0.49533523587E+01 -0.56525272611E+01  0.23521240574E+01  0.78752302741E+01  0.51100000000E-03 0.  1.
         12    1    3    3    0    0  0.27079530325E+01 -0.17210639875E+02 -0.17163191410E+01  0.17506709740E+02  0.00000000000E+00 0. -1.
</event>
<event>
 7    1  0.2458979E-009  0.4778727E+02  0.7816164E-02  0.1312668E+00
        -11   -1    0    0    0    0  0.00000000000E+00  0.00000000000E+00  0.45593999997E+02  0.45594000000E+02  0.51100000000E-03 0. -1.
         11   -1    0    0    0    0 -0.00000000000E+00 -0.00000000000E+00 -0.45593999997E+02  0.45594000000E+02  0.51100000000E-03 0.  1.
    9900012    2    1    2    0    0  0.22790690627E+02 -0.31108611513E+02  0.19911356274E+02  0.47787269612E+02  0.19999993470E+02 0.  0.
        -12    1    1    2    0    0 -0.22790690627E+02  0.31108611513E+02 -0.19911356274E+02  0.43400730388E+02  0.00000000000E+00 0.  1.
         11    1    3    3    0    0  0.12072904755E+02 -0.12546038567E+02 -0.14744017340E+01  0.17473750991E+02  0.51100000000E-03 0. -1.
        -11    1    3    3    0    0  0.60418939379E+01 -0.92251251641E+01  0.11521816337E+02  0.15948657267E+02  0.51100000000E-03 0.  1.
         12    1    3    3    0    0  0.46758919341E+01 -0.93374477820E+01  0.98639416706E+01  0.14364861355E+02  0.00000000000E+00 0. -1.
</event>
<event>
 7    1  0.2458979E-009  0.4778727E+02  0.7816164E-02  0.1312668E+00
        -11   -1    0    0    0    0  0.00000000000E+00  0.00000000000E+00  0.45593999997E+02  0.45594000000E+02  0.51100000000E-03 0.  1.
         11   -1    0    0    0    0 -0.00000000000E+00 -0.00000000000E+00 -0.45593999997E+02  0.45594000000E+02  0.51100000000E-03 0. -1.
    9900012    2    1    2    0    0  0.40667547921E+02 -0.11635788908E+02 -0.97150417956E+01  0.47787273342E+02  0.20000010474E+02 0.  0.
        -12    1    1    2    0    0 -0.40667547921E+02  0.11635788908E+02  0.97150417956E+01  0.43400726658E+02  0.00000000000E+00 0.  1.
         11    1    3    3    0    0  0.14885966262E+02 -0.43364830104E+01  0.18402170196E+01  0.15613567029E+02  0.51100000000E-03 0. -1.
        -11    1    3    3    0    0  0.52003154128E+01 -0.24027534967E+01 -0.92668922042E+01  0.10894576455E+02  0.51100000000E-03 0.  1.
        -12    1    3    3    0    0  0.20581266246E+02 -0.48965524009E+01 -0.22883666110E+01  0.21279129857E+02  0.00000000000E+00 0.  1.
</event>
<event>
 7    1  0.2458979E-009  0.4778728E+02  0.7816164E-02  0.1312668E+00
        -11   -1    0    0    0    0  0.00000000000E+00  0.00000000000E+00  0.45593999997E+02  0.45594000000E+02  0.51100000000E-03 0.  1.
         11   -1    0    0    0    0 -0.00000000000E+00 -0.00000000000E+00 -0.45593999997E+02  0.45594000000E+02  0.51100000000E-03 0. -1.
    9900012    2    1    2    0    0  0.17615409629E+02  0.21401529839E+02 -0.33396019024E+02  0.47787283157E+02  0.20000055226E+02 0.  0.
        -12    1    1    2    0    0 -0.17615409629E+02 -0.21401529839E+02  0.33396019024E+02  0.43400716843E+02  0.00000000000E+00 0.  1.
         11    1    3    3    0    0  0.17729428670E+02  0.12341319098E+02 -0.26210088409E+02  0.33964827877E+02  0.51100000000E-03 0. -1.
        -11    1    3    3    0    0 -0.76250444942E+00  0.64026933918E+01 -0.34761422734E+00  0.64573006447E+01  0.51100000000E-03 0.  1.
        -12    1    3    3    0    0  0.64848540871E+00  0.26575173494E+01 -0.68383163876E+01  0.73651546355E+01  0.00000000000E+00 0.  1.
</event>
<event>
 7    1  0.2458979E-009  0.4778727E+02  0.7816164E-02  0.1312668E+00
        -11   -1    0    0    0    0  0.00000000000E+00  0.00000000000E+00  0.45593999997E+02  0.45594000000E+02  0.51100000000E-03 0.  1.
         11   -1    0    0    0    0 -0.00000000000E+00 -0.00000000000E+00 -0.45593999997E+02  0.45594000000E+02  0.51100000000E-03 0. -1.
    9900012    2    1    2    0    0 -0.19199444020E+02  0.18794898442E+02 -0.34084548448E+02  0.47787270732E+02  0.19999998574E+02 0.  0.
        -12    1    1    2    0    0  0.19199444020E+02 -0.18794898442E+02  0.34084548448E+02  0.43400729268E+02  0.00000000000E+00 0.  1.
         11    1    3    3    0    0 -0.15772485799E+02  0.42373420039E+01 -0.22755401019E+02  0.28009545718E+02  0.51100000000E-03 0. -1.
        -11    1    3    3    0    0  0.17652058058E+01  0.42972662177E+01 -0.24689576937E+01  0.52610075876E+01  0.51100000000E-03 0.  1.
         12    1    3    3    0    0 -0.51921640264E+01  0.10260290220E+02 -0.88601897359E+01  0.14516717426E+02  0.00000000000E+00 0. -1.
</event>
<event>
 7    1  0.2458979E-009  0.4778726E+02  0.7816164E-02  0.1312668E+00
        -11   -1    0    0    0    0  0.00000000000E+00  0.00000000000E+00  0.45593999997E+02  0.45594000000E+02  0.51100000000E-03 0. -1.
         11   -1    0    0    0    0 -0.00000000000E+00 -0.00000000000E+00 -0.45593999997E+02  0.45594000000E+02  0.51100000000E-03 0.  1.
    9900012    2    1    2    0    0  0.29792407653E+02 -0.31548544142E+02 -0.85192540633E+00  0.47787263046E+02  0.19999963533E+02 0.  0.
        -12    1    1    2    0    0 -0.29792407653E+02  0.31548544142E+02  0.85192540633E+00  0.43400736954E+02  0.00000000000E+00 0.  1.
         11    1    3    3    0    0  0.69927472896E+01 -0.41420297154E+01  0.74084889746E+01  0.10997301213E+02  0.51100000000E-03 0. -1.
        -11    1    3    3    0    0  0.15481732364E+02 -0.21174212593E+02 -0.56977098354E+01  0.26842041904E+02  0.51100000000E-03 0.  1.
         12    1    3    3    0    0  0.73179279987E+01 -0.62323018338E+01 -0.25627045455E+01  0.99479199297E+01  0.00000000000E+00 0. -1.
</event>
<event>
 7    1  0.2512661E-009  0.4778727E+02  0.7816164E-02  0.1312668E+00
        -11   -1    0    0    0    0  0.00000000000E+00  0.00000000000E+00  0.45593999997E+02  0.45594000000E+02  0.51100000000E-03 0. -1.
         11   -1    0    0    0    0 -0.00000000000E+00 -0.00000000000E+00 -0.45593999997E+02  0.45594000000E+02  0.51100000000E-03 0.  1.
    9900012    2    1    2    0    0 -0.14222695094E+02 -0.30817814814E+02  0.27048120225E+02  0.47787267594E+02  0.19999984269E+02 0.  0.
        -12    1    1    2    0    0  0.14222695094E+02  0.30817814814E+02 -0.27048120225E+02  0.43400732406E+02  0.00000000000E+00 0.  1.
         11    1    3    3    0    0 -0.57202395211E+01 -0.10502348798E+02  0.16406674598E+02  0.20302695438E+02  0.51100000000E-03 0. -1.
        -11    1    3    3    0    0 -0.10362540475E+02 -0.20784776470E+02  0.88317689145E+01  0.24847320186E+02  0.51100000000E-03 0.  1.
        -12    1    3    3    0    0  0.18600849023E+01  0.46931045358E+00  0.18096767128E+01  0.26372519695E+01  0.00000000000E+00 0.  1.
</event>
<event>
 7    1  0.2458979E-009  0.4778727E+02  0.7816164E-02  0.1312668E+00
        -11   -1    0    0    0    0  0.00000000000E+00  0.00000000000E+00  0.45593999997E+02  0.45594000000E+02  0.51100000000E-03 0. -1.
         11   -1    0    0    0    0 -0.00000000000E+00 -0.00000000000E+00 -0.45593999997E+02  0.45594000000E+02  0.51100000000E-03 0.  1.
    9900012    2    1    2    0    0 -0.14973106060E+02  0.27227583212E+02  0.30299971522E+02  0.47787268821E+02  0.19999989863E+02 0.  0.
        -12    1    1    2    0    0  0.14973106060E+02 -0.27227583212E+02 -0.30299971522E+02  0.43400731179E+02  0.00000000000E+00 0.  1.
         11    1    3    3    0    0 -0.62297206046E+00  0.62896061769E+01  0.12833146339E+02  0.14305134926E+02  0.51100000000E-03 0. -1.
        -11    1    3    3    0    0 -0.15489318890E+02  0.19136016864E+02  0.11551824293E+02  0.27194683043E+02  0.51100000000E-03 0.  1.
        -12    1    3    3    0    0  0.11391848907E+01  0.18019601716E+01  0.59150008905E+01  0.62874508514E+01  0.00000000000E+00 0.  1.
</event>
<event>
 7    1  0.2458979E-009  0.4778727E+02  0.7816164E-02  0.1312668E+00
        -11   -1    0    0    0    0  0.00000000000E+00  0.00000000000E+00  0.45593999997E+02  0.45594000000E+02  0.51100000000E-03 0. -1.
         11   -1    0    0    0    0 -0.00000000000E+00 -0.00000000000E+00 -0.45593999997E+02  0.45594000000E+02  0.51100000000E-03 0.  1.
    9900012    2    1    2    0    0  0.18149757337E+01  0.38923671008E+02  0.19112231207E+02  0.47787266327E+02  0.19999978490E+02 0.  0.
        -12    1    1    2    0    0 -0.18149757337E+01 -0.38923671008E+02 -0.19112231207E+02  0.43400733673E+02  0.00000000000E+00 0.  1.
         11    1    3    3    0    0 -0.23812785467E+01  0.21944183526E+02  0.11867984230E+02  0.25061259508E+02  0.51100000000E-03 0. -1.
        -11    1    3    3    0    0 -0.23693798729E+01 -0.86420772258E+00  0.69020168571E+00  0.26148029749E+01  0.51100000000E-03 0.  1.
        -12    1    3    3    0    0  0.65656341532E+01  0.17843695205E+02  0.65540452908E+01  0.20111203844E+02  0.00000000000E+00 0.  1.
</event>
<event>
 7    1  0.2458979E-009  0.4778727E+02  0.7816164E-02  0.1312668E+00
        -11   -1    0    0    0    0  0.00000000000E+00  0.00000000000E+00  0.45593999997E+02  0.45594000000E+02  0.51100000000E-03 0.  1.
         11   -1    0    0    0    0 -0.00000000000E+00 -0.00000000000E+00 -0.45593999997E+02  0.45594000000E+02  0.51100000000E-03 0. -1.
    9900012    2    1    2    0    0  0.48995328780E+01 -0.86331510044E+01 -0.42250286153E+02  0.47787269607E+02  0.19999993444E+02 0.  0.
        -12    1    1    2    0    0 -0.48995328780E+01  0.86331510044E+01  0.42250286153E+02  0.43400730393E+02  0.00000000000E+00 0.  1.
         11    1    3    3    0    0  0.33905011235E+01 -0.93281170541E+01 -0.37088285317E+02  0.38393361062E+02  0.51100000000E-03 0. -1.
        -11    1    3    3    0    0  0.30877875148E+01 -0.16049517649E+01  0.52187578559E-01  0.34803772366E+01  0.51100000000E-03 0.  1.
         12    1    3    3    0    0 -0.15787557604E+01  0.22999178146E+01 -0.52141884143E+01  0.59135313075E+01  0.00000000000E+00 0. -1.
</event>
<event>
 7    1  0.2458979E-009  0.4778727E+02  0.7816164E-02  0.1312668E+00
        -11   -1    0    0    0    0  0.00000000000E+00  0.00000000000E+00  0.45593999997E+02  0.45594000000E+02  0.51100000000E-03 0.  1.
         11   -1    0    0    0    0 -0.00000000000E+00 -0.00000000000E+00 -0.45593999997E+02  0.45594000000E+02  0.51100000000E-03 0. -1.
    9900012    2    1    2    0    0  0.35998277877E+02 -0.90867395231E+01 -0.22476173581E+02  0.47787271618E+02  0.20000002614E+02 0.  0.
        -12    1    1    2    0    0 -0.35998277877E+02  0.90867395231E+01  0.22476173581E+02  0.43400728382E+02  0.00000000000E+00 0.  1.
         11    1    3    3    0    0  0.23433218260E+02 -0.10140089456E+02 -0.20273456066E+02  0.32602916331E+02  0.51100000000E-03 0. -1.
        -11    1    3    3    0    0  0.87800908677E+01  0.14401433218E+01  0.23973643888E+01  0.92147362798E+01  0.51100000000E-03 0.  1.
        -12    1    3    3    0    0  0.37849687493E+01 -0.38679338866E+00 -0.46000819043E+01  0.59696190067E+01  0.00000000000E+00 0.  1.
</event>
<event>
 7    1  0.2458979E-009  0.4778728E+02  0.7816164E-02  0.1312668E+00
        -11   -1    0    0    0    0  0.00000000000E+00  0.00000000000E+00  0.45593999997E+02  0.45594000000E+02  0.51100000000E-03 0.  1.
         11   -1    0    0    0    0 -0.00000000000E+00 -0.00000000000E+00 -0.45593999997E+02  0.45594000000E+02  0.51100000000E-03 0. -1.
    9900012    2    1    2    0    0  0.64235892217E+01  0.32811749391E+02 -0.27672170876E+02  0.47787280679E+02  0.20000043928E+02 0.  0.
        -12    1    1    2    0    0 -0.64235892217E+01 -0.32811749391E+02  0.27672170876E+02  0.43400719321E+02  0.00000000000E+00 0.  1.
         11    1    3    3    0    0 -0.79374890356E+00  0.60597850640E+01 -0.57448471948E+01  0.83877471288E+01  0.51100000000E-03 0. -1.
        -11    1    3    3    0    0 -0.15223096193E+00  0.20603380161E+02 -0.21520054676E+02  0.29793207311E+02  0.51100000000E-03 0.  1.
        -12    1    3    3    0    0  0.73695690871E+01  0.61485841665E+01 -0.40726900429E+00  0.96063262397E+01  0.00000000000E+00 0.  1.
</event>
<event>
 7    1  0.2458979E-009  0.4778727E+02  0.7816164E-02  0.1312668E+00
        -11   -1    0    0    0    0  0.00000000000E+00  0.00000000000E+00  0.45593999997E+02  0.45594000000E+02  0.51100000000E-03 0.  1.
         11   -1    0    0    0    0 -0.00000000000E+00 -0.00000000000E+00 -0.45593999997E+02  0.45594000000E+02  0.51100000000E-03 0. -1.
    9900012    2    1    2    0    0 -0.11942538963E+02 -0.39050251307E+02 -0.14699554000E+02  0.47787271299E+02  0.20000001159E+02 0.  0.
        -12    1    1    2    0    0  0.11942538963E+02  0.39050251307E+02  0.14699554000E+02  0.43400728701E+02  0.00000000000E+00 0.  1.
         11    1    3    3    0    0 -0.41283690318E+01 -0.18984893434E+02 -0.31733619738E+01  0.19686031496E+02  0.51100000000E-03 0. -1.
        -11    1    3    3    0    0 -0.48549025071E+01 -0.13001758514E+02 -0.14326830700E+02  0.19946776205E+02  0.51100000000E-03 0.  1.
        -12    1    3    3    0    0 -0.29592674242E+01 -0.70635993586E+01  0.28006386738E+01  0.81544635978E+01  0.00000000000E+00 0.  1.
</event>
<event>
 7    1  0.2458979E-009  0.4778727E+02  0.7816164E-02  0.1312668E+00
        -11   -1    0    0    0    0  0.00000000000E+00  0.00000000000E+00  0.45593999997E+02  0.45594000000E+02  0.51100000000E-03 0.  1.
         11   -1    0    0    0    0 -0.00000000000E+00 -0.00000000000E+00 -0.45593999997E+02  0.45594000000E+02  0.51100000000E-03 0. -1.
    9900012    2    1    2    0    0  0.35515284360E+02 -0.24062374214E+02  0.65795228181E+01  0.47787269631E+02  0.19999993557E+02 0.  0.
        -12    1    1    2    0    0 -0.35515284360E+02  0.24062374214E+02 -0.65795228181E+01  0.43400730369E+02  0.00000000000E+00 0.  1.
         11    1    3    3    0    0  0.57299916699E+01 -0.17100513742E+01  0.11475280178E+01  0.60888341292E+01  0.51100000000E-03 0. -1.
        -11    1    3    3    0    0  0.27515165827E+02 -0.23099685040E+02  0.93375241066E+01  0.37119659967E+02  0.51100000000E-03 0.  1.
        -12    1    3    3    0    0  0.22701268638E+01  0.74736219933E+00 -0.39055293063E+01  0.45787755347E+01  0.00000000000E+00 0.  1.
</event>
<event>
 7    1  0.2458979E-009  0.4778727E+02  0.7816164E-02  0.1312668E+00
        -11   -1    0    0    0    0  0.00000000000E+00  0.00000000000E+00  0.45593999997E+02  0.45594000000E+02  0.51100000000E-03 0.  1.
         11   -1    0    0    0    0 -0.00000000000E+00 -0.00000000000E+00 -0.45593999997E+02  0.45594000000E+02  0.51100000000E-03 0. -1.
    9900012    2    1    2    0    0  0.12471759168E+02 -0.43834758748E+01 -0.41338402359E+02  0.47787272505E+02  0.20000006660E+02 0.  0.
        -12    1    1    2    0    0 -0.12471759168E+02  0.43834758748E+01  0.41338402359E+02  0.43400727495E+02  0.00000000000E+00 0.  1.
         11    1    3    3    0    0  0.12513032620E+01  0.12388966855E+00  0.14973670323E+01  0.19553047829E+01  0.51100000000E-03 0. -1.
        -11    1    3    3    0    0  0.12973583412E+01  0.50240441394E+00  0.18026333889E+00  0.14028699131E+01  0.51100000000E-03 0.  1.
         12    1    3    3    0    0  0.99230975650E+01 -0.50097699573E+01 -0.43016032730E+02  0.44429097809E+02  0.00000000000E+00 0. -1.
</event>
<event>
 7    1  0.2458979E-009  0.4778727E+02  0.7816164E-02  0.1312668E+00
        -11   -1    0    0    0    0  0.00000000000E+00  0.00000000000E+00  0.45593999997E+02  0.45594000000E+02  0.51100000000E-03 0. -1.
         11   -1    0    0    0    0 -0.00000000000E+00 -0.00000000000E+00 -0.45593999997E+02  0.45594000000E+02  0.51100000000E-03 0.  1.
    9900012    2    1    2    0    0  0.20134077339E+02 -0.26185849820E+02  0.28152148957E+02  0.47787270836E+02  0.19999999048E+02 0.  0.
        -12    1    1    2    0    0 -0.20134077339E+02  0.26185849820E+02 -0.28152148957E+02  0.43400729164E+02  0.00000000000E+00 0.  1.
         11    1    3    3    0    0  0.31956805420E+01 -0.53839438226E+01  0.81658120349E+01  0.10289786765E+02  0.51100000000E-03 0. -1.
        -11    1    3    3    0    0  0.11995265403E+02 -0.19200983846E+02  0.22328382615E+02  0.31798126411E+02  0.51100000000E-03 0.  1.
        -12    1    3    3    0    0  0.49431313934E+01 -0.16009221513E+01 -0.23420456931E+01  0.56993576599E+01  0.00000000000E+00 0.  1.
</event>
<event>
 7    1  0.2458979E-009  0.4778727E+02  0.7816164E-02  0.1312668E+00
        -11   -1    0    0    0    0  0.00000000000E+00  0.00000000000E+00  0.45593999997E+02  0.45594000000E+02  0.51100000000E-03 0.  1.
         11   -1    0    0    0    0 -0.00000000000E+00 -0.00000000000E+00 -0.45593999997E+02  0.45594000000E+02  0.51100000000E-03 0. -1.
    9900012    2    1    2    0    0  0.68506953392E+01  0.10963564646E+01 -0.42842610696E+02  0.47787270566E+02  0.19999997819E+02 0.  0.
        -12    1    1    2    0    0 -0.68506953392E+01 -0.10963564646E+01  0.42842610696E+02  0.43400729434E+02  0.00000000000E+00 0.  1.
         11    1    3    3    0    0 -0.16896210020E+01  0.35188261816E+01 -0.36370096664E+02  0.36578967843E+02  0.51100000000E-03 0. -1.
        -11    1    3    3    0    0  0.43429399472E+01 -0.21395315645E+01 -0.26245196998E+01  0.55069798089E+01  0.51100000000E-03 0.  1.
         12    1    3    3    0    0  0.41973763940E+01 -0.28293815253E+00 -0.38479943323E+01  0.57013229142E+01  0.00000000000E+00 0. -1.
</event>
<event>
 7    1  0.2458979E-009  0.4778727E+02  0.7816164E-02  0.1312668E+00
        -11   -1    0    0    0    0  0.00000000000E+00  0.00000000000E+00  0.45593999997E+02  0.45594000000E+02  0.51100000000E-03 0.  1.
         11   -1    0    0    0    0 -0.00000000000E+00 -0.00000000000E+00 -0.45593999997E+02  0.45594000000E+02  0.51100000000E-03 0. -1.
    9900012    2    1    2    0    0 -0.13213983208E+02  0.10448162981E+02 -0.39998125367E+02  0.47787268499E+02  0.19999988395E+02 0.  0.
        -12    1    1    2    0    0  0.13213983208E+02 -0.10448162981E+02  0.39998125367E+02  0.43400731501E+02  0.00000000000E+00 0.  1.
         11    1    3    3    0    0 -0.55832523621E+01 -0.77081489316E+00 -0.13285390250E+01  0.57906717003E+01  0.51100000000E-03 0. -1.
        -11    1    3    3    0    0  0.16732137277E+01  0.40760934521E+01 -0.75756582521E+01  0.87638336487E+01  0.51100000000E-03 0.  1.
         12    1    3    3    0    0 -0.93039445736E+01  0.71428844223E+01 -0.31093928090E+02  0.33232763150E+02  0.00000000000E+00 0. -1.
</event>
<event>
 7    1  0.2458979E-009  0.4778727E+02  0.7816164E-02  0.1312668E+00
        -11   -1    0    0    0    0  0.00000000000E+00  0.00000000000E+00  0.45593999997E+02  0.45594000000E+02  0.51100000000E-03 0.  1.
         11   -1    0    0    0    0 -0.00000000000E+00 -0.00000000000E+00 -0.45593999997E+02  0.45594000000E+02  0.51100000000E-03 0. -1.
    9900012    2    1    2    0    0  0.62441439036E+00 -0.28931040680E+02 -0.32345454696E+02  0.47787269042E+02  0.19999990872E+02 0.  0.
        -12    1    1    2    0    0 -0.62441439036E+00  0.28931040680E+02  0.32345454696E+02  0.43400730958E+02  0.00000000000E+00 0.  1.
         11    1    3    3    0    0  0.71486988346E+01 -0.19408953996E+02 -0.20155571277E+02  0.28880070014E+02  0.51100000000E-03 0. -1.
        -11    1    3    3    0    0 -0.40449877389E+01 -0.95371785095E+01 -0.54076471331E+01  0.11685989368E+02  0.51100000000E-03 0.  1.
         12    1    3    3    0    0 -0.24792967053E+01  0.15091826020E-01 -0.67822362864E+01  0.72212096605E+01  0.00000000000E+00 0. -1.
</event>
<event>
 7    1  0.2458979E-009  0.4778727E+02  0.7816164E-02  0.1312668E+00
        -11   -1    0    0    0    0  0.00000000000E+00  0.00000000000E+00  0.45593999997E+02  0.45594000000E+02  0.51100000000E-03 0. -1.
         11   -1    0    0    0    0 -0.00000000000E+00 -0.00000000000E+00 -0.45593999997E+02  0.45594000000E+02  0.51100000000E-03 0.  1.
    9900012    2    1    2    0    0  0.80318939660E+01 -0.12543686894E+02  0.40764787815E+02  0.47787270430E+02  0.19999997199E+02 0.  0.
        -12    1    1    2    0    0 -0.80318939660E+01  0.12543686894E+02 -0.40764787815E+02  0.43400729570E+02  0.00000000000E+00 0.  1.
         11    1    3    3    0    0 -0.97846026648E+00 -0.33123746799E+00  0.69872422109E+01  0.70631902656E+01  0.51100000000E-03 0. -1.
        -11    1    3    3    0    0 -0.46773690215E+00 -0.12816588592E+01 -0.18340082375E+01  0.22858288906E+01  0.51100000000E-03 0.  1.
        -12    1    3    3    0    0  0.94780911347E+01 -0.10930790566E+02  0.35611553842E+02  0.38438251274E+02  0.00000000000E+00 0.  1.
</event>
<event>
 7    1  0.2458979E-009  0.4778727E+02  0.7816164E-02  0.1312668E+00
        -11   -1    0    0    0    0  0.00000000000E+00  0.00000000000E+00  0.45593999997E+02  0.45594000000E+02  0.51100000000E-03 0. -1.
         11   -1    0    0    0    0 -0.00000000000E+00 -0.00000000000E+00 -0.45593999997E+02  0.45594000000E+02  0.51100000000E-03 0.  1.
    9900012    2    1    2    0    0  0.27191807057E+02 -0.31528903257E+02  0.12253861580E+02  0.47787271489E+02  0.20000002028E+02 0.  0.
        -12    1    1    2    0    0 -0.27191807057E+02  0.31528903257E+02 -0.12253861580E+02  0.43400728511E+02  0.00000000000E+00 0.  1.
         11    1    3    3    0    0  0.29502874635E+02 -0.27684205879E+02  0.10494877806E+02  0.41796857864E+02  0.51100000000E-03 0. -1.
        -11    1    3    3    0    0 -0.24037305665E+01 -0.22969556139E+01 -0.38235905703E+00  0.33466586976E+01  0.51100000000E-03 0.  1.
        -12    1    3    3    0    0  0.92662988687E-01 -0.15477417643E+01  0.21413428304E+01  0.26437549273E+01  0.00000000000E+00 0.  1.
</event>
<event>
 7    1  0.2458979E-009  0.4778727E+02  0.7816164E-02  0.1312668E+00
        -11   -1    0    0    0    0  0.00000000000E+00  0.00000000000E+00  0.45593999997E+02  0.45594000000E+02  0.51100000000E-03 0. -1.
         11   -1    0    0    0    0 -0.00000000000E+00 -0.00000000000E+00 -0.45593999997E+02  0.45594000000E+02  0.51100000000E-03 0.  1.
    9900012    2    1    2    0    0  0.22688144828E+02  0.34284407204E+02  0.13908666760E+02  0.47787268392E+02  0.19999987909E+02 0.  0.
        -12    1    1    2    0    0 -0.22688144828E+02 -0.34284407204E+02 -0.13908666760E+02  0.43400731608E+02  0.00000000000E+00 0.  1.
         11    1    3    3    0    0  0.12480578723E+02  0.19503581513E+02  0.75726149004E+01  0.24361835599E+02  0.51100000000E-03 0. -1.
        -11    1    3    3    0    0  0.33174614706E+01  0.54229895714E+01 -0.42976996106E+01  0.76736294349E+01  0.51100000000E-03 0.  1.
        -12    1    3    3    0    0  0.68901046347E+01  0.93578361195E+01  0.10633751470E+02  0.15751803358E+02  0.00000000000E+00 0.  1.
</event>
<event>
 7    1  0.2458979E-009  0.4778727E+02  0.7816164E-02  0.1312668E+00
        -11   -1    0    0    0    0  0.00000000000E+00  0.00000000000E+00  0.45593999997E+02  0.45594000000E+02  0.51100000000E-03 0. -1.
         11   -1    0    0    0    0 -0.00000000000E+00 -0.00000000000E+00 -0.45593999997E+02  0.45594000000E+02  0.51100000000E-03 0.  1.
    9900012    2    1    2    0    0 -0.39532313402E+02 -0.17901525007E+02 -0.59575593307E+00  0.47787270449E+02  0.19999997283E+02 0.  0.
        -12    1    1    2    0    0  0.39532313402E+02  0.17901525007E+02  0.59575593307E+00  0.43400729551E+02  0.00000000000E+00 0.  1.
         11    1    3    3    0    0 -0.13598139141E+02 -0.13002288395E+01 -0.19761011258E+00  0.13661589701E+02  0.51100000000E-03 0. -1.
        -11    1    3    3    0    0 -0.14639149641E+02 -0.17404201695E+02  0.66795686765E+00  0.22752079147E+02  0.51100000000E-03 0.  1.
        -12    1    3    3    0    0 -0.11295024619E+02  0.80290552749E+00 -0.10661026881E+01  0.11373601601E+02  0.00000000000E+00 0.  1.
</event>
<event>
 7    1  0.2458979E-009  0.4778733E+02  0.7816164E-02  0.1312668E+00
        -11   -1    0    0    0    0  0.00000000000E+00  0.00000000000E+00  0.45593999997E+02  0.45594000000E+02  0.51100000000E-03 0.  1.
         11   -1    0    0    0    0 -0.00000000000E+00 -0.00000000000E+00 -0.45593999997E+02  0.45594000000E+02  0.51100000000E-03 0. -1.
    9900012    2    1    2    0    0  0.37712556039E+01 -0.17946964886E+02 -0.39335767525E+02  0.47787325763E+02  0.20000249481E+02 0.  0.
        -12    1    1    2    0    0 -0.37712556039E+01  0.17946964886E+02  0.39335767525E+02  0.43400674237E+02  0.00000000000E+00 0.  1.
         11    1    3    3    0    0  0.84384745723E+01 -0.48415865833E+01 -0.79426128139E+01  0.12559216230E+02  0.51100000000E-03 0. -1.
        -11    1    3    3    0    0 -0.43611726223E+01 -0.14178514021E+02 -0.29728957863E+02  0.33224404018E+02  0.51100000000E-03 0.  1.
         12    1    3    3    0    0 -0.30604634609E+00  0.10731357186E+01 -0.16641968487E+01  0.20037055142E+01  0.00000000000E+00 0. -1.
</event>
<event>
 7    1  0.2458979E-009  0.4778727E+02  0.7816164E-02  0.1312668E+00
        -11   -1    0    0    0    0  0.00000000000E+00  0.00000000000E+00  0.45593999997E+02  0.45594000000E+02  0.51100000000E-03 0. -1.
         11   -1    0    0    0    0 -0.00000000000E+00 -0.00000000000E+00 -0.45593999997E+02  0.45594000000E+02  0.51100000000E-03 0.  1.
    9900012    2    1    2    0    0  0.25579794710E+02  0.27632432584E+02  0.21581149913E+02  0.47787271211E+02  0.20000000759E+02 0.  0.
        -12    1    1    2    0    0 -0.25579794710E+02 -0.27632432584E+02 -0.21581149913E+02  0.43400728789E+02  0.00000000000E+00 0.  1.
         11    1    3    3    0    0  0.11878595000E+02  0.22190424944E+02  0.16581767476E+02  0.30140852530E+02  0.51100000000E-03 0. -1.
        -11    1    3    3    0    0  0.20129230529E+01 -0.21549106404E+01  0.45184133012E+00  0.29832297822E+01  0.51100000000E-03 0.  1.
         12    1    3    3    0    0  0.11688276656E+02  0.75969182804E+01  0.45475411066E+01  0.14663188898E+02  0.00000000000E+00 0. -1.
</event>
<event>
 7    1  0.2458979E-009  0.4778727E+02  0.7816164E-02  0.1312668E+00
        -11   -1    0    0    0    0  0.00000000000E+00  0.00000000000E+00  0.45593999997E+02  0.45594000000E+02  0.51100000000E-03 0.  1.
         11   -1    0    0    0    0 -0.00000000000E+00 -0.00000000000E+00 -0.45593999997E+02  0.45594000000E+02  0.51100000000E-03 0. -1.
    9900012    2    1    2    0    0 -0.14026596414E+02 -0.28594534133E+02 -0.29482714711E+02  0.47787271251E+02  0.20000000942E+02 0.  0.
        -12    1    1    2    0    0  0.14026596414E+02  0.28594534133E+02  0.29482714711E+02  0.43400728749E+02  0.00000000000E+00 0.  1.
         11    1    3    3    0    0 -0.11014087682E+02 -0.18730871645E+02 -0.24398818306E+02  0.32671975989E+02  0.51100000000E-03 0. -1.
        -11    1    3    3    0    0 -0.15141646276E+01 -0.25583695146E+00  0.23969728590E+01  0.28466868836E+01  0.51100000000E-03 0.  1.
         12    1    3    3    0    0 -0.14983441039E+01 -0.96078255363E+01 -0.74808692643E+01  0.12268608378E+02  0.00000000000E+00 0. -1.
</event>
<event>
 7    1  0.2458979E-009  0.4778728E+02  0.7816164E-02  0.1312668E+00
        -11   -1    0    0    0    0  0.00000000000E+00  0.00000000000E+00  0.45593999997E+02  0.45594000000E+02  0.51100000000E-03 0.  1.
         11   -1    0    0    0    0 -0.00000000000E+00 -0.00000000000E+00 -0.45593999997E+02  0.45594000000E+02  0.51100000000E-03 0. -1.
    9900012    2    1    2    0    0  0.31706036488E+02  0.29621076630E+02  0.97022501507E+00  0.47787282643E+02  0.20000052884E+02 0.  0.
        -12    1    1    2    0    0 -0.31706036488E+02 -0.29621076630E+02 -0.97022501507E+00  0.43400717357E+02  0.00000000000E+00 0.  1.
         11    1    3    3    0    0  0.13952997766E+02  0.14212238618E+02 -0.89283737714E+01  0.21826354062E+02  0.51100000000E-03 0. -1.
        -11    1    3    3    0    0  0.76433398303E+01  0.88992199039E+01  0.67375760510E+01  0.13528181325E+02  0.51100000000E-03 0.  1.
         12    1    3    3    0    0  0.10109698892E+02  0.65096181080E+01  0.31610227355E+01  0.12432747256E+02  0.00000000000E+00 0. -1.
</event>
<event>
 7    1  0.2458979E-009  0.4778727E+02  0.7816164E-02  0.1312668E+00
        -11   -1    0    0    0    0  0.00000000000E+00  0.00000000000E+00  0.45593999997E+02  0.45594000000E+02  0.51100000000E-03 0.  1.
         11   -1    0    0    0    0 -0.00000000000E+00 -0.00000000000E+00 -0.45593999997E+02  0.45594000000E+02  0.51100000000E-03 0. -1.
    9900012    2    1    2    0    0 -0.22799382571E+02  0.22159301019E+02 -0.29542792728E+02  0.47787273399E+02  0.20000010737E+02 0.  0.
        -12    1    1    2    0    0  0.22799382571E+02 -0.22159301019E+02  0.29542792728E+02  0.43400726601E+02  0.00000000000E+00 0.  1.
         11    1    3    3    0    0  0.25031613129E+01  0.21299642718E+01 -0.61360391316E+01  0.69608577663E+01  0.51100000000E-03 0. -1.
        -11    1    3    3    0    0 -0.17702812274E+02  0.14834161163E+02 -0.21220077929E+02  0.31364527853E+02  0.51100000000E-03 0.  1.
        -12    1    3    3    0    0 -0.75997316098E+01  0.51951755848E+01 -0.21866756670E+01  0.94618877805E+01  0.00000000000E+00 0.  1.
</event>
<event>
 7    1  0.2458979E-009  0.4778728E+02  0.7816164E-02  0.1312668E+00
        -11   -1    0    0    0    0  0.00000000000E+00  0.00000000000E+00  0.45593999997E+02  0.45594000000E+02  0.51100000000E-03 0.  1.
         11   -1    0    0    0    0 -0.00000000000E+00 -0.00000000000E+00 -0.45593999997E+02  0.45594000000E+02  0.51100000000E-03 0. -1.
    9900012    2    1    2    0    0 -0.48252752218E+01 -0.37848317338E+02 -0.20684388402E+02  0.47787281920E+02  0.20000049587E+02 0.  0.
        -12    1    1    2    0    0  0.48252752218E+01  0.37848317338E+02  0.20684388402E+02  0.43400718080E+02  0.00000000000E+00 0.  1.
         11    1    3    3    0    0  0.16713277134E+01 -0.21781922250E+02 -0.21049963109E+02  0.30337211810E+02  0.51100000000E-03 0. -1.
        -11    1    3    3    0    0 -0.58878327285E+01 -0.12492711568E+02  0.53414682055E+00  0.13820988736E+02  0.51100000000E-03 0.  1.
         12    1    3    3    0    0 -0.60877020681E+00 -0.35736835195E+01 -0.16857211365E+00  0.36290813741E+01  0.00000000000E+00 0. -1.
</event>
<event>
 7    1  0.2458979E-009  0.4778727E+02  0.7816164E-02  0.1312668E+00
        -11   -1    0    0    0    0  0.00000000000E+00  0.00000000000E+00  0.45593999997E+02  0.45594000000E+02  0.51100000000E-03 0. -1.
         11   -1    0    0    0    0 -0.00000000000E+00 -0.00000000000E+00 -0.45593999997E+02  0.45594000000E+02  0.51100000000E-03 0.  1.
    9900012    2    1    2    0    0  0.42736993005E+02  0.26431587643E+01  0.70842479920E+01  0.47787269258E+02  0.19999991853E+02 0.  0.
        -12    1    1    2    0    0 -0.42736993005E+02 -0.26431587643E+01 -0.70842479920E+01  0.43400730742E+02  0.00000000000E+00 0.  1.
         11    1    3    3    0    0  0.14781165928E+02  0.94194818232E+00  0.49428277619E+01  0.15614149965E+02  0.51100000000E-03 0. -1.
        -11    1    3    3    0    0  0.52945930947E+01  0.58418185180E+00  0.71716434069E+01  0.89334458017E+01  0.51100000000E-03 0.  1.
        -12    1    3    3    0    0  0.22661233982E+02  0.11170287302E+01 -0.50302231768E+01  0.23239673491E+02  0.00000000000E+00 0.  1.
</event>
<event>
 7    1  0.2458979E-009  0.4778727E+02  0.7816164E-02  0.1312668E+00
        -11   -1    0    0    0    0  0.00000000000E+00  0.00000000000E+00  0.45593999997E+02  0.45594000000E+02  0.51100000000E-03 0. -1.
         11   -1    0    0    0    0 -0.00000000000E+00 -0.00000000000E+00 -0.45593999997E+02  0.45594000000E+02  0.51100000000E-03 0.  1.
    9900012    2    1    2    0    0  0.37114780980E+02 -0.19759164851E+02  0.10756006144E+02  0.47787271539E+02  0.20000002255E+02 0.  0.
        -12    1    1    2    0    0 -0.37114780980E+02  0.19759164851E+02 -0.10756006144E+02  0.43400728461E+02  0.00000000000E+00 0.  1.
         11    1    3    3    0    0  0.18003406462E+02 -0.10797783494E+01  0.32751768250E+00  0.18038731486E+02  0.51100000000E-03 0. -1.
        -11    1    3    3    0    0  0.20007557605E+01  0.46094528228E-01  0.24377603228E+01  0.31540171166E+01  0.51100000000E-03 0.  1.
         12    1    3    3    0    0  0.17110618757E+02 -0.18725481029E+02  0.79907281384E+01  0.26594522936E+02  0.00000000000E+00 0. -1.
</event>
<event>
 7    1  0.2458979E-009  0.4778727E+02  0.7816164E-02  0.1312668E+00
        -11   -1    0    0    0    0  0.00000000000E+00  0.00000000000E+00  0.45593999997E+02  0.45594000000E+02  0.51100000000E-03 0.  1.
         11   -1    0    0    0    0 -0.00000000000E+00 -0.00000000000E+00 -0.45593999997E+02  0.45594000000E+02  0.51100000000E-03 0. -1.
    9900012    2    1    2    0    0  0.24761942150E+02 -0.33908219997E+01 -0.35481988962E+02  0.47787274274E+02  0.20000014723E+02 0.  0.
        -12    1    1    2    0    0 -0.24761942150E+02  0.33908219997E+01  0.35481988962E+02  0.43400725726E+02  0.00000000000E+00 0.  1.
         11    1    3    3    0    0  0.68722238535E+01  0.59825128456E+01 -0.46069234020E+01  0.10209880711E+02  0.51100000000E-03 0. -1.
        -11    1    3    3    0    0  0.11022968899E+02 -0.81885109094E+01 -0.15566341951E+02  0.20757373539E+02  0.51100000000E-03 0.  1.
         12    1    3    3    0    0  0.68667493982E+01 -0.11848239358E+01 -0.15308723609E+02  0.16820020024E+02  0.00000000000E+00 0. -1.
</event>
<event>
 7    1  0.2458979E-009  0.4778727E+02  0.7816164E-02  0.1312668E+00
        -11   -1    0    0    0    0  0.00000000000E+00  0.00000000000E+00  0.45593999997E+02  0.45594000000E+02  0.51100000000E-03 0.  1.
         11   -1    0    0    0    0 -0.00000000000E+00 -0.00000000000E+00 -0.45593999997E+02  0.45594000000E+02  0.51100000000E-03 0. -1.
    9900012    2    1    2    0    0 -0.38120799236E+01 -0.35648698618E+02 -0.24459383568E+02  0.47787272921E+02  0.20000008556E+02 0.  0.
        -12    1    1    2    0    0  0.38120799236E+01  0.35648698618E+02  0.24459383568E+02  0.43400727079E+02  0.00000000000E+00 0.  1.
         11    1    3    3    0    0 -0.38372841524E+01  0.35837738303E+00 -0.35744243288E+01  0.52563954910E+01  0.51100000000E-03 0. -1.
        -11    1    3    3    0    0 -0.37597243174E+01 -0.22100740481E+02 -0.10429283694E+02  0.24725456829E+02  0.51100000000E-03 0.  1.
         12    1    3    3    0    0  0.37849285462E+01 -0.13906335519E+02 -0.10455675545E+02  0.17805420601E+02  0.00000000000E+00 0. -1.
</event>
<event>
 7    1  0.2458979E-009  0.4778727E+02  0.7816164E-02  0.1312668E+00
        -11   -1    0    0    0    0  0.00000000000E+00  0.00000000000E+00  0.45593999997E+02  0.45594000000E+02  0.51100000000E-03 0.  1.
         11   -1    0    0    0    0 -0.00000000000E+00 -0.00000000000E+00 -0.45593999997E+02  0.45594000000E+02  0.51100000000E-03 0. -1.
    9900012    2    1    2    0    0 -0.38354319661E+02  0.18456197637E+02 -0.84816353966E+01  0.47787271816E+02  0.20000003517E+02 0.  0.
        -12    1    1    2    0    0  0.38354319661E+02 -0.18456197637E+02  0.84816353966E+01  0.43400728184E+02  0.00000000000E+00 0.  1.
         11    1    3    3    0    0 -0.10101536849E+02  0.75258211674E+01 -0.13148982384E+00  0.12597472794E+02  0.51100000000E-03 0. -1.
        -11    1    3    3    0    0 -0.28479782043E+02  0.12368365512E+02 -0.48852745905E+01  0.31431518556E+02  0.51100000000E-03 0.  1.
        -12    1    3    3    0    0  0.22699923038E+00 -0.14379890426E+01 -0.34648709823E+01  0.37582804660E+01  0.00000000000E+00 0.  1.
</event>
<event>
 7    1  0.2458979E-009  0.4778725E+02  0.7816164E-02  0.1312668E+00
        -11   -1    0    0    0    0  0.00000000000E+00  0.00000000000E+00  0.45593999997E+02  0.45594000000E+02  0.51100000000E-03 0. -1.
         11   -1    0    0    0    0 -0.00000000000E+00 -0.00000000000E+00 -0.45593999997E+02  0.45594000000E+02  0.51100000000E-03 0.  1.
    9900012    2    1    2    0    0  0.13633202161E+02  0.28506012236E+02  0.29751771498E+02  0.47787252978E+02  0.19999917629E+02 0.  0.
        -12    1    1    2    0    0 -0.13633202161E+02 -0.28506012236E+02 -0.29751771498E+02  0.43400747022E+02  0.00000000000E+00 0.  1.
         11    1    3    3    0    0  0.59597131970E+01  0.17117578967E+02  0.28569786149E+02  0.33834337173E+02  0.51100000000E-03 0. -1.
        -11    1    3    3    0    0  0.33453697400E+01  0.67778930655E+01  0.26624488264E+00  0.75632149053E+01  0.51100000000E-03 0.  1.
         12    1    3    3    0    0  0.43281192243E+01  0.46105402036E+01  0.91574046608E+00  0.63897008999E+01  0.00000000000E+00 0. -1.
</event>
<event>
 7    1  0.2458979E-009  0.4778731E+02  0.7816164E-02  0.1312668E+00
        -11   -1    0    0    0    0  0.00000000000E+00  0.00000000000E+00  0.45593999997E+02  0.45594000000E+02  0.51100000000E-03 0.  1.
         11   -1    0    0    0    0 -0.00000000000E+00 -0.00000000000E+00 -0.45593999997E+02  0.45594000000E+02  0.51100000000E-03 0. -1.
    9900012    2    1    2    0    0 -0.10665021734E+02 -0.39854128251E+02 -0.13473155829E+02  0.47787306972E+02  0.20000163809E+02 0.  0.
        -12    1    1    2    0    0  0.10665021734E+02  0.39854128251E+02  0.13473155829E+02  0.43400693028E+02  0.00000000000E+00 0.  1.
         11    1    3    3    0    0 -0.44786820074E+01 -0.55926593644E+01 -0.64878691000E+00  0.71942585445E+01  0.51100000000E-03 0. -1.
        -11    1    3    3    0    0 -0.75416192358E+01 -0.84104252151E+01 -0.89624543997E+01  0.14420016024E+02  0.51100000000E-03 0.  1.
        -12    1    3    3    0    0  0.13552795087E+01 -0.25851043672E+02 -0.38619145195E+01  0.26173032404E+02  0.00000000000E+00 0.  1.
</event>
<event>
 7    1  0.2458979E-009  0.4778727E+02  0.7816164E-02  0.1312668E+00
        -11   -1    0    0    0    0  0.00000000000E+00  0.00000000000E+00  0.45593999997E+02  0.45594000000E+02  0.51100000000E-03 0.  1.
         11   -1    0    0    0    0 -0.00000000000E+00 -0.00000000000E+00 -0.45593999997E+02  0.45594000000E+02  0.51100000000E-03 0. -1.
    9900012    2    1    2    0    0  0.34573276429E+02 -0.19400727095E+02 -0.17661371021E+02  0.47787266352E+02  0.19999978604E+02 0.  0.
        -12    1    1    2    0    0 -0.34573276429E+02  0.19400727095E+02  0.17661371021E+02  0.43400733648E+02  0.00000000000E+00 0.  1.
         11    1    3    3    0    0  0.12479791625E+02 -0.56199783880E+01  0.53826028957E+00  0.13697411452E+02  0.51100000000E-03 0. -1.
        -11    1    3    3    0    0  0.95773819881E+01 -0.89538126037E+00 -0.11317792284E+02  0.14853295115E+02  0.51100000000E-03 0.  1.
        -12    1    3    3    0    0  0.12516102816E+02 -0.12885367447E+02 -0.68818390273E+01  0.19236559784E+02  0.00000000000E+00 0.  1.
</event>
<event>
 7    1  0.2458979E-009  0.4778727E+02  0.7816164E-02  0.1312668E+00
        -11   -1    0    0    0    0  0.00000000000E+00  0.00000000000E+00  0.45593999997E+02  0.45594000000E+02  0.51100000000E-03 0.  1.
         11   -1    0    0    0    0 -0.00000000000E+00 -0.00000000000E+00 -0.45593999997E+02  0.45594000000E+02  0.51100000000E-03 0. -1.
    9900012    2    1    2    0    0 -0.28345125246E+01  0.37528344642E+02 -0.21615094792E+02  0.47787269181E+02  0.19999991502E+02 0.  0.
        -12    1    1    2    0    0  0.28345125246E+01 -0.37528344642E+02  0.21615094792E+02  0.43400730819E+02  0.00000000000E+00 0.  1.
         11    1    3    3    0    0 -0.71563694781E+01  0.32605591603E+02 -0.16602108127E+02  0.37282277592E+02  0.51100000000E-03 0. -1.
        -11    1    3    3    0    0  0.10312497375E+01  0.40174200569E+01  0.33460247788E+00  0.41611415518E+01  0.51100000000E-03 0.  1.
         12    1    3    3    0    0  0.32906072161E+01  0.90533298147E+00 -0.53475891422E+01  0.63438500370E+01  0.00000000000E+00 0. -1.
</event>
<event>
 7    1  0.2458979E-009  0.4778728E+02  0.7816164E-02  0.1312668E+00
        -11   -1    0    0    0    0  0.00000000000E+00  0.00000000000E+00  0.45593999997E+02  0.45594000000E+02  0.51100000000E-03 0. -1.
         11   -1    0    0    0    0 -0.00000000000E+00 -0.00000000000E+00 -0.45593999997E+02  0.45594000000E+02  0.51100000000E-03 0.  1.
    9900012    2    1    2    0    0  0.10583060477E+01  0.15144146723E+02  0.40659041693E+02  0.47787275778E+02  0.20000021580E+02 0.  0.
        -12    1    1    2    0    0 -0.10583060477E+01 -0.15144146723E+02 -0.40659041693E+02  0.43400724222E+02  0.00000000000E+00 0.  1.
         11    1    3    3    0    0 -0.25979464740E+01 -0.22653066314E+01  0.13987350259E+02  0.14405794235E+02  0.51100000000E-03 0. -1.
        -11    1    3    3    0    0 -0.12209309454E+00  0.13093318092E+02  0.12540808145E+02  0.18130685442E+02  0.51100000000E-03 0.  1.
         12    1    3    3    0    0  0.37783456163E+01  0.43161352624E+01  0.14130883288E+02  0.15250796100E+02  0.00000000000E+00 0. -1.
</event>
<event>
 7    1  0.2458979E-009  0.4778727E+02  0.7816164E-02  0.1312668E+00
        -11   -1    0    0    0    0  0.00000000000E+00  0.00000000000E+00  0.45593999997E+02  0.45594000000E+02  0.51100000000E-03 0.  1.
         11   -1    0    0    0    0 -0.00000000000E+00 -0.00000000000E+00 -0.45593999997E+02  0.45594000000E+02  0.51100000000E-03 0. -1.
    9900012    2    1    2    0    0 -0.10012134852E+02 -0.21606443375E+02 -0.36284183796E+02  0.47787271511E+02  0.20000002127E+02 0.  0.
        -12    1    1    2    0    0  0.10012134852E+02  0.21606443375E+02  0.36284183796E+02  0.43400728489E+02  0.00000000000E+00 0.  1.
         11    1    3    3    0    0 -0.71674646925E+01 -0.47675126521E+01 -0.53427850738E+01  0.10131489506E+02  0.51100000000E-03 0. -1.
        -11    1    3    3    0    0  0.41745770649E+01 -0.58370804625E+01 -0.17533754408E+02  0.18945478244E+02  0.51100000000E-03 0.  1.
         12    1    3    3    0    0 -0.70192472247E+01 -0.11001850260E+02 -0.13407644314E+02  0.18710303761E+02  0.00000000000E+00 0. -1.
</event>
<event>
 7    1  0.2458979E-009  0.4778728E+02  0.7816164E-02  0.1312668E+00
        -11   -1    0    0    0    0  0.00000000000E+00  0.00000000000E+00  0.45593999997E+02  0.45594000000E+02  0.51100000000E-03 0.  1.
         11   -1    0    0    0    0 -0.00000000000E+00 -0.00000000000E+00 -0.45593999997E+02  0.45594000000E+02  0.51100000000E-03 0. -1.
    9900012    2    1    2    0    0 -0.31495457876E+02 -0.18649183100E+01 -0.29802366904E+02  0.47787275810E+02  0.20000021726E+02 0.  0.
        -12    1    1    2    0    0  0.31495457876E+02  0.18649183100E+01  0.29802366904E+02  0.43400724190E+02  0.00000000000E+00 0.  1.
         11    1    3    3    0    0 -0.33075124680E+01  0.35554490423E+01 -0.14050155946E+02  0.14865656359E+02  0.51100000000E-03 0. -1.
        -11    1    3    3    0    0 -0.14283197197E+02 -0.10009766956E+01 -0.78438643990E+01  0.16325988041E+02  0.51100000000E-03 0.  1.
         12    1    3    3    0    0 -0.13904748211E+02 -0.44193906566E+01 -0.79083465590E+01  0.16595631410E+02  0.00000000000E+00 0. -1.
</event>
<event>
 7    1  0.2458979E-009  0.4778727E+02  0.7816164E-02  0.1312668E+00
        -11   -1    0    0    0    0  0.00000000000E+00  0.00000000000E+00  0.45593999997E+02  0.45594000000E+02  0.51100000000E-03 0.  1.
         11   -1    0    0    0    0 -0.00000000000E+00 -0.00000000000E+00 -0.45593999997E+02  0.45594000000E+02  0.51100000000E-03 0. -1.
    9900012    2    1    2    0    0 -0.11914636879E+02  0.16808429049E+02 -0.38198711206E+02  0.47787269628E+02  0.19999993540E+02 0.  0.
        -12    1    1    2    0    0  0.11914636879E+02 -0.16808429049E+02  0.38198711206E+02  0.43400730372E+02  0.00000000000E+00 0.  1.
         11    1    3    3    0    0 -0.57049256239E+00  0.10699647826E+02 -0.26320635258E+02  0.28418018334E+02  0.51100000000E-03 0. -1.
        -11    1    3    3    0    0 -0.49621446942E+01  0.55522314465E+01 -0.22030215195E+01  0.77655301221E+01  0.51100000000E-03 0.  1.
         12    1    3    3    0    0 -0.63819996220E+01  0.55654977586E+00 -0.96750544291E+01  0.11603721172E+02  0.00000000000E+00 0. -1.
</event>
<event>
 7    1  0.2458979E-009  0.4778727E+02  0.7816164E-02  0.1312668E+00
        -11   -1    0    0    0    0  0.00000000000E+00  0.00000000000E+00  0.45593999997E+02  0.45594000000E+02  0.51100000000E-03 0.  1.
         11   -1    0    0    0    0 -0.00000000000E+00 -0.00000000000E+00 -0.45593999997E+02  0.45594000000E+02  0.51100000000E-03 0. -1.
    9900012    2    1    2    0    0  0.22284444676E+02 -0.30321228207E+02 -0.21625213932E+02  0.47787271525E+02  0.20000002192E+02 0.  0.
        -12    1    1    2    0    0 -0.22284444676E+02  0.30321228207E+02  0.21625213932E+02  0.43400728475E+02  0.00000000000E+00 0.  1.
         11    1    3    3    0    0  0.93792575475E+01 -0.92922162219E+01 -0.77954741783E+01  0.15332487482E+02  0.51100000000E-03 0. -1.
        -11    1    3    3    0    0 -0.37249289291E+01 -0.52403313377E+01 -0.29903700508E+01  0.70907320748E+01  0.51100000000E-03 0.  1.
        -12    1    3    3    0    0  0.16630116058E+02 -0.15788680648E+02 -0.10839369703E+02  0.25364051968E+02  0.00000000000E+00 0.  1.
</event>
<event>
 7    1  0.2458979E-009  0.4778727E+02  0.7816164E-02  0.1312668E+00
        -11   -1    0    0    0    0  0.00000000000E+00  0.00000000000E+00  0.45593999997E+02  0.45594000000E+02  0.51100000000E-03 0. -1.
         11   -1    0    0    0    0 -0.00000000000E+00 -0.00000000000E+00 -0.45593999997E+02  0.45594000000E+02  0.51100000000E-03 0.  1.
    9900012    2    1    2    0    0  0.30375789834E+02  0.37295691203E+01  0.30773771214E+02  0.47787270874E+02  0.19999999225E+02 0.  0.
        -12    1    1    2    0    0 -0.30375789834E+02 -0.37295691203E+01 -0.30773771214E+02  0.43400729126E+02  0.00000000000E+00 0.  1.
         11    1    3    3    0    0  0.90337041393E+01  0.11651095850E+01  0.10885699522E+02  0.14193792487E+02  0.51100000000E-03 0. -1.
        -11    1    3    3    0    0  0.35134724846E+01  0.54243579071E+01  0.12523610232E+02  0.14092869159E+02  0.51100000000E-03 0.  1.
        -12    1    3    3    0    0  0.17828613210E+02 -0.28598983718E+01  0.73644614601E+01  0.19500609229E+02  0.00000000000E+00 0.  1.
</event>
<event>
 7    1  0.2458979E-009  0.4778727E+02  0.7816164E-02  0.1312668E+00
        -11   -1    0    0    0    0  0.00000000000E+00  0.00000000000E+00  0.45593999997E+02  0.45594000000E+02  0.51100000000E-03 0.  1.
         11   -1    0    0    0    0 -0.00000000000E+00 -0.00000000000E+00 -0.45593999997E+02  0.45594000000E+02  0.51100000000E-03 0. -1.
    9900012    2    1    2    0    0 -0.16076216895E+02  0.49564009446E+01 -0.40007660192E+02  0.47787268048E+02  0.19999986337E+02 0.  0.
        -12    1    1    2    0    0  0.16076216895E+02 -0.49564009446E+01  0.40007660192E+02  0.43400731952E+02  0.00000000000E+00 0.  1.
         11    1    3    3    0    0 -0.17862011063E+02 -0.72836648883E+00 -0.27242471835E+02  0.32584263516E+02  0.51100000000E-03 0. -1.
        -11    1    3    3    0    0  0.23062674216E+01  0.48919589793E+01 -0.13119542994E+02  0.14190579294E+02  0.51100000000E-03 0.  1.
         12    1    3    3    0    0 -0.52047325394E+00  0.79280845411E+00  0.35435463694E+00  0.10124252376E+01  0.00000000000E+00 0. -1.
</event>
<event>
 7    1  0.2458979E-009  0.4778728E+02  0.7816164E-02  0.1312668E+00
        -11   -1    0    0    0    0  0.00000000000E+00  0.00000000000E+00  0.45593999997E+02  0.45594000000E+02  0.51100000000E-03 0. -1.
         11   -1    0    0    0    0 -0.00000000000E+00 -0.00000000000E+00 -0.45593999997E+02  0.45594000000E+02  0.51100000000E-03 0.  1.
    9900012    2    1    2    0    0  0.37368697359E+02 -0.20679679226E+01  0.21975593504E+02  0.47787277155E+02  0.20000027859E+02 0.  0.
        -12    1    1    2    0    0 -0.37368697359E+02  0.20679679226E+01 -0.21975593504E+02  0.43400722845E+02  0.00000000000E+00 0.  1.
         11    1    3    3    0    0  0.20012105654E+02  0.22719914514E+01  0.49403044645E+01  0.20737717481E+02  0.51100000000E-03 0. -1.
        -11    1    3    3    0    0  0.21007297305E+01 -0.51679287689E+01  0.31623248547E+01  0.64125542422E+01  0.51100000000E-03 0.  1.
         12    1    3    3    0    0  0.15255861975E+02  0.82796939490E+00  0.13872964185E+02  0.20637005432E+02  0.00000000000E+00 0. -1.
</event>
<event>
 7    1  0.2458979E-009  0.4778726E+02  0.7816164E-02  0.1312668E+00
        -11   -1    0    0    0    0  0.00000000000E+00  0.00000000000E+00  0.45593999997E+02  0.45594000000E+02  0.51100000000E-03 0.  1.
         11   -1    0    0    0    0 -0.00000000000E+00 -0.00000000000E+00 -0.45593999997E+02  0.45594000000E+02  0.51100000000E-03 0. -1.
    9900012    2    1    2    0    0  0.45874806501E+01  0.32075100302E+02 -0.28875025102E+02  0.47787261381E+02  0.19999955939E+02 0.  0.
        -12    1    1    2    0    0 -0.45874806501E+01 -0.32075100302E+02  0.28875025102E+02  0.43400738619E+02  0.00000000000E+00 0.  1.
         11    1    3    3    0    0  0.68925702344E+00  0.17055305923E+02 -0.84864107088E+01  0.19062468422E+02  0.51100000000E-03 0. -1.
        -11    1    3    3    0    0 -0.29751034036E+01  0.81945456613E-01 -0.66932970106E+01  0.73251744316E+01  0.51100000000E-03 0.  1.
        -12    1    3    3    0    0  0.68733270303E+01  0.14937848922E+02 -0.13695317382E+02  0.21399618527E+02  0.00000000000E+00 0.  1.
</event>
<event>
 7    1  0.2458979E-009  0.4778727E+02  0.7816164E-02  0.1312668E+00
        -11   -1    0    0    0    0  0.00000000000E+00  0.00000000000E+00  0.45593999997E+02  0.45594000000E+02  0.51100000000E-03 0.  1.
         11   -1    0    0    0    0 -0.00000000000E+00 -0.00000000000E+00 -0.45593999997E+02  0.45594000000E+02  0.51100000000E-03 0. -1.
    9900012    2    1    2    0    0 -0.28731054678E+02  0.22272417721E+02 -0.23708427904E+02  0.47787266738E+02  0.19999980363E+02 0.  0.
        -12    1    1    2    0    0  0.28731054678E+02 -0.22272417721E+02  0.23708427904E+02  0.43400733262E+02  0.00000000000E+00 0.  1.
         11    1    3    3    0    0 -0.25820984540E+01  0.21178569649E+01 -0.80523242384E+01  0.87173663713E+01  0.51100000000E-03 0. -1.
        -11    1    3    3    0    0 -0.20877275685E+02  0.21848921552E+02 -0.13878349813E+02  0.33254241936E+02  0.51100000000E-03 0.  1.
        -12    1    3    3    0    0 -0.52716805392E+01 -0.16943607953E+01 -0.17777538525E+01  0.58156584298E+01  0.00000000000E+00 0.  1.
</event>
<event>
 7    1  0.2458979E-009  0.4778727E+02  0.7816164E-02  0.1312668E+00
        -11   -1    0    0    0    0  0.00000000000E+00  0.00000000000E+00  0.45593999997E+02  0.45594000000E+02  0.51100000000E-03 0. -1.
         11   -1    0    0    0    0 -0.00000000000E+00 -0.00000000000E+00 -0.45593999997E+02  0.45594000000E+02  0.51100000000E-03 0.  1.
    9900012    2    1    2    0    0  0.24261061422E+02 -0.18346277529E+02 -0.30958658235E+02  0.47787268207E+02  0.19999987064E+02 0.  0.
        -12    1    1    2    0    0 -0.24261061422E+02  0.18346277529E+02  0.30958658235E+02  0.43400731793E+02  0.00000000000E+00 0.  1.
         11    1    3    3    0    0  0.74271154704E+01 -0.60810672179E+01 -0.99649833254E+01  0.13836268126E+02  0.51100000000E-03 0. -1.
        -11    1    3    3    0    0  0.79333331315E+01 -0.11477647071E+02 -0.36204781131E+01  0.14414645986E+02  0.51100000000E-03 0.  1.
        -12    1    3    3    0    0  0.89006128200E+01 -0.78756323958E+00 -0.17373196796E+02  0.19536354095E+02  0.00000000000E+00 0.  1.
</event>
<event>
 7    1  0.2458979E-009  0.4778727E+02  0.7816164E-02  0.1312668E+00
        -11   -1    0    0    0    0  0.00000000000E+00  0.00000000000E+00  0.45593999997E+02  0.45594000000E+02  0.51100000000E-03 0.  1.
         11   -1    0    0    0    0 -0.00000000000E+00 -0.00000000000E+00 -0.45593999997E+02  0.45594000000E+02  0.51100000000E-03 0. -1.
    9900012    2    1    2    0    0 -0.16140026310E+02 -0.39439821415E+02 -0.82233410054E+01  0.47787270746E+02  0.19999998638E+02 0.  0.
        -12    1    1    2    0    0  0.16140026310E+02  0.39439821415E+02  0.82233410054E+01  0.43400729254E+02  0.00000000000E+00 0.  1.
         11    1    3    3    0    0  0.24309062784E+01 -0.44666607951E+01 -0.52013739806E+01  0.72742460461E+01  0.51100000000E-03 0.  1.
        -11    1    3    3    0    0 -0.12445670138E+02 -0.25945308915E+02 -0.55692906450E+01  0.29309908877E+02  0.51100000000E-03 0. -1.
         12    1    3    3    0    0 -0.61252624507E+01 -0.90278517050E+01  0.25473236201E+01  0.11203115822E+02  0.00000000000E+00 0. -1.
</event>
<event>
 7    1  0.2458979E-009  0.4778730E+02  0.7816164E-02  0.1312668E+00
        -11   -1    0    0    0    0  0.00000000000E+00  0.00000000000E+00  0.45593999997E+02  0.45594000000E+02  0.51100000000E-03 0.  1.
         11   -1    0    0    0    0 -0.00000000000E+00 -0.00000000000E+00 -0.45593999997E+02  0.45594000000E+02  0.51100000000E-03 0. -1.
    9900012    2    1    2    0    0 -0.42979852928E+02 -0.56002927645E+01 -0.22337554868E+01  0.47787300693E+02  0.20000135180E+02 0.  0.
        -12    1    1    2    0    0  0.42979852928E+02  0.56002927645E+01  0.22337554868E+01  0.43400699307E+02  0.00000000000E+00 0.  1.
         11    1    3    3    0    0 -0.34559157012E+02 -0.37727168755E+01  0.29751906423E+01  0.34891553213E+02  0.51100000000E-03 0.  1.
        -11    1    3    3    0    0 -0.62608832761E+01 -0.37151064446E+01 -0.64912268228E+01  0.97538044484E+01  0.51100000000E-03 0. -1.
        -12    1    3    3    0    0 -0.21598126396E+01  0.18875305556E+01  0.12822806936E+01  0.31419430316E+01  0.00000000000E+00 0.  1.
</event>
<event>
 7    1  0.2458979E-009  0.4778727E+02  0.7816164E-02  0.1312668E+00
        -11   -1    0    0    0    0  0.00000000000E+00  0.00000000000E+00  0.45593999997E+02  0.45594000000E+02  0.51100000000E-03 0.  1.
         11   -1    0    0    0    0 -0.00000000000E+00 -0.00000000000E+00 -0.45593999997E+02  0.45594000000E+02  0.51100000000E-03 0. -1.
    9900012    2    1    2    0    0  0.29183771314E+02  0.29563626228E+02 -0.12566730168E+02  0.47787271769E+02  0.20000003306E+02 0.  0.
        -12    1    1    2    0    0 -0.29183771314E+02 -0.29563626228E+02  0.12566730168E+02  0.43400728231E+02  0.00000000000E+00 0.  1.
         11    1    3    3    0    0  0.22732935258E+02  0.12209408192E+02 -0.13475456082E+02  0.29110889899E+02  0.51100000000E-03 0. -1.
        -11    1    3    3    0    0  0.12485974044E+01  0.60786877225E+01  0.80989555304E+00  0.62582242669E+01  0.51100000000E-03 0.  1.
         12    1    3    3    0    0  0.52022386516E+01  0.11275530313E+02  0.98830360867E-01  0.12418157604E+02  0.00000000000E+00 0. -1.
</event>
<event>
 7    1  0.2458979E-009  0.4778727E+02  0.7816164E-02  0.1312668E+00
        -11   -1    0    0    0    0  0.00000000000E+00  0.00000000000E+00  0.45593999997E+02  0.45594000000E+02  0.51100000000E-03 0.  1.
         11   -1    0    0    0    0 -0.00000000000E+00 -0.00000000000E+00 -0.45593999997E+02  0.45594000000E+02  0.51100000000E-03 0. -1.
    9900012    2    1    2    0    0 -0.22801376224E+02  0.35380747514E+02 -0.10579375623E+02  0.47787271424E+02  0.20000001732E+02 0.  0.
        -12    1    1    2    0    0  0.22801376224E+02 -0.35380747514E+02  0.10579375623E+02  0.43400728576E+02  0.00000000000E+00 0.  1.
         11    1    3    3    0    0 -0.57851989451E+01  0.66546662380E+01  0.39644978910E+01  0.96680066902E+01  0.51100000000E-03 0. -1.
        -11    1    3    3    0    0 -0.33854178523E+01  0.44765897999E+01  0.17520214297E+01  0.58796674755E+01  0.51100000000E-03 0.  1.
         12    1    3    3    0    0 -0.13630759426E+02  0.24249491476E+02 -0.16295894944E+02  0.32239597259E+02  0.00000000000E+00 0. -1.
</event>
<event>
 7    1  0.2458979E-009  0.4778727E+02  0.7816164E-02  0.1312668E+00
        -11   -1    0    0    0    0  0.00000000000E+00  0.00000000000E+00  0.45593999997E+02  0.45594000000E+02  0.51100000000E-03 0.  1.
         11   -1    0    0    0    0 -0.00000000000E+00 -0.00000000000E+00 -0.45593999997E+02  0.45594000000E+02  0.51100000000E-03 0. -1.
    9900012    2    1    2    0    0 -0.35010601179E+02  0.15053289403E+02 -0.20767282613E+02  0.47787265630E+02  0.19999975312E+02 0.  0.
        -12    1    1    2    0    0  0.35010601179E+02 -0.15053289403E+02  0.20767282613E+02  0.43400734370E+02  0.00000000000E+00 0.  1.
         11    1    3    3    0    0 -0.38124533317E+01 -0.39390901553E+01 -0.60987476950E+01  0.82003631241E+01  0.51100000000E-03 0. -1.
        -11    1    3    3    0    0 -0.12796781314E+02  0.76348728632E+01 -0.37661892235E+01  0.15369875639E+02  0.51100000000E-03 0.  1.
         12    1    3    3    0    0 -0.18401366533E+02  0.11357506695E+02 -0.10902345695E+02  0.24217026866E+02  0.00000000000E+00 0. -1.
</event>
<event>
 7    1  0.2458979E-009  0.4778727E+02  0.7816164E-02  0.1312668E+00
        -11   -1    0    0    0    0  0.00000000000E+00  0.00000000000E+00  0.45593999997E+02  0.45594000000E+02  0.51100000000E-03 0. -1.
         11   -1    0    0    0    0 -0.00000000000E+00 -0.00000000000E+00 -0.45593999997E+02  0.45594000000E+02  0.51100000000E-03 0.  1.
    9900012    2    1    2    0    0  0.28086709567E+02  0.59012761454E+01  0.32556639582E+02  0.47787273101E+02  0.20000009378E+02 0.  0.
        -12    1    1    2    0    0 -0.28086709567E+02 -0.59012761454E+01 -0.32556639582E+02  0.43400726899E+02  0.00000000000E+00 0.  1.
         11    1    3    3    0    0  0.56543126439E+01 -0.63858303451E+01  0.85321497474E+01  0.12064313501E+02  0.51100000000E-03 0. -1.
        -11    1    3    3    0    0  0.98762192437E+01  0.78692501875E+01  0.82548267296E+01  0.15086648722E+02  0.51100000000E-03 0.  1.
         12    1    3    3    0    0  0.12556177680E+02  0.44178563030E+01  0.15769663105E+02  0.20636310879E+02  0.00000000000E+00 0. -1.
</event>
<event>
 7    1  0.2458979E-009  0.4778727E+02  0.7816164E-02  0.1312668E+00
        -11   -1    0    0    0    0  0.00000000000E+00  0.00000000000E+00  0.45593999997E+02  0.45594000000E+02  0.51100000000E-03 0. -1.
         11   -1    0    0    0    0 -0.00000000000E+00 -0.00000000000E+00 -0.45593999997E+02  0.45594000000E+02  0.51100000000E-03 0.  1.
    9900012    2    1    2    0    0  0.38645497550E+02 -0.72744786498E+01  0.18363848477E+02  0.47787269000E+02  0.19999990677E+02 0.  0.
        -12    1    1    2    0    0 -0.38645497550E+02  0.72744786498E+01 -0.18363848477E+02  0.43400731000E+02  0.00000000000E+00 0.  1.
         11    1    3    3    0    0  0.24328200603E+02  0.17513086418E+01  0.50599889268E+01  0.24910478011E+02  0.51100000000E-03 0.  1.
        -11    1    3    3    0    0  0.37516672813E+01 -0.64250352514E+01  0.74160173664E+01  0.10504922618E+02  0.51100000000E-03 0. -1.
        -12    1    3    3    0    0  0.10565629666E+02 -0.26007520402E+01  0.58878421836E+01  0.12371868371E+02  0.00000000000E+00 0.  1.
</event>
<event>
 7    1  0.2458979E-009  0.4778727E+02  0.7816164E-02  0.1312668E+00
        -11   -1    0    0    0    0  0.00000000000E+00  0.00000000000E+00  0.45593999997E+02  0.45594000000E+02  0.51100000000E-03 0.  1.
         11   -1    0    0    0    0 -0.00000000000E+00 -0.00000000000E+00 -0.45593999997E+02  0.45594000000E+02  0.51100000000E-03 0. -1.
    9900012    2    1    2    0    0 -0.45513043402E+01 -0.36288338669E+02 -0.23368041945E+02  0.47787270987E+02  0.19999999736E+02 0.  0.
        -12    1    1    2    0    0  0.45513043402E+01  0.36288338669E+02  0.23368041945E+02  0.43400729013E+02  0.00000000000E+00 0.  1.
         11    1    3    3    0    0 -0.68282934827E+01 -0.28376199163E+02 -0.14060716576E+02  0.32396574228E+02  0.51100000000E-03 0. -1.
        -11    1    3    3    0    0  0.16833988046E+01  0.17379427470E+01 -0.29685967402E+01  0.38297315042E+01  0.51100000000E-03 0.  1.
         12    1    3    3    0    0  0.59359033793E+00 -0.96500822530E+01 -0.63387286293E+01  0.11560965254E+02  0.00000000000E+00 0. -1.
</event>
<event>
 7    1  0.2458979E-009  0.4778729E+02  0.7816164E-02  0.1312668E+00
        -11   -1    0    0    0    0  0.00000000000E+00  0.00000000000E+00  0.45593999997E+02  0.45594000000E+02  0.51100000000E-03 0. -1.
         11   -1    0    0    0    0 -0.00000000000E+00 -0.00000000000E+00 -0.45593999997E+02  0.45594000000E+02  0.51100000000E-03 0.  1.
    9900012    2    1    2    0    0 -0.16567242998E+02 -0.10182732371E+02  0.38800253631E+02  0.47787294234E+02  0.20000105732E+02 0.  0.
        -12    1    1    2    0    0  0.16567242998E+02  0.10182732371E+02 -0.38800253631E+02  0.43400705766E+02  0.00000000000E+00 0.  1.
         11    1    3    3    0    0 -0.82436887218E+01  0.47171592168E+01  0.14269517110E+02  0.17141444328E+02  0.51100000000E-03 0. -1.
        -11    1    3    3    0    0 -0.20171735519E+01 -0.95062160511E+01  0.16173803406E+02  0.18868732062E+02  0.51100000000E-03 0.  1.
         12    1    3    3    0    0 -0.63063807243E+01 -0.53936755366E+01  0.83569331154E+01  0.11777117845E+02  0.00000000000E+00 0. -1.
</event>
<event>
 7    1  0.2458979E-009  0.4778727E+02  0.7816164E-02  0.1312668E+00
        -11   -1    0    0    0    0  0.00000000000E+00  0.00000000000E+00  0.45593999997E+02  0.45594000000E+02  0.51100000000E-03 0. -1.
         11   -1    0    0    0    0 -0.00000000000E+00 -0.00000000000E+00 -0.45593999997E+02  0.45594000000E+02  0.51100000000E-03 0.  1.
    9900012    2    1    2    0    0 -0.44201187723E+01  0.16375174549E+02  0.39949211845E+02  0.47787270530E+02  0.19999997656E+02 0.  0.
        -12    1    1    2    0    0  0.44201187723E+01 -0.16375174549E+02 -0.39949211845E+02  0.43400729470E+02  0.00000000000E+00 0.  1.
         11    1    3    3    0    0 -0.59337628472E+00  0.10257490983E+02  0.25966293804E+02  0.27925197061E+02  0.51100000000E-03 0. -1.
        -11    1    3    3    0    0 -0.29633253444E+01  0.59630183517E+01  0.86480685967E+00  0.67146687278E+01  0.51100000000E-03 0.  1.
        -12    1    3    3    0    0 -0.86341714315E+00  0.15466521415E+00  0.13118111181E+02  0.13147404742E+02  0.00000000000E+00 0.  1.
</event>
<event>
 7    1  0.2458979E-009  0.4778727E+02  0.7816164E-02  0.1312668E+00
        -11   -1    0    0    0    0  0.00000000000E+00  0.00000000000E+00  0.45593999997E+02  0.45594000000E+02  0.51100000000E-03 0.  1.
         11   -1    0    0    0    0 -0.00000000000E+00 -0.00000000000E+00 -0.45593999997E+02  0.45594000000E+02  0.51100000000E-03 0. -1.
    9900012    2    1    2    0    0 -0.35737527943E+02 -0.23283735546E+02  0.80199729609E+01  0.47787271772E+02  0.20000003317E+02 0.  0.
        -12    1    1    2    0    0  0.35737527943E+02  0.23283735546E+02 -0.80199729609E+01  0.43400728228E+02  0.00000000000E+00 0.  1.
         11    1    3    3    0    0 -0.20674506374E+02 -0.47663764798E+01  0.79292245484E+01  0.22650080811E+02  0.51100000000E-03 0. -1.
        -11    1    3    3    0    0 -0.11054713104E+01  0.72134048407E+00 -0.34637691798E+00  0.13646890278E+01  0.51100000000E-03 0.  1.
         12    1    3    3    0    0 -0.13957550259E+02 -0.19238699550E+02  0.43712533041E+00  0.23772501933E+02  0.00000000000E+00 0. -1.
</event>
<event>
 7    1  0.2458979E-009  0.4778727E+02  0.7816164E-02  0.1312668E+00
        -11   -1    0    0    0    0  0.00000000000E+00  0.00000000000E+00  0.45593999997E+02  0.45594000000E+02  0.51100000000E-03 0.  1.
         11   -1    0    0    0    0 -0.00000000000E+00 -0.00000000000E+00 -0.45593999997E+02  0.45594000000E+02  0.51100000000E-03 0. -1.
    9900012    2    1    2    0    0  0.39116243779E+02  0.28789184102E+01 -0.18581023158E+02  0.47787272815E+02  0.20000008072E+02 0.  0.
        -12    1    1    2    0    0 -0.39116243779E+02 -0.28789184102E+01  0.18581023158E+02  0.43400727185E+02  0.00000000000E+00 0.  1.
         11    1    3    3    0    0  0.19865517540E+02 -0.29438460370E+01 -0.14010550723E+02  0.24486742300E+02  0.51100000000E-03 0. -1.
        -11    1    3    3    0    0  0.13941439901E+02  0.50174866385E+01  0.18482993036E+01  0.14931682064E+02  0.51100000000E-03 0.  1.
        -12    1    3    3    0    0  0.53092863381E+01  0.80527780861E+00 -0.64187717382E+01  0.83688484510E+01  0.00000000000E+00 0.  1.
</event>
<event>
 7    1  0.2458979E-009  0.4778727E+02  0.7816164E-02  0.1312668E+00
        -11   -1    0    0    0    0  0.00000000000E+00  0.00000000000E+00  0.45593999997E+02  0.45594000000E+02  0.51100000000E-03 0.  1.
         11   -1    0    0    0    0 -0.00000000000E+00 -0.00000000000E+00 -0.45593999997E+02  0.45594000000E+02  0.51100000000E-03 0. -1.
    9900012    2    1    2    0    0 -0.17576751253E+02 -0.33126615706E+02 -0.21847385895E+02  0.47787272781E+02  0.20000007917E+02 0.  0.
        -12    1    1    2    0    0  0.17576751253E+02  0.33126615706E+02  0.21847385895E+02  0.43400727219E+02  0.00000000000E+00 0.  1.
         11    1    3    3    0    0 -0.33330618640E+01 -0.38127088871E+01  0.19408696020E+01  0.54233776855E+01  0.51100000000E-03 0. -1.
        -11    1    3    3    0    0 -0.24504643725E+01 -0.11684288724E+01  0.11552556893E+01  0.29503589001E+01  0.51100000000E-03 0.  1.
         12    1    3    3    0    0 -0.11793225016E+02 -0.28145477947E+02 -0.24943511186E+02  0.39413536195E+02  0.00000000000E+00 0. -1.
</event>
<event>
 7    1  0.2458979E-009  0.4778729E+02  0.7816164E-02  0.1312668E+00
        -11   -1    0    0    0    0  0.00000000000E+00  0.00000000000E+00  0.45593999997E+02  0.45594000000E+02  0.51100000000E-03 0.  1.
         11   -1    0    0    0    0 -0.00000000000E+00 -0.00000000000E+00 -0.45593999997E+02  0.45594000000E+02  0.51100000000E-03 0. -1.
    9900012    2    1    2    0    0  0.28982041059E+02 -0.18337293297E+02 -0.26597119414E+02  0.47787288133E+02  0.20000077915E+02 0.  0.
        -12    1    1    2    0    0 -0.28982041059E+02  0.18337293297E+02  0.26597119414E+02  0.43400711867E+02  0.00000000000E+00 0.  1.
         11    1    3    3    0    0  0.15085276151E+02 -0.66860651778E+01 -0.17901096921E+02  0.24345806525E+02  0.51100000000E-03 0. -1.
        -11    1    3    3    0    0  0.59917198155E+01 -0.76030808202E+01  0.16353624837E+01  0.98174311823E+01  0.51100000000E-03 0.  1.
        -12    1    3    3    0    0  0.79050450923E+01 -0.40481472987E+01 -0.10331384977E+02  0.13624050426E+02  0.00000000000E+00 0.  1.
</event>
<event>
 7    1  0.2458979E-009  0.4778727E+02  0.7816164E-02  0.1312668E+00
        -11   -1    0    0    0    0  0.00000000000E+00  0.00000000000E+00  0.45593999997E+02  0.45594000000E+02  0.51100000000E-03 0.  1.
         11   -1    0    0    0    0 -0.00000000000E+00 -0.00000000000E+00 -0.45593999997E+02  0.45594000000E+02  0.51100000000E-03 0. -1.
    9900012    2    1    2    0    0 -0.66192464997E+01 -0.38438203924E+02 -0.19034543542E+02  0.47787265064E+02  0.19999972732E+02 0.  0.
        -12    1    1    2    0    0  0.66192464997E+01  0.38438203924E+02  0.19034543542E+02  0.43400734936E+02  0.00000000000E+00 0.  1.
         11    1    3    3    0    0 -0.20278269846E+01 -0.15040857830E+02  0.11022779058E+01  0.15216915041E+02  0.51100000000E-03 0. -1.
        -11    1    3    3    0    0  0.20862303850E+01 -0.91528493023E+01 -0.10660504419E+02  0.14204695080E+02  0.51100000000E-03 0.  1.
         12    1    3    3    0    0 -0.66776499001E+01 -0.14244496792E+02 -0.94763170282E+01  0.18365654943E+02  0.00000000000E+00 0. -1.
</event>
<event>
 7    1  0.2458979E-009  0.4778727E+02  0.7816164E-02  0.1312668E+00
        -11   -1    0    0    0    0  0.00000000000E+00  0.00000000000E+00  0.45593999997E+02  0.45594000000E+02  0.51100000000E-03 0.  1.
         11   -1    0    0    0    0 -0.00000000000E+00 -0.00000000000E+00 -0.45593999997E+02  0.45594000000E+02  0.51100000000E-03 0. -1.
    9900012    2    1    2    0    0 -0.80163965096E+01  0.42396338359E+02 -0.46809273415E+01  0.47787271895E+02  0.20000003877E+02 0.  0.
        -12    1    1    2    0    0  0.80163965096E+01 -0.42396338359E+02  0.46809273415E+01  0.43400728105E+02  0.00000000000E+00 0.  1.
         11    1    3    3    0    0 -0.40875332552E+01  0.38873131493E+02 -0.82122783474E+01  0.39940828686E+02  0.51100000000E-03 0. -1.
        -11    1    3    3    0    0 -0.48700489013E+01  0.31909658854E+01  0.22970427262E+01  0.62590770190E+01  0.51100000000E-03 0.  1.
        -12    1    3    3    0    0  0.94118564688E+00  0.33224098061E+00  0.12343082798E+01  0.15873661898E+01  0.00000000000E+00 0.  1.
</event>
<event>
 7    1  0.2458979E-009  0.4778727E+02  0.7816164E-02  0.1312668E+00
        -11   -1    0    0    0    0  0.00000000000E+00  0.00000000000E+00  0.45593999997E+02  0.45594000000E+02  0.51100000000E-03 0.  1.
         11   -1    0    0    0    0 -0.00000000000E+00 -0.00000000000E+00 -0.45593999997E+02  0.45594000000E+02  0.51100000000E-03 0. -1.
    9900012    2    1    2    0    0 -0.12979015162E+02  0.24640847304E+02 -0.33286590576E+02  0.47787270713E+02  0.19999998491E+02 0.  0.
        -12    1    1    2    0    0  0.12979015162E+02 -0.24640847304E+02  0.33286590576E+02  0.43400729287E+02  0.00000000000E+00 0.  1.
         11    1    3    3    0    0 -0.47323195333E+01  0.12203864631E+02 -0.19160525898E+02  0.23204631284E+02  0.51100000000E-03 0. -1.
        -11    1    3    3    0    0 -0.35451379267E+01  0.37412433511E+01  0.21137763521E+01  0.55707230643E+01  0.51100000000E-03 0.  1.
        -12    1    3    3    0    0 -0.47015577024E+01  0.86957393224E+01 -0.16239841030E+02  0.19011916365E+02  0.00000000000E+00 0.  1.
</event>
<event>
 7    1  0.2458979E-009  0.4778728E+02  0.7816164E-02  0.1312668E+00
        -11   -1    0    0    0    0  0.00000000000E+00  0.00000000000E+00  0.45593999997E+02  0.45594000000E+02  0.51100000000E-03 0.  1.
         11   -1    0    0    0    0 -0.00000000000E+00 -0.00000000000E+00 -0.45593999997E+02  0.45594000000E+02  0.51100000000E-03 0. -1.
    9900012    2    1    2    0    0  0.20430752202E+02 -0.35676642061E+02  0.13906270598E+02  0.47787276662E+02  0.20000025614E+02 0.  0.
        -12    1    1    2    0    0 -0.20430752202E+02  0.35676642061E+02 -0.13906270598E+02  0.43400723338E+02  0.00000000000E+00 0.  1.
         11    1    3    3    0    0 -0.80295838116E+00 -0.11326591809E+01 -0.22238986942E+01  0.26217140662E+01  0.51100000000E-03 0. -1.
        -11    1    3    3    0    0  0.15706582913E+02 -0.16697635311E+02  0.12579024073E+02  0.26148415223E+02  0.51100000000E-03 0.  1.
        -12    1    3    3    0    0  0.55271276698E+01 -0.17846347569E+02  0.35511452193E+01  0.19017147373E+02  0.00000000000E+00 0.  1.
</event>
<event>
 7    1  0.2458979E-009  0.4778727E+02  0.7816164E-02  0.1312668E+00
        -11   -1    0    0    0    0  0.00000000000E+00  0.00000000000E+00  0.45593999997E+02  0.45594000000E+02  0.51100000000E-03 0.  1.
         11   -1    0    0    0    0 -0.00000000000E+00 -0.00000000000E+00 -0.45593999997E+02  0.45594000000E+02  0.51100000000E-03 0. -1.
    9900012    2    1    2    0    0  0.23811563828E+02 -0.35069359612E+02 -0.93151815683E+01  0.47787272320E+02  0.20000005814E+02 0.  0.
        -12    1    1    2    0    0 -0.23811563828E+02  0.35069359612E+02  0.93151815683E+01  0.43400727680E+02  0.00000000000E+00 0.  1.
         11    1    3    3    0    0  0.15184000202E+01 -0.16274140020E+02 -0.38918470836E+01  0.16801775084E+02  0.51100000000E-03 0. -1.
        -11    1    3    3    0    0  0.10476963790E+01 -0.24189236748E+01  0.18163181552E+01  0.32012296620E+01  0.51100000000E-03 0.  1.
         12    1    3    3    0    0  0.21245467428E+02 -0.16376295918E+02 -0.72396526398E+01  0.27784267573E+02  0.00000000000E+00 0. -1.
</event>
<event>
 7    1  0.2458979E-009  0.4778727E+02  0.7816164E-02  0.1312668E+00
        -11   -1    0    0    0    0  0.00000000000E+00  0.00000000000E+00  0.45593999997E+02  0.45594000000E+02  0.51100000000E-03 0. -1.
         11   -1    0    0    0    0 -0.00000000000E+00 -0.00000000000E+00 -0.45593999997E+02  0.45594000000E+02  0.51100000000E-03 0.  1.
    9900012    2    1    2    0    0 -0.16825049078E+01  0.18955577166E+02  0.39006134531E+02  0.47787271210E+02  0.20000000754E+02 0.  0.
        -12    1    1    2    0    0  0.16825049078E+01 -0.18955577166E+02 -0.39006134531E+02  0.43400728790E+02  0.00000000000E+00 0.  1.
         11    1    3    3    0    0  0.20295107808E+01  0.16956039318E+02  0.30748138741E+02  0.35172065900E+02  0.51100000000E-03 0. -1.
        -11    1    3    3    0    0  0.15503253729E+00  0.23133525470E+01 -0.10393348369E+01  0.25408369209E+01  0.51100000000E-03 0.  1.
         12    1    3    3    0    0 -0.38670482259E+01 -0.31381469975E+00  0.92973306271E+01  0.10074368389E+02  0.00000000000E+00 0. -1.
</event>
<event>
 7    1  0.2458979E-009  0.4778724E+02  0.7816164E-02  0.1312668E+00
        -11   -1    0    0    0    0  0.00000000000E+00  0.00000000000E+00  0.45593999997E+02  0.45594000000E+02  0.51100000000E-03 0.  1.
         11   -1    0    0    0    0 -0.00000000000E+00 -0.00000000000E+00 -0.45593999997E+02  0.45594000000E+02  0.51100000000E-03 0. -1.
    9900012    2    1    2    0    0 -0.24301006121E+02 -0.17872077403E+02 -0.31203775649E+02  0.47787243510E+02  0.19999874459E+02 0.  0.
        -12    1    1    2    0    0  0.24301006121E+02  0.17872077403E+02  0.31203775649E+02  0.43400756490E+02  0.00000000000E+00 0.  1.
         11    1    3    3    0    0 -0.13389284490E+02 -0.11103141869E+02 -0.98623952076E+01  0.19995487942E+02  0.51100000000E-03 0. -1.
        -11    1    3    3    0    0 -0.71915363225E+01 -0.71525201591E+01 -0.21780281157E+02  0.24026181279E+02  0.51100000000E-03 0.  1.
        -12    1    3    3    0    0 -0.37201853080E+01  0.38358462572E+00  0.43890071584E+00  0.37655742895E+01  0.00000000000E+00 0.  1.
</event>
<event>
 7    1  0.2458979E-009  0.4778727E+02  0.7816164E-02  0.1312668E+00
        -11   -1    0    0    0    0  0.00000000000E+00  0.00000000000E+00  0.45593999997E+02  0.45594000000E+02  0.51100000000E-03 0.  1.
         11   -1    0    0    0    0 -0.00000000000E+00 -0.00000000000E+00 -0.45593999997E+02  0.45594000000E+02  0.51100000000E-03 0. -1.
    9900012    2    1    2    0    0 -0.12452353839E+01 -0.39992760436E+02 -0.16812247803E+02  0.47787272187E+02  0.20000005211E+02 0.  0.
        -12    1    1    2    0    0  0.12452353839E+01  0.39992760436E+02  0.16812247803E+02  0.43400727813E+02  0.00000000000E+00 0.  1.
         11    1    3    3    0    0  0.78837137813E+00 -0.17164065800E+01  0.34277024328E+01  0.39136588005E+01  0.51100000000E-03 0.  1.
        -11    1    3    3    0    0 -0.34250427746E+00 -0.32629280829E+02 -0.14719217599E+02  0.35797243519E+02  0.51100000000E-03 0. -1.
        -12    1    3    3    0    0 -0.16911024846E+01 -0.56470730275E+01 -0.55207326368E+01  0.80763698676E+01  0.00000000000E+00 0.  1.
</event>
<event>
 7    1  0.2458979E-009  0.4778727E+02  0.7816164E-02  0.1312668E+00
        -11   -1    0    0    0    0  0.00000000000E+00  0.00000000000E+00  0.45593999997E+02  0.45594000000E+02  0.51100000000E-03 0. -1.
         11   -1    0    0    0    0 -0.00000000000E+00 -0.00000000000E+00 -0.45593999997E+02  0.45594000000E+02  0.51100000000E-03 0.  1.
    9900012    2    1    2    0    0 -0.51225518612E+01 -0.43087672882E+02  0.91401806513E+00  0.47787268198E+02  0.19999987020E+02 0.  0.
        -12    1    1    2    0    0  0.51225518612E+01  0.43087672882E+02 -0.91401806513E+00  0.43400731802E+02  0.00000000000E+00 0.  1.
         11    1    3    3    0    0 -0.57646364573E+01 -0.87932828812E+01 -0.23171141422E+01  0.10766702166E+02  0.51100000000E-03 0. -1.
        -11    1    3    3    0    0  0.28186904396E+01 -0.22027795135E+02  0.81088157747E+01  0.23641524228E+02  0.51100000000E-03 0.  1.
        -12    1    3    3    0    0 -0.21766058434E+01 -0.12266594866E+02 -0.48776835674E+01  0.13379041804E+02  0.00000000000E+00 0.  1.
</event>
<event>
 7    1  0.2458979E-009  0.4778727E+02  0.7816164E-02  0.1312668E+00
        -11   -1    0    0    0    0  0.00000000000E+00  0.00000000000E+00  0.45593999997E+02  0.45594000000E+02  0.51100000000E-03 0.  1.
         11   -1    0    0    0    0 -0.00000000000E+00 -0.00000000000E+00 -0.45593999997E+02  0.45594000000E+02  0.51100000000E-03 0. -1.
    9900012    2    1    2    0    0 -0.31519176602E+01  0.37324232856E+02 -0.21922375855E+02  0.47787268366E+02  0.19999987788E+02 0.  0.
        -12    1    1    2    0    0  0.31519176602E+01 -0.37324232856E+02  0.21922375855E+02  0.43400731634E+02  0.00000000000E+00 0.  1.
         11    1    3    3    0    0  0.12327954949E+01 -0.15667355443E+01 -0.88956724564E+00  0.21830655381E+01  0.51100000000E-03 0. -1.
        -11    1    3    3    0    0 -0.71180907678E+01  0.23124484442E+02 -0.10068615803E+02  0.26206602629E+02  0.51100000000E-03 0.  1.
         12    1    3    3    0    0  0.27333776127E+01  0.15766483958E+02 -0.10964192806E+02  0.19397600199E+02  0.00000000000E+00 0. -1.
</event>
<event>
 7    1  0.2458979E-009  0.4778728E+02  0.7816164E-02  0.1312668E+00
        -11   -1    0    0    0    0  0.00000000000E+00  0.00000000000E+00  0.45593999997E+02  0.45594000000E+02  0.51100000000E-03 0. -1.
         11   -1    0    0    0    0 -0.00000000000E+00 -0.00000000000E+00 -0.45593999997E+02  0.45594000000E+02  0.51100000000E-03 0.  1.
    9900012    2    1    2    0    0 -0.11658240735E+02  0.26438034276E+02  0.32384227477E+02  0.47787280850E+02  0.20000044707E+02 0.  0.
        -12    1    1    2    0    0  0.11658240735E+02 -0.26438034276E+02 -0.32384227477E+02  0.43400719150E+02  0.00000000000E+00 0.  1.
         11    1    3    3    0    0  0.16518946548E+01  0.51890602812E+01  0.10608497581E+02  0.11924568074E+02  0.51100000000E-03 0. -1.
        -11    1    3    3    0    0 -0.84562145271E+01  0.56821406234E+01  0.22676031572E+01  0.10437255891E+02  0.51100000000E-03 0.  1.
        -12    1    3    3    0    0 -0.48539208628E+01  0.15566833372E+02  0.19508126739E+02  0.25425456885E+02  0.00000000000E+00 0.  1.
</event>
<event>
 7    1  0.2458979E-009  0.4778727E+02  0.7816164E-02  0.1312668E+00
        -11   -1    0    0    0    0  0.00000000000E+00  0.00000000000E+00  0.45593999997E+02  0.45594000000E+02  0.51100000000E-03 0. -1.
         11   -1    0    0    0    0 -0.00000000000E+00 -0.00000000000E+00 -0.45593999997E+02  0.45594000000E+02  0.51100000000E-03 0.  1.
    9900012    2    1    2    0    0 -0.33044725606E+02 -0.17603331203E+02  0.21949767024E+02  0.47787269220E+02  0.19999991683E+02 0.  0.
        -12    1    1    2    0    0  0.33044725606E+02  0.17603331203E+02 -0.21949767024E+02  0.43400730780E+02  0.00000000000E+00 0.  1.
         11    1    3    3    0    0 -0.26043024924E+02 -0.18237429984E+02  0.18040781521E+02  0.36555612398E+02  0.51100000000E-03 0. -1.
        -11    1    3    3    0    0  0.16530881748E+01 -0.43820342209E+00  0.12365972092E+01  0.21104254717E+01  0.51100000000E-03 0.  1.
         12    1    3    3    0    0 -0.86547888561E+01  0.10723022030E+01  0.26723882942E+01  0.91212313507E+01  0.00000000000E+00 0. -1.
</event>
<event>
 7    1  0.2458979E-009  0.4778727E+02  0.7816164E-02  0.1312668E+00
        -11   -1    0    0    0    0  0.00000000000E+00  0.00000000000E+00  0.45593999997E+02  0.45594000000E+02  0.51100000000E-03 0.  1.
         11   -1    0    0    0    0 -0.00000000000E+00 -0.00000000000E+00 -0.45593999997E+02  0.45594000000E+02  0.51100000000E-03 0. -1.
    9900012    2    1    2    0    0  0.83487214389E+01 -0.15300186800E+01 -0.42562670114E+02  0.47787274268E+02  0.20000014699E+02 0.  0.
        -12    1    1    2    0    0 -0.83487214389E+01  0.15300186800E+01  0.42562670114E+02  0.43400725732E+02  0.00000000000E+00 0.  1.
         11    1    3    3    0    0  0.11097990308E+02 -0.45993689933E+01 -0.27306943985E+02  0.29832679632E+02  0.51100000000E-03 0. -1.
        -11    1    3    3    0    0 -0.23100144231E+01  0.50079889899E+01 -0.14960924844E+02  0.15945074249E+02  0.51100000000E-03 0.  1.
        -12    1    3    3    0    0 -0.43925444582E+00 -0.19386386765E+01 -0.29480128480E+00  0.20095203865E+01  0.00000000000E+00 0.  1.
</event>
<event>
 7    1  0.2458979E-009  0.4778727E+02  0.7816164E-02  0.1312668E+00
        -11   -1    0    0    0    0  0.00000000000E+00  0.00000000000E+00  0.45593999997E+02  0.45594000000E+02  0.51100000000E-03 0.  1.
         11   -1    0    0    0    0 -0.00000000000E+00 -0.00000000000E+00 -0.45593999997E+02  0.45594000000E+02  0.51100000000E-03 0. -1.
    9900012    2    1    2    0    0  0.22670260227E+02  0.70562264049E+01 -0.36330326550E+02  0.47787266630E+02  0.19999979873E+02 0.  0.
        -12    1    1    2    0    0 -0.22670260227E+02 -0.70562264049E+01  0.36330326550E+02  0.43400733370E+02  0.00000000000E+00 0.  1.
         11    1    3    3    0    0  0.11354788025E+02  0.10880955531E+02 -0.12473197569E+02  0.20072544986E+02  0.51100000000E-03 0. -1.
        -11    1    3    3    0    0  0.37464985514E+01 -0.33494542712E+01 -0.16100854920E+02  0.16866909163E+02  0.51100000000E-03 0.  1.
        -12    1    3    3    0    0  0.75689736513E+01 -0.47527485455E+00 -0.77562740606E+01  0.10847812481E+02  0.00000000000E+00 0.  1.
</event>
<event>
 7    1  0.2458979E-009  0.4778727E+02  0.7816164E-02  0.1312668E+00
        -11   -1    0    0    0    0  0.00000000000E+00  0.00000000000E+00  0.45593999997E+02  0.45594000000E+02  0.51100000000E-03 0. -1.
         11   -1    0    0    0    0 -0.00000000000E+00 -0.00000000000E+00 -0.45593999997E+02  0.45594000000E+02  0.51100000000E-03 0.  1.
    9900012    2    1    2    0    0  0.32710723077E+02  0.25229789263E+02  0.13307490427E+02  0.47787274523E+02  0.20000015860E+02 0.  0.
        -12    1    1    2    0    0 -0.32710723077E+02 -0.25229789263E+02 -0.13307490427E+02  0.43400725477E+02  0.00000000000E+00 0.  1.
         11    1    3    3    0    0  0.16020305213E+02  0.21769745250E+02  0.12139622374E+02  0.29630093132E+02  0.51100000000E-03 0. -1.
        -11    1    3    3    0    0  0.54486656447E+01  0.15638509092E+01 -0.24797662296E+01  0.61873118386E+01  0.51100000000E-03 0.  1.
         12    1    3    3    0    0  0.11241752219E+02  0.18961931044E+01  0.36476342819E+01  0.11969869552E+02  0.00000000000E+00 0. -1.
</event>
<event>
 7    1  0.2458979E-009  0.4778727E+02  0.7816164E-02  0.1312668E+00
        -11   -1    0    0    0    0  0.00000000000E+00  0.00000000000E+00  0.45593999997E+02  0.45594000000E+02  0.51100000000E-03 0. -1.
         11   -1    0    0    0    0 -0.00000000000E+00 -0.00000000000E+00 -0.45593999997E+02  0.45594000000E+02  0.51100000000E-03 0.  1.
    9900012    2    1    2    0    0  0.26929880394E+01  0.41729004425E+02  0.11621589861E+02  0.47787270216E+02  0.19999996223E+02 0.  0.
        -12    1    1    2    0    0 -0.26929880394E+01 -0.41729004425E+02 -0.11621589861E+02  0.43400729784E+02  0.00000000000E+00 0.  1.
         11    1    3    3    0    0  0.33018814559E+01 -0.26101614593E+00 -0.16305190696E+00  0.33161931130E+01  0.51100000000E-03 0. -1.
        -11    1    3    3    0    0 -0.19682301859E+01  0.15866252032E+02  0.53839806579E+00  0.15996929591E+02  0.51100000000E-03 0.  1.
         12    1    3    3    0    0  0.13593367694E+01  0.26123768539E+02  0.11246243703E+02  0.28474147512E+02  0.00000000000E+00 0. -1.
</event>
<event>
 7    1  0.2458979E-009  0.4778728E+02  0.7816164E-02  0.1312668E+00
        -11   -1    0    0    0    0  0.00000000000E+00  0.00000000000E+00  0.45593999997E+02  0.45594000000E+02  0.51100000000E-03 0. -1.
         11   -1    0    0    0    0 -0.00000000000E+00 -0.00000000000E+00 -0.45593999997E+02  0.45594000000E+02  0.51100000000E-03 0.  1.
    9900012    2    1    2    0    0 -0.91523534477E+01 -0.42117597750E+02 -0.50955900415E+01  0.47787278212E+02  0.20000032680E+02 0.  0.
        -12    1    1    2    0    0  0.91523534477E+01  0.42117597750E+02  0.50955900415E+01  0.43400721788E+02  0.00000000000E+00 0.  1.
         11    1    3    3    0    0  0.33365445894E+01 -0.23408538132E+02 -0.77509544176E+01  0.24883116403E+02  0.51100000000E-03 0.  1.
        -11    1    3    3    0    0 -0.10331226294E+02 -0.16342775096E+02  0.11580738922E+01  0.19369090582E+02  0.51100000000E-03 0. -1.
        -12    1    3    3    0    0 -0.21576717433E+01 -0.23662845224E+01  0.14972904839E+01  0.35350712278E+01  0.00000000000E+00 0.  1.
</event>
<event>
 7    1  0.2458979E-009  0.4778727E+02  0.7816164E-02  0.1312668E+00
        -11   -1    0    0    0    0  0.00000000000E+00  0.00000000000E+00  0.45593999997E+02  0.45594000000E+02  0.51100000000E-03 0.  1.
         11   -1    0    0    0    0 -0.00000000000E+00 -0.00000000000E+00 -0.45593999997E+02  0.45594000000E+02  0.51100000000E-03 0. -1.
    9900012    2    1    2    0    0  0.10322763402E+01  0.24946265465E+02 -0.35499878854E+02  0.47787272428E+02  0.20000006309E+02 0.  0.
        -12    1    1    2    0    0 -0.10322763402E+01 -0.24946265465E+02  0.35499878854E+02  0.43400727572E+02  0.00000000000E+00 0.  1.
         11    1    3    3    0    0 -0.22254851007E-01  0.18748157174E+02 -0.28363570679E+02  0.33999794626E+02  0.51100000000E-03 0. -1.
        -11    1    3    3    0    0  0.38728343716E+01  0.58534587241E+01 -0.10835035683E+01  0.71018170455E+01  0.51100000000E-03 0.  1.
        -12    1    3    3    0    0 -0.28183031804E+01  0.34464956739E+00 -0.60528046073E+01  0.66856607568E+01  0.00000000000E+00 0.  1.
</event>
<event>
 7    1  0.2458979E-009  0.4778727E+02  0.7816164E-02  0.1312668E+00
        -11   -1    0    0    0    0  0.00000000000E+00  0.00000000000E+00  0.45593999997E+02  0.45594000000E+02  0.51100000000E-03 0.  1.
         11   -1    0    0    0    0 -0.00000000000E+00 -0.00000000000E+00 -0.45593999997E+02  0.45594000000E+02  0.51100000000E-03 0. -1.
    9900012    2    1    2    0    0  0.94047454762E+01 -0.16937698946E+02 -0.38836688139E+02  0.47787271565E+02  0.20000002373E+02 0.  0.
        -12    1    1    2    0    0 -0.94047454762E+01  0.16937698946E+02  0.38836688139E+02  0.43400728435E+02  0.00000000000E+00 0.  1.
         11    1    3    3    0    0 -0.31666455008E+00 -0.15555800790E+02 -0.24776565065E+02  0.29256817861E+02  0.51100000000E-03 0. -1.
        -11    1    3    3    0    0  0.87704813285E+01 -0.27213266481E+01 -0.77692144442E+01  0.12028618158E+02  0.51100000000E-03 0.  1.
        -12    1    3    3    0    0  0.95092869779E+00  0.13394284919E+01 -0.62909086299E+01  0.65018355457E+01  0.00000000000E+00 0.  1.
</event>
<event>
 7    1  0.2458979E-009  0.4778727E+02  0.7816164E-02  0.1312668E+00
        -11   -1    0    0    0    0  0.00000000000E+00  0.00000000000E+00  0.45593999997E+02  0.45594000000E+02  0.51100000000E-03 0. -1.
         11   -1    0    0    0    0 -0.00000000000E+00 -0.00000000000E+00 -0.45593999997E+02  0.45594000000E+02  0.51100000000E-03 0.  1.
    9900012    2    1    2    0    0  0.91493313163E+01  0.30367828682E+02  0.29626142330E+02  0.47787267383E+02  0.19999983304E+02 0.  0.
        -12    1    1    2    0    0 -0.91493313163E+01 -0.30367828682E+02 -0.29626142330E+02  0.43400732617E+02  0.00000000000E+00 0.  1.
         11    1    3    3    0    0  0.75791893131E+00  0.10250039635E+02  0.14777189574E+02  0.18000085711E+02  0.51100000000E-03 0. -1.
        -11    1    3    3    0    0  0.11850486047E+02  0.11402885708E+02  0.95172812380E+01  0.19001012195E+02  0.51100000000E-03 0.  1.
        -12    1    3    3    0    0 -0.34590736619E+01  0.87149033387E+01  0.53316715174E+01  0.10786169476E+02  0.00000000000E+00 0.  1.
</event>
<event>
 7    1  0.2458979E-009  0.4778727E+02  0.7816164E-02  0.1312668E+00
        -11   -1    0    0    0    0  0.00000000000E+00  0.00000000000E+00  0.45593999997E+02  0.45594000000E+02  0.51100000000E-03 0.  1.
         11   -1    0    0    0    0 -0.00000000000E+00 -0.00000000000E+00 -0.45593999997E+02  0.45594000000E+02  0.51100000000E-03 0. -1.
    9900012    2    1    2    0    0 -0.35094714914E+02 -0.20418720092E+01 -0.25452208820E+02  0.47787272011E+02  0.20000004406E+02 0.  0.
        -12    1    1    2    0    0  0.35094714914E+02  0.20418720092E+01  0.25452208820E+02  0.43400727989E+02  0.00000000000E+00 0.  1.
         11    1    3    3    0    0 -0.16044157323E+02  0.23037630649E+01 -0.85807603220E+01  0.18339895213E+02  0.51100000000E-03 0. -1.
        -11    1    3    3    0    0 -0.10898776964E+02 -0.86472392653E+01 -0.58833668560E+01  0.15105366333E+02  0.51100000000E-03 0.  1.
        -12    1    3    3    0    0 -0.81517806268E+01  0.43016041912E+01 -0.10988081642E+02  0.14342010465E+02  0.00000000000E+00 0.  1.
</event>
<event>
 7    1  0.2458979E-009  0.4778727E+02  0.7816164E-02  0.1312668E+00
        -11   -1    0    0    0    0  0.00000000000E+00  0.00000000000E+00  0.45593999997E+02  0.45594000000E+02  0.51100000000E-03 0.  1.
         11   -1    0    0    0    0 -0.00000000000E+00 -0.00000000000E+00 -0.45593999997E+02  0.45594000000E+02  0.51100000000E-03 0. -1.
    9900012    2    1    2    0    0 -0.23802371129E+00 -0.22520413317E+02 -0.37099830687E+02  0.47787272952E+02  0.20000008698E+02 0.  0.
        -12    1    1    2    0    0  0.23802371129E+00  0.22520413317E+02  0.37099830687E+02  0.43400727048E+02  0.00000000000E+00 0.  1.
         11    1    3    3    0    0 -0.31043050103E+01 -0.15281198377E+01  0.13651173363E+01  0.37195974833E+01  0.51100000000E-03 0.  1.
        -11    1    3    3    0    0  0.18325993241E+01 -0.17797432680E+02 -0.29587724108E+02  0.34576588155E+02  0.51100000000E-03 0. -1.
        -12    1    3    3    0    0  0.10336819749E+01 -0.31948607987E+01 -0.88772239159E+01  0.94910873140E+01  0.00000000000E+00 0.  1.
</event>
<event>
 7    1  0.2458979E-009  0.4778727E+02  0.7816164E-02  0.1312668E+00
        -11   -1    0    0    0    0  0.00000000000E+00  0.00000000000E+00  0.45593999997E+02  0.45594000000E+02  0.51100000000E-03 0. -1.
         11   -1    0    0    0    0 -0.00000000000E+00 -0.00000000000E+00 -0.45593999997E+02  0.45594000000E+02  0.51100000000E-03 0.  1.
    9900012    2    1    2    0    0 -0.17106235974E+02  0.10039325777E+02  0.38603263658E+02  0.47787270325E+02  0.19999996719E+02 0.  0.
        -12    1    1    2    0    0  0.17106235974E+02 -0.10039325777E+02 -0.38603263658E+02  0.43400729675E+02  0.00000000000E+00 0.  1.
         11    1    3    3    0    0 -0.82810341401E+01  0.31133558714E+00  0.16983730562E+02  0.18897607265E+02  0.51100000000E-03 0. -1.
        -11    1    3    3    0    0 -0.47598657839E+01  0.10550147201E+02  0.66337285024E+01  0.13340475342E+02  0.51100000000E-03 0.  1.
        -12    1    3    3    0    0 -0.40653360503E+01 -0.82215701141E+00  0.14985804594E+02  0.15549187717E+02  0.00000000000E+00 0.  1.
</event>
<event>
 7    1  0.2458979E-009  0.4778727E+02  0.7816164E-02  0.1312668E+00
        -11   -1    0    0    0    0  0.00000000000E+00  0.00000000000E+00  0.45593999997E+02  0.45594000000E+02  0.51100000000E-03 0. -1.
         11   -1    0    0    0    0 -0.00000000000E+00 -0.00000000000E+00 -0.45593999997E+02  0.45594000000E+02  0.51100000000E-03 0.  1.
    9900012    2    1    2    0    0  0.13246820199E+02  0.14726168399E+02  0.38617163091E+02  0.47787267675E+02  0.19999984640E+02 0.  0.
        -12    1    1    2    0    0 -0.13246820199E+02 -0.14726168399E+02 -0.38617163091E+02  0.43400732325E+02  0.00000000000E+00 0.  1.
         11    1    3    3    0    0 -0.97311007870E+00  0.85151610662E+00  0.14544958536E+02  0.14602323171E+02  0.51100000000E-03 0. -1.
        -11    1    3    3    0    0 -0.11429317938E+01 -0.95402534176E+00  0.16647488817E+01  0.22333487274E+01  0.51100000000E-03 0.  1.
         12    1    3    3    0    0  0.15362862072E+02  0.14828677634E+02  0.22407455673E+02  0.30951595777E+02  0.00000000000E+00 0. -1.
</event>
<event>
 7    1  0.2458979E-009  0.4778727E+02  0.7816164E-02  0.1312668E+00
        -11   -1    0    0    0    0  0.00000000000E+00  0.00000000000E+00  0.45593999997E+02  0.45594000000E+02  0.51100000000E-03 0. -1.
         11   -1    0    0    0    0 -0.00000000000E+00 -0.00000000000E+00 -0.45593999997E+02  0.45594000000E+02  0.51100000000E-03 0.  1.
    9900012    2    1    2    0    0  0.32320560597E+02 -0.28734932683E+02 -0.36480230096E+01  0.47787273446E+02  0.20000010948E+02 0.  0.
        -12    1    1    2    0    0 -0.32320560597E+02  0.28734932683E+02  0.36480230096E+01  0.43400726554E+02  0.00000000000E+00 0.  1.
         11    1    3    3    0    0  0.13842771396E+02 -0.17220300553E+02 -0.12688086182E+01  0.22130769228E+02  0.51100000000E-03 0. -1.
        -11    1    3    3    0    0  0.17358739446E+02 -0.42252323333E+01  0.13147664323E+00  0.17866049082E+02  0.51100000000E-03 0.  1.
        -12    1    3    3    0    0  0.11190497546E+01 -0.72893997966E+01 -0.25106910346E+01  0.77904551356E+01  0.00000000000E+00 0.  1.
</event>
<event>
 7    1  0.2458979E-009  0.4778727E+02  0.7816164E-02  0.1312668E+00
        -11   -1    0    0    0    0  0.00000000000E+00  0.00000000000E+00  0.45593999997E+02  0.45594000000E+02  0.51100000000E-03 0.  1.
         11   -1    0    0    0    0 -0.00000000000E+00 -0.00000000000E+00 -0.45593999997E+02  0.45594000000E+02  0.51100000000E-03 0. -1.
    9900012    2    1    2    0    0 -0.18606542815E+02  0.25043119944E+02 -0.30170549402E+02  0.47787270245E+02  0.19999996354E+02 0.  0.
        -12    1    1    2    0    0  0.18606542815E+02 -0.25043119944E+02  0.30170549402E+02  0.43400729755E+02  0.00000000000E+00 0.  1.
         11    1    3    3    0    0 -0.46320102136E+01  0.99477749161E+01 -0.13025632834E+02  0.17031760197E+02  0.51100000000E-03 0. -1.
        -11    1    3    3    0    0 -0.10049005850E+01 -0.30279438523E+00 -0.89626402087E+01  0.90238810607E+01  0.51100000000E-03 0.  1.
        -12    1    3    3    0    0 -0.12969632016E+02  0.15398139413E+02 -0.81822763593E+01  0.21731628987E+02  0.00000000000E+00 0.  1.
</event>
<event>
 7    1  0.2458979E-009  0.4778725E+02  0.7816164E-02  0.1312668E+00
        -11   -1    0    0    0    0  0.00000000000E+00  0.00000000000E+00  0.45593999997E+02  0.45594000000E+02  0.51100000000E-03 0.  1.
         11   -1    0    0    0    0 -0.00000000000E+00 -0.00000000000E+00 -0.45593999997E+02  0.45594000000E+02  0.51100000000E-03 0. -1.
    9900012    2    1    2    0    0 -0.11210871842E+02  0.30019977204E+02 -0.29270158619E+02  0.47787252721E+02  0.19999916457E+02 0.  0.
        -12    1    1    2    0    0  0.11210871842E+02 -0.30019977204E+02  0.29270158619E+02  0.43400747279E+02  0.00000000000E+00 0.  1.
         11    1    3    3    0    0 -0.12993847012E+02  0.24728534430E+02 -0.22612589354E+02  0.35939806243E+02  0.51100000000E-03 0. -1.
        -11    1    3    3    0    0  0.36572639441E+01  0.55231503026E+01 -0.21568394129E+01  0.69665432846E+01  0.51100000000E-03 0.  1.
        -12    1    3    3    0    0 -0.18742887740E+01 -0.23170752865E+00 -0.45007298520E+01  0.48809031938E+01  0.00000000000E+00 0.  1.
</event>
<event>
 7    1  0.2458979E-009  0.4778727E+02  0.7816164E-02  0.1312668E+00
        -11   -1    0    0    0    0  0.00000000000E+00  0.00000000000E+00  0.45593999997E+02  0.45594000000E+02  0.51100000000E-03 0. -1.
         11   -1    0    0    0    0 -0.00000000000E+00 -0.00000000000E+00 -0.45593999997E+02  0.45594000000E+02  0.51100000000E-03 0.  1.
    9900012    2    1    2    0    0 -0.32167258163E+02 -0.23308114334E+02  0.17482059690E+02  0.47787273019E+02  0.20000009001E+02 0.  0.
        -12    1    1    2    0    0  0.32167258163E+02  0.23308114334E+02 -0.17482059690E+02  0.43400726981E+02  0.00000000000E+00 0.  1.
         11    1    3    3    0    0 -0.41753835688E+01  0.24530055399E+01 -0.61743175763E+00  0.48818322751E+01  0.51100000000E-03 0. -1.
        -11    1    3    3    0    0 -0.97617242874E+01 -0.12700310328E+02  0.43440832533E+01  0.16596993796E+02  0.51100000000E-03 0.  1.
         12    1    3    3    0    0 -0.18230150307E+02 -0.13060809546E+02  0.13755408194E+02  0.26308446947E+02  0.00000000000E+00 0. -1.
</event>
<event>
 7    1  0.2458979E-009  0.4778727E+02  0.7816164E-02  0.1312668E+00
        -11   -1    0    0    0    0  0.00000000000E+00  0.00000000000E+00  0.45593999997E+02  0.45594000000E+02  0.51100000000E-03 0.  1.
         11   -1    0    0    0    0 -0.00000000000E+00 -0.00000000000E+00 -0.45593999997E+02  0.45594000000E+02  0.51100000000E-03 0. -1.
    9900012    2    1    2    0    0  0.24861529910E+02  0.15636308897E+02 -0.31953612275E+02  0.47787272324E+02  0.20000005834E+02 0.  0.
        -12    1    1    2    0    0 -0.24861529910E+02 -0.15636308897E+02  0.31953612275E+02  0.43400727676E+02  0.00000000000E+00 0.  1.
         11    1    3    3    0    0  0.19482643045E+02  0.14985708773E+02 -0.24886930766E+02  0.34978624483E+02  0.51100000000E-03 0. -1.
        -11    1    3    3    0    0  0.44123797542E+01  0.33324563347E+01 -0.38328054199E+00  0.55426766597E+01  0.51100000000E-03 0.  1.
         12    1    3    3    0    0  0.96650711026E+00 -0.26818562110E+01 -0.66834009668E+01  0.72659711817E+01  0.00000000000E+00 0. -1.
</event>
<event>
 7    1  0.2458979E-009  0.4778727E+02  0.7816164E-02  0.1312668E+00
        -11   -1    0    0    0    0  0.00000000000E+00  0.00000000000E+00  0.45593999997E+02  0.45594000000E+02  0.51100000000E-03 0.  1.
         11   -1    0    0    0    0 -0.00000000000E+00 -0.00000000000E+00 -0.45593999997E+02  0.45594000000E+02  0.51100000000E-03 0. -1.
    9900012    2    1    2    0    0  0.37883106837E+02 -0.17654230507E+02 -0.11697082155E+02  0.47787269944E+02  0.19999994983E+02 0.  0.
        -12    1    1    2    0    0 -0.37883106837E+02  0.17654230507E+02  0.11697082155E+02  0.43400730056E+02  0.00000000000E+00 0.  1.
         11    1    3    3    0    0  0.12702856085E+02 -0.84699228108E+01 -0.13354552118E+02  0.20284136848E+02  0.51100000000E-03 0. -1.
        -11    1    3    3    0    0  0.15887810929E+02 -0.76381274872E+01  0.33171060768E+01  0.17937857191E+02  0.51100000000E-03 0.  1.
        -12    1    3    3    0    0  0.92924398229E+01 -0.15461802092E+01 -0.16596361138E+01  0.95652759046E+01  0.00000000000E+00 0.  1.
</event>
<event>
 7    1  0.2458979E-009  0.4778727E+02  0.7816164E-02  0.1312668E+00
        -11   -1    0    0    0    0  0.00000000000E+00  0.00000000000E+00  0.45593999997E+02  0.45594000000E+02  0.51100000000E-03 0.  1.
         11   -1    0    0    0    0 -0.00000000000E+00 -0.00000000000E+00 -0.45593999997E+02  0.45594000000E+02  0.51100000000E-03 0. -1.
    9900012    2    1    2    0    0 -0.23034309325E+02 -0.17215253523E+02 -0.32506597504E+02  0.47787271420E+02  0.20000001715E+02 0.  0.
        -12    1    1    2    0    0  0.23034309325E+02  0.17215253523E+02  0.32506597504E+02  0.43400728580E+02  0.00000000000E+00 0.  1.
         11    1    3    3    0    0 -0.10387810204E+02 -0.27212207990E+01 -0.92429322601E+01  0.14168395833E+02  0.51100000000E-03 0. -1.
        -11    1    3    3    0    0  0.29751158185E+01 -0.31644776870E+01 -0.76452939940E+01  0.87929377162E+01  0.51100000000E-03 0.  1.
        -12    1    3    3    0    0 -0.15621614940E+02 -0.11329555037E+02 -0.15618371250E+02  0.24825937871E+02  0.00000000000E+00 0.  1.
</event>
<event>
 7    1  0.2458979E-009  0.4778728E+02  0.7816164E-02  0.1312668E+00
        -11   -1    0    0    0    0  0.00000000000E+00  0.00000000000E+00  0.45593999997E+02  0.45594000000E+02  0.51100000000E-03 0.  1.
         11   -1    0    0    0    0 -0.00000000000E+00 -0.00000000000E+00 -0.45593999997E+02  0.45594000000E+02  0.51100000000E-03 0. -1.
    9900012    2    1    2    0    0  0.10275511155E+02 -0.37292208393E+02 -0.19680647534E+02  0.47787276231E+02  0.20000023649E+02 0.  0.
        -12    1    1    2    0    0 -0.10275511155E+02  0.37292208393E+02  0.19680647534E+02  0.43400723769E+02  0.00000000000E+00 0.  1.
         11    1    3    3    0    0  0.10150152322E+01 -0.40567586810E+01 -0.42664353954E+01  0.59741123325E+01  0.51100000000E-03 0.  1.
        -11    1    3    3    0    0  0.85565695020E+00 -0.13619535029E+02 -0.15260249096E+02  0.20471909680E+02  0.51100000000E-03 0. -1.
        -12    1    3    3    0    0  0.84048389723E+01 -0.19615914683E+02 -0.15396304251E+00  0.21341254218E+02  0.00000000000E+00 0.  1.
</event>
<event>
 7    1  0.2458979E-009  0.4778727E+02  0.7816164E-02  0.1312668E+00
        -11   -1    0    0    0    0  0.00000000000E+00  0.00000000000E+00  0.45593999997E+02  0.45594000000E+02  0.51100000000E-03 0. -1.
         11   -1    0    0    0    0 -0.00000000000E+00 -0.00000000000E+00 -0.45593999997E+02  0.45594000000E+02  0.51100000000E-03 0.  1.
    9900012    2    1    2    0    0 -0.26980318641E+02  0.16911051819E+02  0.29490713059E+02  0.47787269311E+02  0.19999992096E+02 0.  0.
        -12    1    1    2    0    0  0.26980318641E+02 -0.16911051819E+02 -0.29490713059E+02  0.43400730689E+02  0.00000000000E+00 0.  1.
         11    1    3    3    0    0 -0.14527261246E+02  0.12461807699E+02  0.23236072763E+02  0.30104037074E+02  0.51100000000E-03 0. -1.
        -11    1    3    3    0    0 -0.59246327093E+01  0.38828603537E+01 -0.17911062132E+01  0.73065682091E+01  0.51100000000E-03 0.  1.
        -12    1    3    3    0    0 -0.65284246860E+01  0.56638376582E+00  0.80457465092E+01  0.10376664028E+02  0.00000000000E+00 0.  1.
</event>
<event>
 7    1  0.2458979E-009  0.4778727E+02  0.7816164E-02  0.1312668E+00
        -11   -1    0    0    0    0  0.00000000000E+00  0.00000000000E+00  0.45593999997E+02  0.45594000000E+02  0.51100000000E-03 0. -1.
         11   -1    0    0    0    0 -0.00000000000E+00 -0.00000000000E+00 -0.45593999997E+02  0.45594000000E+02  0.51100000000E-03 0.  1.
    9900012    2    1    2    0    0  0.58232094806E+00 -0.42535338400E+02  0.86040207294E+01  0.47787270937E+02  0.19999999509E+02 0.  0.
        -12    1    1    2    0    0 -0.58232094806E+00  0.42535338400E+02 -0.86040207294E+01  0.43400729063E+02  0.00000000000E+00 0.  1.
         11    1    3    3    0    0  0.51098016415E+01 -0.31095121354E+02  0.79771865955E+01  0.32506186351E+02  0.51100000000E-03 0. -1.
        -11    1    3    3    0    0  0.98997141776E+00 -0.72055550538E+01 -0.24512717509E+01  0.76752068701E+01  0.51100000000E-03 0.  1.
         12    1    3    3    0    0 -0.55174521112E+01 -0.42346619922E+01  0.30781058847E+01  0.76058777156E+01  0.00000000000E+00 0. -1.
</event>
<event>
 7    1  0.2458979E-009  0.4778726E+02  0.7816164E-02  0.1312668E+00
        -11   -1    0    0    0    0  0.00000000000E+00  0.00000000000E+00  0.45593999997E+02  0.45594000000E+02  0.51100000000E-03 0.  1.
         11   -1    0    0    0    0 -0.00000000000E+00 -0.00000000000E+00 -0.45593999997E+02  0.45594000000E+02  0.51100000000E-03 0. -1.
    9900012    2    1    2    0    0 -0.24841284977E+01 -0.23866974862E+02 -0.36163801980E+02  0.47787263173E+02  0.19999964111E+02 0.  0.
        -12    1    1    2    0    0  0.24841284977E+01  0.23866974862E+02  0.36163801980E+02  0.43400736827E+02  0.00000000000E+00 0.  1.
         11    1    3    3    0    0 -0.56736373020E+01 -0.92781287387E+01 -0.18919156143E+02  0.21822197473E+02  0.51100000000E-03 0. -1.
        -11    1    3    3    0    0  0.36673960955E+01 -0.94537720566E+01 -0.26423742629E+01  0.10478823513E+02  0.51100000000E-03 0.  1.
        -12    1    3    3    0    0 -0.47788729114E+00 -0.51350740671E+01 -0.14602271574E+02  0.15486242187E+02  0.00000000000E+00 0.  1.
</event>
<event>
 7    1  0.2458979E-009  0.4778727E+02  0.7816164E-02  0.1312668E+00
        -11   -1    0    0    0    0  0.00000000000E+00  0.00000000000E+00  0.45593999997E+02  0.45594000000E+02  0.51100000000E-03 0.  1.
         11   -1    0    0    0    0 -0.00000000000E+00 -0.00000000000E+00 -0.45593999997E+02  0.45594000000E+02  0.51100000000E-03 0. -1.
    9900012    2    1    2    0    0  0.35018188607E+02 -0.19331920508E+02 -0.16841221241E+02  0.47787269398E+02  0.19999992494E+02 0.  0.
        -12    1    1    2    0    0 -0.35018188607E+02  0.19331920508E+02  0.16841221241E+02  0.43400730602E+02  0.00000000000E+00 0.  1.
         11    1    3    3    0    0  0.58793761259E+01 -0.10295485789E+02 -0.41070639289E+01  0.12547193536E+02  0.51100000000E-03 0. -1.
        -11    1    3    3    0    0  0.10628437597E+00 -0.20405116213E+00  0.16438949669E+01  0.16599169162E+01  0.51100000000E-03 0.  1.
         12    1    3    3    0    0  0.29032528105E+02 -0.88323835578E+01 -0.14378052279E+02  0.33580158946E+02  0.00000000000E+00 0. -1.
</event>
<event>
 7    1  0.2458979E-009  0.4778727E+02  0.7816164E-02  0.1312668E+00
        -11   -1    0    0    0    0  0.00000000000E+00  0.00000000000E+00  0.45593999997E+02  0.45594000000E+02  0.51100000000E-03 0.  1.
         11   -1    0    0    0    0 -0.00000000000E+00 -0.00000000000E+00 -0.45593999997E+02  0.45594000000E+02  0.51100000000E-03 0. -1.
    9900012    2    1    2    0    0  0.31678192933E+02  0.29357286411E+02  0.42737892875E+01  0.47787269041E+02  0.19999990865E+02 0.  0.
        -12    1    1    2    0    0 -0.31678192933E+02 -0.29357286411E+02 -0.42737892875E+01  0.43400730959E+02  0.00000000000E+00 0.  1.
         11    1    3    3    0    0  0.12296954555E+02  0.20514684039E+02  0.87083722193E+01  0.25453940746E+02  0.51100000000E-03 0. -1.
        -11    1    3    3    0    0  0.95214740901E+01  0.37615471521E+01 -0.46387408237E+01  0.11239467181E+02  0.51100000000E-03 0.  1.
         12    1    3    3    0    0  0.98597642879E+01  0.50810552196E+01  0.20415789190E+00  0.11093861113E+02  0.00000000000E+00 0. -1.
</event>
<event>
 7    1  0.2458979E-009  0.4778727E+02  0.7816164E-02  0.1312668E+00
        -11   -1    0    0    0    0  0.00000000000E+00  0.00000000000E+00  0.45593999997E+02  0.45594000000E+02  0.51100000000E-03 0.  1.
         11   -1    0    0    0    0 -0.00000000000E+00 -0.00000000000E+00 -0.45593999997E+02  0.45594000000E+02  0.51100000000E-03 0. -1.
    9900012    2    1    2    0    0  0.23527776778E+02 -0.25128559039E+02 -0.26431476233E+02  0.47787266189E+02  0.19999977861E+02 0.  0.
        -12    1    1    2    0    0 -0.23527776778E+02  0.25128559039E+02  0.26431476233E+02  0.43400733811E+02  0.00000000000E+00 0.  1.
         11    1    3    3    0    0  0.16924557455E+02 -0.19457512772E+02 -0.16499249736E+02  0.30614713627E+02  0.51100000000E-03 0. -1.
        -11    1    3    3    0    0  0.48541139473E+01  0.14760390388E+01 -0.34232713088E+00  0.50851058576E+01  0.51100000000E-03 0.  1.
         12    1    3    3    0    0  0.17491053753E+01 -0.71470853055E+01 -0.95898993659E+01  0.12087446704E+02  0.00000000000E+00 0. -1.
</event>
<event>
 7    1  0.2458979E-009  0.4778727E+02  0.7816164E-02  0.1312668E+00
        -11   -1    0    0    0    0  0.00000000000E+00  0.00000000000E+00  0.45593999997E+02  0.45594000000E+02  0.51100000000E-03 0.  1.
         11   -1    0    0    0    0 -0.00000000000E+00 -0.00000000000E+00 -0.45593999997E+02  0.45594000000E+02  0.51100000000E-03 0. -1.
    9900012    2    1    2    0    0 -0.56990971741E+01 -0.27500248684E+02 -0.33088973873E+02  0.47787267538E+02  0.19999984012E+02 0.  0.
        -12    1    1    2    0    0  0.56990971741E+01  0.27500248684E+02  0.33088973873E+02  0.43400732462E+02  0.00000000000E+00 0.  1.
         11    1    3    3    0    0 -0.14149412552E+01 -0.22921757061E+02 -0.17649635722E+02  0.28964092371E+02  0.51100000000E-03 0. -1.
        -11    1    3    3    0    0 -0.49145992525E+01  0.19109785846E+00 -0.11820857323E+02  0.12803221170E+02  0.51100000000E-03 0.  1.
        -12    1    3    3    0    0  0.63044333363E+00 -0.47695894821E+01 -0.36184808276E+01  0.60199539969E+01  0.00000000000E+00 0.  1.
</event>
<event>
 7    1  0.2458979E-009  0.4778727E+02  0.7816164E-02  0.1312668E+00
        -11   -1    0    0    0    0  0.00000000000E+00  0.00000000000E+00  0.45593999997E+02  0.45594000000E+02  0.51100000000E-03 0.  1.
         11   -1    0    0    0    0 -0.00000000000E+00 -0.00000000000E+00 -0.45593999997E+02  0.45594000000E+02  0.51100000000E-03 0. -1.
    9900012    2    1    2    0    0 -0.37211914476E+02 -0.52085773786E-01 -0.22335942014E+02  0.47787267316E+02  0.19999983000E+02 0.  0.
        -12    1    1    2    0    0  0.37211914476E+02  0.52085773786E-01  0.22335942014E+02  0.43400732684E+02  0.00000000000E+00 0.  1.
         11    1    3    3    0    0 -0.11439654078E+02  0.53980574460E+01 -0.10229182419E+02  0.16267786660E+02  0.51100000000E-03 0. -1.
        -11    1    3    3    0    0 -0.23356977763E+02 -0.86011776919E+01 -0.11776081583E+02  0.27535518256E+02  0.51100000000E-03 0.  1.
        -12    1    3    3    0    0 -0.24152826353E+01  0.31510344722E+01 -0.33067801161E+00  0.39839623995E+01  0.00000000000E+00 0.  1.
</event>
<event>
 7    1  0.2458979E-009  0.4778727E+02  0.7816164E-02  0.1312668E+00
        -11   -1    0    0    0    0  0.00000000000E+00  0.00000000000E+00  0.45593999997E+02  0.45594000000E+02  0.51100000000E-03 0.  1.
         11   -1    0    0    0    0 -0.00000000000E+00 -0.00000000000E+00 -0.45593999997E+02  0.45594000000E+02  0.51100000000E-03 0. -1.
    9900012    2    1    2    0    0  0.36417028149E+02 -0.20727281195E+02 -0.11305001133E+02  0.47787272177E+02  0.20000005164E+02 0.  0.
        -12    1    1    2    0    0 -0.36417028149E+02  0.20727281195E+02  0.11305001133E+02  0.43400727823E+02  0.00000000000E+00 0.  1.
         11    1    3    3    0    0  0.16290517959E+02 -0.17298994503E+02  0.50485458852E-01  0.23762128171E+02  0.51100000000E-03 0. -1.
        -11    1    3    3    0    0  0.13017732758E+02  0.54144333040E+00 -0.71070299433E+01  0.14841307284E+02  0.51100000000E-03 0.  1.
         12    1    3    3    0    0  0.71087774323E+01 -0.39697300225E+01 -0.42484566487E+01  0.91838367216E+01  0.00000000000E+00 0. -1.
</event>
<event>
 7    1  0.2458979E-009  0.4778727E+02  0.7816164E-02  0.1312668E+00
        -11   -1    0    0    0    0  0.00000000000E+00  0.00000000000E+00  0.45593999997E+02  0.45594000000E+02  0.51100000000E-03 0.  1.
         11   -1    0    0    0    0 -0.00000000000E+00 -0.00000000000E+00 -0.45593999997E+02  0.45594000000E+02  0.51100000000E-03 0. -1.
    9900012    2    1    2    0    0  0.38839928670E+02 -0.18359894779E+01 -0.19279843435E+02  0.47787270981E+02  0.19999999713E+02 0.  0.
        -12    1    1    2    0    0 -0.38839928670E+02  0.18359894779E+01  0.19279843435E+02  0.43400729019E+02  0.00000000000E+00 0.  1.
         11    1    3    3    0    0  0.16080523240E+02 -0.79226660608E+01 -0.84848840955E+01  0.19832930282E+02  0.51100000000E-03 0. -1.
        -11    1    3    3    0    0  0.21078037511E+02  0.58826704094E+01 -0.12782304730E+02  0.25343180363E+02  0.51100000000E-03 0.  1.
         12    1    3    3    0    0  0.16813679194E+01  0.20400617352E+00  0.19873453910E+01  0.26111603364E+01  0.00000000000E+00 0. -1.
</event>
<event>
 7    1  0.2458979E-009  0.4778727E+02  0.7816164E-02  0.1312668E+00
        -11   -1    0    0    0    0  0.00000000000E+00  0.00000000000E+00  0.45593999997E+02  0.45594000000E+02  0.51100000000E-03 0.  1.
         11   -1    0    0    0    0 -0.00000000000E+00 -0.00000000000E+00 -0.45593999997E+02  0.45594000000E+02  0.51100000000E-03 0. -1.
    9900012    2    1    2    0    0  0.30585682339E+02  0.26296052878E+02 -0.16020517724E+02  0.47787270176E+02  0.19999996039E+02 0.  0.
        -12    1    1    2    0    0 -0.30585682339E+02 -0.26296052878E+02  0.16020517724E+02  0.43400729824E+02  0.00000000000E+00 0.  1.
         11    1    3    3    0    0  0.18687905250E+02  0.16122046441E+02  0.75378791314E+00  0.24692638185E+02  0.51100000000E-03 0. -1.
        -11    1    3    3    0    0  0.25685835144E+01  0.24210324986E+01 -0.54928346144E+01  0.65291846345E+01  0.51100000000E-03 0.  1.
         12    1    3    3    0    0  0.93291935754E+01  0.77529739384E+01 -0.11281471023E+02  0.16565447356E+02  0.00000000000E+00 0. -1.
</event>
<event>
 7    1  0.2458979E-009  0.4778727E+02  0.7816164E-02  0.1312668E+00
        -11   -1    0    0    0    0  0.00000000000E+00  0.00000000000E+00  0.45593999997E+02  0.45594000000E+02  0.51100000000E-03 0. -1.
         11   -1    0    0    0    0 -0.00000000000E+00 -0.00000000000E+00 -0.45593999997E+02  0.45594000000E+02  0.51100000000E-03 0.  1.
    9900012    2    1    2    0    0 -0.41649140551E+02  0.87939028758E+01  0.84640085118E+01  0.47787273318E+02  0.20000010366E+02 0.  0.
        -12    1    1    2    0    0  0.41649140551E+02 -0.87939028758E+01 -0.84640085118E+01  0.43400726682E+02  0.00000000000E+00 0.  1.
         11    1    3    3    0    0 -0.32630764677E+02  0.62059250734E+01  0.37316840801E+01  0.33424628281E+02  0.51100000000E-03 0. -1.
        -11    1    3    3    0    0  0.45134640350E+00 -0.26038404451E+01  0.19888078130E+00  0.26501419709E+01  0.51100000000E-03 0.  1.
         12    1    3    3    0    0 -0.94697222779E+01  0.51918182475E+01  0.45334436504E+01  0.11712503066E+02  0.00000000000E+00 0. -1.
</event>
<event>
 7    1  0.2458979E-009  0.4778727E+02  0.7816164E-02  0.1312668E+00
        -11   -1    0    0    0    0  0.00000000000E+00  0.00000000000E+00  0.45593999997E+02  0.45594000000E+02  0.51100000000E-03 0.  1.
         11   -1    0    0    0    0 -0.00000000000E+00 -0.00000000000E+00 -0.45593999997E+02  0.45594000000E+02  0.51100000000E-03 0. -1.
    9900012    2    1    2    0    0  0.23838007203E+02  0.33452927086E+01 -0.36113457641E+02  0.47787269666E+02  0.19999993716E+02 0.  0.
        -12    1    1    2    0    0 -0.23838007203E+02 -0.33452927086E+01  0.36113457641E+02  0.43400730334E+02  0.00000000000E+00 0.  1.
         11    1    3    3    0    0  0.11075295398E+02 -0.10064880596E+01 -0.13250013535E+02  0.17298498354E+02  0.51100000000E-03 0. -1.
        -11    1    3    3    0    0  0.36374851030E+01  0.61351459169E+01 -0.16407720907E+01  0.73187052551E+01  0.51100000000E-03 0.  1.
        -12    1    3    3    0    0  0.91252267026E+01 -0.17833651488E+01 -0.21222672015E+02  0.23170066057E+02  0.00000000000E+00 0.  1.
</event>
<event>
 7    1  0.2458979E-009  0.4778727E+02  0.7816164E-02  0.1312668E+00
        -11   -1    0    0    0    0  0.00000000000E+00  0.00000000000E+00  0.45593999997E+02  0.45594000000E+02  0.51100000000E-03 0.  1.
         11   -1    0    0    0    0 -0.00000000000E+00 -0.00000000000E+00 -0.45593999997E+02  0.45594000000E+02  0.51100000000E-03 0. -1.
    9900012    2    1    2    0    0  0.27835539150E+02  0.31639009182E+02 -0.10381684790E+02  0.47787268199E+02  0.19999987027E+02 0.  0.
        -12    1    1    2    0    0 -0.27835539150E+02 -0.31639009182E+02  0.10381684790E+02  0.43400731801E+02  0.00000000000E+00 0.  1.
         11    1    3    3    0    0  0.49856727592E+01  0.81955218637E+01 -0.10719539495E+02  0.14385132559E+02  0.51100000000E-03 0. -1.
        -11    1    3    3    0    0  0.11751431799E+02  0.16261718890E+02 -0.11672124079E+01  0.20097314140E+02  0.51100000000E-03 0.  1.
        -12    1    3    3    0    0  0.11098434592E+02  0.71817684282E+01  0.15050671128E+01  0.13304821500E+02  0.00000000000E+00 0.  1.
</event>
<event>
 7    1  0.2458979E-009  0.4778727E+02  0.7816164E-02  0.1312668E+00
        -11   -1    0    0    0    0  0.00000000000E+00  0.00000000000E+00  0.45593999997E+02  0.45594000000E+02  0.51100000000E-03 0.  1.
         11   -1    0    0    0    0 -0.00000000000E+00 -0.00000000000E+00 -0.45593999997E+02  0.45594000000E+02  0.51100000000E-03 0. -1.
    9900012    2    1    2    0    0  0.19196754110E+02 -0.33927552103E+02 -0.19079544800E+02  0.47787272013E+02  0.20000004414E+02 0.  0.
        -12    1    1    2    0    0 -0.19196754110E+02  0.33927552103E+02  0.19079544800E+02  0.43400727987E+02  0.00000000000E+00 0.  1.
         11    1    3    3    0    0  0.12030226680E+00 -0.10984867623E+02 -0.12995587037E+02  0.17016670415E+02  0.51100000000E-03 0. -1.
        -11    1    3    3    0    0  0.18273499685E+02 -0.19952111954E+02 -0.52048051012E+01  0.27551725146E+02  0.51100000000E-03 0.  1.
        -12    1    3    3    0    0  0.80295215885E+00 -0.29905725262E+01 -0.87915266196E+00  0.32188764510E+01  0.00000000000E+00 0.  1.
</event>
<event>
 7    1  0.2458979E-009  0.4778727E+02  0.7816164E-02  0.1312668E+00
        -11   -1    0    0    0    0  0.00000000000E+00  0.00000000000E+00  0.45593999997E+02  0.45594000000E+02  0.51100000000E-03 0. -1.
         11   -1    0    0    0    0 -0.00000000000E+00 -0.00000000000E+00 -0.45593999997E+02  0.45594000000E+02  0.51100000000E-03 0.  1.
    9900012    2    1    2    0    0  0.32220613899E+02 -0.26562582564E+02  0.11827277575E+02  0.47787271350E+02  0.20000001393E+02 0.  0.
        -12    1    1    2    0    0 -0.32220613899E+02  0.26562582564E+02 -0.11827277575E+02  0.43400728650E+02  0.00000000000E+00 0.  1.
         11    1    3    3    0    0  0.18932562097E+02 -0.73092984302E+01  0.11227323517E+02  0.23193114166E+02  0.51100000000E-03 0. -1.
        -11    1    3    3    0    0  0.10314894763E+01 -0.14738052099E+01  0.23145823634E+01  0.29314440323E+01  0.51100000000E-03 0.  1.
         12    1    3    3    0    0  0.12256562326E+02 -0.17779478924E+02 -0.17146283056E+01  0.21662713151E+02  0.00000000000E+00 0. -1.
</event>
<event>
 7    1  0.2458979E-009  0.4778724E+02  0.7816164E-02  0.1312668E+00
        -11   -1    0    0    0    0  0.00000000000E+00  0.00000000000E+00  0.45593999997E+02  0.45594000000E+02  0.51100000000E-03 0.  1.
         11   -1    0    0    0    0 -0.00000000000E+00 -0.00000000000E+00 -0.45593999997E+02  0.45594000000E+02  0.51100000000E-03 0. -1.
    9900012    2    1    2    0    0  0.27696546420E+02 -0.17827978117E+01 -0.33366879526E+02  0.47787243083E+02  0.19999872513E+02 0.  0.
        -12    1    1    2    0    0 -0.27696546420E+02  0.17827978117E+01  0.33366879526E+02  0.43400756917E+02  0.00000000000E+00 0.  1.
         11    1    3    3    0    0  0.16898545725E+02  0.14766512892E+01 -0.19888822820E+02  0.26140134278E+02  0.51100000000E-03 0. -1.
        -11    1    3    3    0    0  0.39485659850E+01 -0.35926680918E+01  0.11773372828E+01  0.54666772993E+01  0.51100000000E-03 0.  1.
         12    1    3    3    0    0  0.68494347103E+01  0.33321899081E+00 -0.14655393989E+02  0.16180431506E+02  0.00000000000E+00 0. -1.
</event>
<event>
 7    1  0.2458979E-009  0.4778727E+02  0.7816164E-02  0.1312668E+00
        -11   -1    0    0    0    0  0.00000000000E+00  0.00000000000E+00  0.45593999997E+02  0.45594000000E+02  0.51100000000E-03 0.  1.
         11   -1    0    0    0    0 -0.00000000000E+00 -0.00000000000E+00 -0.45593999997E+02  0.45594000000E+02  0.51100000000E-03 0. -1.
    9900012    2    1    2    0    0 -0.13662019274E+02  0.34430444759E+02 -0.22616743047E+02  0.47787270017E+02  0.19999995317E+02 0.  0.
        -12    1    1    2    0    0  0.13662019274E+02 -0.34430444759E+02  0.22616743047E+02  0.43400729983E+02  0.00000000000E+00 0.  1.
         11    1    3    3    0    0 -0.67748304109E+01  0.14028503818E+02 -0.19099073633E+02  0.24646944240E+02  0.51100000000E-03 0.  1.
        -11    1    3    3    0    0 -0.71063923490E+00  0.67461879515E+01 -0.44677322721E+01  0.81226037645E+01  0.51100000000E-03 0. -1.
         12    1    3    3    0    0 -0.61765496286E+01  0.13655752990E+02  0.95006285801E+00  0.15017722013E+02  0.00000000000E+00 0. -1.
</event>
<event>
 7    1  0.2458979E-009  0.4778728E+02  0.7816164E-02  0.1312668E+00
        -11   -1    0    0    0    0  0.00000000000E+00  0.00000000000E+00  0.45593999997E+02  0.45594000000E+02  0.51100000000E-03 0. -1.
         11   -1    0    0    0    0 -0.00000000000E+00 -0.00000000000E+00 -0.45593999997E+02  0.45594000000E+02  0.51100000000E-03 0.  1.
    9900012    2    1    2    0    0  0.77920704234E+01  0.25629723868E+02  0.34147084998E+02  0.47787279719E+02  0.20000039553E+02 0.  0.
        -12    1    1    2    0    0 -0.77920704234E+01 -0.25629723868E+02 -0.34147084998E+02  0.43400720281E+02  0.00000000000E+00 0.  1.
         11    1    3    3    0    0  0.32946312995E+01  0.17165818458E+02  0.11575336697E+02  0.20964454170E+02  0.51100000000E-03 0. -1.
        -11    1    3    3    0    0  0.62981674142E+01  0.49953272188E+00  0.94244188583E+01  0.11346193934E+02  0.51100000000E-03 0.  1.
        -12    1    3    3    0    0 -0.18007282903E+01  0.79643726876E+01  0.13147329442E+02  0.15476631615E+02  0.00000000000E+00 0.  1.
</event>
<event>
 7    1  0.2458979E-009  0.4778727E+02  0.7816164E-02  0.1312668E+00
        -11   -1    0    0    0    0  0.00000000000E+00  0.00000000000E+00  0.45593999997E+02  0.45594000000E+02  0.51100000000E-03 0.  1.
         11   -1    0    0    0    0 -0.00000000000E+00 -0.00000000000E+00 -0.45593999997E+02  0.45594000000E+02  0.51100000000E-03 0. -1.
    9900012    2    1    2    0    0 -0.35570621835E+02 -0.21192559589E+02 -0.13008831253E+02  0.47787269474E+02  0.19999992839E+02 0.  0.
        -12    1    1    2    0    0  0.35570621835E+02  0.21192559589E+02  0.13008831253E+02  0.43400730526E+02  0.00000000000E+00 0.  1.
         11    1    3    3    0    0 -0.23183047689E+02 -0.14559879790E+02 -0.90892545467E+00  0.27391055938E+02  0.51100000000E-03 0. -1.
        -11    1    3    3    0    0 -0.13107542457E+02 -0.44868301848E+01 -0.11620799591E+02  0.18082651845E+02  0.51100000000E-03 0.  1.
         12    1    3    3    0    0  0.71996831144E+00 -0.21458496143E+01 -0.47910620720E+00  0.23135616902E+01  0.00000000000E+00 0. -1.
</event>
<event>
 7    1  0.2458979E-009  0.4778727E+02  0.7816164E-02  0.1312668E+00
        -11   -1    0    0    0    0  0.00000000000E+00  0.00000000000E+00  0.45593999997E+02  0.45594000000E+02  0.51100000000E-03 0. -1.
         11   -1    0    0    0    0 -0.00000000000E+00 -0.00000000000E+00 -0.45593999997E+02  0.45594000000E+02  0.51100000000E-03 0.  1.
    9900012    2    1    2    0    0 -0.30002019366E+02 -0.30138893790E+01 -0.31215680757E+02  0.47787269357E+02  0.19999992307E+02 0.  0.
        -12    1    1    2    0    0  0.30002019366E+02  0.30138893790E+01  0.31215680757E+02  0.43400730643E+02  0.00000000000E+00 0.  1.
         11    1    3    3    0    0 -0.98712620286E+01 -0.32160713605E+01 -0.29307541934E+01  0.10787689717E+02  0.51100000000E-03 0. -1.
        -11    1    3    3    0    0 -0.14195992128E+02  0.59654202832E+01 -0.16163297963E+02  0.22324081906E+02  0.51100000000E-03 0.  1.
        -12    1    3    3    0    0 -0.59347652095E+01 -0.57632383017E+01 -0.12121628600E+02  0.14675497734E+02  0.00000000000E+00 0.  1.
</event>
<event>
 7    1  0.2458979E-009  0.4778728E+02  0.7816164E-02  0.1312668E+00
        -11   -1    0    0    0    0  0.00000000000E+00  0.00000000000E+00  0.45593999997E+02  0.45594000000E+02  0.51100000000E-03 0.  1.
         11   -1    0    0    0    0 -0.00000000000E+00 -0.00000000000E+00 -0.45593999997E+02  0.45594000000E+02  0.51100000000E-03 0. -1.
    9900012    2    1    2    0    0 -0.19756641481E+02  0.14787475805E+02 -0.35701935253E+02  0.47787279912E+02  0.20000040432E+02 0.  0.
        -12    1    1    2    0    0  0.19756641481E+02 -0.14787475805E+02  0.35701935253E+02  0.43400720088E+02  0.00000000000E+00 0.  1.
         11    1    3    3    0    0 -0.10434797281E+02 -0.12014597925E+00 -0.96464330161E+01  0.14211020355E+02  0.51100000000E-03 0. -1.
        -11    1    3    3    0    0 -0.49178555739E+01  0.10859452155E+02 -0.24724078837E+02  0.27448006834E+02  0.51100000000E-03 0.  1.
        -12    1    3    3    0    0 -0.44039886263E+01  0.40481696289E+01 -0.13314234004E+01  0.61282527229E+01  0.00000000000E+00 0.  1.
</event>
<event>
 7    1  0.2458979E-009  0.4778727E+02  0.7816164E-02  0.1312668E+00
        -11   -1    0    0    0    0  0.00000000000E+00  0.00000000000E+00  0.45593999997E+02  0.45594000000E+02  0.51100000000E-03 0.  1.
         11   -1    0    0    0    0 -0.00000000000E+00 -0.00000000000E+00 -0.45593999997E+02  0.45594000000E+02  0.51100000000E-03 0. -1.
    9900012    2    1    2    0    0  0.29438415724E+02 -0.31889337966E+02 -0.27024583002E+00  0.47787271560E+02  0.20000002353E+02 0.  0.
        -12    1    1    2    0    0 -0.29438415724E+02  0.31889337966E+02  0.27024583002E+00  0.43400728440E+02  0.00000000000E+00 0.  1.
         11    1    3    3    0    0  0.13295906764E+02 -0.16870633829E+02 -0.35570239520E+01  0.21772731618E+02  0.51100000000E-03 0. -1.
        -11    1    3    3    0    0  0.14670743470E+02 -0.47373420957E+01  0.17611406395E+01  0.15516917887E+02  0.51100000000E-03 0.  1.
        -12    1    3    3    0    0  0.14717654902E+01 -0.10281362041E+02  0.15256374824E+01  0.10497622055E+02  0.00000000000E+00 0.  1.
</event>
<event>
 7    1  0.2458979E-009  0.4778727E+02  0.7816164E-02  0.1312668E+00
        -11   -1    0    0    0    0  0.00000000000E+00  0.00000000000E+00  0.45593999997E+02  0.45594000000E+02  0.51100000000E-03 0.  1.
         11   -1    0    0    0    0 -0.00000000000E+00 -0.00000000000E+00 -0.45593999997E+02  0.45594000000E+02  0.51100000000E-03 0. -1.
    9900012    2    1    2    0    0  0.53135865570E+01 -0.77828908474E+01 -0.42365261233E+02  0.47787274759E+02  0.20000016938E+02 0.  0.
        -12    1    1    2    0    0 -0.53135865570E+01  0.77828908474E+01  0.42365261233E+02  0.43400725241E+02  0.00000000000E+00 0.  1.
         11    1    3    3    0    0  0.22355592774E+00 -0.13409827120E+02 -0.28372678980E+02  0.31382835331E+02  0.51100000000E-03 0. -1.
        -11    1    3    3    0    0 -0.27836196604E+00  0.18995554705E+01 -0.21833956579E+01  0.29074066159E+01  0.51100000000E-03 0.  1.
         12    1    3    3    0    0  0.53683925953E+01  0.37273808023E+01 -0.11809186596E+02  0.13497032813E+02  0.00000000000E+00 0. -1.
</event>
<event>
 7    1  0.2458979E-009  0.4778728E+02  0.7816164E-02  0.1312668E+00
        -11   -1    0    0    0    0  0.00000000000E+00  0.00000000000E+00  0.45593999997E+02  0.45594000000E+02  0.51100000000E-03 0. -1.
         11   -1    0    0    0    0 -0.00000000000E+00 -0.00000000000E+00 -0.45593999997E+02  0.45594000000E+02  0.51100000000E-03 0.  1.
    9900012    2    1    2    0    0 -0.23537313721E+02  0.36382846305E+02  0.24302025404E+01  0.47787279651E+02  0.20000039238E+02 0.  0.
        -12    1    1    2    0    0  0.23537313721E+02 -0.36382846305E+02 -0.24302025404E+01  0.43400720349E+02  0.00000000000E+00 0.  1.
         11    1    3    3    0    0 -0.14827219216E+02  0.24795321559E+02 -0.21986856924E+00  0.28891222600E+02  0.51100000000E-03 0. -1.
        -11    1    3    3    0    0 -0.47151511090E+00 -0.23960229068E+01  0.75354259553E+00  0.25555975767E+01  0.51100000000E-03 0.  1.
        -12    1    3    3    0    0 -0.82385793940E+01  0.13983547653E+02  0.18965285141E+01  0.16340459474E+02  0.00000000000E+00 0.  1.
</event>
<event>
 7    1  0.2458979E-009  0.4778727E+02  0.7816164E-02  0.1312668E+00
        -11   -1    0    0    0    0  0.00000000000E+00  0.00000000000E+00  0.45593999997E+02  0.45594000000E+02  0.51100000000E-03 0.  1.
         11   -1    0    0    0    0 -0.00000000000E+00 -0.00000000000E+00 -0.45593999997E+02  0.45594000000E+02  0.51100000000E-03 0. -1.
    9900012    2    1    2    0    0 -0.89415022274E+01  0.70329545256E+01 -0.41883294078E+02  0.47787271501E+02  0.20000002081E+02 0.  0.
        -12    1    1    2    0    0  0.89415022274E+01 -0.70329545256E+01  0.41883294078E+02  0.43400728499E+02  0.00000000000E+00 0.  1.
         11    1    3    3    0    0 -0.10246967962E+02 -0.23665126577E+01 -0.32263694840E+02  0.33934447683E+02  0.51100000000E-03 0. -1.
        -11    1    3    3    0    0  0.14560026880E+01  0.44105979226E+01 -0.28757774340E+01  0.54629125907E+01  0.51100000000E-03 0.  1.
         12    1    3    3    0    0 -0.15053695364E+00  0.49888692606E+01 -0.67438218037E+01  0.83899112268E+01  0.00000000000E+00 0. -1.
</event>
<event>
 7    1  0.2458979E-009  0.4778727E+02  0.7816164E-02  0.1312668E+00
        -11   -1    0    0    0    0  0.00000000000E+00  0.00000000000E+00  0.45593999997E+02  0.45594000000E+02  0.51100000000E-03 0.  1.
         11   -1    0    0    0    0 -0.00000000000E+00 -0.00000000000E+00 -0.45593999997E+02  0.45594000000E+02  0.51100000000E-03 0. -1.
    9900012    2    1    2    0    0  0.20205395891E+02 -0.87536420845E+01 -0.37399719935E+02  0.47787270466E+02  0.19999997363E+02 0.  0.
        -12    1    1    2    0    0 -0.20205395891E+02  0.87536420845E+01  0.37399719935E+02  0.43400729534E+02  0.00000000000E+00 0.  1.
         11    1    3    3    0    0  0.12044628969E+02 -0.59106365074E+01 -0.16892125250E+02  0.21572032974E+02  0.51100000000E-03 0. -1.
        -11    1    3    3    0    0 -0.85591493524E+00 -0.30184172911E+01  0.66043108893E+00  0.32061819668E+01  0.51100000000E-03 0.  1.
        -12    1    3    3    0    0  0.90166818572E+01  0.17541171403E+00 -0.21168025774E+02  0.23009055525E+02  0.00000000000E+00 0.  1.
</event>
<event>
 7    1  0.2458979E-009  0.4778727E+02  0.7816164E-02  0.1312668E+00
        -11   -1    0    0    0    0  0.00000000000E+00  0.00000000000E+00  0.45593999997E+02  0.45594000000E+02  0.51100000000E-03 0.  1.
         11   -1    0    0    0    0 -0.00000000000E+00 -0.00000000000E+00 -0.45593999997E+02  0.45594000000E+02  0.51100000000E-03 0. -1.
    9900012    2    1    2    0    0  0.68481534187E+01 -0.34245193701E+02 -0.25768064672E+02  0.47787266667E+02  0.19999980043E+02 0.  0.
        -12    1    1    2    0    0 -0.68481534187E+01  0.34245193701E+02  0.25768064672E+02  0.43400733333E+02  0.00000000000E+00 0.  1.
         11    1    3    3    0    0 -0.27183861078E+01 -0.18649307267E+02 -0.96419897995E+01  0.21169654039E+02  0.51100000000E-03 0. -1.
        -11    1    3    3    0    0  0.74829292926E+01 -0.51278388801E+01 -0.26974025931E+01  0.94638757065E+01  0.51100000000E-03 0.  1.
         12    1    3    3    0    0  0.20836102340E+01 -0.10468047554E+02 -0.13428672280E+02  0.17153736922E+02  0.00000000000E+00 0. -1.
</event>
<event>
 7    1  0.2458979E-009  0.4778730E+02  0.7816164E-02  0.1312668E+00
        -11   -1    0    0    0    0  0.00000000000E+00  0.00000000000E+00  0.45593999997E+02  0.45594000000E+02  0.51100000000E-03 0.  1.
         11   -1    0    0    0    0 -0.00000000000E+00 -0.00000000000E+00 -0.45593999997E+02  0.45594000000E+02  0.51100000000E-03 0. -1.
    9900012    2    1    2    0    0 -0.61282349957E+01  0.25248343946E+02 -0.34764735478E+02  0.47787297597E+02  0.20000121065E+02 0.  0.
        -12    1    1    2    0    0  0.61282349957E+01 -0.25248343946E+02  0.34764735478E+02  0.43400702403E+02  0.00000000000E+00 0.  1.
         11    1    3    3    0    0 -0.22038256703E+01  0.21097545688E+02 -0.17815828162E+02  0.27701390128E+02  0.51100000000E-03 0. -1.
        -11    1    3    3    0    0 -0.68717477145E+01  0.33716659323E+01 -0.10996198776E+02  0.13397963860E+02  0.51100000000E-03 0.  1.
        -12    1    3    3    0    0  0.29473383891E+01  0.77913232558E+00 -0.59527085398E+01  0.66879436093E+01  0.00000000000E+00 0.  1.
</event>
<event>
 7    1  0.2458979E-009  0.4778728E+02  0.7816164E-02  0.1312668E+00
        -11   -1    0    0    0    0  0.00000000000E+00  0.00000000000E+00  0.45593999997E+02  0.45594000000E+02  0.51100000000E-03 0. -1.
         11   -1    0    0    0    0 -0.00000000000E+00 -0.00000000000E+00 -0.45593999997E+02  0.45594000000E+02  0.51100000000E-03 0.  1.
    9900012    2    1    2    0    0 -0.97475591110E+01  0.38982670816E+02  0.16399966202E+02  0.47787280835E+02  0.20000044641E+02 0.  0.
        -12    1    1    2    0    0  0.97475591110E+01 -0.38982670816E+02 -0.16399966202E+02  0.43400719165E+02  0.00000000000E+00 0.  1.
         11    1    3    3    0    0 -0.11415332014E+02  0.24688790623E+02  0.56081513588E+01  0.27772244226E+02  0.51100000000E-03 0. -1.
        -11    1    3    3    0    0  0.26349271531E+01  0.21010343046E+00  0.25260495222E+01  0.36562153935E+01  0.51100000000E-03 0.  1.
         12    1    3    3    0    0 -0.96715425050E+00  0.14083776763E+02  0.82657653215E+01  0.16358821216E+02  0.00000000000E+00 0. -1.
</event>
<event>
 7    1  0.2458979E-009  0.4778727E+02  0.7816164E-02  0.1312668E+00
        -11   -1    0    0    0    0  0.00000000000E+00  0.00000000000E+00  0.45593999997E+02  0.45594000000E+02  0.51100000000E-03 0.  1.
         11   -1    0    0    0    0 -0.00000000000E+00 -0.00000000000E+00 -0.45593999997E+02  0.45594000000E+02  0.51100000000E-03 0. -1.
    9900012    2    1    2    0    0 -0.27905891027E+02  0.79297064091E+01 -0.32280092361E+02  0.47787270046E+02  0.19999995446E+02 0.  0.
        -12    1    1    2    0    0  0.27905891027E+02 -0.79297064091E+01  0.32280092361E+02  0.43400729954E+02  0.00000000000E+00 0.  1.
         11    1    3    3    0    0 -0.67089583410E+00 -0.56879173177E+00  0.18392114557E+01  0.20387065248E+01  0.51100000000E-03 0. -1.
        -11    1    3    3    0    0 -0.12135211024E+00 -0.14526291950E+01 -0.83380861708E+00  0.16793138432E+01  0.51100000000E-03 0.  1.
         12    1    3    3    0    0 -0.27113643083E+02  0.99511273359E+01 -0.33285495199E+02  0.44069249678E+02  0.00000000000E+00 0. -1.
</event>
<event>
 7    1  0.2458979E-009  0.4778727E+02  0.7816164E-02  0.1312668E+00
        -11   -1    0    0    0    0  0.00000000000E+00  0.00000000000E+00  0.45593999997E+02  0.45594000000E+02  0.51100000000E-03 0. -1.
         11   -1    0    0    0    0 -0.00000000000E+00 -0.00000000000E+00 -0.45593999997E+02  0.45594000000E+02  0.51100000000E-03 0.  1.
    9900012    2    1    2    0    0 -0.13120359421E+01  0.41964336554E+02  0.10995280621E+02  0.47787272165E+02  0.20000005108E+02 0.  0.
        -12    1    1    2    0    0  0.13120359421E+01 -0.41964336554E+02 -0.10995280621E+02  0.43400727835E+02  0.00000000000E+00 0.  1.
         11    1    3    3    0    0 -0.10010074396E+00  0.46073917113E+01  0.13334135183E+01  0.47975066870E+01  0.51100000000E-03 0. -1.
        -11    1    3    3    0    0 -0.84088537525E+00  0.38643169618E+02  0.60310302782E+01  0.39120007321E+02  0.51100000000E-03 0.  1.
        -12    1    3    3    0    0 -0.37104982285E+00 -0.12862247759E+01  0.36308368242E+01  0.38697581564E+01  0.00000000000E+00 0.  1.
</event>
<event>
 7    1  0.2458979E-009  0.4778727E+02  0.7816164E-02  0.1312668E+00
        -11   -1    0    0    0    0  0.00000000000E+00  0.00000000000E+00  0.45593999997E+02  0.45594000000E+02  0.51100000000E-03 0. -1.
         11   -1    0    0    0    0 -0.00000000000E+00 -0.00000000000E+00 -0.45593999997E+02  0.45594000000E+02  0.51100000000E-03 0.  1.
    9900012    2    1    2    0    0  0.33822166218E+02 -0.60539503087E-01  0.27197080059E+02  0.47787265485E+02  0.19999974650E+02 0.  0.
        -12    1    1    2    0    0 -0.33822166218E+02  0.60539503087E-01 -0.27197080059E+02  0.43400734515E+02  0.00000000000E+00 0.  1.
         11    1    3    3    0    0  0.35346128202E+02  0.13891050539E+01  0.26255040449E+02  0.44052304604E+02  0.51100000000E-03 0. -1.
        -11    1    3    3    0    0 -0.13504755360E+01  0.32544522342E+00 -0.46320919185E+00  0.14643298069E+01  0.51100000000E-03 0.  1.
         12    1    3    3    0    0 -0.17348644746E+00 -0.17750897804E+01  0.14052488017E+01  0.22706310732E+01  0.00000000000E+00 0. -1.
</event>
<event>
 7    1  0.2458979E-009  0.4778727E+02  0.7816164E-02  0.1312668E+00
        -11   -1    0    0    0    0  0.00000000000E+00  0.00000000000E+00  0.45593999997E+02  0.45594000000E+02  0.51100000000E-03 0.  1.
         11   -1    0    0    0    0 -0.00000000000E+00 -0.00000000000E+00 -0.45593999997E+02  0.45594000000E+02  0.51100000000E-03 0. -1.
    9900012    2    1    2    0    0  0.31923400666E+02 -0.29392893085E+02 -0.76009594601E+00  0.47787269363E+02  0.19999992333E+02 0.  0.
        -12    1    1    2    0    0 -0.31923400666E+02  0.29392893085E+02  0.76009594601E+00  0.43400730637E+02  0.00000000000E+00 0.  1.
         11    1    3    3    0    0  0.10741129191E+01 -0.13448645321E+01 -0.44942135333E+01  0.48125185419E+01  0.51100000000E-03 0.  1.
        -11    1    3    3    0    0  0.13110776808E+02 -0.16503050306E+02 -0.16328962243E+01  0.21140233874E+02  0.51100000000E-03 0. -1.
         12    1    3    3    0    0  0.17738510939E+02 -0.11544978247E+02  0.53670138115E+01  0.21834516947E+02  0.00000000000E+00 0. -1.
</event>
<event>
 7    1  0.2458979E-009  0.4778727E+02  0.7816164E-02  0.1312668E+00
        -11   -1    0    0    0    0  0.00000000000E+00  0.00000000000E+00  0.45593999997E+02  0.45594000000E+02  0.51100000000E-03 0. -1.
         11   -1    0    0    0    0 -0.00000000000E+00 -0.00000000000E+00 -0.45593999997E+02  0.45594000000E+02  0.51100000000E-03 0.  1.
    9900012    2    1    2    0    0  0.38710652795E+01 -0.16180171166E+02  0.40085407955E+02  0.47787274012E+02  0.20000013532E+02 0.  0.
        -12    1    1    2    0    0 -0.38710652795E+01  0.16180171166E+02 -0.40085407955E+02  0.43400725988E+02  0.00000000000E+00 0.  1.
         11    1    3    3    0    0 -0.22359999929E+01 -0.16782022840E+02  0.30323457831E+02  0.34729642694E+02  0.51100000000E-03 0. -1.
        -11    1    3    3    0    0  0.37859702157E+01  0.21314267216E+01  0.92659255768E+01  0.10233959517E+02  0.51100000000E-03 0.  1.
         12    1    3    3    0    0  0.23210950567E+01 -0.15295750472E+01  0.49602454678E+00  0.28236718007E+01  0.00000000000E+00 0. -1.
</event>
<event>
 7    1  0.2458979E-009  0.4778727E+02  0.7816164E-02  0.1312668E+00
        -11   -1    0    0    0    0  0.00000000000E+00  0.00000000000E+00  0.45593999997E+02  0.45594000000E+02  0.51100000000E-03 0.  1.
         11   -1    0    0    0    0 -0.00000000000E+00 -0.00000000000E+00 -0.45593999997E+02  0.45594000000E+02  0.51100000000E-03 0. -1.
    9900012    2    1    2    0    0  0.20249341442E+02 -0.44245687127E+01 -0.38131494486E+02  0.47787268337E+02  0.19999987655E+02 0.  0.
        -12    1    1    2    0    0 -0.20249341442E+02  0.44245687127E+01  0.38131494486E+02  0.43400731663E+02  0.00000000000E+00 0.  1.
         11    1    3    3    0    0  0.69568495729E+01 -0.95485072739E+00 -0.34392248115E+01  0.78190641036E+01  0.51100000000E-03 0.  1.
        -11    1    3    3    0    0  0.11802835717E+01  0.48676506278E+01 -0.10952112348E+02  0.12043083372E+02  0.51100000000E-03 0. -1.
        -12    1    3    3    0    0  0.12112208298E+02 -0.83373686131E+01 -0.23740157327E+02  0.27925120861E+02  0.00000000000E+00 0.  1.
</event>
<event>
 7    1  0.2458979E-009  0.4778727E+02  0.7816164E-02  0.1312668E+00
        -11   -1    0    0    0    0  0.00000000000E+00  0.00000000000E+00  0.45593999997E+02  0.45594000000E+02  0.51100000000E-03 0. -1.
         11   -1    0    0    0    0 -0.00000000000E+00 -0.00000000000E+00 -0.45593999997E+02  0.45594000000E+02  0.51100000000E-03 0.  1.
    9900012    2    1    2    0    0 -0.19355544426E+02 -0.68390511117E+01  0.38238905792E+02  0.47787266869E+02  0.19999980961E+02 0.  0.
        -12    1    1    2    0    0  0.19355544426E+02  0.68390511117E+01 -0.38238905792E+02  0.43400733131E+02  0.00000000000E+00 0.  1.
         11    1    3    3    0    0 -0.15030127335E+02 -0.65131956830E+01  0.22530253385E+02  0.27855677403E+02  0.51100000000E-03 0. -1.
        -11    1    3    3    0    0 -0.34507580050E+01  0.41186872986E+01  0.14158678187E+02  0.15143958668E+02  0.51100000000E-03 0.  1.
         12    1    3    3    0    0 -0.87465908576E+00 -0.44445427273E+01  0.15499742202E+01  0.47876307977E+01  0.00000000000E+00 0. -1.
</event>
<event>
 7    1  0.2458979E-009  0.4778727E+02  0.7816164E-02  0.1312668E+00
        -11   -1    0    0    0    0  0.00000000000E+00  0.00000000000E+00  0.45593999997E+02  0.45594000000E+02  0.51100000000E-03 0.  1.
         11   -1    0    0    0    0 -0.00000000000E+00 -0.00000000000E+00 -0.45593999997E+02  0.45594000000E+02  0.51100000000E-03 0. -1.
    9900012    2    1    2    0    0 -0.71711274509E+01  0.21127817207E+02 -0.37226514764E+02  0.47787272698E+02  0.20000007539E+02 0.  0.
        -12    1    1    2    0    0  0.71711274509E+01 -0.21127817207E+02  0.37226514764E+02  0.43400727302E+02  0.00000000000E+00 0.  1.
         11    1    3    3    0    0 -0.46348649531E+01  0.71840663205E+01 -0.23652714188E+02  0.25150420886E+02  0.51100000000E-03 0. -1.
        -11    1    3    3    0    0 -0.62030020343E+01  0.12408523911E+02 -0.88155602582E+01  0.16436629911E+02  0.51100000000E-03 0.  1.
        -12    1    3    3    0    0  0.36667395365E+01  0.15352269752E+01 -0.47582403180E+01  0.62002219007E+01  0.00000000000E+00 0.  1.
</event>
<event>
 7    1  0.2458979E-009  0.4778727E+02  0.7816164E-02  0.1312668E+00
        -11   -1    0    0    0    0  0.00000000000E+00  0.00000000000E+00  0.45593999997E+02  0.45594000000E+02  0.51100000000E-03 0.  1.
         11   -1    0    0    0    0 -0.00000000000E+00 -0.00000000000E+00 -0.45593999997E+02  0.45594000000E+02  0.51100000000E-03 0. -1.
    9900012    2    1    2    0    0 -0.16622085351E+02  0.39017059305E+02 -0.92194677866E+01  0.47787271614E+02  0.20000002596E+02 0.  0.
        -12    1    1    2    0    0  0.16622085351E+02 -0.39017059305E+02  0.92194677866E+01  0.43400728386E+02  0.00000000000E+00 0.  1.
         11    1    3    3    0    0 -0.17003570132E+02  0.25915161651E+02 -0.40299052445E+01  0.31256313557E+02  0.51100000000E-03 0. -1.
        -11    1    3    3    0    0  0.13180307571E+01  0.13960053424E+02 -0.57336351506E+01  0.15149088057E+02  0.51100000000E-03 0.  1.
        -12    1    3    3    0    0 -0.93654597608E+00 -0.85815577045E+00  0.54407260855E+00  0.13818699993E+01  0.00000000000E+00 0.  1.
</event>
<event>
 7    1  0.2458979E-009  0.4778725E+02  0.7816164E-02  0.1312668E+00
        -11   -1    0    0    0    0  0.00000000000E+00  0.00000000000E+00  0.45593999997E+02  0.45594000000E+02  0.51100000000E-03 0.  1.
         11   -1    0    0    0    0 -0.00000000000E+00 -0.00000000000E+00 -0.45593999997E+02  0.45594000000E+02  0.51100000000E-03 0. -1.
    9900012    2    1    2    0    0 -0.16400530393E+02  0.15336568776E+02 -0.37140780802E+02  0.47787247270E+02  0.19999891603E+02 0.  0.
        -12    1    1    2    0    0  0.16400530393E+02 -0.15336568776E+02  0.37140780802E+02  0.43400752730E+02  0.00000000000E+00 0.  1.
         11    1    3    3    0    0 -0.19730684343E+02  0.11649539984E+02 -0.22169725245E+02  0.31882728933E+02  0.51100000000E-03 0. -1.
        -11    1    3    3    0    0  0.14560181494E+01  0.11055674233E+01 -0.84436983312E+01  0.86393466158E+01  0.51100000000E-03 0.  1.
         12    1    3    3    0    0  0.18741358011E+01  0.25814613682E+01 -0.65273572251E+01  0.72651717213E+01  0.00000000000E+00 0. -1.
</event>
<event>
 7    1  0.2458979E-009  0.4778727E+02  0.7816164E-02  0.1312668E+00
        -11   -1    0    0    0    0  0.00000000000E+00  0.00000000000E+00  0.45593999997E+02  0.45594000000E+02  0.51100000000E-03 0.  1.
         11   -1    0    0    0    0 -0.00000000000E+00 -0.00000000000E+00 -0.45593999997E+02  0.45594000000E+02  0.51100000000E-03 0. -1.
    9900012    2    1    2    0    0 -0.33391156885E+02 -0.93874278801E+01 -0.26086970212E+02  0.47787272181E+02  0.20000005183E+02 0.  0.
        -12    1    1    2    0    0  0.33391156885E+02  0.93874278801E+01  0.26086970212E+02  0.43400727819E+02  0.00000000000E+00 0.  1.
         11    1    3    3    0    0 -0.20392041468E+02  0.26106069709E+01 -0.69672436713E+01  0.21706982947E+02  0.51100000000E-03 0.  1.
        -11    1    3    3    0    0 -0.84549553877E+01 -0.86217421379E+01 -0.12910748722E+02  0.17677899788E+02  0.51100000000E-03 0. -1.
        -12    1    3    3    0    0 -0.45441600293E+01 -0.33762927131E+01 -0.62089778191E+01  0.84023894468E+01  0.00000000000E+00 0.  1.
</event>
<event>
 7    1  0.2458979E-009  0.4778727E+02  0.7816164E-02  0.1312668E+00
        -11   -1    0    0    0    0  0.00000000000E+00  0.00000000000E+00  0.45593999997E+02  0.45594000000E+02  0.51100000000E-03 0.  1.
         11   -1    0    0    0    0 -0.00000000000E+00 -0.00000000000E+00 -0.45593999997E+02  0.45594000000E+02  0.51100000000E-03 0. -1.
    9900012    2    1    2    0    0 -0.26123573431E+02 -0.26070182214E+02 -0.22836981181E+02  0.47787271907E+02  0.20000003934E+02 0.  0.
        -12    1    1    2    0    0  0.26123573431E+02  0.26070182214E+02  0.22836981181E+02  0.43400728093E+02  0.00000000000E+00 0.  1.
         11    1    3    3    0    0 -0.87067779426E+01 -0.13927725340E+02 -0.17736120733E+02  0.24173528791E+02  0.51100000000E-03 0. -1.
        -11    1    3    3    0    0 -0.34618312117E+01 -0.40517933808E+00 -0.40578003095E+01  0.53492232378E+01  0.51100000000E-03 0.  1.
         12    1    3    3    0    0 -0.13954964277E+02 -0.11737277536E+02 -0.10430601383E+01  0.18264519879E+02  0.00000000000E+00 0. -1.
</event>
<event>
 7    1  0.2458979E-009  0.4778731E+02  0.7816164E-02  0.1312668E+00
        -11   -1    0    0    0    0  0.00000000000E+00  0.00000000000E+00  0.45593999997E+02  0.45594000000E+02  0.51100000000E-03 0.  1.
         11   -1    0    0    0    0 -0.00000000000E+00 -0.00000000000E+00 -0.45593999997E+02  0.45594000000E+02  0.51100000000E-03 0. -1.
    9900012    2    1    2    0    0 -0.32316414021E+01  0.13998249874E+02 -0.40953947514E+02  0.47787305044E+02  0.20000155016E+02 0.  0.
        -12    1    1    2    0    0  0.32316414021E+01 -0.13998249874E+02  0.40953947514E+02  0.43400694956E+02  0.00000000000E+00 0.  1.
         11    1    3    3    0    0  0.48224244533E+01  0.45036024210E+01 -0.54446731466E+01  0.85546875050E+01  0.51100000000E-03 0. -1.
        -11    1    3    3    0    0 -0.23557468902E+01  0.37065470040E+01 -0.21332842630E+01  0.48825132987E+01  0.51100000000E-03 0.  1.
         12    1    3    3    0    0 -0.56983189652E+01  0.57881004487E+01 -0.33375990105E+02  0.34350104240E+02  0.00000000000E+00 0. -1.
</event>
<event>
 7    1  0.2458979E-009  0.4778729E+02  0.7816164E-02  0.1312668E+00
        -11   -1    0    0    0    0  0.00000000000E+00  0.00000000000E+00  0.45593999997E+02  0.45594000000E+02  0.51100000000E-03 0. -1.
         11   -1    0    0    0    0 -0.00000000000E+00 -0.00000000000E+00 -0.45593999997E+02  0.45594000000E+02  0.51100000000E-03 0.  1.
    9900012    2    1    2    0    0  0.30431009369E+02 -0.69793058226E+01  0.30147379142E+02  0.47787291364E+02  0.20000092644E+02 0.  0.
        -12    1    1    2    0    0 -0.30431009369E+02  0.69793058226E+01 -0.30147379142E+02  0.43400708636E+02  0.00000000000E+00 0.  1.
         11    1    3    3    0    0  0.13962136346E+02  0.59602168528E+01  0.14495262399E+02  0.20989951609E+02  0.51100000000E-03 0. -1.
        -11    1    3    3    0    0  0.14189644619E+02 -0.11812785715E+02  0.15727494165E+02  0.24253700619E+02  0.51100000000E-03 0.  1.
        -12    1    3    3    0    0  0.22792284039E+01 -0.11267369605E+01 -0.75377421964E-01  0.25436391354E+01  0.00000000000E+00 0.  1.
</event>
<event>
 7    1  0.2458979E-009  0.4778726E+02  0.7816164E-02  0.1312668E+00
        -11   -1    0    0    0    0  0.00000000000E+00  0.00000000000E+00  0.45593999997E+02  0.45594000000E+02  0.51100000000E-03 0.  1.
         11   -1    0    0    0    0 -0.00000000000E+00 -0.00000000000E+00 -0.45593999997E+02  0.45594000000E+02  0.51100000000E-03 0. -1.
    9900012    2    1    2    0    0 -0.13879860590E+02  0.29938937181E+02 -0.28189253870E+02  0.47787256650E+02  0.19999934371E+02 0.  0.
        -12    1    1    2    0    0  0.13879860590E+02 -0.29938937181E+02  0.28189253870E+02  0.43400743350E+02  0.00000000000E+00 0.  1.
         11    1    3    3    0    0 -0.10573434059E+02  0.18330142793E+02 -0.73883888694E+01  0.22413833518E+02  0.51100000000E-03 0. -1.
        -11    1    3    3    0    0 -0.28697675965E+01  0.12871226625E+02 -0.19113027081E+02  0.23220935497E+02  0.51100000000E-03 0.  1.
        -12    1    3    3    0    0 -0.43665893452E+00 -0.12624322367E+01 -0.16878379197E+01  0.21524876354E+01  0.00000000000E+00 0.  1.
</event>
<event>
 7    1  0.2458979E-009  0.4778727E+02  0.7816164E-02  0.1312668E+00
        -11   -1    0    0    0    0  0.00000000000E+00  0.00000000000E+00  0.45593999997E+02  0.45594000000E+02  0.51100000000E-03 0. -1.
         11   -1    0    0    0    0 -0.00000000000E+00 -0.00000000000E+00 -0.45593999997E+02  0.45594000000E+02  0.51100000000E-03 0.  1.
    9900012    2    1    2    0    0  0.31505428748E+02  0.73141645805E+01  0.28940181339E+02  0.47787272586E+02  0.20000007030E+02 0.  0.
        -12    1    1    2    0    0 -0.31505428748E+02 -0.73141645805E+01 -0.28940181339E+02  0.43400727414E+02  0.00000000000E+00 0.  1.
         11    1    3    3    0    0  0.14397515317E+02 -0.18227856466E+01  0.19632590011E+02  0.24414126763E+02  0.51100000000E-03 0. -1.
        -11    1    3    3    0    0  0.17882937317E+02  0.75137345695E+01  0.94343320128E+01  0.21569939153E+02  0.51100000000E-03 0.  1.
        -12    1    3    3    0    0 -0.77502388590E+00  0.16232156576E+01 -0.12674068448E+00  0.18032066703E+01  0.00000000000E+00 0.  1.
</event>
<event>
 7    1  0.2458979E-009  0.4778728E+02  0.7816164E-02  0.1312668E+00
        -11   -1    0    0    0    0  0.00000000000E+00  0.00000000000E+00  0.45593999997E+02  0.45594000000E+02  0.51100000000E-03 0. -1.
         11   -1    0    0    0    0 -0.00000000000E+00 -0.00000000000E+00 -0.45593999997E+02  0.45594000000E+02  0.51100000000E-03 0.  1.
    9900012    2    1    2    0    0  0.30241060167E+02  0.26696915979E+02  0.16011741815E+02  0.47787275136E+02  0.20000018654E+02 0.  0.
        -12    1    1    2    0    0 -0.30241060167E+02 -0.26696915979E+02 -0.16011741815E+02  0.43400724864E+02  0.00000000000E+00 0.  1.
         11    1    3    3    0    0  0.26902873830E+01  0.37561739520E+01  0.50919370671E+00  0.46482004532E+01  0.51100000000E-03 0. -1.
        -11    1    3    3    0    0  0.21622279535E+02  0.25805342189E+02  0.12679743029E+02  0.35975193416E+02  0.51100000000E-03 0.  1.
        -12    1    3    3    0    0  0.59284932486E+01 -0.28646001618E+01  0.28228050785E+01  0.71638812663E+01  0.00000000000E+00 0.  1.
</event>
<event>
 7    1  0.2458979E-009  0.4778723E+02  0.7816164E-02  0.1312668E+00
        -11   -1    0    0    0    0  0.00000000000E+00  0.00000000000E+00  0.45593999997E+02  0.45594000000E+02  0.51100000000E-03 0. -1.
         11   -1    0    0    0    0 -0.00000000000E+00 -0.00000000000E+00 -0.45593999997E+02  0.45594000000E+02  0.51100000000E-03 0.  1.
    9900012    2    1    2    0    0 -0.31590366870E+02 -0.80909947979E+01  0.28639335255E+02  0.47787228122E+02  0.19999804298E+02 0.  0.
        -12    1    1    2    0    0  0.31590366870E+02  0.80909947979E+01 -0.28639335255E+02  0.43400771878E+02  0.00000000000E+00 0.  1.
         11    1    3    3    0    0 -0.14965927323E+02 -0.10174953377E+02  0.61882883680E+01  0.19125992001E+02  0.51100000000E-03 0. -1.
        -11    1    3    3    0    0 -0.12379143807E+02  0.23581004194E+01  0.20302029750E+02  0.23895109358E+02  0.51100000000E-03 0.  1.
         12    1    3    3    0    0 -0.42452957391E+01 -0.27414184071E+00  0.21490171364E+01  0.47661267622E+01  0.00000000000E+00 0. -1.
</event>
<event>
 7    1  0.2458979E-009  0.4778728E+02  0.7816164E-02  0.1312668E+00
        -11   -1    0    0    0    0  0.00000000000E+00  0.00000000000E+00  0.45593999997E+02  0.45594000000E+02  0.51100000000E-03 0.  1.
         11   -1    0    0    0    0 -0.00000000000E+00 -0.00000000000E+00 -0.45593999997E+02  0.45594000000E+02  0.51100000000E-03 0. -1.
    9900012    2    1    2    0    0 -0.38400947763E+01 -0.10638077197E+02 -0.41901165852E+02  0.47787277493E+02  0.20000029403E+02 0.  0.
        -12    1    1    2    0    0  0.38400947763E+01  0.10638077197E+02  0.41901165852E+02  0.43400722507E+02  0.00000000000E+00 0.  1.
         11    1    3    3    0    0  0.41576253688E+01 -0.20008675800E+01 -0.15407457327E+01  0.48644853226E+01  0.51100000000E-03 0.  1.
        -11    1    3    3    0    0 -0.33639491085E+01 -0.93334593934E+01 -0.27683992150E+02  0.29408043788E+02  0.51100000000E-03 0. -1.
        -12    1    3    3    0    0 -0.46337710366E+01  0.69624977661E+00 -0.12676427970E+02  0.13514748383E+02  0.00000000000E+00 0.  1.
</event>
<event>
 7    1  0.2458979E-009  0.4778726E+02  0.7816164E-02  0.1312668E+00
        -11   -1    0    0    0    0  0.00000000000E+00  0.00000000000E+00  0.45593999997E+02  0.45594000000E+02  0.51100000000E-03 0. -1.
         11   -1    0    0    0    0 -0.00000000000E+00 -0.00000000000E+00 -0.45593999997E+02  0.45594000000E+02  0.51100000000E-03 0.  1.
    9900012    2    1    2    0    0 -0.73480143472E+01 -0.92389788850E+01  0.41764479976E+02  0.47787264599E+02  0.19999970614E+02 0.  0.
        -12    1    1    2    0    0  0.73480143472E+01  0.92389788850E+01 -0.41764479976E+02  0.43400735401E+02  0.00000000000E+00 0.  1.
         11    1    3    3    0    0 -0.13476006508E+02 -0.73354643212E+01  0.31143825303E+02  0.34718145731E+02  0.51100000000E-03 0. -1.
        -11    1    3    3    0    0  0.54645275533E+01 -0.29520872467E+01  0.97237051469E+01  0.11538038071E+02  0.51100000000E-03 0.  1.
        -12    1    3    3    0    0  0.66346460707E+00  0.10485726828E+01  0.89694952574E+00  0.15310807973E+01  0.00000000000E+00 0.  1.
</event>
<event>
 7    1  0.2458979E-009  0.4778727E+02  0.7816164E-02  0.1312668E+00
        -11   -1    0    0    0    0  0.00000000000E+00  0.00000000000E+00  0.45593999997E+02  0.45594000000E+02  0.51100000000E-03 0.  1.
         11   -1    0    0    0    0 -0.00000000000E+00 -0.00000000000E+00 -0.45593999997E+02  0.45594000000E+02  0.51100000000E-03 0. -1.
    9900012    2    1    2    0    0 -0.22128596520E+02 -0.21253070818E+02 -0.30696178594E+02  0.47787272086E+02  0.20000004751E+02 0.  0.
        -12    1    1    2    0    0  0.22128596520E+02  0.21253070818E+02  0.30696178594E+02  0.43400727914E+02  0.00000000000E+00 0.  1.
         11    1    3    3    0    0 -0.25951236142E+01 -0.11259950205E+02 -0.10053116584E+02  0.15316210318E+02  0.51100000000E-03 0. -1.
        -11    1    3    3    0    0 -0.18461067583E+02 -0.41225099529E+01 -0.13947005298E+02  0.23501597003E+02  0.51100000000E-03 0.  1.
        -12    1    3    3    0    0 -0.10724053229E+01 -0.58706106603E+01 -0.66960567115E+01  0.89694647658E+01  0.00000000000E+00 0.  1.
</event>
<event>
 7    1  0.2458979E-009  0.4778727E+02  0.7816164E-02  0.1312668E+00
        -11   -1    0    0    0    0  0.00000000000E+00  0.00000000000E+00  0.45593999997E+02  0.45594000000E+02  0.51100000000E-03 0.  1.
         11   -1    0    0    0    0 -0.00000000000E+00 -0.00000000000E+00 -0.45593999997E+02  0.45594000000E+02  0.51100000000E-03 0. -1.
    9900012    2    1    2    0    0  0.28197153329E+02 -0.32796986135E+02 -0.35918878781E+01  0.47787269431E+02  0.19999992642E+02 0.  0.
        -12    1    1    2    0    0 -0.28197153329E+02  0.32796986135E+02  0.35918878781E+01  0.43400730569E+02  0.00000000000E+00 0.  1.
         11    1    3    3    0    0  0.61539427967E+01 -0.16524415849E+02 -0.63224197868E+01  0.18732333632E+02  0.51100000000E-03 0. -1.
        -11    1    3    3    0    0  0.10430793175E+02 -0.62410789213E+01  0.56991804255E+01  0.13425094791E+02  0.51100000000E-03 0.  1.
        -12    1    3    3    0    0  0.11612417358E+02 -0.10031491365E+02 -0.29686485169E+01  0.15629841007E+02  0.00000000000E+00 0.  1.
</event>
<event>
 7    1  0.2458979E-009  0.4778727E+02  0.7816164E-02  0.1312668E+00
        -11   -1    0    0    0    0  0.00000000000E+00  0.00000000000E+00  0.45593999997E+02  0.45594000000E+02  0.51100000000E-03 0.  1.
         11   -1    0    0    0    0 -0.00000000000E+00 -0.00000000000E+00 -0.45593999997E+02  0.45594000000E+02  0.51100000000E-03 0. -1.
    9900012    2    1    2    0    0 -0.24109562108E+02 -0.35137856655E+01 -0.35916648780E+02  0.47787270348E+02  0.19999996825E+02 0.  0.
        -12    1    1    2    0    0  0.24109562108E+02  0.35137856655E+01  0.35916648780E+02  0.43400729652E+02  0.00000000000E+00 0.  1.
         11    1    3    3    0    0 -0.19297776150E+02  0.11099392962E+01 -0.31764190009E+02  0.37183328210E+02  0.51100000000E-03 0. -1.
        -11    1    3    3    0    0 -0.11354262818E+01  0.47067652804E+00  0.16462426332E+01  0.20544693485E+01  0.51100000000E-03 0.  1.
        -12    1    3    3    0    0 -0.36763596760E+01 -0.50944014898E+01 -0.57987014039E+01  0.85494727895E+01  0.00000000000E+00 0.  1.
</event>
<event>
 7    1  0.2458979E-009  0.4778727E+02  0.7816164E-02  0.1312668E+00
        -11   -1    0    0    0    0  0.00000000000E+00  0.00000000000E+00  0.45593999997E+02  0.45594000000E+02  0.51100000000E-03 0.  1.
         11   -1    0    0    0    0 -0.00000000000E+00 -0.00000000000E+00 -0.45593999997E+02  0.45594000000E+02  0.51100000000E-03 0. -1.
    9900012    2    1    2    0    0  0.17435543033E+01  0.36920195580E+02 -0.22748246500E+02  0.47787267954E+02  0.19999985910E+02 0.  0.
        -12    1    1    2    0    0 -0.17435543033E+01 -0.36920195580E+02  0.22748246500E+02  0.43400732046E+02  0.00000000000E+00 0.  1.
         11    1    3    3    0    0  0.76996158402E+00  0.11664318738E+02 -0.83382879765E+01  0.14358837666E+02  0.51100000000E-03 0. -1.
        -11    1    3    3    0    0  0.62792101405E+01  0.69730543117E+01 -0.10336334312E+02  0.13960364382E+02  0.51100000000E-03 0.  1.
        -12    1    3    3    0    0 -0.53056174213E+01  0.18282822531E+02 -0.40736242116E+01  0.19468065906E+02  0.00000000000E+00 0.  1.
</event>
<event>
 7    1  0.2458979E-009  0.4778727E+02  0.7816164E-02  0.1312668E+00
        -11   -1    0    0    0    0  0.00000000000E+00  0.00000000000E+00  0.45593999997E+02  0.45594000000E+02  0.51100000000E-03 0.  1.
         11   -1    0    0    0    0 -0.00000000000E+00 -0.00000000000E+00 -0.45593999997E+02  0.45594000000E+02  0.51100000000E-03 0. -1.
    9900012    2    1    2    0    0 -0.26412941639E+02 -0.25257548128E+02 -0.23410165122E+02  0.47787273572E+02  0.20000011524E+02 0.  0.
        -12    1    1    2    0    0  0.26412941639E+02  0.25257548128E+02  0.23410165122E+02  0.43400726428E+02  0.00000000000E+00 0.  1.
         11    1    3    3    0    0 -0.71530191865E+01 -0.63854091346E+01 -0.99417837271E+01  0.13812248088E+02  0.51100000000E-03 0.  1.
        -11    1    3    3    0    0 -0.10838115442E+02 -0.18293744179E+02 -0.14094161018E+02  0.25510217511E+02  0.51100000000E-03 0. -1.
        -12    1    3    3    0    0 -0.84218070103E+01 -0.57839481414E+00  0.62577962278E+00  0.84648079728E+01  0.00000000000E+00 0.  1.
</event>
<event>
 7    1  0.2458979E-009  0.4778727E+02  0.7816164E-02  0.1312668E+00
        -11   -1    0    0    0    0  0.00000000000E+00  0.00000000000E+00  0.45593999997E+02  0.45594000000E+02  0.51100000000E-03 0.  1.
         11   -1    0    0    0    0 -0.00000000000E+00 -0.00000000000E+00 -0.45593999997E+02  0.45594000000E+02  0.51100000000E-03 0. -1.
    9900012    2    1    2    0    0 -0.71637963640E+01 -0.42208455243E+02 -0.71238827354E+01  0.47787269850E+02  0.19999994554E+02 0.  0.
        -12    1    1    2    0    0  0.71637963640E+01  0.42208455243E+02  0.71238827354E+01  0.43400730150E+02  0.00000000000E+00 0.  1.
         11    1    3    3    0    0  0.38931608984E+01 -0.19868417782E+02 -0.21047404193E+00  0.20247346160E+02  0.51100000000E-03 0. -1.
        -11    1    3    3    0    0 -0.54780608603E+01 -0.85153265582E+01  0.17828330237E+01  0.10280974226E+02  0.51100000000E-03 0.  1.
         12    1    3    3    0    0 -0.55788964021E+01 -0.13824710903E+02 -0.86962417172E+01  0.17258949464E+02  0.00000000000E+00 0. -1.
</event>
<event>
 7    1  0.2458979E-009  0.4778727E+02  0.7816164E-02  0.1312668E+00
        -11   -1    0    0    0    0  0.00000000000E+00  0.00000000000E+00  0.45593999997E+02  0.45594000000E+02  0.51100000000E-03 0.  1.
         11   -1    0    0    0    0 -0.00000000000E+00 -0.00000000000E+00 -0.45593999997E+02  0.45594000000E+02  0.51100000000E-03 0. -1.
    9900012    2    1    2    0    0  0.31834509540E+01  0.42854293697E+01 -0.43071151610E+02  0.47787269984E+02  0.19999995167E+02 0.  0.
        -12    1    1    2    0    0 -0.31834509540E+01 -0.42854293697E+01  0.43071151610E+02  0.43400730016E+02  0.00000000000E+00 0.  1.
         11    1    3    3    0    0  0.49166484525E+01  0.10737702272E+02 -0.29294669548E+02  0.31585587636E+02  0.51100000000E-03 0. -1.
        -11    1    3    3    0    0 -0.46228285284E+00 -0.37588936206E+01 -0.12315101121E+02  0.12884281221E+02  0.51100000000E-03 0.  1.
         12    1    3    3    0    0 -0.12709146456E+01 -0.26933792816E+01 -0.14613809409E+01  0.33174011282E+01  0.00000000000E+00 0. -1.
</event>
<event>
 7    1  0.2458979E-009  0.4778727E+02  0.7816164E-02  0.1312668E+00
        -11   -1    0    0    0    0  0.00000000000E+00  0.00000000000E+00  0.45593999997E+02  0.45594000000E+02  0.51100000000E-03 0.  1.
         11   -1    0    0    0    0 -0.00000000000E+00 -0.00000000000E+00 -0.45593999997E+02  0.45594000000E+02  0.51100000000E-03 0. -1.
    9900012    2    1    2    0    0 -0.38145233749E+02  0.11702318486E+02 -0.17076890289E+02  0.47787270771E+02  0.19999998751E+02 0.  0.
        -12    1    1    2    0    0  0.38145233749E+02 -0.11702318486E+02  0.17076890289E+02  0.43400729229E+02  0.00000000000E+00 0.  1.
         11    1    3    3    0    0 -0.27185122730E+02  0.13478369960E+02 -0.54149907428E+01  0.30822386015E+02  0.51100000000E-03 0. -1.
        -11    1    3    3    0    0 -0.10886727800E+02 -0.25776940186E+01 -0.95664610472E+01  0.14720140145E+02  0.51100000000E-03 0.  1.
        -12    1    3    3    0    0 -0.73383218410E-01  0.80164254453E+00 -0.20954384989E+01  0.22447446110E+01  0.00000000000E+00 0.  1.
</event>
<event>
 7    1  0.2458979E-009  0.4778727E+02  0.7816164E-02  0.1312668E+00
        -11   -1    0    0    0    0  0.00000000000E+00  0.00000000000E+00  0.45593999997E+02  0.45594000000E+02  0.51100000000E-03 0.  1.
         11   -1    0    0    0    0 -0.00000000000E+00 -0.00000000000E+00 -0.45593999997E+02  0.45594000000E+02  0.51100000000E-03 0. -1.
    9900012    2    1    2    0    0  0.35124429686E+02 -0.24899632480E+02 -0.54686172577E+01  0.47787273818E+02  0.20000012646E+02 0.  0.
        -12    1    1    2    0    0 -0.35124429686E+02  0.24899632480E+02  0.54686172577E+01  0.43400726182E+02  0.00000000000E+00 0.  1.
         11    1    3    3    0    0  0.77916212161E+01 -0.14095401670E+01 -0.96808604778E+00  0.79770518059E+01  0.51100000000E-03 0. -1.
        -11    1    3    3    0    0  0.29166405529E+02 -0.22022945782E+02 -0.59823423334E+01  0.37033468274E+02  0.51100000000E-03 0.  1.
        -12    1    3    3    0    0 -0.18335970583E+01 -0.14671465305E+01  0.14818111234E+01  0.27767537377E+01  0.00000000000E+00 0.  1.
</event>
<event>
 7    1  0.2458979E-009  0.4778727E+02  0.7816164E-02  0.1312668E+00
        -11   -1    0    0    0    0  0.00000000000E+00  0.00000000000E+00  0.45593999997E+02  0.45594000000E+02  0.51100000000E-03 0. -1.
         11   -1    0    0    0    0 -0.00000000000E+00 -0.00000000000E+00 -0.45593999997E+02  0.45594000000E+02  0.51100000000E-03 0.  1.
    9900012    2    1    2    0    0 -0.22584518847E+02 -0.36843685791E+02 -0.40131791815E+01  0.47787270958E+02  0.19999999606E+02 0.  0.
        -12    1    1    2    0    0  0.22584518847E+02  0.36843685791E+02  0.40131791815E+01  0.43400729042E+02  0.00000000000E+00 0.  1.
         11    1    3    3    0    0 -0.70693815001E+01 -0.17197033204E+02  0.47855035861E+01  0.19199352871E+02  0.51100000000E-03 0. -1.
        -11    1    3    3    0    0 -0.16514979728E+02 -0.14570251690E+02 -0.69648607615E+01  0.23098616310E+02  0.51100000000E-03 0.  1.
         12    1    3    3    0    0  0.99984238160E+00 -0.50764008970E+01 -0.18338220061E+01  0.54893017776E+01  0.00000000000E+00 0. -1.
</event>
<event>
 7    1  0.2458979E-009  0.4778727E+02  0.7816164E-02  0.1312668E+00
        -11   -1    0    0    0    0  0.00000000000E+00  0.00000000000E+00  0.45593999997E+02  0.45594000000E+02  0.51100000000E-03 0.  1.
         11   -1    0    0    0    0 -0.00000000000E+00 -0.00000000000E+00 -0.45593999997E+02  0.45594000000E+02  0.51100000000E-03 0. -1.
    9900012    2    1    2    0    0  0.26557632017E+02 -0.23937619405E+02 -0.24602960114E+02  0.47787273192E+02  0.20000009792E+02 0.  0.
        -12    1    1    2    0    0 -0.26557632017E+02  0.23937619405E+02  0.24602960114E+02  0.43400726808E+02  0.00000000000E+00 0.  1.
         11    1    3    3    0    0  0.14301745466E+02 -0.13212707833E+02 -0.19279761066E+02  0.27401181702E+02  0.51100000000E-03 0. -1.
        -11    1    3    3    0    0  0.77689662750E+01  0.22696209998E+00 -0.12665533292E+01  0.78748019895E+01  0.51100000000E-03 0.  1.
        -12    1    3    3    0    0  0.44869202754E+01 -0.10951873672E+02 -0.40566457188E+01  0.12511289501E+02  0.00000000000E+00 0.  1.
</event>
<event>
 7    1  0.2458979E-009  0.4778727E+02  0.7816164E-02  0.1312668E+00
        -11   -1    0    0    0    0  0.00000000000E+00  0.00000000000E+00  0.45593999997E+02  0.45594000000E+02  0.51100000000E-03 0.  1.
         11   -1    0    0    0    0 -0.00000000000E+00 -0.00000000000E+00 -0.45593999997E+02  0.45594000000E+02  0.51100000000E-03 0. -1.
    9900012    2    1    2    0    0  0.24306494638E+02  0.48992513592E+00 -0.35952437703E+02  0.47787268612E+02  0.19999988912E+02 0.  0.
        -12    1    1    2    0    0 -0.24306494638E+02 -0.48992513592E+00  0.35952437703E+02  0.43400731388E+02  0.00000000000E+00 0.  1.
         11    1    3    3    0    0 -0.15238418856E+01 -0.19781309263E+01 -0.70311225223E+01  0.74613524404E+01  0.51100000000E-03 0. -1.
        -11    1    3    3    0    0  0.19299545214E+02  0.48894145692E+01 -0.15598129552E+02  0.25291905149E+02  0.51100000000E-03 0.  1.
         12    1    3    3    0    0  0.65307913091E+01 -0.24213585069E+01 -0.13323185629E+02  0.15034011023E+02  0.00000000000E+00 0. -1.
</event>
<event>
 7    1  0.2458979E-009  0.4778727E+02  0.7816164E-02  0.1312668E+00
        -11   -1    0    0    0    0  0.00000000000E+00  0.00000000000E+00  0.45593999997E+02  0.45594000000E+02  0.51100000000E-03 0.  1.
         11   -1    0    0    0    0 -0.00000000000E+00 -0.00000000000E+00 -0.45593999997E+02  0.45594000000E+02  0.51100000000E-03 0. -1.
    9900012    2    1    2    0    0 -0.37631667586E+02  0.20412732672E+02 -0.71275106659E+01  0.47787268800E+02  0.19999989766E+02 0.  0.
        -12    1    1    2    0    0  0.37631667586E+02 -0.20412732672E+02  0.71275106659E+01  0.43400731200E+02  0.00000000000E+00 0.  1.
         11    1    3    3    0    0 -0.24749746566E+02  0.19750487389E+02 -0.46906345123E+01  0.32009900962E+02  0.51100000000E-03 0. -1.
        -11    1    3    3    0    0 -0.78733215297E+01 -0.16565991064E+01 -0.52253403513E+01  0.95936278101E+01  0.51100000000E-03 0.  1.
         12    1    3    3    0    0 -0.50085994900E+01  0.23188443889E+01  0.27884641977E+01  0.61837400279E+01  0.00000000000E+00 0. -1.
</event>
<event>
 7    1  0.2458979E-009  0.4778727E+02  0.7816164E-02  0.1312668E+00
        -11   -1    0    0    0    0  0.00000000000E+00  0.00000000000E+00  0.45593999997E+02  0.45594000000E+02  0.51100000000E-03 0. -1.
         11   -1    0    0    0    0 -0.00000000000E+00 -0.00000000000E+00 -0.45593999997E+02  0.45594000000E+02  0.51100000000E-03 0.  1.
    9900012    2    1    2    0    0 -0.42005670883E+01  0.75861403967E+01  0.42525631702E+02  0.47787266807E+02  0.19999980681E+02 0.  0.
        -12    1    1    2    0    0  0.42005670883E+01 -0.75861403967E+01 -0.42525631702E+02  0.43400733193E+02  0.00000000000E+00 0.  1.
         11    1    3    3    0    0 -0.91334286917E+01  0.48171018520E+01  0.32742321087E+02  0.34331961499E+02  0.51100000000E-03 0. -1.
        -11    1    3    3    0    0  0.37743978065E+01 -0.14948016501E+00  0.69620640976E+00  0.38409799202E+01  0.51100000000E-03 0.  1.
        -12    1    3    3    0    0  0.11584637969E+01  0.29185187098E+01  0.90871042054E+01  0.96143253881E+01  0.00000000000E+00 0.  1.
</event>
<event>
 7    1  0.2458979E-009  0.4778727E+02  0.7816164E-02  0.1312668E+00
        -11   -1    0    0    0    0  0.00000000000E+00  0.00000000000E+00  0.45593999997E+02  0.45594000000E+02  0.51100000000E-03 0. -1.
         11   -1    0    0    0    0 -0.00000000000E+00 -0.00000000000E+00 -0.45593999997E+02  0.45594000000E+02  0.51100000000E-03 0.  1.
    9900012    2    1    2    0    0 -0.32979050615E+02  0.25733400392E+02  0.11567100990E+02  0.47787268434E+02  0.19999988096E+02 0.  0.
        -12    1    1    2    0    0  0.32979050615E+02 -0.25733400392E+02 -0.11567100990E+02  0.43400731566E+02  0.00000000000E+00 0.  1.
         11    1    3    3    0    0 -0.55554501684E+01  0.13675034674E+02  0.86840744647E+00  0.14785930193E+02  0.51100000000E-03 0. -1.
        -11    1    3    3    0    0 -0.10652309914E+01  0.28981318400E+01  0.23317739689E+01  0.38692448011E+01  0.51100000000E-03 0.  1.
         12    1    3    3    0    0 -0.26358369455E+02  0.91602338781E+01  0.83669195742E+01  0.29132093440E+02  0.00000000000E+00 0. -1.
</event>
<event>
 7    1  0.2458979E-009  0.4778727E+02  0.7816164E-02  0.1312668E+00
        -11   -1    0    0    0    0  0.00000000000E+00  0.00000000000E+00  0.45593999997E+02  0.45594000000E+02  0.51100000000E-03 0.  1.
         11   -1    0    0    0    0 -0.00000000000E+00 -0.00000000000E+00 -0.45593999997E+02  0.45594000000E+02  0.51100000000E-03 0. -1.
    9900012    2    1    2    0    0 -0.70849375976E+01 -0.31415444325E+02 -0.29094621344E+02  0.47787268738E+02  0.19999989486E+02 0.  0.
        -12    1    1    2    0    0  0.70849375976E+01  0.31415444325E+02  0.29094621344E+02  0.43400731262E+02  0.00000000000E+00 0.  1.
         11    1    3    3    0    0 -0.28559150428E+01 -0.16268902063E+02 -0.10722642229E+02  0.19692853569E+02  0.51100000000E-03 0. -1.
        -11    1    3    3    0    0  0.89967573055E+00 -0.13508592056E+01 -0.11910139519E+02  0.12020218826E+02  0.51100000000E-03 0.  1.
        -12    1    3    3    0    0 -0.51286982854E+01 -0.13795683057E+02 -0.64618395955E+01  0.16074196343E+02  0.00000000000E+00 0.  1.
</event>
<event>
 7    1  0.2458979E-009  0.4778727E+02  0.7816164E-02  0.1312668E+00
        -11   -1    0    0    0    0  0.00000000000E+00  0.00000000000E+00  0.45593999997E+02  0.45594000000E+02  0.51100000000E-03 0.  1.
         11   -1    0    0    0    0 -0.00000000000E+00 -0.00000000000E+00 -0.45593999997E+02  0.45594000000E+02  0.51100000000E-03 0. -1.
    9900012    2    1    2    0    0 -0.36710805391E+02  0.16845994554E+02 -0.15879315382E+02  0.47787269338E+02  0.19999992219E+02 0.  0.
        -12    1    1    2    0    0  0.36710805391E+02 -0.16845994554E+02  0.15879315382E+02  0.43400730662E+02  0.00000000000E+00 0.  1.
         11    1    3    3    0    0 -0.53511088054E+01 -0.72435620749E+00 -0.75751703493E+01  0.93028094383E+01  0.51100000000E-03 0.  1.
        -11    1    3    3    0    0 -0.25310913913E+02  0.17297511084E+02 -0.99123869611E+01  0.32219585167E+02  0.51100000000E-03 0. -1.
        -12    1    3    3    0    0 -0.60487826734E+01  0.27283967789E+00  0.16082419281E+01  0.62648747329E+01  0.00000000000E+00 0.  1.
</event>
<event>
 7    1  0.2458979E-009  0.4778727E+02  0.7816164E-02  0.1312668E+00
        -11   -1    0    0    0    0  0.00000000000E+00  0.00000000000E+00  0.45593999997E+02  0.45594000000E+02  0.51100000000E-03 0.  1.
         11   -1    0    0    0    0 -0.00000000000E+00 -0.00000000000E+00 -0.45593999997E+02  0.45594000000E+02  0.51100000000E-03 0. -1.
    9900012    2    1    2    0    0  0.20450282186E+01  0.24273045208E+02 -0.35920200232E+02  0.47787266725E+02  0.19999980305E+02 0.  0.
        -12    1    1    2    0    0 -0.20450282186E+01 -0.24273045208E+02  0.35920200232E+02  0.43400733275E+02  0.00000000000E+00 0.  1.
         11    1    3    3    0    0  0.23096591772E+01  0.18987818061E+02 -0.31556898485E+02  0.36901349603E+02  0.51100000000E-03 0. -1.
        -11    1    3    3    0    0 -0.17452373547E+01 -0.78866996335E+00  0.14083999629E+01  0.23772766881E+01  0.51100000000E-03 0.  1.
         12    1    3    3    0    0  0.14806063960E+01  0.60738971105E+01 -0.57717017100E+01  0.85086404342E+01  0.00000000000E+00 0. -1.
</event>
<event>
 7    1  0.2458979E-009  0.4778727E+02  0.7816164E-02  0.1312668E+00
        -11   -1    0    0    0    0  0.00000000000E+00  0.00000000000E+00  0.45593999997E+02  0.45594000000E+02  0.51100000000E-03 0. -1.
         11   -1    0    0    0    0 -0.00000000000E+00 -0.00000000000E+00 -0.45593999997E+02  0.45594000000E+02  0.51100000000E-03 0.  1.
    9900012    2    1    2    0    0 -0.12631569876E+02  0.29160935839E+02 -0.29558526272E+02  0.47787271758E+02  0.20000003255E+02 0.  0.
        -12    1    1    2    0    0  0.12631569876E+02 -0.29160935839E+02  0.29558526272E+02  0.43400728242E+02  0.00000000000E+00 0.  1.
         11    1    3    3    0    0 -0.62748110047E+01 -0.10683613186E+01 -0.49276683994E+01  0.80496313684E+01  0.51100000000E-03 0. -1.
        -11    1    3    3    0    0 -0.37708557870E+00  0.11637764209E+02 -0.87161417652E+01  0.14544788649E+02  0.51100000000E-03 0.  1.
         12    1    3    3    0    0 -0.59796732924E+01  0.18591532949E+02 -0.15914716107E+02  0.25192851741E+02  0.00000000000E+00 0. -1.
</event>
<event>
 7    1  0.2458979E-009  0.4778727E+02  0.7816164E-02  0.1312668E+00
        -11   -1    0    0    0    0  0.00000000000E+00  0.00000000000E+00  0.45593999997E+02  0.45594000000E+02  0.51100000000E-03 0. -1.
         11   -1    0    0    0    0 -0.00000000000E+00 -0.00000000000E+00 -0.45593999997E+02  0.45594000000E+02  0.51100000000E-03 0.  1.
    9900012    2    1    2    0    0  0.40391129116E+02  0.31797462712E+01  0.15558563994E+02  0.47787274071E+02  0.20000013799E+02 0.  0.
        -12    1    1    2    0    0 -0.40391129116E+02 -0.31797462712E+01 -0.15558563994E+02  0.43400725929E+02  0.00000000000E+00 0.  1.
         11    1    3    3    0    0  0.30059355290E+02 -0.33170963776E+01  0.12466110226E+02  0.32710424535E+02  0.51100000000E-03 0. -1.
        -11    1    3    3    0    0  0.92082690406E+01  0.68590355969E+01  0.52438690187E+01  0.12622866180E+02  0.51100000000E-03 0.  1.
         12    1    3    3    0    0  0.11235047853E+01 -0.36219294816E+00 -0.21514152502E+01  0.24539833563E+01  0.00000000000E+00 0. -1.
</event>
<event>
 7    1  0.2458979E-009  0.4778727E+02  0.7816164E-02  0.1312668E+00
        -11   -1    0    0    0    0  0.00000000000E+00  0.00000000000E+00  0.45593999997E+02  0.45594000000E+02  0.51100000000E-03 0.  1.
         11   -1    0    0    0    0 -0.00000000000E+00 -0.00000000000E+00 -0.45593999997E+02  0.45594000000E+02  0.51100000000E-03 0. -1.
    9900012    2    1    2    0    0  0.27445183971E+02  0.94433403717E+01 -0.32267758556E+02  0.47787273707E+02  0.20000012139E+02 0.  0.
        -12    1    1    2    0    0 -0.27445183971E+02 -0.94433403717E+01  0.32267758556E+02  0.43400726293E+02  0.00000000000E+00 0.  1.
         11    1    3    3    0    0  0.15408372108E+02  0.45314679023E+01 -0.26693032744E+02  0.31152369568E+02  0.51100000000E-03 0. -1.
        -11    1    3    3    0    0  0.12599930663E+02  0.46563357413E+01 -0.27090105356E+01  0.13703227853E+02  0.51100000000E-03 0.  1.
        -12    1    3    3    0    0 -0.56311880010E+00  0.25553672812E+00 -0.28657152761E+01  0.29316762861E+01  0.00000000000E+00 0.  1.
</event>
<event>
 7    1  0.2458979E-009  0.4778728E+02  0.7816164E-02  0.1312668E+00
        -11   -1    0    0    0    0  0.00000000000E+00  0.00000000000E+00  0.45593999997E+02  0.45594000000E+02  0.51100000000E-03 0.  1.
         11   -1    0    0    0    0 -0.00000000000E+00 -0.00000000000E+00 -0.45593999997E+02  0.45594000000E+02  0.51100000000E-03 0. -1.
    9900012    2    1    2    0    0  0.24499350180E+02  0.33857471875E+02 -0.11707957838E+02  0.47787276069E+02  0.20000022908E+02 0.  0.
        -12    1    1    2    0    0 -0.24499350180E+02 -0.33857471875E+02  0.11707957838E+02  0.43400723931E+02  0.00000000000E+00 0.  1.
         11    1    3    3    0    0  0.31592436935E+01  0.96469954761E+01 -0.49623670698E+01  0.11299134021E+02  0.51100000000E-03 0. -1.
        -11    1    3    3    0    0  0.83924334468E+01  0.25917305674E+01 -0.70874645432E+01  0.11286370559E+02  0.51100000000E-03 0.  1.
        -12    1    3    3    0    0  0.12947673040E+02  0.21618745831E+02  0.34187377478E+00  0.25201771488E+02  0.00000000000E+00 0.  1.
</event>
<event>
 7    1  0.2458979E-009  0.4778727E+02  0.7816164E-02  0.1312668E+00
        -11   -1    0    0    0    0  0.00000000000E+00  0.00000000000E+00  0.45593999997E+02  0.45594000000E+02  0.51100000000E-03 0.  1.
         11   -1    0    0    0    0 -0.00000000000E+00 -0.00000000000E+00 -0.45593999997E+02  0.45594000000E+02  0.51100000000E-03 0. -1.
    9900012    2    1    2    0    0 -0.28449133376E+02  0.25891843173E+02  0.20096830756E+02  0.47787270293E+02  0.19999996572E+02 0.  0.
        -12    1    1    2    0    0  0.28449133376E+02 -0.25891843173E+02 -0.20096830756E+02  0.43400729707E+02  0.00000000000E+00 0.  1.
         11    1    3    3    0    0 -0.91667424209E+01  0.25682472766E+01 -0.19900951785E+01  0.97255097432E+01  0.51100000000E-03 0.  1.
        -11    1    3    3    0    0 -0.14126227047E+02  0.15248088766E+02  0.18515232151E+02  0.27836456733E+02  0.51100000000E-03 0. -1.
         12    1    3    3    0    0 -0.51561639079E+01  0.80755071297E+01  0.35716937831E+01  0.10225303816E+02  0.00000000000E+00 0. -1.
</event>
<event>
 7    1  0.2458979E-009  0.4778727E+02  0.7816164E-02  0.1312668E+00
        -11   -1    0    0    0    0  0.00000000000E+00  0.00000000000E+00  0.45593999997E+02  0.45594000000E+02  0.51100000000E-03 0.  1.
         11   -1    0    0    0    0 -0.00000000000E+00 -0.00000000000E+00 -0.45593999997E+02  0.45594000000E+02  0.51100000000E-03 0. -1.
    9900012    2    1    2    0    0 -0.22884387354E+02 -0.32727638276E+02 -0.16994984926E+02  0.47787274149E+02  0.20000014156E+02 0.  0.
        -12    1    1    2    0    0  0.22884387354E+02  0.32727638276E+02  0.16994984926E+02  0.43400725851E+02  0.00000000000E+00 0.  1.
         11    1    3    3    0    0 -0.14993964771E+02 -0.82131824109E+01 -0.52197253047E+01  0.17875146919E+02  0.51100000000E-03 0. -1.
        -11    1    3    3    0    0 -0.25752715312E+01 -0.18577267946E+02 -0.11371754165E+02  0.21933164406E+02  0.51100000000E-03 0.  1.
        -12    1    3    3    0    0 -0.53151510521E+01 -0.59371879195E+01 -0.40350545665E+00  0.79789628243E+01  0.00000000000E+00 0.  1.
</event>
<event>
 7    1  0.2458979E-009  0.4778727E+02  0.7816164E-02  0.1312668E+00
        -11   -1    0    0    0    0  0.00000000000E+00  0.00000000000E+00  0.45593999997E+02  0.45594000000E+02  0.51100000000E-03 0. -1.
         11   -1    0    0    0    0 -0.00000000000E+00 -0.00000000000E+00 -0.45593999997E+02  0.45594000000E+02  0.51100000000E-03 0.  1.
    9900012    2    1    2    0    0 -0.27668498759E+01  0.38971152928E+02  0.18900190210E+02  0.47787269490E+02  0.19999992915E+02 0.  0.
        -12    1    1    2    0    0  0.27668498759E+01 -0.38971152928E+02 -0.18900190210E+02  0.43400730510E+02  0.00000000000E+00 0.  1.
         11    1    3    3    0    0 -0.74295067498E+01  0.28426183333E+02  0.14333727344E+02  0.32690995844E+02  0.51100000000E-03 0. -1.
        -11    1    3    3    0    0  0.13034605862E+01 -0.14349453680E+01  0.44014170867E+00  0.19879141565E+01  0.51100000000E-03 0.  1.
         12    1    3    3    0    0  0.33591962877E+01  0.11979914963E+02  0.41263211575E+01  0.13108359490E+02  0.00000000000E+00 0. -1.
</event>
<event>
 7    1  0.2458979E-009  0.4778726E+02  0.7816164E-02  0.1312668E+00
        -11   -1    0    0    0    0  0.00000000000E+00  0.00000000000E+00  0.45593999997E+02  0.45594000000E+02  0.51100000000E-03 0.  1.
         11   -1    0    0    0    0 -0.00000000000E+00 -0.00000000000E+00 -0.45593999997E+02  0.45594000000E+02  0.51100000000E-03 0. -1.
    9900012    2    1    2    0    0 -0.40057777567E+02 -0.15515684726E+02  0.61856200160E+01  0.47787263703E+02  0.19999966526E+02 0.  0.
        -12    1    1    2    0    0  0.40057777567E+02  0.15515684726E+02 -0.61856200160E+01  0.43400736297E+02  0.00000000000E+00 0.  1.
         11    1    3    3    0    0 -0.32924461554E+02 -0.19626967752E+02  0.79141802874E+01  0.39139140022E+02  0.51100000000E-03 0. -1.
        -11    1    3    3    0    0 -0.51884591831E+01  0.20013490738E+01 -0.15499367500E+01  0.57730244239E+01  0.51100000000E-03 0.  1.
         12    1    3    3    0    0 -0.19448568306E+01  0.21099339525E+01 -0.17862352142E+00  0.28750992570E+01  0.00000000000E+00 0. -1.
</event>
<event>
 7    1  0.2458979E-009  0.4778727E+02  0.7816164E-02  0.1312668E+00
        -11   -1    0    0    0    0  0.00000000000E+00  0.00000000000E+00  0.45593999997E+02  0.45594000000E+02  0.51100000000E-03 0. -1.
         11   -1    0    0    0    0 -0.00000000000E+00 -0.00000000000E+00 -0.45593999997E+02  0.45594000000E+02  0.51100000000E-03 0.  1.
    9900012    2    1    2    0    0  0.33279527495E+02  0.21848228075E+02  0.17284418356E+02  0.47787272607E+02  0.20000007126E+02 0.  0.
        -12    1    1    2    0    0 -0.33279527495E+02 -0.21848228075E+02 -0.17284418356E+02  0.43400727393E+02  0.00000000000E+00 0.  1.
         11    1    3    3    0    0  0.15190177831E+02  0.12070425157E+02  0.44200869974E+01  0.19899091319E+02  0.51100000000E-03 0. -1.
        -11    1    3    3    0    0  0.10304238684E+01  0.37777058625E+01  0.83910873392E+01  0.92597614400E+01  0.51100000000E-03 0.  1.
        -12    1    3    3    0    0  0.17058925795E+02  0.60000970554E+01  0.44732440197E+01  0.18628419848E+02  0.00000000000E+00 0.  1.
</event>
<event>
 7    1  0.2458979E-009  0.4778727E+02  0.7816164E-02  0.1312668E+00
        -11   -1    0    0    0    0  0.00000000000E+00  0.00000000000E+00  0.45593999997E+02  0.45594000000E+02  0.51100000000E-03 0. -1.
         11   -1    0    0    0    0 -0.00000000000E+00 -0.00000000000E+00 -0.45593999997E+02  0.45594000000E+02  0.51100000000E-03 0.  1.
    9900012    2    1    2    0    0  0.24130787964E+02 -0.30385273580E+02  0.19443854085E+02  0.47787271435E+02  0.20000001781E+02 0.  0.
        -12    1    1    2    0    0 -0.24130787964E+02  0.30385273580E+02 -0.19443854085E+02  0.43400728565E+02  0.00000000000E+00 0.  1.
         11    1    3    3    0    0  0.13270086758E+02 -0.20267905730E+02  0.21289697791E+01  0.24319040232E+02  0.51100000000E-03 0.  1.
        -11    1    3    3    0    0  0.18381479183E+01 -0.48709604187E+00  0.28360068869E+00  0.19226231912E+01  0.51100000000E-03 0. -1.
         12    1    3    3    0    0  0.90225532879E+01 -0.96302718083E+01  0.17031283618E+02  0.21545608012E+02  0.00000000000E+00 0. -1.
</event>
<event>
 7    1  0.2458979E-009  0.4778727E+02  0.7816164E-02  0.1312668E+00
        -11   -1    0    0    0    0  0.00000000000E+00  0.00000000000E+00  0.45593999997E+02  0.45594000000E+02  0.51100000000E-03 0. -1.
         11   -1    0    0    0    0 -0.00000000000E+00 -0.00000000000E+00 -0.45593999997E+02  0.45594000000E+02  0.51100000000E-03 0.  1.
    9900012    2    1    2    0    0 -0.12164214201E+02  0.37614202420E+02  0.17911655310E+02  0.47787265827E+02  0.19999976212E+02 0.  0.
        -12    1    1    2    0    0  0.12164214201E+02 -0.37614202420E+02 -0.17911655310E+02  0.43400734173E+02  0.00000000000E+00 0.  1.
         11    1    3    3    0    0 -0.69684381736E+01  0.79940879831E+00  0.17023565077E+01  0.72177699428E+01  0.51100000000E-03 0. -1.
        -11    1    3    3    0    0 -0.44855362126E+01  0.30593285008E+02  0.13798639810E+02  0.33859586288E+02  0.51100000000E-03 0.  1.
         12    1    3    3    0    0 -0.71023981463E+00  0.62215086129E+01  0.24106589932E+01  0.67099095967E+01  0.00000000000E+00 0. -1.
</event>
<event>
 7    1  0.2458979E-009  0.4778727E+02  0.7816164E-02  0.1312668E+00
        -11   -1    0    0    0    0  0.00000000000E+00  0.00000000000E+00  0.45593999997E+02  0.45594000000E+02  0.51100000000E-03 0.  1.
         11   -1    0    0    0    0 -0.00000000000E+00 -0.00000000000E+00 -0.45593999997E+02  0.45594000000E+02  0.51100000000E-03 0. -1.
    9900012    2    1    2    0    0  0.66047626598E+01  0.40275821502E+02 -0.14760037500E+02  0.47787269655E+02  0.19999993666E+02 0.  0.
        -12    1    1    2    0    0 -0.66047626598E+01 -0.40275821502E+02  0.14760037500E+02  0.43400730345E+02  0.00000000000E+00 0.  1.
         11    1    3    3    0    0  0.11814350189E+01  0.10318117225E+02 -0.10991450460E+02  0.15121882001E+02  0.51100000000E-03 0. -1.
        -11    1    3    3    0    0  0.60352072395E+01  0.28124554114E+02 -0.38336156477E+00  0.28767364093E+02  0.51100000000E-03 0.  1.
        -12    1    3    3    0    0 -0.61187959852E+00  0.18331501631E+01 -0.33852254748E+01  0.38980235606E+01  0.00000000000E+00 0.  1.
</event>
<event>
 7    1  0.2458979E-009  0.4778727E+02  0.7816164E-02  0.1312668E+00
        -11   -1    0    0    0    0  0.00000000000E+00  0.00000000000E+00  0.45593999997E+02  0.45594000000E+02  0.51100000000E-03 0.  1.
         11   -1    0    0    0    0 -0.00000000000E+00 -0.00000000000E+00 -0.45593999997E+02  0.45594000000E+02  0.51100000000E-03 0. -1.
    9900012    2    1    2    0    0  0.46985781926E+01 -0.23148113300E+02 -0.36410317958E+02  0.47787273737E+02  0.20000012277E+02 0.  0.
        -12    1    1    2    0    0 -0.46985781926E+01  0.23148113300E+02  0.36410317958E+02  0.43400726263E+02  0.00000000000E+00 0.  1.
         11    1    3    3    0    0 -0.31891829254E+01 -0.34568021086E+01 -0.20584242838E+02  0.21114720505E+02  0.51100000000E-03 0. -1.
        -11    1    3    3    0    0  0.78143443565E+01 -0.17659598086E+02 -0.13388588415E+02  0.23498503831E+02  0.51100000000E-03 0.  1.
        -12    1    3    3    0    0  0.73416761451E-01 -0.20317131058E+01 -0.24374867047E+01  0.31740494011E+01  0.00000000000E+00 0.  1.
</event>
<event>
 7    1  0.2458979E-009  0.4778727E+02  0.7816164E-02  0.1312668E+00
        -11   -1    0    0    0    0  0.00000000000E+00  0.00000000000E+00  0.45593999997E+02  0.45594000000E+02  0.51100000000E-03 0. -1.
         11   -1    0    0    0    0 -0.00000000000E+00 -0.00000000000E+00 -0.45593999997E+02  0.45594000000E+02  0.51100000000E-03 0.  1.
    9900012    2    1    2    0    0  0.18332397863E+02  0.38893681889E+02 -0.59015085315E+01  0.47787272987E+02  0.20000008858E+02 0.  0.
        -12    1    1    2    0    0 -0.18332397863E+02 -0.38893681889E+02  0.59015085315E+01  0.43400727013E+02  0.00000000000E+00 0.  1.
         11    1    3    3    0    0  0.22999424177E+01  0.47488202181E+01  0.28054235043E+01  0.59759041064E+01  0.51100000000E-03 0. -1.
        -11    1    3    3    0    0  0.11162579349E+02  0.25129818148E+02  0.12475632310E+01  0.27525757976E+02  0.51100000000E-03 0.  1.
        -12    1    3    3    0    0  0.48698760961E+01  0.90150435223E+01 -0.99544952668E+01  0.14285610905E+02  0.00000000000E+00 0.  1.
</event>
<event>
 7    1  0.2458979E-009  0.4778730E+02  0.7816164E-02  0.1312668E+00
        -11   -1    0    0    0    0  0.00000000000E+00  0.00000000000E+00  0.45593999997E+02  0.45594000000E+02  0.51100000000E-03 0.  1.
         11   -1    0    0    0    0 -0.00000000000E+00 -0.00000000000E+00 -0.45593999997E+02  0.45594000000E+02  0.51100000000E-03 0. -1.
    9900012    2    1    2    0    0 -0.30555388921E+02  0.30810360986E+02 -0.84315522935E+00  0.47787296700E+02  0.20000116974E+02 0.  0.
        -12    1    1    2    0    0  0.30555388921E+02 -0.30810360986E+02  0.84315522935E+00  0.43400703300E+02  0.00000000000E+00 0.  1.
         11    1    3    3    0    0 -0.10577778647E+02  0.20378666469E+02 -0.76432791135E+00  0.22973107007E+02  0.51100000000E-03 0. -1.
        -11    1    3    3    0    0 -0.15707256479E+02  0.44764890538E+01 -0.35367703140E+01  0.16711241870E+02  0.51100000000E-03 0.  1.
        -12    1    3    3    0    0 -0.42703537956E+01  0.59552054634E+01  0.34579429960E+01  0.81029478225E+01  0.00000000000E+00 0.  1.
</event>
<event>
 7    1  0.2458979E-009  0.4778727E+02  0.7816164E-02  0.1312668E+00
        -11   -1    0    0    0    0  0.00000000000E+00  0.00000000000E+00  0.45593999997E+02  0.45594000000E+02  0.51100000000E-03 0. -1.
         11   -1    0    0    0    0 -0.00000000000E+00 -0.00000000000E+00 -0.45593999997E+02  0.45594000000E+02  0.51100000000E-03 0.  1.
    9900012    2    1    2    0    0  0.28755678549E+02  0.32497180141E+02 -0.81697298282E+00  0.47787271771E+02  0.20000003314E+02 0.  0.
        -12    1    1    2    0    0 -0.28755678549E+02 -0.32497180141E+02  0.81697298282E+00  0.43400728229E+02  0.00000000000E+00 0.  1.
         11    1    3    3    0    0  0.10739538456E+01  0.14222438821E+02  0.51747556953E+00  0.14272313201E+02  0.51100000000E-03 0. -1.
        -11    1    3    3    0    0  0.14220733912E+02  0.96193363922E+01 -0.29862182683E+01  0.17426370977E+02  0.51100000000E-03 0.  1.
         12    1    3    3    0    0  0.13460990792E+02  0.86554049278E+01  0.16517697160E+01  0.16088587594E+02  0.00000000000E+00 0. -1.
</event>
<event>
 7    1  0.2458979E-009  0.4778727E+02  0.7816164E-02  0.1312668E+00
        -11   -1    0    0    0    0  0.00000000000E+00  0.00000000000E+00  0.45593999997E+02  0.45594000000E+02  0.51100000000E-03 0. -1.
         11   -1    0    0    0    0 -0.00000000000E+00 -0.00000000000E+00 -0.45593999997E+02  0.45594000000E+02  0.51100000000E-03 0.  1.
    9900012    2    1    2    0    0 -0.35320201564E+02  0.23740470928E+02 -0.85144901573E+01  0.47787272574E+02  0.20000006976E+02 0.  0.
        -12    1    1    2    0    0  0.35320201564E+02 -0.23740470928E+02  0.85144901573E+01  0.43400727426E+02  0.00000000000E+00 0.  1.
         11    1    3    3    0    0 -0.12616085441E+02  0.64357421016E+01 -0.10185391252E+02  0.17444958683E+02  0.51100000000E-03 0. -1.
        -11    1    3    3    0    0 -0.54372759199E+01  0.71546355513E+01 -0.35205454692E+01  0.96512703808E+01  0.51100000000E-03 0.  1.
         12    1    3    3    0    0 -0.17266840204E+02  0.10150093275E+02  0.51914465639E+01  0.20691043510E+02  0.00000000000E+00 0. -1.
</event>
<event>
 7    1  0.2458979E-009  0.4778727E+02  0.7816164E-02  0.1312668E+00
        -11   -1    0    0    0    0  0.00000000000E+00  0.00000000000E+00  0.45593999997E+02  0.45594000000E+02  0.51100000000E-03 0.  1.
         11   -1    0    0    0    0 -0.00000000000E+00 -0.00000000000E+00 -0.45593999997E+02  0.45594000000E+02  0.51100000000E-03 0. -1.
    9900012    2    1    2    0    0 -0.39975641048E+01  0.17446859513E+02 -0.39537953382E+02  0.47787272088E+02  0.20000004759E+02 0.  0.
        -12    1    1    2    0    0  0.39975641048E+01 -0.17446859513E+02  0.39537953382E+02  0.43400727912E+02  0.00000000000E+00 0.  1.
         11    1    3    3    0    0  0.29871655443E+01  0.15873136211E+02 -0.31254661463E+02  0.35181436506E+02  0.51100000000E-03 0. -1.
        -11    1    3    3    0    0 -0.25267443153E+01 -0.12226384025E+01 -0.17536120112E-01  0.28070606112E+01  0.51100000000E-03 0.  1.
         12    1    3    3    0    0 -0.44579853339E+01  0.27963617047E+01 -0.82657557981E+01  0.97987749711E+01  0.00000000000E+00 0. -1.
</event>
<event>
 7    1  0.2458979E-009  0.4778726E+02  0.7816164E-02  0.1312668E+00
        -11   -1    0    0    0    0  0.00000000000E+00  0.00000000000E+00  0.45593999997E+02  0.45594000000E+02  0.51100000000E-03 0.  1.
         11   -1    0    0    0    0 -0.00000000000E+00 -0.00000000000E+00 -0.45593999997E+02  0.45594000000E+02  0.51100000000E-03 0. -1.
    9900012    2    1    2    0    0 -0.11451529970E+02 -0.35835344083E+02 -0.21640578020E+02  0.47787262204E+02  0.19999959693E+02 0.  0.
        -12    1    1    2    0    0  0.11451529970E+02  0.35835344083E+02  0.21640578020E+02  0.43400737796E+02  0.00000000000E+00 0.  1.
         11    1    3    3    0    0 -0.50757683988E+01 -0.27104902360E+02 -0.21642180263E+02  0.35054573505E+02  0.51100000000E-03 0. -1.
        -11    1    3    3    0    0 -0.59630906732E+00 -0.34063184457E+01  0.27391041615E+01  0.44114942736E+01  0.51100000000E-03 0.  1.
         12    1    3    3    0    0 -0.57794525038E+01 -0.53241232772E+01 -0.27375019177E+01  0.83211944253E+01  0.00000000000E+00 0. -1.
</event>
<event>
 7    1  0.2458979E-009  0.4778727E+02  0.7816164E-02  0.1312668E+00
        -11   -1    0    0    0    0  0.00000000000E+00  0.00000000000E+00  0.45593999997E+02  0.45594000000E+02  0.51100000000E-03 0.  1.
         11   -1    0    0    0    0 -0.00000000000E+00 -0.00000000000E+00 -0.45593999997E+02  0.45594000000E+02  0.51100000000E-03 0. -1.
    9900012    2    1    2    0    0  0.42210400350E+02  0.10066073840E+02 -0.76132639186E+00  0.47787270073E+02  0.19999995572E+02 0.  0.
        -12    1    1    2    0    0 -0.42210400350E+02 -0.10066073840E+02  0.76132639186E+00  0.43400729927E+02  0.00000000000E+00 0.  1.
         11    1    3    3    0    0  0.19219148908E+02  0.23023704716E+01  0.29833588158E+01  0.19585122533E+02  0.51100000000E-03 0. -1.
        -11    1    3    3    0    0  0.47905974433E+01 -0.23966177707E+01  0.31897040871E+01  0.62344055873E+01  0.51100000000E-03 0.  1.
        -12    1    3    3    0    0  0.18200653999E+02  0.10160321139E+02 -0.69343892947E+01  0.21967741953E+02  0.00000000000E+00 0.  1.
</event>
<event>
 7    1  0.2458979E-009  0.4778727E+02  0.7816164E-02  0.1312668E+00
        -11   -1    0    0    0    0  0.00000000000E+00  0.00000000000E+00  0.45593999997E+02  0.45594000000E+02  0.51100000000E-03 0.  1.
         11   -1    0    0    0    0 -0.00000000000E+00 -0.00000000000E+00 -0.45593999997E+02  0.45594000000E+02  0.51100000000E-03 0. -1.
    9900012    2    1    2    0    0 -0.95623088434E+01 -0.30014784548E+01 -0.42227677109E+02  0.47787270313E+02  0.19999996664E+02 0.  0.
        -12    1    1    2    0    0  0.95623088434E+01  0.30014784548E+01  0.42227677109E+02  0.43400729687E+02  0.00000000000E+00 0.  1.
         11    1    3    3    0    0 -0.90774027514E+00  0.33966544743E+01 -0.23945001213E+02  0.24201742445E+02  0.51100000000E-03 0. -1.
        -11    1    3    3    0    0 -0.49523859192E+01  0.22897514252E+01 -0.66063923649E+01  0.85681683119E+01  0.51100000000E-03 0.  1.
         12    1    3    3    0    0 -0.37021826490E+01 -0.86878843543E+01 -0.11676283531E+02  0.15017359555E+02  0.00000000000E+00 0. -1.
</event>
<event>
 7    1  0.2458979E-009  0.4778727E+02  0.7816164E-02  0.1312668E+00
        -11   -1    0    0    0    0  0.00000000000E+00  0.00000000000E+00  0.45593999997E+02  0.45594000000E+02  0.51100000000E-03 0.  1.
         11   -1    0    0    0    0 -0.00000000000E+00 -0.00000000000E+00 -0.45593999997E+02  0.45594000000E+02  0.51100000000E-03 0. -1.
    9900012    2    1    2    0    0 -0.20896747325E+02 -0.16335547345E+02 -0.34352569398E+02  0.47787272125E+02  0.20000004927E+02 0.  0.
        -12    1    1    2    0    0  0.20896747325E+02  0.16335547345E+02  0.34352569398E+02  0.43400727875E+02  0.00000000000E+00 0.  1.
         11    1    3    3    0    0 -0.82763253067E+01 -0.12906733734E+02 -0.26855209949E+02  0.30923836080E+02  0.51100000000E-03 0. -1.
        -11    1    3    3    0    0 -0.49137440801E+01  0.63300422046E-01 -0.67779575776E+01  0.83719529987E+01  0.51100000000E-03 0.  1.
         12    1    3    3    0    0 -0.77066779386E+01 -0.34921140333E+01 -0.71940187117E+00  0.84914830462E+01  0.00000000000E+00 0. -1.
</event>
<event>
 7    1  0.2458979E-009  0.4778728E+02  0.7816164E-02  0.1312668E+00
        -11   -1    0    0    0    0  0.00000000000E+00  0.00000000000E+00  0.45593999997E+02  0.45594000000E+02  0.51100000000E-03 0. -1.
         11   -1    0    0    0    0 -0.00000000000E+00 -0.00000000000E+00 -0.45593999997E+02  0.45594000000E+02  0.51100000000E-03 0.  1.
    9900012    2    1    2    0    0 -0.31392229095E+02  0.91476089224E+01  0.28538945160E+02  0.47787283562E+02  0.20000057070E+02 0.  0.
        -12    1    1    2    0    0  0.31392229095E+02 -0.91476089224E+01 -0.28538945160E+02  0.43400716438E+02  0.00000000000E+00 0.  1.
         11    1    3    3    0    0  0.78542827909E+00  0.25733165960E+01  0.65678396852E+01  0.70975611499E+01  0.51100000000E-03 0. -1.
        -11    1    3    3    0    0 -0.59295593796E+00  0.21884782140E+01  0.22616089292E+01  0.32024847927E+01  0.51100000000E-03 0.  1.
         12    1    3    3    0    0 -0.31584701436E+02  0.43858141124E+01  0.19709496545E+02  0.37487237619E+02  0.00000000000E+00 0. -1.
</event>
<event>
 7    1  0.2458979E-009  0.4778727E+02  0.7816164E-02  0.1312668E+00
        -11   -1    0    0    0    0  0.00000000000E+00  0.00000000000E+00  0.45593999997E+02  0.45594000000E+02  0.51100000000E-03 0.  1.
         11   -1    0    0    0    0 -0.00000000000E+00 -0.00000000000E+00 -0.45593999997E+02  0.45594000000E+02  0.51100000000E-03 0. -1.
    9900012    2    1    2    0    0 -0.17771896982E+02  0.99968856993E+01 -0.38312467022E+02  0.47787272180E+02  0.20000005176E+02 0.  0.
        -12    1    1    2    0    0  0.17771896982E+02 -0.99968856993E+01  0.38312467022E+02  0.43400727820E+02  0.00000000000E+00 0.  1.
         11    1    3    3    0    0 -0.11286693419E+02  0.79769054086E+00 -0.27024029363E+02  0.29297165764E+02  0.51100000000E-03 0. -1.
        -11    1    3    3    0    0 -0.83059742337E+01  0.68547404421E+01 -0.57544851855E+01  0.12210273318E+02  0.51100000000E-03 0.  1.
         12    1    3    3    0    0  0.18207706703E+01  0.23444547164E+01 -0.55339524733E+01  0.62798330971E+01  0.00000000000E+00 0. -1.
</event>
<event>
 7    1  0.2458979E-009  0.4778727E+02  0.7816164E-02  0.1312668E+00
        -11   -1    0    0    0    0  0.00000000000E+00  0.00000000000E+00  0.45593999997E+02  0.45594000000E+02  0.51100000000E-03 0.  1.
         11   -1    0    0    0    0 -0.00000000000E+00 -0.00000000000E+00 -0.45593999997E+02  0.45594000000E+02  0.51100000000E-03 0. -1.
    9900012    2    1    2    0    0  0.34909360232E+02  0.20255210251E+02 -0.15958893285E+02  0.47787271331E+02  0.20000001308E+02 0.  0.
        -12    1    1    2    0    0 -0.34909360232E+02 -0.20255210251E+02  0.15958893285E+02  0.43400728669E+02  0.00000000000E+00 0.  1.
         11    1    3    3    0    0  0.24611939035E+02  0.12888538831E+02 -0.32378489726E+01  0.27970442300E+02  0.51100000000E-03 0. -1.
        -11    1    3    3    0    0  0.13578174492E+01  0.59540202998E+01 -0.58127666801E+01  0.84310309390E+01  0.51100000000E-03 0.  1.
         12    1    3    3    0    0  0.89396037473E+01  0.14126511210E+01 -0.69082776319E+01  0.11385798092E+02  0.00000000000E+00 0. -1.
</event>
<event>
 7    1  0.2458979E-009  0.4778726E+02  0.7816164E-02  0.1312668E+00
        -11   -1    0    0    0    0  0.00000000000E+00  0.00000000000E+00  0.45593999997E+02  0.45594000000E+02  0.51100000000E-03 0. -1.
         11   -1    0    0    0    0 -0.00000000000E+00 -0.00000000000E+00 -0.45593999997E+02  0.45594000000E+02  0.51100000000E-03 0.  1.
    9900012    2    1    2    0    0  0.75169786763E+01  0.40848633231E+02  0.12590014896E+02  0.47787259450E+02  0.19999947135E+02 0.  0.
        -12    1    1    2    0    0 -0.75169786763E+01 -0.40848633231E+02 -0.12590014896E+02  0.43400740550E+02  0.00000000000E+00 0.  1.
         11    1    3    3    0    0  0.76226342265E+01  0.12977396082E+02  0.12585407539E+02  0.19619119369E+02  0.51100000000E-03 0. -1.
        -11    1    3    3    0    0 -0.68473649666E+00  0.11832501654E+02 -0.19098023188E+01  0.12005178242E+02  0.51100000000E-03 0.  1.
         12    1    3    3    0    0  0.57908094638E+00  0.16038735494E+02  0.19144096762E+01  0.16162961839E+02  0.00000000000E+00 0. -1.
</event>
<event>
 7    1  0.2458979E-009  0.4778727E+02  0.7816164E-02  0.1312668E+00
        -11   -1    0    0    0    0  0.00000000000E+00  0.00000000000E+00  0.45593999997E+02  0.45594000000E+02  0.51100000000E-03 0.  1.
         11   -1    0    0    0    0 -0.00000000000E+00 -0.00000000000E+00 -0.45593999997E+02  0.45594000000E+02  0.51100000000E-03 0. -1.
    9900012    2    1    2    0    0  0.14316346039E+02  0.39654962732E+02 -0.10302884456E+02  0.47787271189E+02  0.20000000661E+02 0.  0.
        -12    1    1    2    0    0 -0.14316346039E+02 -0.39654962732E+02  0.10302884456E+02  0.43400728811E+02  0.00000000000E+00 0.  1.
         11    1    3    3    0    0  0.95302114558E+01  0.44414662728E+01 -0.37352996837E+01  0.11158136808E+02  0.51100000000E-03 0. -1.
        -11    1    3    3    0    0  0.35541536854E+01  0.28810546721E+02 -0.29657305320E+01  0.29180047441E+02  0.51100000000E-03 0.  1.
        -12    1    3    3    0    0  0.12319808982E+01  0.64029497374E+01 -0.36018542406E+01  0.74490869402E+01  0.00000000000E+00 0.  1.
</event>
<event>
 7    1  0.2458979E-009  0.4778727E+02  0.7816164E-02  0.1312668E+00
        -11   -1    0    0    0    0  0.00000000000E+00  0.00000000000E+00  0.45593999997E+02  0.45594000000E+02  0.51100000000E-03 0.  1.
         11   -1    0    0    0    0 -0.00000000000E+00 -0.00000000000E+00 -0.45593999997E+02  0.45594000000E+02  0.51100000000E-03 0. -1.
    9900012    2    1    2    0    0 -0.20383038725E+02  0.19713456860E+02 -0.32856270877E+02  0.47787272069E+02  0.20000004672E+02 0.  0.
        -12    1    1    2    0    0  0.20383038725E+02 -0.19713456860E+02  0.32856270877E+02  0.43400727931E+02  0.00000000000E+00 0.  1.
         11    1    3    3    0    0 -0.14293680540E+02  0.48110226374E+01 -0.20984186282E+02  0.25841658545E+02  0.51100000000E-03 0. -1.
        -11    1    3    3    0    0  0.15429011131E+01 -0.17050322794E+00 -0.12015584408E+01  0.19629972347E+01  0.51100000000E-03 0.  1.
         12    1    3    3    0    0 -0.76322592975E+01  0.15072937450E+02 -0.10670526154E+02  0.19982616289E+02  0.00000000000E+00 0. -1.
</event>
<event>
 7    1  0.2458979E-009  0.4778726E+02  0.7816164E-02  0.1312668E+00
        -11   -1    0    0    0    0  0.00000000000E+00  0.00000000000E+00  0.45593999997E+02  0.45594000000E+02  0.51100000000E-03 0. -1.
         11   -1    0    0    0    0 -0.00000000000E+00 -0.00000000000E+00 -0.45593999997E+02  0.45594000000E+02  0.51100000000E-03 0.  1.
    9900012    2    1    2    0    0  0.40771834389E+02 -0.87544278065E+01  0.12026705375E+02  0.47787261206E+02  0.19999955144E+02 0.  0.
        -12    1    1    2    0    0 -0.40771834389E+02  0.87544278065E+01 -0.12026705375E+02  0.43400738794E+02  0.00000000000E+00 0.  1.
         11    1    3    3    0    0  0.37226829449E+02 -0.72394739666E+01  0.16638545421E+02  0.41413621046E+02  0.51100000000E-03 0. -1.
        -11    1    3    3    0    0  0.32352043526E+01 -0.73967114359E+00 -0.26682238135E+01  0.42582953378E+01  0.51100000000E-03 0.  1.
         12    1    3    3    0    0  0.30980058715E+00 -0.77528269635E+00 -0.19436162317E+01  0.21153448228E+01  0.00000000000E+00 0. -1.
</event>
<event>
 7    1  0.2458979E-009  0.4778727E+02  0.7816164E-02  0.1312668E+00
        -11   -1    0    0    0    0  0.00000000000E+00  0.00000000000E+00  0.45593999997E+02  0.45594000000E+02  0.51100000000E-03 0.  1.
         11   -1    0    0    0    0 -0.00000000000E+00 -0.00000000000E+00 -0.45593999997E+02  0.45594000000E+02  0.51100000000E-03 0. -1.
    9900012    2    1    2    0    0 -0.30675774587E+02 -0.21985738116E+01 -0.30623298763E+02  0.47787270739E+02  0.19999998605E+02 0.  0.
        -12    1    1    2    0    0  0.30675774587E+02  0.21985738116E+01  0.30623298763E+02  0.43400729261E+02  0.00000000000E+00 0.  1.
         11    1    3    3    0    0 -0.17187334273E+02  0.77565519750E+01 -0.12471473303E+02  0.22607658096E+02  0.51100000000E-03 0. -1.
        -11    1    3    3    0    0 -0.12455620130E+02 -0.83089267998E+01 -0.13587639713E+02  0.20218919126E+02  0.51100000000E-03 0.  1.
         12    1    3    3    0    0 -0.10328201833E+01 -0.16461989868E+01 -0.45641857470E+01  0.49606935169E+01  0.00000000000E+00 0. -1.
</event>
<event>
 7    1  0.2458979E-009  0.4778725E+02  0.7816164E-02  0.1312668E+00
        -11   -1    0    0    0    0  0.00000000000E+00  0.00000000000E+00  0.45593999997E+02  0.45594000000E+02  0.51100000000E-03 0. -1.
         11   -1    0    0    0    0 -0.00000000000E+00 -0.00000000000E+00 -0.45593999997E+02  0.45594000000E+02  0.51100000000E-03 0.  1.
    9900012    2    1    2    0    0 -0.97367222389E+01 -0.39173127159E+02  0.15946394478E+02  0.47787249451E+02  0.19999901548E+02 0.  0.
        -12    1    1    2    0    0  0.97367222389E+01  0.39173127159E+02 -0.15946394478E+02  0.43400750549E+02  0.00000000000E+00 0.  1.
         11    1    3    3    0    0 -0.21197503100E+01 -0.11993040088E+02  0.11682722374E+02  0.16876384514E+02  0.51100000000E-03 0. -1.
        -11    1    3    3    0    0 -0.91996242193E+00 -0.16498722901E+02 -0.23228397491E+01  0.16686814345E+02  0.51100000000E-03 0.  1.
        -12    1    3    3    0    0 -0.66970095070E+01 -0.10681364169E+02  0.65865118536E+01  0.14224050592E+02  0.00000000000E+00 0.  1.
</event>
<event>
 7    1  0.2458979E-009  0.4778727E+02  0.7816164E-02  0.1312668E+00
        -11   -1    0    0    0    0  0.00000000000E+00  0.00000000000E+00  0.45593999997E+02  0.45594000000E+02  0.51100000000E-03 0. -1.
         11   -1    0    0    0    0 -0.00000000000E+00 -0.00000000000E+00 -0.45593999997E+02  0.45594000000E+02  0.51100000000E-03 0.  1.
    9900012    2    1    2    0    0  0.64477335871E+01 -0.38225903064E+01  0.42748543223E+02  0.47787269445E+02  0.19999992705E+02 0.  0.
        -12    1    1    2    0    0 -0.64477335871E+01  0.38225903064E+01 -0.42748543223E+02  0.43400730555E+02  0.00000000000E+00 0.  1.
         11    1    3    3    0    0 -0.27702019012E+01 -0.32651762716E+01  0.15698175687E+01  0.45606712355E+01  0.51100000000E-03 0. -1.
        -11    1    3    3    0    0  0.95843992615E+01 -0.31970757143E+01  0.27656186153E+02  0.29443957532E+02  0.51100000000E-03 0.  1.
         12    1    3    3    0    0 -0.36646377315E+00  0.26396616795E+01  0.13522539501E+02  0.13782640677E+02  0.00000000000E+00 0. -1.
</event>
<event>
 7    1  0.2458979E-009  0.4778728E+02  0.7816164E-02  0.1312668E+00
        -11   -1    0    0    0    0  0.00000000000E+00  0.00000000000E+00  0.45593999997E+02  0.45594000000E+02  0.51100000000E-03 0.  1.
         11   -1    0    0    0    0 -0.00000000000E+00 -0.00000000000E+00 -0.45593999997E+02  0.45594000000E+02  0.51100000000E-03 0. -1.
    9900012    2    1    2    0    0  0.63221889935E+01  0.32132388716E+02 -0.28480900788E+02  0.47787283555E+02  0.20000057041E+02 0.  0.
        -12    1    1    2    0    0 -0.63221889935E+01 -0.32132388716E+02  0.28480900788E+02  0.43400716445E+02  0.00000000000E+00 0.  1.
         11    1    3    3    0    0  0.27211109013E+01 -0.47766632858E+00 -0.89637858451E+01  0.93798756174E+01  0.51100000000E-03 0.  1.
        -11    1    3    3    0    0  0.41372434072E+01  0.23452269471E+02 -0.12789479867E+02  0.27031398815E+02  0.51100000000E-03 0. -1.
        -12    1    3    3    0    0 -0.53616531497E+00  0.91577855736E+01 -0.67276350758E+01  0.11376009123E+02  0.00000000000E+00 0.  1.
</event>
<event>
 7    1  0.2458979E-009  0.4778730E+02  0.7816164E-02  0.1312668E+00
        -11   -1    0    0    0    0  0.00000000000E+00  0.00000000000E+00  0.45593999997E+02  0.45594000000E+02  0.51100000000E-03 0.  1.
         11   -1    0    0    0    0 -0.00000000000E+00 -0.00000000000E+00 -0.45593999997E+02  0.45594000000E+02  0.51100000000E-03 0. -1.
    9900012    2    1    2    0    0  0.91951132273E+01  0.59064760137E+00 -0.42411344121E+02  0.47787296296E+02  0.20000115131E+02 0.  0.
        -12    1    1    2    0    0 -0.91951132273E+01 -0.59064760137E+00  0.42411344121E+02  0.43400703704E+02  0.00000000000E+00 0.  1.
         11    1    3    3    0    0 -0.26181399010E+01  0.17285337568E+01 -0.23183869160E+02  0.23395176319E+02  0.51100000000E-03 0. -1.
        -11    1    3    3    0    0  0.10229049542E+02 -0.43039778173E+01 -0.16664050808E+02  0.20021195498E+02  0.51100000000E-03 0.  1.
         12    1    3    3    0    0  0.15842035859E+01  0.31660916619E+01 -0.25634241534E+01  0.43709244792E+01  0.00000000000E+00 0. -1.
</event>
<event>
 7    1  0.2458979E-009  0.4778727E+02  0.7816164E-02  0.1312668E+00
        -11   -1    0    0    0    0  0.00000000000E+00  0.00000000000E+00  0.45593999997E+02  0.45594000000E+02  0.51100000000E-03 0. -1.
         11   -1    0    0    0    0 -0.00000000000E+00 -0.00000000000E+00 -0.45593999997E+02  0.45594000000E+02  0.51100000000E-03 0.  1.
    9900012    2    1    2    0    0  0.31358510217E+01 -0.25986172635E+01  0.43209222221E+02  0.47787271225E+02  0.20000000822E+02 0.  0.
        -12    1    1    2    0    0 -0.31358510217E+01  0.25986172635E+01 -0.43209222221E+02  0.43400728775E+02  0.00000000000E+00 0.  1.
         11    1    3    3    0    0  0.15748984532E+01  0.77031896006E+01  0.17268159911E+02  0.18973897389E+02  0.51100000000E-03 0. -1.
        -11    1    3    3    0    0  0.20124356638E+01 -0.10775840827E+02  0.25937336216E+02  0.28158729607E+02  0.51100000000E-03 0.  1.
         12    1    3    3    0    0 -0.45148309532E+00  0.47403396267E+00  0.37260941557E-02  0.65464422926E+00  0.00000000000E+00 0. -1.
</event>
<event>
 7    1  0.2458979E-009  0.4778727E+02  0.7816164E-02  0.1312668E+00
        -11   -1    0    0    0    0  0.00000000000E+00  0.00000000000E+00  0.45593999997E+02  0.45594000000E+02  0.51100000000E-03 0.  1.
         11   -1    0    0    0    0 -0.00000000000E+00 -0.00000000000E+00 -0.45593999997E+02  0.45594000000E+02  0.51100000000E-03 0. -1.
    9900012    2    1    2    0    0  0.83397749639E+01  0.32783170732E+02 -0.27190718967E+02  0.47787270425E+02  0.19999997175E+02 0.  0.
        -12    1    1    2    0    0 -0.83397749639E+01 -0.32783170732E+02  0.27190718967E+02  0.43400729575E+02  0.00000000000E+00 0.  1.
         11    1    3    3    0    0  0.60425421477E+01  0.22669779431E+02 -0.15672701510E+02  0.28214620109E+02  0.51100000000E-03 0. -1.
        -11    1    3    3    0    0 -0.12251040887E+01  0.39673440523E+01  0.17705066870E+01  0.45139110588E+01  0.51100000000E-03 0.  1.
        -12    1    3    3    0    0  0.35223369049E+01  0.61460472494E+01 -0.13288524145E+02  0.15058739257E+02  0.00000000000E+00 0.  1.
</event>
<event>
 7    1  0.2458979E-009  0.4778727E+02  0.7816164E-02  0.1312668E+00
        -11   -1    0    0    0    0  0.00000000000E+00  0.00000000000E+00  0.45593999997E+02  0.45594000000E+02  0.51100000000E-03 0.  1.
         11   -1    0    0    0    0 -0.00000000000E+00 -0.00000000000E+00 -0.45593999997E+02  0.45594000000E+02  0.51100000000E-03 0. -1.
    9900012    2    1    2    0    0 -0.36718110653E+02 -0.55516061318E+01 -0.22462925129E+02  0.47787274362E+02  0.20000015126E+02 0.  0.
        -12    1    1    2    0    0  0.36718110653E+02  0.55516061318E+01  0.22462925129E+02  0.43400725638E+02  0.00000000000E+00 0.  1.
         11    1    3    3    0    0 -0.31357935146E+02 -0.76243029066E+01 -0.13532043152E+02  0.34993803502E+02  0.51100000000E-03 0. -1.
        -11    1    3    3    0    0 -0.14845861061E+01  0.43901676898E+01 -0.42193263542E+01  0.62673984551E+01  0.51100000000E-03 0.  1.
        -12    1    3    3    0    0 -0.38755894010E+01 -0.23174709149E+01 -0.47115556229E+01  0.65260724049E+01  0.00000000000E+00 0.  1.
</event>
<event>
 7    1  0.2458979E-009  0.4778727E+02  0.7816164E-02  0.1312668E+00
        -11   -1    0    0    0    0  0.00000000000E+00  0.00000000000E+00  0.45593999997E+02  0.45594000000E+02  0.51100000000E-03 0. -1.
         11   -1    0    0    0    0 -0.00000000000E+00 -0.00000000000E+00 -0.45593999997E+02  0.45594000000E+02  0.51100000000E-03 0.  1.
    9900012    2    1    2    0    0  0.44909400924E+00 -0.40937956139E+02  0.14405049327E+02  0.47787269771E+02  0.19999994196E+02 0.  0.
        -12    1    1    2    0    0 -0.44909400924E+00  0.40937956139E+02 -0.14405049327E+02  0.43400730229E+02  0.00000000000E+00 0.  1.
         11    1    3    3    0    0  0.22742474100E+01 -0.73093296328E+00 -0.24441390452E+01  0.34176424933E+01  0.51100000000E-03 0.  1.
        -11    1    3    3    0    0 -0.49116026837E+01 -0.25883508651E+02  0.97908387877E+01  0.28105878130E+02  0.51100000000E-03 0. -1.
        -12    1    3    3    0    0  0.30864492830E+01 -0.14323514524E+02  0.70583495845E+01  0.16263749149E+02  0.00000000000E+00 0.  1.
</event>
<event>
 7    1  0.2458979E-009  0.4778734E+02  0.7816164E-02  0.1312667E+00
        -11   -1    0    0    0    0  0.00000000000E+00  0.00000000000E+00  0.45593999997E+02  0.45594000000E+02  0.51100000000E-03 0. -1.
         11   -1    0    0    0    0 -0.00000000000E+00 -0.00000000000E+00 -0.45593999997E+02  0.45594000000E+02  0.51100000000E-03 0.  1.
    9900012    2    1    2    0    0  0.39272070675E+02 -0.16357705889E+02 -0.85876418196E+01  0.47787335615E+02  0.20000294402E+02 0.  0.
        -12    1    1    2    0    0 -0.39272070675E+02  0.16357705889E+02  0.85876418196E+01  0.43400664385E+02  0.00000000000E+00 0.  1.
         11    1    3    3    0    0  0.55634037564E+01 -0.19052530558E+01 -0.32955471735E+00  0.58898265794E+01  0.51100000000E-03 0. -1.
        -11    1    3    3    0    0  0.14171367841E+02 -0.16049606560E+02 -0.54640904057E+01  0.22096918822E+02  0.51100000000E-03 0.  1.
        -12    1    3    3    0    0  0.19537299078E+02  0.15971537274E+01 -0.27939966966E+01  0.19800590214E+02  0.00000000000E+00 0.  1.
</event>
<event>
 7    1  0.2458979E-009  0.4778734E+02  0.7816164E-02  0.1312667E+00
        -11   -1    0    0    0    0  0.00000000000E+00  0.00000000000E+00  0.45593999997E+02  0.45594000000E+02  0.51100000000E-03 0. -1.
         11   -1    0    0    0    0 -0.00000000000E+00 -0.00000000000E+00 -0.45593999997E+02  0.45594000000E+02  0.51100000000E-03 0.  1.
    9900012    2    1    2    0    0 -0.21311161736E+02  0.35829235640E+02  0.12071369452E+02  0.47787335241E+02  0.20000292695E+02 0.  0.
        -12    1    1    2    0    0  0.21311161736E+02 -0.35829235640E+02 -0.12071369452E+02  0.43400664759E+02  0.00000000000E+00 0.  1.
         11    1    3    3    0    0 -0.11846838821E+02  0.25597495860E+02  0.16044023003E+02  0.32449808301E+02  0.51100000000E-03 0. -1.
        -11    1    3    3    0    0 -0.40174530911E+00  0.20119718031E+01 -0.21424687835E+01  0.29664124088E+01  0.51100000000E-03 0.  1.
         12    1    3    3    0    0 -0.90625776057E+01  0.82197679768E+01 -0.18301847683E+01  0.12371114531E+02  0.00000000000E+00 0. -1.
</event>
<event>
 7    1  0.2458979E-009  0.4778727E+02  0.7816164E-02  0.1312668E+00
        -11   -1    0    0    0    0  0.00000000000E+00  0.00000000000E+00  0.45593999997E+02  0.45594000000E+02  0.51100000000E-03 0.  1.
         11   -1    0    0    0    0 -0.00000000000E+00 -0.00000000000E+00 -0.45593999997E+02  0.45594000000E+02  0.51100000000E-03 0. -1.
    9900012    2    1    2    0    0 -0.14805929939E+02  0.15274181747E+00 -0.40796869792E+02  0.47787268714E+02  0.19999989372E+02 0.  0.
        -12    1    1    2    0    0  0.14805929939E+02 -0.15274181747E+00  0.40796869792E+02  0.43400731286E+02  0.00000000000E+00 0.  1.
         11    1    3    3    0    0 -0.77404889854E+01  0.49975560825E+01 -0.23347672868E+02  0.25099891735E+02  0.51100000000E-03 0. -1.
        -11    1    3    3    0    0  0.17191371787E+01 -0.10139280523E+01  0.73941822502E+00  0.21284318892E+01  0.51100000000E-03 0.  1.
         12    1    3    3    0    0 -0.87845781321E+01 -0.38308862128E+01 -0.18188615149E+02  0.20558945089E+02  0.00000000000E+00 0. -1.
</event>
<event>
 7    1  0.2458979E-009  0.4778727E+02  0.7816164E-02  0.1312668E+00
        -11   -1    0    0    0    0  0.00000000000E+00  0.00000000000E+00  0.45593999997E+02  0.45594000000E+02  0.51100000000E-03 0.  1.
         11   -1    0    0    0    0 -0.00000000000E+00 -0.00000000000E+00 -0.45593999997E+02  0.45594000000E+02  0.51100000000E-03 0. -1.
    9900012    2    1    2    0    0 -0.18134558179E+02  0.23469751577E+02 -0.31684880991E+02  0.47787272785E+02  0.20000007936E+02 0.  0.
        -12    1    1    2    0    0  0.18134558179E+02 -0.23469751577E+02  0.31684880991E+02  0.43400727215E+02  0.00000000000E+00 0.  1.
         11    1    3    3    0    0 -0.65311471113E+01  0.20043507902E+02 -0.13664646866E+02  0.25122115076E+02  0.51100000000E-03 0. -1.
        -11    1    3    3    0    0 -0.90597934000E+01 -0.49443787576E+00 -0.11955835191E+02  0.15008874729E+02  0.51100000000E-03 0.  1.
        -12    1    3    3    0    0 -0.25436176672E+01  0.39206815500E+01 -0.60643989332E+01  0.76562829802E+01  0.00000000000E+00 0.  1.
</event>
<event>
 7    1  0.2458979E-009  0.4778727E+02  0.7816164E-02  0.1312668E+00
        -11   -1    0    0    0    0  0.00000000000E+00  0.00000000000E+00  0.45593999997E+02  0.45594000000E+02  0.51100000000E-03 0. -1.
         11   -1    0    0    0    0 -0.00000000000E+00 -0.00000000000E+00 -0.45593999997E+02  0.45594000000E+02  0.51100000000E-03 0.  1.
    9900012    2    1    2    0    0 -0.13706696691E+02  0.40381767917E+02 -0.80661549819E+01  0.47787267628E+02  0.19999984422E+02 0.  0.
        -12    1    1    2    0    0  0.13706696691E+02 -0.40381767917E+02  0.80661549819E+01  0.43400732372E+02  0.00000000000E+00 0.  1.
         11    1    3    3    0    0 -0.11069787942E+02  0.27385357506E+02 -0.12153443029E+01  0.29563069409E+02  0.51100000000E-03 0. -1.
        -11    1    3    3    0    0 -0.45829194729E+01  0.82736061997E+01 -0.86415266779E+01  0.12811389231E+02  0.51100000000E-03 0.  1.
        -12    1    3    3    0    0  0.19460107242E+01  0.47228042108E+01  0.17907159989E+01  0.54128089880E+01  0.00000000000E+00 0.  1.
</event>
<event>
 7    1  0.2458979E-009  0.4778728E+02  0.7816164E-02  0.1312668E+00
        -11   -1    0    0    0    0  0.00000000000E+00  0.00000000000E+00  0.45593999997E+02  0.45594000000E+02  0.51100000000E-03 0. -1.
         11   -1    0    0    0    0 -0.00000000000E+00 -0.00000000000E+00 -0.45593999997E+02  0.45594000000E+02  0.51100000000E-03 0.  1.
    9900012    2    1    2    0    0  0.38617030070E+02 -0.18604442431E+02 -0.67987091811E+01  0.47787277239E+02  0.20000028245E+02 0.  0.
        -12    1    1    2    0    0 -0.38617030070E+02  0.18604442431E+02  0.67987091811E+01  0.43400722761E+02  0.00000000000E+00 0.  1.
         11    1    3    3    0    0  0.12054026859E+02  0.95549885799E+00  0.23200595845E+01  0.12312400997E+02  0.51100000000E-03 0. -1.
        -11    1    3    3    0    0  0.11797006946E+02 -0.11867939661E+02 -0.86073641958E+01  0.18817653503E+02  0.51100000000E-03 0.  1.
         12    1    3    3    0    0  0.14765996265E+02 -0.76920016278E+01 -0.51140456968E+00  0.16657222739E+02  0.00000000000E+00 0. -1.
</event>
<event>
 7    1  0.2458979E-009  0.4778727E+02  0.7816164E-02  0.1312668E+00
        -11   -1    0    0    0    0  0.00000000000E+00  0.00000000000E+00  0.45593999997E+02  0.45594000000E+02  0.51100000000E-03 0.  1.
         11   -1    0    0    0    0 -0.00000000000E+00 -0.00000000000E+00 -0.45593999997E+02  0.45594000000E+02  0.51100000000E-03 0. -1.
    9900012    2    1    2    0    0 -0.92351646184E+01 -0.25745563447E+01 -0.42328559287E+02  0.47787268011E+02  0.19999986169E+02 0.  0.
        -12    1    1    2    0    0  0.92351646184E+01  0.25745563447E+01  0.42328559287E+02  0.43400731989E+02  0.00000000000E+00 0.  1.
         11    1    3    3    0    0 -0.12534182873E+02  0.14234026089E+01 -0.17344429199E+02  0.21446702306E+02  0.51100000000E-03 0. -1.
        -11    1    3    3    0    0  0.35244383335E+01 -0.54019528169E+01 -0.16110126100E+02  0.17353354806E+02  0.51100000000E-03 0.  1.
         12    1    3    3    0    0 -0.22542007902E+00  0.14039938633E+01 -0.88740039875E+01  0.89872108994E+01  0.00000000000E+00 0. -1.
</event>
<event>
 7    1  0.2458979E-009  0.4778727E+02  0.7816164E-02  0.1312668E+00
        -11   -1    0    0    0    0  0.00000000000E+00  0.00000000000E+00  0.45593999997E+02  0.45594000000E+02  0.51100000000E-03 0. -1.
         11   -1    0    0    0    0 -0.00000000000E+00 -0.00000000000E+00 -0.45593999997E+02  0.45594000000E+02  0.51100000000E-03 0.  1.
    9900012    2    1    2    0    0 -0.42132880996E+02 -0.63999482081E+01  0.82148818443E+01  0.47787270953E+02  0.19999999585E+02 0.  0.
        -12    1    1    2    0    0  0.42132880996E+02  0.63999482081E+01 -0.82148818443E+01  0.43400729047E+02  0.00000000000E+00 0.  1.
         11    1    3    3    0    0 -0.15044936537E+02 -0.10111877507E+02  0.21534587403E+01  0.18254795724E+02  0.51100000000E-03 0.  1.
        -11    1    3    3    0    0 -0.12845557087E+02 -0.28106766800E+01  0.16119749734E+01  0.13247894318E+02  0.51100000000E-03 0. -1.
         12    1    3    3    0    0 -0.14242387371E+02  0.65226059789E+01  0.44494481306E+01  0.16284580911E+02  0.00000000000E+00 0. -1.
</event>
<event>
 7    1  0.2458979E-009  0.4778733E+02  0.7816164E-02  0.1312668E+00
        -11   -1    0    0    0    0  0.00000000000E+00  0.00000000000E+00  0.45593999997E+02  0.45594000000E+02  0.51100000000E-03 0.  1.
         11   -1    0    0    0    0 -0.00000000000E+00 -0.00000000000E+00 -0.45593999997E+02  0.45594000000E+02  0.51100000000E-03 0. -1.
    9900012    2    1    2    0    0 -0.19843143317E+00  0.37977139361E+02 -0.21007518618E+02  0.47787328029E+02  0.20000259813E+02 0.  0.
        -12    1    1    2    0    0  0.19843143317E+00 -0.37977139361E+02  0.21007518618E+02  0.43400671971E+02  0.00000000000E+00 0.  1.
         11    1    3    3    0    0 -0.13611193595E+01  0.20515855204E+02 -0.52248760028E+01  0.21214435891E+02  0.51100000000E-03 0. -1.
        -11    1    3    3    0    0 -0.22249420391E+01  0.34221774494E+01 -0.10379382143E+02  0.11153171724E+02  0.51100000000E-03 0.  1.
        -12    1    3    3    0    0  0.33876299655E+01  0.14039106707E+02 -0.54032604724E+01  0.15419720414E+02  0.00000000000E+00 0.  1.
</event>
<event>
 7    1  0.2458979E-009  0.4778727E+02  0.7816164E-02  0.1312668E+00
        -11   -1    0    0    0    0  0.00000000000E+00  0.00000000000E+00  0.45593999997E+02  0.45594000000E+02  0.51100000000E-03 0.  1.
         11   -1    0    0    0    0 -0.00000000000E+00 -0.00000000000E+00 -0.45593999997E+02  0.45594000000E+02  0.51100000000E-03 0. -1.
    9900012    2    1    2    0    0  0.64237799844E+01 -0.33353831529E+02 -0.27016300934E+02  0.47787267943E+02  0.19999985859E+02 0.  0.
        -12    1    1    2    0    0 -0.64237799844E+01  0.33353831529E+02  0.27016300934E+02  0.43400732057E+02  0.00000000000E+00 0.  1.
         11    1    3    3    0    0  0.46760163585E+01 -0.35319109681E+01 -0.13879377915E+02  0.15065744444E+02  0.51100000000E-03 0. -1.
        -11    1    3    3    0    0  0.22970367438E+01 -0.22841005406E+02 -0.97074743977E+01  0.24924344830E+02  0.51100000000E-03 0.  1.
         12    1    3    3    0    0 -0.54927311780E+00 -0.69809151550E+01 -0.34294486213E+01  0.77971786696E+01  0.00000000000E+00 0. -1.
</event>
<event>
 7    1  0.2458979E-009  0.4778728E+02  0.7816164E-02  0.1312668E+00
        -11   -1    0    0    0    0  0.00000000000E+00  0.00000000000E+00  0.45593999997E+02  0.45594000000E+02  0.51100000000E-03 0. -1.
         11   -1    0    0    0    0 -0.00000000000E+00 -0.00000000000E+00 -0.45593999997E+02  0.45594000000E+02  0.51100000000E-03 0.  1.
    9900012    2    1    2    0    0  0.29560855655E+02 -0.49157602090E+00  0.31773204592E+02  0.47787281526E+02  0.20000047787E+02 0.  0.
        -12    1    1    2    0    0 -0.29560855655E+02  0.49157602090E+00 -0.31773204592E+02  0.43400718474E+02  0.00000000000E+00 0.  1.
         11    1    3    3    0    0  0.98254417174E+01 -0.11892672100E+01  0.16387086323E+02  0.19143935329E+02  0.51100000000E-03 0. -1.
        -11    1    3    3    0    0  0.51343746318E+01 -0.14893660621E+01 -0.21126747195E+01  0.57483396610E+01  0.51100000000E-03 0.  1.
        -12    1    3    3    0    0  0.14601039306E+02  0.21870572512E+01  0.17498792988E+02  0.22895006536E+02  0.00000000000E+00 0.  1.
</event>
<event>
 7    1  0.2458979E-009  0.4778729E+02  0.7816164E-02  0.1312668E+00
        -11   -1    0    0    0    0  0.00000000000E+00  0.00000000000E+00  0.45593999997E+02  0.45594000000E+02  0.51100000000E-03 0. -1.
         11   -1    0    0    0    0 -0.00000000000E+00 -0.00000000000E+00 -0.45593999997E+02  0.45594000000E+02  0.51100000000E-03 0.  1.
    9900012    2    1    2    0    0 -0.43328469556E+02  0.23710719356E+01  0.80231584032E+00  0.47787286101E+02  0.20000068651E+02 0.  0.
        -12    1    1    2    0    0  0.43328469556E+02 -0.23710719356E+01 -0.80231584032E+00  0.43400713899E+02  0.00000000000E+00 0.  1.
         11    1    3    3    0    0 -0.55452148886E+01 -0.32035305110E+01  0.49878751749E+01  0.81173219055E+01  0.51100000000E-03 0. -1.
        -11    1    3    3    0    0 -0.26266304237E+02  0.83712985691E+01 -0.22304524310E+01  0.27658132553E+02  0.51100000000E-03 0.  1.
         12    1    3    3    0    0 -0.11516950430E+02 -0.27966961225E+01 -0.19551069035E+01  0.12011831643E+02  0.00000000000E+00 0. -1.
</event>
<event>
 7    1  0.2458979E-009  0.4778727E+02  0.7816164E-02  0.1312668E+00
        -11   -1    0    0    0    0  0.00000000000E+00  0.00000000000E+00  0.45593999997E+02  0.45594000000E+02  0.51100000000E-03 0.  1.
         11   -1    0    0    0    0 -0.00000000000E+00 -0.00000000000E+00 -0.45593999997E+02  0.45594000000E+02  0.51100000000E-03 0. -1.
    9900012    2    1    2    0    0 -0.23756081515E+02 -0.16372008923E+02 -0.32422665532E+02  0.47787270452E+02  0.19999997298E+02 0.  0.
        -12    1    1    2    0    0  0.23756081515E+02  0.16372008923E+02  0.32422665532E+02  0.43400729548E+02  0.00000000000E+00 0.  1.
         11    1    3    3    0    0 -0.63516043270E+01  0.38689041029E+01 -0.53889482331E+01  0.91843377445E+01  0.51100000000E-03 0. -1.
        -11    1    3    3    0    0 -0.56429111501E+01 -0.11422869894E+02 -0.10796387115E+02  0.16699891552E+02  0.51100000000E-03 0.  1.
         12    1    3    3    0    0 -0.11761566038E+02 -0.88180431316E+01 -0.16237330184E+02  0.21903041155E+02  0.00000000000E+00 0. -1.
</event>
<event>
 7    1  0.2458979E-009  0.4778726E+02  0.7816164E-02  0.1312668E+00
        -11   -1    0    0    0    0  0.00000000000E+00  0.00000000000E+00  0.45593999997E+02  0.45594000000E+02  0.51100000000E-03 0. -1.
         11   -1    0    0    0    0 -0.00000000000E+00 -0.00000000000E+00 -0.45593999997E+02  0.45594000000E+02  0.51100000000E-03 0.  1.
    9900012    2    1    2    0    0 -0.38985924914E+02 -0.40210048377E+01  0.18642778191E+02  0.47787262679E+02  0.19999961860E+02 0.  0.
        -12    1    1    2    0    0  0.38985924914E+02  0.40210048377E+01 -0.18642778191E+02  0.43400737321E+02  0.00000000000E+00 0.  1.
         11    1    3    3    0    0 -0.86680369544E+01 -0.36966910627E+00  0.10273381108E+02  0.13446705156E+02  0.51100000000E-03 0. -1.
        -11    1    3    3    0    0 -0.21221383292E+02 -0.86227887189E+01  0.50577120130E+01  0.23458048622E+02  0.51100000000E-03 0.  1.
        -12    1    3    3    0    0 -0.90965046678E+01  0.49714529875E+01  0.33116850703E+01  0.10882508901E+02  0.00000000000E+00 0.  1.
</event>
<event>
 7    1  0.2458979E-009  0.4778727E+02  0.7816164E-02  0.1312668E+00
        -11   -1    0    0    0    0  0.00000000000E+00  0.00000000000E+00  0.45593999997E+02  0.45594000000E+02  0.51100000000E-03 0.  1.
         11   -1    0    0    0    0 -0.00000000000E+00 -0.00000000000E+00 -0.45593999997E+02  0.45594000000E+02  0.51100000000E-03 0. -1.
    9900012    2    1    2    0    0 -0.62956113613E+01  0.23574848746E+01 -0.42876925205E+02  0.47787272214E+02  0.20000005331E+02 0.  0.
        -12    1    1    2    0    0  0.62956113613E+01 -0.23574848746E+01  0.42876925205E+02  0.43400727786E+02  0.00000000000E+00 0.  1.
         11    1    3    3    0    0 -0.45989804434E+01 -0.12863900333E+01 -0.36723130128E+02  0.37032333265E+02  0.51100000000E-03 0. -1.
        -11    1    3    3    0    0 -0.74195439997E-01 -0.24562843142E+01 -0.12217245116E+01  0.27443484908E+01  0.51100000000E-03 0.  1.
         12    1    3    3    0    0 -0.16224354780E+01  0.61001592221E+01 -0.49320705658E+01  0.80105904577E+01  0.00000000000E+00 0. -1.
</event>
<event>
 7    1  0.2458979E-009  0.4778727E+02  0.7816164E-02  0.1312668E+00
        -11   -1    0    0    0    0  0.00000000000E+00  0.00000000000E+00  0.45593999997E+02  0.45594000000E+02  0.51100000000E-03 0. -1.
         11   -1    0    0    0    0 -0.00000000000E+00 -0.00000000000E+00 -0.45593999997E+02  0.45594000000E+02  0.51100000000E-03 0.  1.
    9900012    2    1    2    0    0  0.97379602694E+00  0.21753643020E+02  0.37542698299E+02  0.47787268913E+02  0.19999990282E+02 0.  0.
        -12    1    1    2    0    0 -0.97379602694E+00 -0.21753643020E+02 -0.37542698299E+02  0.43400731087E+02  0.00000000000E+00 0.  1.
         11    1    3    3    0    0  0.13053642381E+01  0.13682519753E+02  0.36484441677E+02  0.38987559648E+02  0.51100000000E-03 0. -1.
        -11    1    3    3    0    0  0.44630226293E+00  0.76725951782E+01  0.14839805982E+01  0.78275220316E+01  0.51100000000E-03 0.  1.
         12    1    3    3    0    0 -0.77787047407E+00  0.39852808885E+00 -0.42572397651E+00  0.97218723310E+00  0.00000000000E+00 0. -1.
</event>
<event>
 7    1  0.2458979E-009  0.4778727E+02  0.7816164E-02  0.1312668E+00
        -11   -1    0    0    0    0  0.00000000000E+00  0.00000000000E+00  0.45593999997E+02  0.45594000000E+02  0.51100000000E-03 0.  1.
         11   -1    0    0    0    0 -0.00000000000E+00 -0.00000000000E+00 -0.45593999997E+02  0.45594000000E+02  0.51100000000E-03 0. -1.
    9900012    2    1    2    0    0  0.43859265545E+01  0.76519235255E+01 -0.42495114594E+02  0.47787273627E+02  0.20000011773E+02 0.  0.
        -12    1    1    2    0    0 -0.43859265545E+01 -0.76519235255E+01  0.42495114594E+02  0.43400726373E+02  0.00000000000E+00 0.  1.
         11    1    3    3    0    0  0.65653178327E+01  0.11598304729E+02 -0.25945797428E+02  0.29168621415E+02  0.51100000000E-03 0. -1.
        -11    1    3    3    0    0 -0.21070778108E+01 -0.16501004906E+01 -0.93304019303E+00  0.28342852349E+01  0.51100000000E-03 0.  1.
         12    1    3    3    0    0 -0.72313467312E-01 -0.22962807128E+01 -0.15616276973E+02  0.15784366977E+02  0.00000000000E+00 0. -1.
</event>
<event>
 7    1  0.2458979E-009  0.4778727E+02  0.7816164E-02  0.1312668E+00
        -11   -1    0    0    0    0  0.00000000000E+00  0.00000000000E+00  0.45593999997E+02  0.45594000000E+02  0.51100000000E-03 0.  1.
         11   -1    0    0    0    0 -0.00000000000E+00 -0.00000000000E+00 -0.45593999997E+02  0.45594000000E+02  0.51100000000E-03 0. -1.
    9900012    2    1    2    0    0  0.25882159821E+02 -0.29308924108E+02 -0.18834121899E+02  0.47787269856E+02  0.19999994581E+02 0.  0.
        -12    1    1    2    0    0 -0.25882159821E+02  0.29308924108E+02  0.18834121899E+02  0.43400730144E+02  0.00000000000E+00 0.  1.
         11    1    3    3    0    0  0.11475008783E+02 -0.19779179424E+02 -0.13111646752E+02  0.26359192820E+02  0.51100000000E-03 0. -1.
        -11    1    3    3    0    0  0.49180552523E+01  0.23325903094E+01 -0.11406732875E+01  0.55614189579E+01  0.51100000000E-03 0.  1.
        -12    1    3    3    0    0  0.94890957854E+01 -0.11862334993E+02 -0.45818018591E+01  0.15866658078E+02  0.00000000000E+00 0.  1.
</event>
<event>
 7    1  0.2458979E-009  0.4778727E+02  0.7816164E-02  0.1312668E+00
        -11   -1    0    0    0    0  0.00000000000E+00  0.00000000000E+00  0.45593999997E+02  0.45594000000E+02  0.51100000000E-03 0.  1.
         11   -1    0    0    0    0 -0.00000000000E+00 -0.00000000000E+00 -0.45593999997E+02  0.45594000000E+02  0.51100000000E-03 0. -1.
    9900012    2    1    2    0    0 -0.12866188644E+02  0.12180345036E+02 -0.39619743218E+02  0.47787266503E+02  0.19999979294E+02 0.  0.
        -12    1    1    2    0    0  0.12866188644E+02 -0.12180345036E+02  0.39619743218E+02  0.43400733497E+02  0.00000000000E+00 0.  1.
         11    1    3    3    0    0  0.23798878455E+01  0.81922100081E+01 -0.14698736073E+02  0.16994970238E+02  0.51100000000E-03 0. -1.
        -11    1    3    3    0    0 -0.78110917699E+01  0.64277899708E+01 -0.12093947630E+02  0.15766838874E+02  0.51100000000E-03 0.  1.
         12    1    3    3    0    0 -0.74349847193E+01 -0.24396549429E+01 -0.12827059515E+02  0.15025457391E+02  0.00000000000E+00 0. -1.
</event>
<event>
 7    1  0.2458979E-009  0.4778726E+02  0.7816164E-02  0.1312668E+00
        -11   -1    0    0    0    0  0.00000000000E+00  0.00000000000E+00  0.45593999997E+02  0.45594000000E+02  0.51100000000E-03 0.  1.
         11   -1    0    0    0    0 -0.00000000000E+00 -0.00000000000E+00 -0.45593999997E+02  0.45594000000E+02  0.51100000000E-03 0. -1.
    9900012    2    1    2    0    0 -0.15972309249E+02  0.39473437812E+02 -0.83879146946E+01  0.47787261891E+02  0.19999958267E+02 0.  0.
        -12    1    1    2    0    0  0.15972309249E+02 -0.39473437812E+02  0.83879146946E+01  0.43400738109E+02  0.00000000000E+00 0.  1.
         11    1    3    3    0    0  0.22334227564E+01  0.74066010639E+01  0.15712711105E+01  0.78939729980E+01  0.51100000000E-03 0. -1.
        -11    1    3    3    0    0 -0.18826229664E+02  0.32695696243E+02 -0.99111147072E+01  0.39008533312E+02  0.51100000000E-03 0.  1.
        -12    1    3    3    0    0  0.62049765871E+00 -0.62885949436E+00 -0.48071097922E-01  0.88475558126E+00  0.00000000000E+00 0.  1.
</event>
<event>
 7    1  0.2458979E-009  0.4778730E+02  0.7816164E-02  0.1312668E+00
        -11   -1    0    0    0    0  0.00000000000E+00  0.00000000000E+00  0.45593999997E+02  0.45594000000E+02  0.51100000000E-03 0. -1.
         11   -1    0    0    0    0 -0.00000000000E+00 -0.00000000000E+00 -0.45593999997E+02  0.45594000000E+02  0.51100000000E-03 0.  1.
    9900012    2    1    2    0    0  0.58530487293E+01 -0.48304338495E+01  0.42732070877E+02  0.47787295489E+02  0.20000111452E+02 0.  0.
        -12    1    1    2    0    0 -0.58530487293E+01  0.48304338495E+01 -0.42732070877E+02  0.43400704511E+02  0.00000000000E+00 0.  1.
         11    1    3    3    0    0 -0.42627250787E+01  0.49291485084E+01  0.97896608323E+01  0.11760305676E+02  0.51100000000E-03 0.  1.
        -11    1    3    3    0    0  0.91535377516E+01 -0.66822153182E+01  0.24678829533E+02  0.27156654476E+02  0.51100000000E-03 0. -1.
        -12    1    3    3    0    0  0.96223605643E+00 -0.30773670397E+01  0.82635805120E+01  0.88703353377E+01  0.00000000000E+00 0.  1.
</event>
<event>
 7    1  0.2458979E-009  0.4778727E+02  0.7816164E-02  0.1312668E+00
        -11   -1    0    0    0    0  0.00000000000E+00  0.00000000000E+00  0.45593999997E+02  0.45594000000E+02  0.51100000000E-03 0. -1.
         11   -1    0    0    0    0 -0.00000000000E+00 -0.00000000000E+00 -0.45593999997E+02  0.45594000000E+02  0.51100000000E-03 0.  1.
    9900012    2    1    2    0    0 -0.27028243156E+02  0.26623034520E+02  0.21078690265E+02  0.47787273296E+02  0.20000010268E+02 0.  0.
        -12    1    1    2    0    0  0.27028243156E+02 -0.26623034520E+02 -0.21078690265E+02  0.43400726704E+02  0.00000000000E+00 0.  1.
         11    1    3    3    0    0 -0.80306999070E+01  0.77997292870E+01  0.11103827180E+02  0.15767780321E+02  0.51100000000E-03 0. -1.
        -11    1    3    3    0    0  0.21661218588E+01  0.38427485730E+00 -0.85367013527E-01  0.22015991600E+01  0.51100000000E-03 0.  1.
        -12    1    3    3    0    0 -0.21163665108E+02  0.18439030375E+02  0.10060230099E+02  0.29817893816E+02  0.00000000000E+00 0.  1.
</event>
<event>
 7    1  0.2458979E-009  0.4778728E+02  0.7816164E-02  0.1312668E+00
        -11   -1    0    0    0    0  0.00000000000E+00  0.00000000000E+00  0.45593999997E+02  0.45594000000E+02  0.51100000000E-03 0.  1.
         11   -1    0    0    0    0 -0.00000000000E+00 -0.00000000000E+00 -0.45593999997E+02  0.45594000000E+02  0.51100000000E-03 0. -1.
    9900012    2    1    2    0    0 -0.11369299262E+02 -0.32024506867E+02 -0.26996162083E+02  0.47787276815E+02  0.20000026309E+02 0.  0.
        -12    1    1    2    0    0  0.11369299262E+02  0.32024506867E+02  0.26996162083E+02  0.43400723185E+02  0.00000000000E+00 0.  1.
         11    1    3    3    0    0  0.36675292408E+01 -0.16843844703E+02 -0.10461980372E+02  0.20164793792E+02  0.51100000000E-03 0. -1.
        -11    1    3    3    0    0 -0.41459055518E+00 -0.28264673078E+01 -0.12127984075E+01  0.31034952890E+01  0.51100000000E-03 0.  1.
         12    1    3    3    0    0 -0.14622237948E+02 -0.12354194857E+02 -0.15321383304E+02  0.24518987734E+02  0.00000000000E+00 0. -1.
</event>
<event>
 7    1  0.2458979E-009  0.4778727E+02  0.7816164E-02  0.1312668E+00
        -11   -1    0    0    0    0  0.00000000000E+00  0.00000000000E+00  0.45593999997E+02  0.45594000000E+02  0.51100000000E-03 0. -1.
         11   -1    0    0    0    0 -0.00000000000E+00 -0.00000000000E+00 -0.45593999997E+02  0.45594000000E+02  0.51100000000E-03 0.  1.
    9900012    2    1    2    0    0 -0.39227633337E+02  0.71359381428E+01 -0.17143354907E+02  0.47787269040E+02  0.19999990861E+02 0.  0.
        -12    1    1    2    0    0  0.39227633337E+02 -0.71359381428E+01  0.17143354907E+02  0.43400730960E+02  0.00000000000E+00 0.  1.
         11    1    3    3    0    0 -0.36512317182E+02  0.37288265559E+01 -0.99886284352E+01  0.38037168030E+02  0.51100000000E-03 0. -1.
        -11    1    3    3    0    0 -0.34250313489E+01  0.17286726320E+01 -0.69204798840E+01  0.79127865443E+01  0.51100000000E-03 0.  1.
         12    1    3    3    0    0  0.70971519388E+00  0.16784389549E+01 -0.23424658813E+00  0.18373144656E+01  0.00000000000E+00 0. -1.
</event>
<event>
 7    1  0.2458979E-009  0.4778727E+02  0.7816164E-02  0.1312668E+00
        -11   -1    0    0    0    0  0.00000000000E+00  0.00000000000E+00  0.45593999997E+02  0.45594000000E+02  0.51100000000E-03 0.  1.
         11   -1    0    0    0    0 -0.00000000000E+00 -0.00000000000E+00 -0.45593999997E+02  0.45594000000E+02  0.51100000000E-03 0. -1.
    9900012    2    1    2    0    0  0.36095746280E+02 -0.15685813531E+02 -0.18294152086E+02  0.47787266755E+02  0.19999980445E+02 0.  0.
        -12    1    1    2    0    0 -0.36095746280E+02  0.15685813531E+02  0.18294152086E+02  0.43400733245E+02  0.00000000000E+00 0.  1.
         11    1    3    3    0    0  0.19724849230E+02 -0.87984306666E+01 -0.27188165681E+01  0.21768647711E+02  0.51100000000E-03 0. -1.
        -11    1    3    3    0    0  0.15912001617E+02 -0.49468872950E+01 -0.16813170786E+02  0.23671632844E+02  0.51100000000E-03 0.  1.
        -12    1    3    3    0    0  0.45889543208E+00 -0.19404955695E+01  0.12378352685E+01  0.23469862004E+01  0.00000000000E+00 0.  1.
</event>
<event>
 7    1  0.2458979E-009  0.4778727E+02  0.7816164E-02  0.1312668E+00
        -11   -1    0    0    0    0  0.00000000000E+00  0.00000000000E+00  0.45593999997E+02  0.45594000000E+02  0.51100000000E-03 0.  1.
         11   -1    0    0    0    0 -0.00000000000E+00 -0.00000000000E+00 -0.45593999997E+02  0.45594000000E+02  0.51100000000E-03 0. -1.
    9900012    2    1    2    0    0  0.41666150765E+02  0.35783454308E+01 -0.11608210991E+02  0.47787271458E+02  0.20000001886E+02 0.  0.
        -12    1    1    2    0    0 -0.41666150765E+02 -0.35783454308E+01  0.11608210991E+02  0.43400728542E+02  0.00000000000E+00 0.  1.
         11    1    3    3    0    0  0.13102595026E+02  0.90907311742E+00 -0.97426724446E+01  0.16353106034E+02  0.51100000000E-03 0. -1.
        -11    1    3    3    0    0  0.23757051296E+02  0.71425344210E+01 -0.17081594659E+01  0.24866264160E+02  0.51100000000E-03 0.  1.
        -12    1    3    3    0    0  0.48065044426E+01 -0.44732621076E+01 -0.15737908026E+00  0.65679012641E+01  0.00000000000E+00 0.  1.
</event>
<event>
 7    1  0.2458979E-009  0.4778721E+02  0.7816164E-02  0.1312668E+00
        -11   -1    0    0    0    0  0.00000000000E+00  0.00000000000E+00  0.45593999997E+02  0.45594000000E+02  0.51100000000E-03 0. -1.
         11   -1    0    0    0    0 -0.00000000000E+00 -0.00000000000E+00 -0.45593999997E+02  0.45594000000E+02  0.51100000000E-03 0.  1.
    9900012    2    1    2    0    0  0.27084849580E+01 -0.28233957203E+02  0.32850214464E+02  0.47787207145E+02  0.19999708656E+02 0.  0.
        -12    1    1    2    0    0 -0.27084849580E+01  0.28233957203E+02 -0.32850214464E+02  0.43400792855E+02  0.00000000000E+00 0.  1.
         11    1    3    3    0    0 -0.20154671601E+01 -0.20151542264E+01  0.30639996167E+01  0.41846204538E+01  0.51100000000E-03 0. -1.
        -11    1    3    3    0    0 -0.20177278132E+01 -0.13758181104E+02  0.25074609505E+02  0.28672195851E+02  0.51100000000E-03 0.  1.
        -12    1    3    3    0    0  0.67416799314E+01 -0.12460621873E+02  0.47116053417E+01  0.14930390841E+02  0.00000000000E+00 0.  1.
</event>
<event>
 7    1  0.2458979E-009  0.4778727E+02  0.7816164E-02  0.1312668E+00
        -11   -1    0    0    0    0  0.00000000000E+00  0.00000000000E+00  0.45593999997E+02  0.45594000000E+02  0.51100000000E-03 0.  1.
         11   -1    0    0    0    0 -0.00000000000E+00 -0.00000000000E+00 -0.45593999997E+02  0.45594000000E+02  0.51100000000E-03 0. -1.
    9900012    2    1    2    0    0 -0.26672012929E+02  0.34888365507E+01 -0.34059575827E+02  0.47787274664E+02  0.20000016503E+02 0.  0.
        -12    1    1    2    0    0  0.26672012929E+02 -0.34888365507E+01  0.34059575827E+02  0.43400725336E+02  0.00000000000E+00 0.  1.
         11    1    3    3    0    0 -0.16489164150E+02  0.57609094426E+01 -0.28548210778E+02  0.33467610475E+02  0.51100000000E-03 0. -1.
        -11    1    3    3    0    0 -0.53446283110E+01  0.23923239095E+01 -0.38701147889E+00  0.58683936147E+01  0.51100000000E-03 0.  1.
         12    1    3    3    0    0 -0.48382204677E+01 -0.46643968013E+01 -0.51243535700E+01  0.84512705746E+01  0.00000000000E+00 0. -1.
</event>
<event>
 7    1  0.2458979E-009  0.4778727E+02  0.7816164E-02  0.1312668E+00
        -11   -1    0    0    0    0  0.00000000000E+00  0.00000000000E+00  0.45593999997E+02  0.45594000000E+02  0.51100000000E-03 0.  1.
         11   -1    0    0    0    0 -0.00000000000E+00 -0.00000000000E+00 -0.45593999997E+02  0.45594000000E+02  0.51100000000E-03 0. -1.
    9900012    2    1    2    0    0 -0.30576278241E+02 -0.30786571543E+02  0.94945811838E+00  0.47787271330E+02  0.20000001300E+02 0.  0.
        -12    1    1    2    0    0  0.30576278241E+02  0.30786571543E+02 -0.94945811838E+00  0.43400728670E+02  0.00000000000E+00 0.  1.
         11    1    3    3    0    0 -0.14476302611E+00  0.17311906930E+01  0.59652944656E+00  0.18367975367E+01  0.51100000000E-03 0.  1.
        -11    1    3    3    0    0 -0.17611290965E+02 -0.24875519125E+02  0.35560594535E+01  0.30685413152E+02  0.51100000000E-03 0. -1.
         12    1    3    3    0    0 -0.12820224250E+02 -0.76422431105E+01 -0.32031307817E+01  0.15265060641E+02  0.00000000000E+00 0. -1.
</event>
<event>
 7    1  0.2458979E-009  0.4778727E+02  0.7816164E-02  0.1312668E+00
        -11   -1    0    0    0    0  0.00000000000E+00  0.00000000000E+00  0.45593999997E+02  0.45594000000E+02  0.51100000000E-03 0. -1.
         11   -1    0    0    0    0 -0.00000000000E+00 -0.00000000000E+00 -0.45593999997E+02  0.45594000000E+02  0.51100000000E-03 0.  1.
    9900012    2    1    2    0    0 -0.11519101016E+01 -0.12875236499E+02  0.41430965122E+02  0.47787268638E+02  0.19999989029E+02 0.  0.
        -12    1    1    2    0    0  0.11519101016E+01  0.12875236499E+02 -0.41430965122E+02  0.43400731362E+02  0.00000000000E+00 0.  1.
         11    1    3    3    0    0  0.15877129852E+01 -0.17461967743E+01  0.77406136075E+01  0.80924121854E+01  0.51100000000E-03 0.  1.
        -11    1    3    3    0    0 -0.50403604192E+00 -0.67549331239E+00  0.27149563435E+02  0.27162642334E+02  0.51100000000E-03 0. -1.
        -12    1    3    3    0    0 -0.22355870449E+01 -0.10453546412E+02  0.65407880793E+01  0.12532214119E+02  0.00000000000E+00 0.  1.
</event>
<event>
 7    1  0.2458979E-009  0.4778727E+02  0.7816164E-02  0.1312668E+00
        -11   -1    0    0    0    0  0.00000000000E+00  0.00000000000E+00  0.45593999997E+02  0.45594000000E+02  0.51100000000E-03 0.  1.
         11   -1    0    0    0    0 -0.00000000000E+00 -0.00000000000E+00 -0.45593999997E+02  0.45594000000E+02  0.51100000000E-03 0. -1.
    9900012    2    1    2    0    0  0.36434668942E+01  0.43146052089E+02 -0.29608639627E+01  0.47787269853E+02  0.19999994569E+02 0.  0.
        -12    1    1    2    0    0 -0.36434668942E+01 -0.43146052089E+02  0.29608639627E+01  0.43400730147E+02  0.00000000000E+00 0.  1.
         11    1    3    3    0    0  0.55092928199E+01  0.33261805156E+01 -0.32778888277E+01  0.72222115467E+01  0.51100000000E-03 0. -1.
        -11    1    3    3    0    0  0.11438146617E+01  0.63863972901E+01 -0.23263474641E+01  0.68924796055E+01  0.51100000000E-03 0.  1.
         12    1    3    3    0    0 -0.30096405874E+01  0.33433474283E+02  0.26433723291E+01  0.33672578701E+02  0.00000000000E+00 0. -1.
</event>
<event>
 7    1  0.2458979E-009  0.4778726E+02  0.7816164E-02  0.1312668E+00
        -11   -1    0    0    0    0  0.00000000000E+00  0.00000000000E+00  0.45593999997E+02  0.45594000000E+02  0.51100000000E-03 0.  1.
         11   -1    0    0    0    0 -0.00000000000E+00 -0.00000000000E+00 -0.45593999997E+02  0.45594000000E+02  0.51100000000E-03 0. -1.
    9900012    2    1    2    0    0 -0.15681131764E+01 -0.39950025240E+02 -0.16886713503E+02  0.47787255899E+02  0.19999930945E+02 0.  0.
        -12    1    1    2    0    0  0.15681131764E+01  0.39950025240E+02  0.16886713503E+02  0.43400744101E+02  0.00000000000E+00 0.  1.
         11    1    3    3    0    0 -0.53204118166E+01 -0.38008482409E+01 -0.60593866987E+01  0.89145609356E+01  0.51100000000E-03 0. -1.
        -11    1    3    3    0    0  0.37864050709E+01 -0.26842054803E+02 -0.41630886379E+01  0.27425609869E+02  0.51100000000E-03 0.  1.
         12    1    3    3    0    0 -0.34106430663E-01 -0.93071221959E+01 -0.66642381663E+01  0.11447085094E+02  0.00000000000E+00 0. -1.
</event>
<event>
 7    1  0.2458979E-009  0.4778727E+02  0.7816164E-02  0.1312668E+00
        -11   -1    0    0    0    0  0.00000000000E+00  0.00000000000E+00  0.45593999997E+02  0.45594000000E+02  0.51100000000E-03 0.  1.
         11   -1    0    0    0    0 -0.00000000000E+00 -0.00000000000E+00 -0.45593999997E+02  0.45594000000E+02  0.51100000000E-03 0. -1.
    9900012    2    1    2    0    0 -0.47795828924E+01  0.37701208488E+02 -0.20961822267E+02  0.47787268130E+02  0.19999986711E+02 0.  0.
        -12    1    1    2    0    0  0.47795828924E+01 -0.37701208488E+02  0.20961822267E+02  0.43400731870E+02  0.00000000000E+00 0.  1.
         11    1    3    3    0    0 -0.10169189398E+02  0.16102520078E+02 -0.10553192450E+02  0.21773227529E+02  0.51100000000E-03 0. -1.
        -11    1    3    3    0    0  0.23960506801E+01  0.66253408252E+01  0.77374409235E+00  0.70876568832E+01  0.51100000000E-03 0.  1.
         12    1    3    3    0    0  0.29935558252E+01  0.14973347585E+02 -0.11182373910E+02  0.18926383718E+02  0.00000000000E+00 0. -1.
</event>
<event>
 7    1  0.2458979E-009  0.4778727E+02  0.7816164E-02  0.1312668E+00
        -11   -1    0    0    0    0  0.00000000000E+00  0.00000000000E+00  0.45593999997E+02  0.45594000000E+02  0.51100000000E-03 0.  1.
         11   -1    0    0    0    0 -0.00000000000E+00 -0.00000000000E+00 -0.45593999997E+02  0.45594000000E+02  0.51100000000E-03 0. -1.
    9900012    2    1    2    0    0 -0.22961258030E+02 -0.61201208888E+01 -0.36317325025E+02  0.47787270202E+02  0.19999996158E+02 0.  0.
        -12    1    1    2    0    0  0.22961258030E+02  0.61201208888E+01  0.36317325025E+02  0.43400729798E+02  0.00000000000E+00 0.  1.
         11    1    3    3    0    0 -0.16549917840E+02 -0.70638874611E+01 -0.22193970922E+02  0.28572200337E+02  0.51100000000E-03 0. -1.
        -11    1    3    3    0    0 -0.41082635588E+01 -0.45979766471E+01 -0.37095840099E+01  0.71958482824E+01  0.51100000000E-03 0.  1.
         12    1    3    3    0    0 -0.23030766314E+01  0.55417432194E+01 -0.10413770094E+02  0.12019221582E+02  0.00000000000E+00 0. -1.
</event>
<event>
 7    1  0.2458979E-009  0.4778728E+02  0.7816164E-02  0.1312668E+00
        -11   -1    0    0    0    0  0.00000000000E+00  0.00000000000E+00  0.45593999997E+02  0.45594000000E+02  0.51100000000E-03 0. -1.
         11   -1    0    0    0    0 -0.00000000000E+00 -0.00000000000E+00 -0.45593999997E+02  0.45594000000E+02  0.51100000000E-03 0.  1.
    9900012    2    1    2    0    0 -0.81157068047E+01 -0.42361461261E+02  0.48233452783E+01  0.47787277001E+02  0.20000027160E+02 0.  0.
        -12    1    1    2    0    0  0.81157068047E+01  0.42361461261E+02 -0.48233452783E+01  0.43400722999E+02  0.00000000000E+00 0.  1.
         11    1    3    3    0    0 -0.10219707543E+02 -0.36316209811E+02  0.71859081412E+01  0.38405036042E+02  0.51100000000E-03 0. -1.
        -11    1    3    3    0    0  0.12607738536E+01  0.10196880428E+01  0.52376174847E+00  0.17040073488E+01  0.51100000000E-03 0.  1.
         12    1    3    3    0    0  0.84322688470E+00 -0.70649394928E+01 -0.28863246114E+01  0.76782336106E+01  0.00000000000E+00 0. -1.
</event>
<event>
 7    1  0.2458979E-009  0.4778729E+02  0.7816164E-02  0.1312668E+00
        -11   -1    0    0    0    0  0.00000000000E+00  0.00000000000E+00  0.45593999997E+02  0.45594000000E+02  0.51100000000E-03 0. -1.
         11   -1    0    0    0    0 -0.00000000000E+00 -0.00000000000E+00 -0.45593999997E+02  0.45594000000E+02  0.51100000000E-03 0.  1.
    9900012    2    1    2    0    0  0.39107850453E+02 -0.17130525696E+02  0.77937594636E+01  0.47787290740E+02  0.20000089800E+02 0.  0.
        -12    1    1    2    0    0 -0.39107850453E+02  0.17130525696E+02 -0.77937594636E+01  0.43400709260E+02  0.00000000000E+00 0.  1.
         11    1    3    3    0    0  0.17674666633E+02 -0.42956129301E+01  0.72151025112E+01  0.19567928750E+02  0.51100000000E-03 0. -1.
        -11    1    3    3    0    0 -0.10454959571E+01 -0.14391959729E+01 -0.22395192783E+01  0.28600338641E+01  0.51100000000E-03 0.  1.
        -12    1    3    3    0    0  0.22478679777E+02 -0.11395716793E+02  0.28181762307E+01  0.25359328126E+02  0.00000000000E+00 0.  1.
</event>
<event>
 7    1  0.2458979E-009  0.4778728E+02  0.7816164E-02  0.1312668E+00
        -11   -1    0    0    0    0  0.00000000000E+00  0.00000000000E+00  0.45593999997E+02  0.45594000000E+02  0.51100000000E-03 0.  1.
         11   -1    0    0    0    0 -0.00000000000E+00 -0.00000000000E+00 -0.45593999997E+02  0.45594000000E+02  0.51100000000E-03 0. -1.
    9900012    2    1    2    0    0 -0.45989085690E+01  0.42323816093E+02 -0.84360738825E+01  0.47787277526E+02  0.20000029553E+02 0.  0.
        -12    1    1    2    0    0  0.45989085690E+01 -0.42323816093E+02  0.84360738825E+01  0.43400722474E+02  0.00000000000E+00 0.  1.
         11    1    3    3    0    0  0.35347189513E+01  0.11106563335E+02 -0.73726661225E+01  0.13791526137E+02  0.51100000000E-03 0. -1.
        -11    1    3    3    0    0 -0.50367506260E+01  0.13558860947E+02  0.46273941193E+01  0.15186320938E+02  0.51100000000E-03 0.  1.
         12    1    3    3    0    0 -0.30968768942E+01  0.17658391811E+02 -0.56908018793E+01  0.18809430451E+02  0.00000000000E+00 0. -1.
</event>
<event>
 7    1  0.2458979E-009  0.4778728E+02  0.7816164E-02  0.1312668E+00
        -11   -1    0    0    0    0  0.00000000000E+00  0.00000000000E+00  0.45593999997E+02  0.45594000000E+02  0.51100000000E-03 0.  1.
         11   -1    0    0    0    0 -0.00000000000E+00 -0.00000000000E+00 -0.45593999997E+02  0.45594000000E+02  0.51100000000E-03 0. -1.
    9900012    2    1    2    0    0 -0.40083147676E+02 -0.52609117796E+01 -0.15788825203E+02  0.47787275102E+02  0.20000018501E+02 0.  0.
        -12    1    1    2    0    0  0.40083147676E+02  0.52609117796E+01  0.15788825203E+02  0.43400724898E+02  0.00000000000E+00 0.  1.
         11    1    3    3    0    0 -0.32720003959E+00 -0.47304745766E+01 -0.15650463537E+01  0.49933776080E+01  0.51100000000E-03 0.  1.
        -11    1    3    3    0    0 -0.19612745954E+02 -0.11262739319E+01 -0.34601012667E+01  0.19947445898E+02  0.51100000000E-03 0. -1.
         12    1    3    3    0    0 -0.20143201682E+02  0.59583672885E+00 -0.10763677583E+02  0.22846451596E+02  0.00000000000E+00 0. -1.
</event>
<event>
 7    1  0.2458979E-009  0.4778727E+02  0.7816164E-02  0.1312668E+00
        -11   -1    0    0    0    0  0.00000000000E+00  0.00000000000E+00  0.45593999997E+02  0.45594000000E+02  0.51100000000E-03 0.  1.
         11   -1    0    0    0    0 -0.00000000000E+00 -0.00000000000E+00 -0.45593999997E+02  0.45594000000E+02  0.51100000000E-03 0. -1.
    9900012    2    1    2    0    0 -0.12525284927E+02  0.28663637051E+02 -0.30085489165E+02  0.47787268326E+02  0.19999987607E+02 0.  0.
        -12    1    1    2    0    0  0.12525284927E+02 -0.28663637051E+02  0.30085489165E+02  0.43400731674E+02  0.00000000000E+00 0.  1.
         11    1    3    3    0    0 -0.11895398676E+02  0.17608542163E+02 -0.21810272780E+02  0.30450767901E+02  0.51100000000E-03 0. -1.
        -11    1    3    3    0    0  0.17209089103E+01 -0.77369115822E+00  0.98764942298E+00  0.21296894444E+01  0.51100000000E-03 0.  1.
         12    1    3    3    0    0 -0.23507951618E+01  0.11828786047E+02 -0.92628658076E+01  0.15206810981E+02  0.00000000000E+00 0. -1.
</event>
<event>
 7    1  0.2458979E-009  0.4778727E+02  0.7816164E-02  0.1312668E+00
        -11   -1    0    0    0    0  0.00000000000E+00  0.00000000000E+00  0.45593999997E+02  0.45594000000E+02  0.51100000000E-03 0.  1.
         11   -1    0    0    0    0 -0.00000000000E+00 -0.00000000000E+00 -0.45593999997E+02  0.45594000000E+02  0.51100000000E-03 0. -1.
    9900012    2    1    2    0    0 -0.17799713591E+02  0.33023740169E+02 -0.21822600071E+02  0.47787273133E+02  0.20000009523E+02 0.  0.
        -12    1    1    2    0    0  0.17799713591E+02 -0.33023740169E+02  0.21822600071E+02  0.43400726867E+02  0.00000000000E+00 0.  1.
         11    1    3    3    0    0 -0.69334694910E+01  0.23489343734E+02 -0.10544869633E+02  0.26664893476E+02  0.51100000000E-03 0. -1.
        -11    1    3    3    0    0  0.12626201976E+01  0.90636039167E-03 -0.37495245267E+01  0.39564055685E+01  0.51100000000E-03 0.  1.
         12    1    3    3    0    0 -0.12128864298E+02  0.95334900746E+01 -0.75282059113E+01  0.17165974088E+02  0.00000000000E+00 0. -1.
</event>
<event>
 7    1  0.2458979E-009  0.4778722E+02  0.7816164E-02  0.1312668E+00
        -11   -1    0    0    0    0  0.00000000000E+00  0.00000000000E+00  0.45593999997E+02  0.45594000000E+02  0.51100000000E-03 0.  1.
         11   -1    0    0    0    0 -0.00000000000E+00 -0.00000000000E+00 -0.45593999997E+02  0.45594000000E+02  0.51100000000E-03 0. -1.
    9900012    2    1    2    0    0  0.12543509204E+02  0.95636435197E+00 -0.41537613578E+02  0.47787221231E+02  0.19999772881E+02 0.  0.
        -12    1    1    2    0    0 -0.12543509204E+02 -0.95636435197E+00  0.41537613578E+02  0.43400778769E+02  0.00000000000E+00 0.  1.
         11    1    3    3    0    0  0.46555937517E+01 -0.18973910261E+01 -0.34893743002E+01  0.61196714907E+01  0.51100000000E-03 0. -1.
        -11    1    3    3    0    0  0.11589404656E+02  0.48465913700E+01 -0.25355023713E+02  0.28296306754E+02  0.51100000000E-03 0.  1.
        -12    1    3    3    0    0 -0.37014892032E+01 -0.19928359919E+01 -0.12693215566E+02  0.13371242987E+02  0.00000000000E+00 0.  1.
</event>
<event>
 7    1  0.2458979E-009  0.4778727E+02  0.7816164E-02  0.1312668E+00
        -11   -1    0    0    0    0  0.00000000000E+00  0.00000000000E+00  0.45593999997E+02  0.45594000000E+02  0.51100000000E-03 0. -1.
         11   -1    0    0    0    0 -0.00000000000E+00 -0.00000000000E+00 -0.45593999997E+02  0.45594000000E+02  0.51100000000E-03 0.  1.
    9900012    2    1    2    0    0  0.47169704766E+01 -0.36364307699E+02  0.23216599758E+02  0.47787272020E+02  0.20000004448E+02 0.  0.
        -12    1    1    2    0    0 -0.47169704766E+01  0.36364307699E+02 -0.23216599758E+02  0.43400727980E+02  0.00000000000E+00 0.  1.
         11    1    3    3    0    0  0.69370122333E+01 -0.15477016759E+02  0.17795746019E+02  0.24583505916E+02  0.51100000000E-03 0. -1.
        -11    1    3    3    0    0 -0.23820129135E+01 -0.19811902126E+02  0.25290266927E+01  0.20114209596E+02  0.51100000000E-03 0.  1.
        -12    1    3    3    0    0  0.16197115679E+00 -0.10753888137E+01  0.28918270462E+01  0.30895565089E+01  0.00000000000E+00 0.  1.
</event>
<event>
 7    1  0.2458979E-009  0.4778727E+02  0.7816164E-02  0.1312668E+00
        -11   -1    0    0    0    0  0.00000000000E+00  0.00000000000E+00  0.45593999997E+02  0.45594000000E+02  0.51100000000E-03 0.  1.
         11   -1    0    0    0    0 -0.00000000000E+00 -0.00000000000E+00 -0.45593999997E+02  0.45594000000E+02  0.51100000000E-03 0. -1.
    9900012    2    1    2    0    0  0.38428740363E+02  0.15727999666E+02 -0.12628741561E+02  0.47787272209E+02  0.20000005308E+02 0.  0.
        -12    1    1    2    0    0 -0.38428740363E+02 -0.15727999666E+02  0.12628741561E+02  0.43400727791E+02  0.00000000000E+00 0.  1.
         11    1    3    3    0    0 -0.21965405637E+00 -0.16766351751E+01 -0.26447043583E+01  0.31390786576E+01  0.51100000000E-03 0. -1.
        -11    1    3    3    0    0  0.30791540330E+02  0.10423121221E+02 -0.45772924566E+01  0.32828524463E+02  0.51100000000E-03 0.  1.
        -12    1    3    3    0    0  0.78568540895E+01  0.69815136200E+01 -0.54067447462E+01  0.11819669088E+02  0.00000000000E+00 0.  1.
</event>
<event>
 7    1  0.2458979E-009  0.4778728E+02  0.7816164E-02  0.1312668E+00
        -11   -1    0    0    0    0  0.00000000000E+00  0.00000000000E+00  0.45593999997E+02  0.45594000000E+02  0.51100000000E-03 0.  1.
         11   -1    0    0    0    0 -0.00000000000E+00 -0.00000000000E+00 -0.45593999997E+02  0.45594000000E+02  0.51100000000E-03 0. -1.
    9900012    2    1    2    0    0  0.10540671649E+02 -0.10937191360E+02 -0.40655804437E+02  0.47787281710E+02  0.20000048628E+02 0.  0.
        -12    1    1    2    0    0 -0.10540671649E+02  0.10937191360E+02  0.40655804437E+02  0.43400718290E+02  0.00000000000E+00 0.  1.
         11    1    3    3    0    0  0.20194018416E+01  0.31575468604E+01 -0.16797342573E+02  0.17210427181E+02  0.51100000000E-03 0. -1.
        -11    1    3    3    0    0  0.33005793620E+01 -0.37014500647E+01 -0.11920449574E+01  0.51005419465E+01  0.51100000000E-03 0.  1.
         12    1    3    3    0    0  0.52206904453E+01 -0.10393288155E+02 -0.22666416907E+02  0.25476312582E+02  0.00000000000E+00 0. -1.
</event>
<event>
 7    1  0.2458979E-009  0.4778727E+02  0.7816164E-02  0.1312668E+00
        -11   -1    0    0    0    0  0.00000000000E+00  0.00000000000E+00  0.45593999997E+02  0.45594000000E+02  0.51100000000E-03 0. -1.
         11   -1    0    0    0    0 -0.00000000000E+00 -0.00000000000E+00 -0.45593999997E+02  0.45594000000E+02  0.51100000000E-03 0.  1.
    9900012    2    1    2    0    0  0.35992238838E+02 -0.22827720009E+02  0.81900995306E+01  0.47787265125E+02  0.19999973013E+02 0.  0.
        -12    1    1    2    0    0 -0.35992238838E+02  0.22827720009E+02 -0.81900995306E+01  0.43400734875E+02  0.00000000000E+00 0.  1.
         11    1    3    3    0    0  0.96819594206E+01 -0.60261140423E+01  0.10469079736E+02  0.15480827480E+02  0.51100000000E-03 0. -1.
        -11    1    3    3    0    0  0.26586161789E+02 -0.15252396430E+02 -0.20946433864E+01  0.30722095090E+02  0.51100000000E-03 0.  1.
        -12    1    3    3    0    0 -0.27588237231E+00 -0.15492095362E+01 -0.18433681936E+00  0.15843425556E+01  0.00000000000E+00 0.  1.
</event>
<event>
 7    1  0.2458979E-009  0.4778726E+02  0.7816164E-02  0.1312668E+00
        -11   -1    0    0    0    0  0.00000000000E+00  0.00000000000E+00  0.45593999997E+02  0.45594000000E+02  0.51100000000E-03 0. -1.
         11   -1    0    0    0    0 -0.00000000000E+00 -0.00000000000E+00 -0.45593999997E+02  0.45594000000E+02  0.51100000000E-03 0.  1.
    9900012    2    1    2    0    0 -0.28079009821E+02 -0.32895361225E+02  0.36178637084E+01  0.47787256683E+02  0.19999934519E+02 0.  0.
        -12    1    1    2    0    0  0.28079009821E+02  0.32895361225E+02 -0.36178637084E+01  0.43400743317E+02  0.00000000000E+00 0.  1.
         11    1    3    3    0    0 -0.11761958523E+02 -0.69486139537E+01  0.84186751083E+01  0.16046837539E+02  0.51100000000E-03 0. -1.
        -11    1    3    3    0    0 -0.12053119419E+02 -0.14408508550E+02 -0.49952452886E+01  0.19437985547E+02  0.51100000000E-03 0.  1.
         12    1    3    3    0    0 -0.42639318795E+01 -0.11538238721E+02  0.19443388866E+00  0.12302433596E+02  0.00000000000E+00 0. -1.
</event>
<event>
 7    1  0.2458979E-009  0.4778727E+02  0.7816164E-02  0.1312668E+00
        -11   -1    0    0    0    0  0.00000000000E+00  0.00000000000E+00  0.45593999997E+02  0.45594000000E+02  0.51100000000E-03 0. -1.
         11   -1    0    0    0    0 -0.00000000000E+00 -0.00000000000E+00 -0.45593999997E+02  0.45594000000E+02  0.51100000000E-03 0.  1.
    9900012    2    1    2    0    0 -0.32142154690E+02  0.60294529173E+00  0.29157193992E+02  0.47787267142E+02  0.19999982206E+02 0.  0.
        -12    1    1    2    0    0  0.32142154690E+02 -0.60294529173E+00 -0.29157193992E+02  0.43400732858E+02  0.00000000000E+00 0.  1.
         11    1    3    3    0    0 -0.33001003113E+02 -0.14908024754E+01  0.26093723500E+02  0.42097162669E+02  0.51100000000E-03 0. -1.
        -11    1    3    3    0    0  0.19762979333E+01 -0.13871937247E+00  0.36605828089E+00  0.20146948929E+01  0.51100000000E-03 0.  1.
         12    1    3    3    0    0 -0.11174495106E+01  0.22324671396E+01  0.26974122117E+01  0.36754095796E+01  0.00000000000E+00 0. -1.
</event>
<event>
 7    1  0.2458979E-009  0.4778726E+02  0.7816164E-02  0.1312668E+00
        -11   -1    0    0    0    0  0.00000000000E+00  0.00000000000E+00  0.45593999997E+02  0.45594000000E+02  0.51100000000E-03 0.  1.
         11   -1    0    0    0    0 -0.00000000000E+00 -0.00000000000E+00 -0.45593999997E+02  0.45594000000E+02  0.51100000000E-03 0. -1.
    9900012    2    1    2    0    0 -0.45090033588E+01 -0.27691993736E+02 -0.33112629706E+02  0.47787264126E+02  0.19999968458E+02 0.  0.
        -12    1    1    2    0    0  0.45090033588E+01  0.27691993736E+02  0.33112629706E+02  0.43400735874E+02  0.00000000000E+00 0.  1.
         11    1    3    3    0    0  0.43194665163E+01 -0.10248995564E+02 -0.88522390090E+01  0.14214845648E+02  0.51100000000E-03 0. -1.
        -11    1    3    3    0    0 -0.83413559097E+01 -0.18993792005E+02 -0.24294856948E+02  0.31946555800E+02  0.51100000000E-03 0.  1.
        -12    1    3    3    0    0 -0.48711396552E+00  0.15507938328E+01  0.34466250924E-01  0.16258626786E+01  0.00000000000E+00 0.  1.
</event>
<event>
 7    1  0.2458979E-009  0.4778728E+02  0.7816164E-02  0.1312668E+00
        -11   -1    0    0    0    0  0.00000000000E+00  0.00000000000E+00  0.45593999997E+02  0.45594000000E+02  0.51100000000E-03 0. -1.
         11   -1    0    0    0    0 -0.00000000000E+00 -0.00000000000E+00 -0.45593999997E+02  0.45594000000E+02  0.51100000000E-03 0.  1.
    9900012    2    1    2    0    0 -0.21875227871E+02 -0.37376655419E+02  0.28430505983E+01  0.47787275335E+02  0.20000019562E+02 0.  0.
        -12    1    1    2    0    0  0.21875227871E+02  0.37376655419E+02 -0.28430505983E+01  0.43400724665E+02  0.00000000000E+00 0.  1.
         11    1    3    3    0    0 -0.78188294034E+00 -0.19353442243E+02  0.42958272282E+01  0.19839889098E+02  0.51100000000E-03 0. -1.
        -11    1    3    3    0    0 -0.15726080396E+00  0.89643063492E-01 -0.14627554323E+00  0.23273082083E+00  0.51100000000E-03 0.  1.
         12    1    3    3    0    0 -0.20936084127E+02 -0.18112856240E+02 -0.13065010866E+01  0.27714655416E+02  0.00000000000E+00 0. -1.
</event>
<event>
 7    1  0.2458979E-009  0.4778727E+02  0.7816164E-02  0.1312668E+00
        -11   -1    0    0    0    0  0.00000000000E+00  0.00000000000E+00  0.45593999997E+02  0.45594000000E+02  0.51100000000E-03 0.  1.
         11   -1    0    0    0    0 -0.00000000000E+00 -0.00000000000E+00 -0.45593999997E+02  0.45594000000E+02  0.51100000000E-03 0. -1.
    9900012    2    1    2    0    0  0.24549864122E+01  0.13420490382E+02 -0.41200568803E+02  0.47787269706E+02  0.19999993896E+02 0.  0.
        -12    1    1    2    0    0 -0.24549864122E+01 -0.13420490382E+02  0.41200568803E+02  0.43400730294E+02  0.00000000000E+00 0.  1.
         11    1    3    3    0    0 -0.24138648443E+01  0.93165024165E+01 -0.10612905908E+02  0.14326818657E+02  0.51100000000E-03 0. -1.
        -11    1    3    3    0    0  0.67734877929E-01  0.39453351685E+01 -0.27428770142E+02  0.27711147385E+02  0.51100000000E-03 0.  1.
        -12    1    3    3    0    0  0.48011163786E+01  0.15865279740E+00 -0.31588927526E+01  0.57493036634E+01  0.00000000000E+00 0.  1.
</event>
<event>
 7    1  0.2458979E-009  0.4778728E+02  0.7816164E-02  0.1312668E+00
        -11   -1    0    0    0    0  0.00000000000E+00  0.00000000000E+00  0.45593999997E+02  0.45594000000E+02  0.51100000000E-03 0.  1.
         11   -1    0    0    0    0 -0.00000000000E+00 -0.00000000000E+00 -0.45593999997E+02  0.45594000000E+02  0.51100000000E-03 0. -1.
    9900012    2    1    2    0    0  0.14739754100E+02  0.31807580765E+02 -0.25585933521E+02  0.47787279508E+02  0.20000038591E+02 0.  0.
        -12    1    1    2    0    0 -0.14739754100E+02 -0.31807580765E+02  0.25585933521E+02  0.43400720492E+02  0.00000000000E+00 0.  1.
         11    1    3    3    0    0  0.32732877028E+01  0.19861409227E+02 -0.17826273149E+02  0.26888027141E+02  0.51100000000E-03 0. -1.
        -11    1    3    3    0    0  0.83477664092E+01  0.10353148052E+02 -0.10089161731E+02  0.16693234058E+02  0.51100000000E-03 0.  1.
         12    1    3    3    0    0  0.31186999879E+01  0.15930234854E+01  0.23295013591E+01  0.42060183097E+01  0.00000000000E+00 0. -1.
</event>
<event>
 7    1  0.2458979E-009  0.4778727E+02  0.7816164E-02  0.1312668E+00
        -11   -1    0    0    0    0  0.00000000000E+00  0.00000000000E+00  0.45593999997E+02  0.45594000000E+02  0.51100000000E-03 0.  1.
         11   -1    0    0    0    0 -0.00000000000E+00 -0.00000000000E+00 -0.45593999997E+02  0.45594000000E+02  0.51100000000E-03 0. -1.
    9900012    2    1    2    0    0 -0.24595928867E+02 -0.28407246689E+02 -0.21718471076E+02  0.47787269969E+02  0.19999995098E+02 0.  0.
        -12    1    1    2    0    0  0.24595928867E+02  0.28407246689E+02  0.21718471076E+02  0.43400730031E+02  0.00000000000E+00 0.  1.
         11    1    3    3    0    0 -0.82176441778E+01 -0.13040189320E+02 -0.17417448715E+02  0.23258197122E+02  0.51100000000E-03 0. -1.
        -11    1    3    3    0    0 -0.16992157714E+02 -0.14719117148E+02 -0.26293389075E+01  0.22634028734E+02  0.51100000000E-03 0.  1.
        -12    1    3    3    0    0  0.61387302521E+00 -0.64794022163E+00 -0.16716834536E+01  0.18950441132E+01  0.00000000000E+00 0.  1.
</event>
<event>
 7    1  0.2458979E-009  0.4778727E+02  0.7816164E-02  0.1312668E+00
        -11   -1    0    0    0    0  0.00000000000E+00  0.00000000000E+00  0.45593999997E+02  0.45594000000E+02  0.51100000000E-03 0. -1.
         11   -1    0    0    0    0 -0.00000000000E+00 -0.00000000000E+00 -0.45593999997E+02  0.45594000000E+02  0.51100000000E-03 0.  1.
    9900012    2    1    2    0    0  0.12946242095E+02 -0.19250847231E+02  0.36680006845E+02  0.47787271830E+02  0.20000003582E+02 0.  0.
        -12    1    1    2    0    0 -0.12946242095E+02  0.19250847231E+02 -0.36680006845E+02  0.43400728170E+02  0.00000000000E+00 0.  1.
         11    1    3    3    0    0  0.72645026793E+01 -0.17447474397E+02  0.16746102211E+02  0.25251124758E+02  0.51100000000E-03 0. -1.
        -11    1    3    3    0    0  0.70317480720E+01  0.12220830729E+01  0.14714548710E+02  0.16354109942E+02  0.51100000000E-03 0.  1.
         12    1    3    3    0    0 -0.13500086565E+01 -0.30254559072E+01  0.52193559245E+01  0.61820371308E+01  0.00000000000E+00 0. -1.
</event>
<event>
 7    1  0.2458979E-009  0.4778727E+02  0.7816164E-02  0.1312668E+00
        -11   -1    0    0    0    0  0.00000000000E+00  0.00000000000E+00  0.45593999997E+02  0.45594000000E+02  0.51100000000E-03 0.  1.
         11   -1    0    0    0    0 -0.00000000000E+00 -0.00000000000E+00 -0.45593999997E+02  0.45594000000E+02  0.51100000000E-03 0. -1.
    9900012    2    1    2    0    0  0.22244416591E+01  0.66133223418E+00 -0.43338641540E+02  0.47787270150E+02  0.19999995920E+02 0.  0.
        -12    1    1    2    0    0 -0.22244416591E+01 -0.66133223418E+00  0.43338641540E+02  0.43400729850E+02  0.00000000000E+00 0.  1.
         11    1    3    3    0    0  0.45777495078E+01  0.26395240486E+01 -0.53114493066E+01  0.74922874849E+01  0.51100000000E-03 0. -1.
        -11    1    3    3    0    0 -0.57725542705E+01 -0.58097905282E+01 -0.23035537454E+02  0.24448149927E+02  0.51100000000E-03 0.  1.
         12    1    3    3    0    0  0.34192464218E+01  0.38315987138E+01 -0.14991654779E+02  0.15846832738E+02  0.00000000000E+00 0. -1.
</event>
<event>
 7    1  0.2458979E-009  0.4778726E+02  0.7816164E-02  0.1312668E+00
        -11   -1    0    0    0    0  0.00000000000E+00  0.00000000000E+00  0.45593999997E+02  0.45594000000E+02  0.51100000000E-03 0.  1.
         11   -1    0    0    0    0 -0.00000000000E+00 -0.00000000000E+00 -0.45593999997E+02  0.45594000000E+02  0.51100000000E-03 0. -1.
    9900012    2    1    2    0    0  0.10112465277E+01  0.42874026087E+02  0.66648151332E+01  0.47787256997E+02  0.19999935951E+02 0.  0.
        -12    1    1    2    0    0 -0.10112465277E+01 -0.42874026087E+02 -0.66648151332E+01  0.43400743003E+02  0.00000000000E+00 0.  1.
         11    1    3    3    0    0  0.93282534181E+00  0.38102692105E+00 -0.20130976839E+01  0.22512012747E+01  0.51100000000E-03 0. -1.
        -11    1    3    3    0    0  0.49527493496E+01  0.33028492394E+02  0.98646889349E+01  0.34824174419E+02  0.51100000000E-03 0.  1.
        -12    1    3    3    0    0 -0.48743281637E+01  0.94645067727E+01 -0.11867761178E+01  0.10711881303E+02  0.00000000000E+00 0.  1.
</event>
<event>
 7    1  0.2458979E-009  0.4778727E+02  0.7816164E-02  0.1312668E+00
        -11   -1    0    0    0    0  0.00000000000E+00  0.00000000000E+00  0.45593999997E+02  0.45594000000E+02  0.51100000000E-03 0. -1.
         11   -1    0    0    0    0 -0.00000000000E+00 -0.00000000000E+00 -0.45593999997E+02  0.45594000000E+02  0.51100000000E-03 0.  1.
    9900012    2    1    2    0    0  0.23769506572E+02 -0.31689445920E+02  0.17731684773E+02  0.47787273390E+02  0.20000010694E+02 0.  0.
        -12    1    1    2    0    0 -0.23769506572E+02  0.31689445920E+02 -0.17731684773E+02  0.43400726610E+02  0.00000000000E+00 0.  1.
         11    1    3    3    0    0  0.18480377874E+01 -0.46728120295E+01  0.60927407821E+01  0.78975886462E+01  0.51100000000E-03 0. -1.
        -11    1    3    3    0    0  0.16452607082E+02 -0.24627565069E+02  0.14829106063E+02  0.33122615053E+02  0.51100000000E-03 0.  1.
        -12    1    3    3    0    0  0.54688617021E+01 -0.23890688218E+01 -0.31901620725E+01  0.67670696909E+01  0.00000000000E+00 0.  1.
</event>
<event>
 7    1  0.2458979E-009  0.4778727E+02  0.7816164E-02  0.1312668E+00
        -11   -1    0    0    0    0  0.00000000000E+00  0.00000000000E+00  0.45593999997E+02  0.45594000000E+02  0.51100000000E-03 0.  1.
         11   -1    0    0    0    0 -0.00000000000E+00 -0.00000000000E+00 -0.45593999997E+02  0.45594000000E+02  0.51100000000E-03 0. -1.
    9900012    2    1    2    0    0 -0.44343319669E+00 -0.16266032058E+02 -0.40234843250E+02  0.47787273701E+02  0.20000012112E+02 0.  0.
        -12    1    1    2    0    0  0.44343319669E+00  0.16266032058E+02  0.40234843250E+02  0.43400726299E+02  0.00000000000E+00 0.  1.
         11    1    3    3    0    0 -0.88097702946E+01 -0.10586093483E+02 -0.14451596411E+02  0.19963117667E+02  0.51100000000E-03 0. -1.
        -11    1    3    3    0    0  0.50148084439E+00 -0.44672569075E+00 -0.51070661617E+00  0.84372293378E+00  0.51100000000E-03 0.  1.
         12    1    3    3    0    0  0.78648562535E+01 -0.52332128845E+01 -0.25272540223E+02  0.26980433100E+02  0.00000000000E+00 0. -1.
</event>
<event>
 7    1  0.2458979E-009  0.4778728E+02  0.7816164E-02  0.1312668E+00
        -11   -1    0    0    0    0  0.00000000000E+00  0.00000000000E+00  0.45593999997E+02  0.45594000000E+02  0.51100000000E-03 0.  1.
         11   -1    0    0    0    0 -0.00000000000E+00 -0.00000000000E+00 -0.45593999997E+02  0.45594000000E+02  0.51100000000E-03 0. -1.
    9900012    2    1    2    0    0 -0.87496966617E+01  0.27105062410E+01 -0.42423092644E+02  0.47787276213E+02  0.20000023566E+02 0.  0.
        -12    1    1    2    0    0  0.87496966617E+01 -0.27105062410E+01  0.42423092644E+02  0.43400723787E+02  0.00000000000E+00 0.  1.
         11    1    3    3    0    0 -0.41094055015E+01  0.19217155172E+01 -0.11560002878E+01  0.46815105502E+01  0.51100000000E-03 0. -1.
        -11    1    3    3    0    0 -0.90867402969E+00  0.36565645987E+01 -0.35326526826E+02  0.35526886311E+02  0.51100000000E-03 0.  1.
         12    1    3    3    0    0 -0.37316171305E+01 -0.28677738749E+01 -0.59405655303E+01  0.75788793516E+01  0.00000000000E+00 0. -1.
</event>
<event>
 7    1  0.2458979E-009  0.4778727E+02  0.7816164E-02  0.1312668E+00
        -11   -1    0    0    0    0  0.00000000000E+00  0.00000000000E+00  0.45593999997E+02  0.45594000000E+02  0.51100000000E-03 0.  1.
         11   -1    0    0    0    0 -0.00000000000E+00 -0.00000000000E+00 -0.45593999997E+02  0.45594000000E+02  0.51100000000E-03 0. -1.
    9900012    2    1    2    0    0 -0.14566633167E+02  0.39127924405E+02 -0.11850831938E+02  0.47787268581E+02  0.19999988769E+02 0.  0.
        -12    1    1    2    0    0  0.14566633167E+02 -0.39127924405E+02  0.11850831938E+02  0.43400731419E+02  0.00000000000E+00 0.  1.
         11    1    3    3    0    0 -0.92343884222E+01  0.19479876747E+02 -0.11227332625E+02  0.24306224013E+02  0.51100000000E-03 0. -1.
        -11    1    3    3    0    0 -0.65971803842E+01  0.54040662178E+01  0.24116861971E+01  0.88624461229E+01  0.51100000000E-03 0.  1.
         12    1    3    3    0    0  0.12649356393E+01  0.14243981440E+02 -0.30351855095E+01  0.14618598446E+02  0.00000000000E+00 0. -1.
</event>
<event>
 7    1  0.2458979E-009  0.4778727E+02  0.7816164E-02  0.1312668E+00
        -11   -1    0    0    0    0  0.00000000000E+00  0.00000000000E+00  0.45593999997E+02  0.45594000000E+02  0.51100000000E-03 0.  1.
         11   -1    0    0    0    0 -0.00000000000E+00 -0.00000000000E+00 -0.45593999997E+02  0.45594000000E+02  0.51100000000E-03 0. -1.
    9900012    2    1    2    0    0  0.14268154061E+02  0.37064537272E+02 -0.17500376769E+02  0.47787270391E+02  0.19999997022E+02 0.  0.
        -12    1    1    2    0    0 -0.14268154061E+02 -0.37064537272E+02  0.17500376769E+02  0.43400729609E+02  0.00000000000E+00 0.  1.
         11    1    3    3    0    0  0.44844516840E+01  0.48469993602E+01 -0.50193042961E+01  0.82944032686E+01  0.51100000000E-03 0. -1.
        -11    1    3    3    0    0  0.12452464272E+02  0.15891088291E+02 -0.29576527412E+01  0.20404368736E+02  0.51100000000E-03 0.  1.
        -12    1    3    3    0    0 -0.26687618946E+01  0.16326449621E+02 -0.95234197321E+01  0.19088498387E+02  0.00000000000E+00 0.  1.
</event>
<event>
 7    1  0.2458979E-009  0.4778727E+02  0.7816164E-02  0.1312668E+00
        -11   -1    0    0    0    0  0.00000000000E+00  0.00000000000E+00  0.45593999997E+02  0.45594000000E+02  0.51100000000E-03 0.  1.
         11   -1    0    0    0    0 -0.00000000000E+00 -0.00000000000E+00 -0.45593999997E+02  0.45594000000E+02  0.51100000000E-03 0. -1.
    9900012    2    1    2    0    0  0.21309178365E+02 -0.40808795112E+01 -0.37588406070E+02  0.47787274994E+02  0.20000018009E+02 0.  0.
        -12    1    1    2    0    0 -0.21309178365E+02  0.40808795112E+01  0.37588406070E+02  0.43400725006E+02  0.00000000000E+00 0.  1.
         11    1    3    3    0    0  0.37088235571E+00 -0.27575355137E+00  0.19755845820E+01  0.20289229766E+01  0.51100000000E-03 0. -1.
        -11    1    3    3    0    0  0.10150063718E+00  0.14767768059E+01 -0.29535695832E+01  0.33037472146E+01  0.51100000000E-03 0.  1.
         12    1    3    3    0    0  0.20836795372E+02 -0.52819027657E+01 -0.36610421068E+02  0.42454604803E+02  0.00000000000E+00 0. -1.
</event>
<event>
 7    1  0.2458979E-009  0.4778728E+02  0.7816164E-02  0.1312668E+00
        -11   -1    0    0    0    0  0.00000000000E+00  0.00000000000E+00  0.45593999997E+02  0.45594000000E+02  0.51100000000E-03 0. -1.
         11   -1    0    0    0    0 -0.00000000000E+00 -0.00000000000E+00 -0.45593999997E+02  0.45594000000E+02  0.51100000000E-03 0.  1.
    9900012    2    1    2    0    0  0.32156767393E+02  0.28997306086E+02 -0.29532038614E+01  0.47787275784E+02  0.20000021610E+02 0.  0.
        -12    1    1    2    0    0 -0.32156767393E+02 -0.28997306086E+02  0.29532038614E+01  0.43400724216E+02  0.00000000000E+00 0.  1.
         11    1    3    3    0    0  0.39624458549E+01  0.49031269007E+01  0.57965203506E+01  0.85639522998E+01  0.51100000000E-03 0. -1.
        -11    1    3    3    0    0  0.26804297985E+02  0.22226820072E+02 -0.10433248793E+02  0.36350441560E+02  0.51100000000E-03 0.  1.
        -12    1    3    3    0    0  0.13900235530E+01  0.18673591134E+01  0.16835245806E+01  0.28728819242E+01  0.00000000000E+00 0.  1.
</event>
<event>
 7    1  0.2458979E-009  0.4778727E+02  0.7816164E-02  0.1312668E+00
        -11   -1    0    0    0    0  0.00000000000E+00  0.00000000000E+00  0.45593999997E+02  0.45594000000E+02  0.51100000000E-03 0.  1.
         11   -1    0    0    0    0 -0.00000000000E+00 -0.00000000000E+00 -0.45593999997E+02  0.45594000000E+02  0.51100000000E-03 0. -1.
    9900012    2    1    2    0    0  0.16141253171E+02  0.40135790764E+02 -0.34931070490E+01  0.47787267851E+02  0.19999985442E+02 0.  0.
        -12    1    1    2    0    0 -0.16141253171E+02 -0.40135790764E+02  0.34931070490E+01  0.43400732149E+02  0.00000000000E+00 0.  1.
         11    1    3    3    0    0  0.14384117370E+02  0.23848297058E+02 -0.23256492731E+01  0.27947320979E+02  0.51100000000E-03 0. -1.
        -11    1    3    3    0    0  0.53692694542E+00 -0.16889508323E+01 -0.32985528314E+00  0.18026786257E+01  0.51100000000E-03 0.  1.
         12    1    3    3    0    0  0.12202088555E+01  0.17976444538E+02 -0.83760249280E+00  0.18037268247E+02  0.00000000000E+00 0. -1.
</event>
<event>
 7    1  0.2458979E-009  0.4778727E+02  0.7816164E-02  0.1312668E+00
        -11   -1    0    0    0    0  0.00000000000E+00  0.00000000000E+00  0.45593999997E+02  0.45594000000E+02  0.51100000000E-03 0. -1.
         11   -1    0    0    0    0 -0.00000000000E+00 -0.00000000000E+00 -0.45593999997E+02  0.45594000000E+02  0.51100000000E-03 0.  1.
    9900012    2    1    2    0    0 -0.22097003256E+02  0.35742106898E+02  0.10855756455E+02  0.47787271819E+02  0.20000003534E+02 0.  0.
        -12    1    1    2    0    0  0.22097003256E+02 -0.35742106898E+02 -0.10855756455E+02  0.43400728181E+02  0.00000000000E+00 0.  1.
         11    1    3    3    0    0 -0.19603207592E+02  0.20190605855E+02  0.11850405361E+02  0.30534872198E+02  0.51100000000E-03 0. -1.
        -11    1    3    3    0    0  0.78944790138E+00  0.44500784389E+00 -0.15363862443E+01  0.17837440744E+01  0.51100000000E-03 0.  1.
         12    1    3    3    0    0 -0.32832435650E+01  0.15106493199E+02  0.54173733856E+00  0.15468655547E+02  0.00000000000E+00 0. -1.
</event>
<event>
 7    1  0.2458979E-009  0.4778727E+02  0.7816164E-02  0.1312668E+00
        -11   -1    0    0    0    0  0.00000000000E+00  0.00000000000E+00  0.45593999997E+02  0.45594000000E+02  0.51100000000E-03 0.  1.
         11   -1    0    0    0    0 -0.00000000000E+00 -0.00000000000E+00 -0.45593999997E+02  0.45594000000E+02  0.51100000000E-03 0. -1.
    9900012    2    1    2    0    0 -0.41955819466E+02  0.49114519414E+01 -0.99604214413E+01  0.47787272558E+02  0.20000006900E+02 0.  0.
        -12    1    1    2    0    0  0.41955819466E+02 -0.49114519414E+01  0.99604214413E+01  0.43400727442E+02  0.00000000000E+00 0.  1.
         11    1    3    3    0    0 -0.81546823538E+01 -0.47156364760E+01 -0.42910103279E+01  0.10351272461E+02  0.51100000000E-03 0. -1.
        -11    1    3    3    0    0 -0.29768224521E+02  0.74984475673E+01 -0.87643573009E+01  0.31924721866E+02  0.51100000000E-03 0.  1.
        -12    1    3    3    0    0 -0.40329125913E+01  0.21286408501E+01  0.30949461874E+01  0.55112782312E+01  0.00000000000E+00 0.  1.
</event>
<event>
 7    1  0.2458979E-009  0.4778728E+02  0.7816164E-02  0.1312668E+00
        -11   -1    0    0    0    0  0.00000000000E+00  0.00000000000E+00  0.45593999997E+02  0.45594000000E+02  0.51100000000E-03 0. -1.
         11   -1    0    0    0    0 -0.00000000000E+00 -0.00000000000E+00 -0.45593999997E+02  0.45594000000E+02  0.51100000000E-03 0.  1.
    9900012    2    1    2    0    0 -0.35813294209E+02 -0.31194563254E+01  0.24316648586E+02  0.47787280555E+02  0.20000043362E+02 0.  0.
        -12    1    1    2    0    0  0.35813294209E+02  0.31194563254E+01 -0.24316648586E+02  0.43400719445E+02  0.00000000000E+00 0.  1.
         11    1    3    3    0    0 -0.37070950254E+02 -0.19716624275E+01  0.21453544293E+02  0.42876536339E+02  0.51100000000E-03 0. -1.
        -11    1    3    3    0    0  0.13730717792E+01  0.10807418420E+01  0.14378636081E+01  0.22629142839E+01  0.51100000000E-03 0.  1.
         12    1    3    3    0    0 -0.11541573434E+00 -0.22285357399E+01  0.14252406854E+01  0.26478299317E+01  0.00000000000E+00 0. -1.
</event>
<event>
 7    1  0.2458979E-009  0.4778726E+02  0.7816164E-02  0.1312668E+00
        -11   -1    0    0    0    0  0.00000000000E+00  0.00000000000E+00  0.45593999997E+02  0.45594000000E+02  0.51100000000E-03 0.  1.
         11   -1    0    0    0    0 -0.00000000000E+00 -0.00000000000E+00 -0.45593999997E+02  0.45594000000E+02  0.51100000000E-03 0. -1.
    9900012    2    1    2    0    0 -0.20195317442E+02  0.84028411925E+01 -0.37485538596E+02  0.47787260484E+02  0.19999951849E+02 0.  0.
        -12    1    1    2    0    0  0.20195317442E+02 -0.84028411925E+01  0.37485538596E+02  0.43400739516E+02  0.00000000000E+00 0.  1.
         11    1    3    3    0    0 -0.15723790901E+02  0.83161214710E+00 -0.20097148397E+02  0.25530854921E+02  0.51100000000E-03 0. -1.
        -11    1    3    3    0    0 -0.40928895207E+01  0.86604616345E+01 -0.71496800019E+01  0.11952960501E+02  0.51100000000E-03 0.  1.
         12    1    3    3    0    0 -0.37863702101E+00 -0.10892325891E+01 -0.10238710198E+02  0.10303445062E+02  0.00000000000E+00 0. -1.
</event>
<event>
 7    1  0.2458979E-009  0.4778727E+02  0.7816164E-02  0.1312668E+00
        -11   -1    0    0    0    0  0.00000000000E+00  0.00000000000E+00  0.45593999997E+02  0.45594000000E+02  0.51100000000E-03 0.  1.
         11   -1    0    0    0    0 -0.00000000000E+00 -0.00000000000E+00 -0.45593999997E+02  0.45594000000E+02  0.51100000000E-03 0. -1.
    9900012    2    1    2    0    0  0.39623654778E+01  0.41216110082E+02 -0.13005978728E+02  0.47787267827E+02  0.19999985329E+02 0.  0.
        -12    1    1    2    0    0 -0.39623654778E+01 -0.41216110082E+02  0.13005978728E+02  0.43400732173E+02  0.00000000000E+00 0.  1.
         11    1    3    3    0    0 -0.56533989588E+01  0.15550506779E+02 -0.85676069500E+01  0.18632849218E+02  0.51100000000E-03 0. -1.
        -11    1    3    3    0    0  0.44514644522E+01  0.61135222590E+01  0.21900957936E+01  0.78731956680E+01  0.51100000000E-03 0.  1.
         12    1    3    3    0    0  0.51642999844E+01  0.19552081044E+02 -0.66284675721E+01  0.21281222940E+02  0.00000000000E+00 0. -1.
</event>
<event>
 7    1  0.2458979E-009  0.4778727E+02  0.7816164E-02  0.1312668E+00
        -11   -1    0    0    0    0  0.00000000000E+00  0.00000000000E+00  0.45593999997E+02  0.45594000000E+02  0.51100000000E-03 0.  1.
         11   -1    0    0    0    0 -0.00000000000E+00 -0.00000000000E+00 -0.45593999997E+02  0.45594000000E+02  0.51100000000E-03 0. -1.
    9900012    2    1    2    0    0  0.12294759230E+02  0.26005175106E+02 -0.32499121411E+02  0.47787272709E+02  0.20000007592E+02 0.  0.
        -12    1    1    2    0    0 -0.12294759230E+02 -0.26005175106E+02  0.32499121411E+02  0.43400727291E+02  0.00000000000E+00 0.  1.
         11    1    3    3    0    0  0.67314207994E+01  0.40324733537E+00 -0.36072548761E+01  0.76476743128E+01  0.51100000000E-03 0. -1.
        -11    1    3    3    0    0 -0.11838768701E+00 -0.66293168176E+00  0.12210287399E-01  0.67353055711E+00  0.51100000000E-03 0.  1.
         12    1    3    3    0    0  0.56817261175E+01  0.26264859453E+02 -0.28904076823E+02  0.39466067840E+02  0.00000000000E+00 0. -1.
</event>
<event>
 7    1  0.2458979E-009  0.4778724E+02  0.7816164E-02  0.1312668E+00
        -11   -1    0    0    0    0  0.00000000000E+00  0.00000000000E+00  0.45593999997E+02  0.45594000000E+02  0.51100000000E-03 0.  1.
         11   -1    0    0    0    0 -0.00000000000E+00 -0.00000000000E+00 -0.45593999997E+02  0.45594000000E+02  0.51100000000E-03 0. -1.
    9900012    2    1    2    0    0 -0.12841543882E+02  0.41220627020E+02 -0.44249944104E+01  0.47787240597E+02  0.19999861178E+02 0.  0.
        -12    1    1    2    0    0  0.12841543882E+02 -0.41220627020E+02  0.44249944104E+01  0.43400759403E+02  0.00000000000E+00 0.  1.
         11    1    3    3    0    0 -0.11631546007E+01  0.26641257934E+02  0.44582614095E+00  0.26670363967E+02  0.51100000000E-03 0. -1.
        -11    1    3    3    0    0 -0.10469039585E+02  0.13253427964E+02 -0.70431092602E+01  0.18299167493E+02  0.51100000000E-03 0.  1.
         12    1    3    3    0    0 -0.12093496963E+01  0.13259411227E+01  0.21722887088E+01  0.28177091374E+01  0.00000000000E+00 0. -1.
</event>
<event>
 7    1  0.2458979E-009  0.4778728E+02  0.7816164E-02  0.1312668E+00
        -11   -1    0    0    0    0  0.00000000000E+00  0.00000000000E+00  0.45593999997E+02  0.45594000000E+02  0.51100000000E-03 0. -1.
         11   -1    0    0    0    0 -0.00000000000E+00 -0.00000000000E+00 -0.45593999997E+02  0.45594000000E+02  0.51100000000E-03 0.  1.
    9900012    2    1    2    0    0  0.69910529480E+01 -0.12873637696E+02  0.40853610929E+02  0.47787275412E+02  0.20000019914E+02 0.  0.
        -12    1    1    2    0    0 -0.69910529480E+01  0.12873637696E+02 -0.40853610929E+02  0.43400724588E+02  0.00000000000E+00 0.  1.
         11    1    3    3    0    0  0.50529431645E+01 -0.84781344096E+01  0.47057748500E+01  0.10934135306E+02  0.51100000000E-03 0. -1.
        -11    1    3    3    0    0  0.34771157064E+01 -0.19488296238E+01  0.25920804436E+02  0.26225490909E+02  0.51100000000E-03 0.  1.
         12    1    3    3    0    0 -0.15390059229E+01 -0.24466736622E+01  0.10227031643E+02  0.10627649197E+02  0.00000000000E+00 0. -1.
</event>
<event>
 7    1  0.2458979E-009  0.4778727E+02  0.7816164E-02  0.1312668E+00
        -11   -1    0    0    0    0  0.00000000000E+00  0.00000000000E+00  0.45593999997E+02  0.45594000000E+02  0.51100000000E-03 0.  1.
         11   -1    0    0    0    0 -0.00000000000E+00 -0.00000000000E+00 -0.45593999997E+02  0.45594000000E+02  0.51100000000E-03 0. -1.
    9900012    2    1    2    0    0 -0.12279248794E+02  0.25301003882E+02 -0.33056052899E+02  0.47787269803E+02  0.19999994341E+02 0.  0.
        -12    1    1    2    0    0  0.12279248794E+02 -0.25301003882E+02  0.33056052899E+02  0.43400730197E+02  0.00000000000E+00 0.  1.
         11    1    3    3    0    0 -0.73688988594E+01  0.10223684853E+02 -0.87869138346E+01  0.15363406437E+02  0.51100000000E-03 0. -1.
        -11    1    3    3    0    0 -0.29983595851E+01  0.20442262753E+00 -0.13829901416E+02  0.14152671912E+02  0.51100000000E-03 0.  1.
        -12    1    3    3    0    0 -0.19119903493E+01  0.14872896401E+02 -0.10439237648E+02  0.18271191454E+02  0.00000000000E+00 0.  1.
</event>
<event>
 7    1  0.2458979E-009  0.4778727E+02  0.7816164E-02  0.1312668E+00
        -11   -1    0    0    0    0  0.00000000000E+00  0.00000000000E+00  0.45593999997E+02  0.45594000000E+02  0.51100000000E-03 0. -1.
         11   -1    0    0    0    0 -0.00000000000E+00 -0.00000000000E+00 -0.45593999997E+02  0.45594000000E+02  0.51100000000E-03 0.  1.
    9900012    2    1    2    0    0 -0.38198848138E+02  0.84416288497E+01 -0.18793886202E+02  0.47787271259E+02  0.20000000979E+02 0.  0.
        -12    1    1    2    0    0  0.38198848138E+02 -0.84416288497E+01  0.18793886202E+02  0.43400728741E+02  0.00000000000E+00 0.  1.
         11    1    3    3    0    0 -0.87838005805E+01  0.17920691099E+00 -0.89748807264E+00  0.88313505681E+01  0.51100000000E-03 0. -1.
        -11    1    3    3    0    0 -0.12525901416E+02 -0.25061175799E+01 -0.11107169544E+01  0.12822344716E+02  0.51100000000E-03 0.  1.
        -12    1    3    3    0    0 -0.16889146141E+02  0.10768539519E+02 -0.16785681175E+02  0.26133575975E+02  0.00000000000E+00 0.  1.
</event>
<event>
 7    1  0.2458979E-009  0.4778727E+02  0.7816164E-02  0.1312668E+00
        -11   -1    0    0    0    0  0.00000000000E+00  0.00000000000E+00  0.45593999997E+02  0.45594000000E+02  0.51100000000E-03 0.  1.
         11   -1    0    0    0    0 -0.00000000000E+00 -0.00000000000E+00 -0.45593999997E+02  0.45594000000E+02  0.51100000000E-03 0. -1.
    9900012    2    1    2    0    0  0.79716308577E+01  0.27659166323E+02 -0.32481486709E+02  0.47787270063E+02  0.19999995527E+02 0.  0.
        -12    1    1    2    0    0 -0.79716308577E+01 -0.27659166323E+02  0.32481486709E+02  0.43400729937E+02  0.00000000000E+00 0.  1.
         11    1    3    3    0    0  0.70522671858E+01  0.12222095325E+02 -0.10269907348E+02  0.17452366137E+02  0.51100000000E-03 0. -1.
        -11    1    3    3    0    0 -0.45012251684E+01  0.29568641498E+01 -0.15655759935E+01  0.56084848283E+01  0.51100000000E-03 0.  1.
        -12    1    3    3    0    0  0.54205888403E+01  0.12480206848E+02 -0.20646003368E+02  0.24726419098E+02  0.00000000000E+00 0.  1.
</event>
<event>
 7    1  0.2458979E-009  0.4778727E+02  0.7816164E-02  0.1312668E+00
        -11   -1    0    0    0    0  0.00000000000E+00  0.00000000000E+00  0.45593999997E+02  0.45594000000E+02  0.51100000000E-03 0.  1.
         11   -1    0    0    0    0 -0.00000000000E+00 -0.00000000000E+00 -0.45593999997E+02  0.45594000000E+02  0.51100000000E-03 0. -1.
    9900012    2    1    2    0    0  0.35567416254E+02  0.20196087616E+02 -0.14515517057E+02  0.47787270865E+02  0.19999999183E+02 0.  0.
        -12    1    1    2    0    0 -0.35567416254E+02 -0.20196087616E+02  0.14515517057E+02  0.43400729135E+02  0.00000000000E+00 0.  1.
         11    1    3    3    0    0  0.23136745921E+02  0.52090541046E+01 -0.80548491726E+01  0.25046433917E+02  0.51100000000E-03 0. -1.
        -11    1    3    3    0    0  0.10915977829E+02  0.15608143580E+02 -0.35112505913E+01  0.19367539827E+02  0.51100000000E-03 0.  1.
         12    1    3    3    0    0  0.15146925045E+01 -0.62111006904E+00 -0.29494172931E+01  0.33732971215E+01  0.00000000000E+00 0. -1.
</event>
<event>
 7    1  0.2458979E-009  0.4778727E+02  0.7816164E-02  0.1312668E+00
        -11   -1    0    0    0    0  0.00000000000E+00  0.00000000000E+00  0.45593999997E+02  0.45594000000E+02  0.51100000000E-03 0.  1.
         11   -1    0    0    0    0 -0.00000000000E+00 -0.00000000000E+00 -0.45593999997E+02  0.45594000000E+02  0.51100000000E-03 0. -1.
    9900012    2    1    2    0    0 -0.19660852503E+02 -0.74803105480E+00 -0.38684811704E+02  0.47787270419E+02  0.19999997149E+02 0.  0.
        -12    1    1    2    0    0  0.19660852503E+02  0.74803105480E+00  0.38684811704E+02  0.43400729581E+02  0.00000000000E+00 0.  1.
         11    1    3    3    0    0 -0.21719900241E+02  0.19239716378E+00 -0.22932424299E+02  0.31586186342E+02  0.51100000000E-03 0. -1.
        -11    1    3    3    0    0  0.20282849735E+01 -0.10331602953E+01 -0.55557045970E+01  0.60039332075E+01  0.51100000000E-03 0.  1.
         12    1    3    3    0    0  0.30762764068E-01  0.92732076695E-01 -0.10196682808E+02  0.10197150870E+02  0.00000000000E+00 0. -1.
</event>
<event>
 7    1  0.2458979E-009  0.4778727E+02  0.7816164E-02  0.1312668E+00
        -11   -1    0    0    0    0  0.00000000000E+00  0.00000000000E+00  0.45593999997E+02  0.45594000000E+02  0.51100000000E-03 0.  1.
         11   -1    0    0    0    0 -0.00000000000E+00 -0.00000000000E+00 -0.45593999997E+02  0.45594000000E+02  0.51100000000E-03 0. -1.
    9900012    2    1    2    0    0  0.67589869894E+01 -0.38910330814E+02 -0.17997924208E+02  0.47787273912E+02  0.20000013074E+02 0.  0.
        -12    1    1    2    0    0 -0.67589869894E+01  0.38910330814E+02  0.17997924208E+02  0.43400726088E+02  0.00000000000E+00 0.  1.
         11    1    3    3    0    0 -0.15866190039E+01 -0.81757622022E+01 -0.49683313534E+01  0.96976679747E+01  0.51100000000E-03 0. -1.
        -11    1    3    3    0    0  0.32122260119E+01 -0.30421519289E+02 -0.10376019254E+02  0.32302461325E+02  0.51100000000E-03 0.  1.
        -12    1    3    3    0    0  0.51333799814E+01 -0.31304932241E+00 -0.26535736009E+01  0.57871446126E+01  0.00000000000E+00 0.  1.
</event>
<event>
 7    1  0.2458979E-009  0.4778727E+02  0.7816164E-02  0.1312668E+00
        -11   -1    0    0    0    0  0.00000000000E+00  0.00000000000E+00  0.45593999997E+02  0.45594000000E+02  0.51100000000E-03 0.  1.
         11   -1    0    0    0    0 -0.00000000000E+00 -0.00000000000E+00 -0.45593999997E+02  0.45594000000E+02  0.51100000000E-03 0. -1.
    9900012    2    1    2    0    0  0.28685997056E+02 -0.27304551181E+02 -0.17753827720E+02  0.47787270271E+02  0.19999996474E+02 0.  0.
        -12    1    1    2    0    0 -0.28685997056E+02  0.27304551181E+02  0.17753827720E+02  0.43400729729E+02  0.00000000000E+00 0.  1.
         11    1    3    3    0    0  0.10512832231E+02 -0.76550011432E+01  0.41057758324E-01  0.13004628792E+02  0.51100000000E-03 0. -1.
        -11    1    3    3    0    0  0.13440336296E+02 -0.13227362893E+02 -0.18935539557E+02  0.26723780186E+02  0.51100000000E-03 0.  1.
        -12    1    3    3    0    0  0.47328285292E+01 -0.64221871455E+01  0.11406540790E+01  0.80588612934E+01  0.00000000000E+00 0.  1.
</event>
<event>
 7    1  0.2458979E-009  0.4778728E+02  0.7816164E-02  0.1312668E+00
        -11   -1    0    0    0    0  0.00000000000E+00  0.00000000000E+00  0.45593999997E+02  0.45594000000E+02  0.51100000000E-03 0.  1.
         11   -1    0    0    0    0 -0.00000000000E+00 -0.00000000000E+00 -0.45593999997E+02  0.45594000000E+02  0.51100000000E-03 0. -1.
    9900012    2    1    2    0    0  0.30120705972E+02  0.59005405588E+01 -0.30684679549E+02  0.47787275742E+02  0.20000021417E+02 0.  0.
        -12    1    1    2    0    0 -0.30120705972E+02 -0.59005405588E+01  0.30684679549E+02  0.43400724258E+02  0.00000000000E+00 0.  1.
         11    1    3    3    0    0  0.12361538757E+02  0.61301493121E+01 -0.21747872352E+02  0.25755704671E+02  0.51100000000E-03 0. -1.
        -11    1    3    3    0    0  0.12102047154E+02 -0.45705080072E+01 -0.66346203323E+01  0.14538475711E+02  0.51100000000E-03 0.  1.
        -12    1    3    3    0    0  0.56571200604E+01  0.43408992540E+01 -0.23021868647E+01  0.74930953598E+01  0.00000000000E+00 0.  1.
</event>
<event>
 7    1  0.2458979E-009  0.4778727E+02  0.7816164E-02  0.1312668E+00
        -11   -1    0    0    0    0  0.00000000000E+00  0.00000000000E+00  0.45593999997E+02  0.45594000000E+02  0.51100000000E-03 0.  1.
         11   -1    0    0    0    0 -0.00000000000E+00 -0.00000000000E+00 -0.45593999997E+02  0.45594000000E+02  0.51100000000E-03 0. -1.
    9900012    2    1    2    0    0 -0.24706251604E+01  0.16852156480E+01 -0.43297566547E+02  0.47787271788E+02  0.20000003391E+02 0.  0.
        -12    1    1    2    0    0  0.24706251604E+01 -0.16852156480E+01  0.43297566547E+02  0.43400728212E+02  0.00000000000E+00 0.  1.
         11    1    3    3    0    0 -0.36977031310E+01  0.45409578850E+01 -0.19167872371E+02  0.20042470867E+02  0.51100000000E-03 0. -1.
        -11    1    3    3    0    0 -0.10706806036E+01 -0.20508980545E+01  0.98345963529E+00  0.25139078941E+01  0.51100000000E-03 0.  1.
        -12    1    3    3    0    0  0.22977585742E+01 -0.80484418258E+00 -0.25113153811E+02  0.25230893027E+02  0.00000000000E+00 0.  1.
</event>
<event>
 7    1  0.2458979E-009  0.4778727E+02  0.7816164E-02  0.1312668E+00
        -11   -1    0    0    0    0  0.00000000000E+00  0.00000000000E+00  0.45593999997E+02  0.45594000000E+02  0.51100000000E-03 0. -1.
         11   -1    0    0    0    0 -0.00000000000E+00 -0.00000000000E+00 -0.45593999997E+02  0.45594000000E+02  0.51100000000E-03 0.  1.
    9900012    2    1    2    0    0  0.83579474790E+01 -0.38098206488E+02  0.19034037530E+02  0.47787271800E+02  0.20000003444E+02 0.  0.
        -12    1    1    2    0    0 -0.83579474790E+01  0.38098206488E+02 -0.19034037530E+02  0.43400728200E+02  0.00000000000E+00 0.  1.
         11    1    3    3    0    0  0.26276151823E+00 -0.21574862700E+02  0.38770647511E+01  0.21922029456E+02  0.51100000000E-03 0. -1.
        -11    1    3    3    0    0 -0.20262609339E+01 -0.34235537548E+01  0.10476205505E+01  0.41138744224E+01  0.51100000000E-03 0.  1.
         12    1    3    3    0    0  0.10121446895E+02 -0.13099790033E+02  0.14109352228E+02  0.21751367921E+02  0.00000000000E+00 0. -1.
</event>
<event>
 7    1  0.2458979E-009  0.4778727E+02  0.7816164E-02  0.1312668E+00
        -11   -1    0    0    0    0  0.00000000000E+00  0.00000000000E+00  0.45593999997E+02  0.45594000000E+02  0.51100000000E-03 0. -1.
         11   -1    0    0    0    0 -0.00000000000E+00 -0.00000000000E+00 -0.45593999997E+02  0.45594000000E+02  0.51100000000E-03 0.  1.
    9900012    2    1    2    0    0  0.55790146416E+01  0.12213468850E+02  0.41271407238E+02  0.47787270961E+02  0.19999999620E+02 0.  0.
        -12    1    1    2    0    0 -0.55790146416E+01 -0.12213468850E+02 -0.41271407238E+02  0.43400729039E+02  0.00000000000E+00 0.  1.
         11    1    3    3    0    0  0.10149370783E+02 -0.36890718846E+00  0.20115991862E+02  0.22534394793E+02  0.51100000000E-03 0. -1.
        -11    1    3    3    0    0 -0.29533579014E+01  0.37063991955E+01  0.65282475109E+01  0.80670771481E+01  0.51100000000E-03 0.  1.
         12    1    3    3    0    0 -0.16169982404E+01  0.88759768425E+01  0.14627167865E+02  0.17185799020E+02  0.00000000000E+00 0. -1.
</event>
<event>
 7    1  0.2458979E-009  0.4778727E+02  0.7816164E-02  0.1312668E+00
        -11   -1    0    0    0    0  0.00000000000E+00  0.00000000000E+00  0.45593999997E+02  0.45594000000E+02  0.51100000000E-03 0.  1.
         11   -1    0    0    0    0 -0.00000000000E+00 -0.00000000000E+00 -0.45593999997E+02  0.45594000000E+02  0.51100000000E-03 0. -1.
    9900012    2    1    2    0    0 -0.10733813142E+02  0.87967943777E+01 -0.41122070010E+02  0.47787274456E+02  0.20000015553E+02 0.  0.
        -12    1    1    2    0    0  0.10733813142E+02 -0.87967943777E+01  0.41122070010E+02  0.43400725544E+02  0.00000000000E+00 0.  1.
         11    1    3    3    0    0 -0.50745292047E+01  0.66634525540E+01 -0.32322244616E+02  0.33389817967E+02  0.51100000000E-03 0. -1.
        -11    1    3    3    0    0  0.18408749988E+01  0.10887438745E+00  0.83206791088E+00  0.20231192903E+01  0.51100000000E-03 0.  1.
        -12    1    3    3    0    0 -0.75001589360E+01  0.20244674363E+01 -0.96318933049E+01  0.12374337198E+02  0.00000000000E+00 0.  1.
</event>
<event>
 7    1  0.2458979E-009  0.4778728E+02  0.7816164E-02  0.1312668E+00
        -11   -1    0    0    0    0  0.00000000000E+00  0.00000000000E+00  0.45593999997E+02  0.45594000000E+02  0.51100000000E-03 0.  1.
         11   -1    0    0    0    0 -0.00000000000E+00 -0.00000000000E+00 -0.45593999997E+02  0.45594000000E+02  0.51100000000E-03 0. -1.
    9900012    2    1    2    0    0 -0.12903997555E+02 -0.41377460484E+02 -0.22394905612E+01  0.47787277576E+02  0.20000029779E+02 0.  0.
        -12    1    1    2    0    0  0.12903997555E+02  0.41377460484E+02  0.22394905612E+01  0.43400722424E+02  0.00000000000E+00 0.  1.
         11    1    3    3    0    0 -0.94935349790E+01 -0.13331653256E+02 -0.76245838366E+01  0.18055316776E+02  0.51100000000E-03 0. -1.
        -11    1    3    3    0    0 -0.15196688898E+01 -0.14013610903E+01  0.18750411801E+01  0.27908755128E+01  0.51100000000E-03 0.  1.
         12    1    3    3    0    0 -0.18907936863E+01 -0.26644446137E+02  0.35100520953E+01  0.26941085287E+02  0.00000000000E+00 0. -1.
</event>
<event>
 7    1  0.2458979E-009  0.4778727E+02  0.7816164E-02  0.1312668E+00
        -11   -1    0    0    0    0  0.00000000000E+00  0.00000000000E+00  0.45593999997E+02  0.45594000000E+02  0.51100000000E-03 0.  1.
         11   -1    0    0    0    0 -0.00000000000E+00 -0.00000000000E+00 -0.45593999997E+02  0.45594000000E+02  0.51100000000E-03 0. -1.
    9900012    2    1    2    0    0  0.11055952910E+02  0.27161021888E+02 -0.31994812793E+02  0.47787271315E+02  0.20000001233E+02 0.  0.
        -12    1    1    2    0    0 -0.11055952910E+02 -0.27161021888E+02  0.31994812793E+02  0.43400728685E+02  0.00000000000E+00 0.  1.
         11    1    3    3    0    0 -0.16760539043E+01  0.93217625278E+01 -0.18837726860E+02  0.21084695085E+02  0.51100000000E-03 0. -1.
        -11    1    3    3    0    0  0.37842055828E+01  0.10860854941E+02 -0.41929572974E+01  0.12241702214E+02  0.51100000000E-03 0.  1.
         12    1    3    3    0    0  0.89478012311E+01  0.69784044194E+01 -0.89641286363E+01  0.14460874016E+02  0.00000000000E+00 0. -1.
</event>
<event>
 7    1  0.2458979E-009  0.4778727E+02  0.7816164E-02  0.1312668E+00
        -11   -1    0    0    0    0  0.00000000000E+00  0.00000000000E+00  0.45593999997E+02  0.45594000000E+02  0.51100000000E-03 0. -1.
         11   -1    0    0    0    0 -0.00000000000E+00 -0.00000000000E+00 -0.45593999997E+02  0.45594000000E+02  0.51100000000E-03 0.  1.
    9900012    2    1    2    0    0 -0.11932402984E+02  0.41585083194E+02  0.34527760228E+01  0.47787273652E+02  0.20000011889E+02 0.  0.
        -12    1    1    2    0    0  0.11932402984E+02 -0.41585083194E+02 -0.34527760228E+01  0.43400726348E+02  0.00000000000E+00 0.  1.
         11    1    3    3    0    0 -0.18676490888E+01  0.21049799928E+02 -0.70542096190E+01  0.22278780571E+02  0.51100000000E-03 0. -1.
        -11    1    3    3    0    0 -0.31954151566E+01  0.74916687938E+01  0.59219782762E+01  0.10070035070E+02  0.51100000000E-03 0.  1.
         12    1    3    3    0    0 -0.68693387388E+01  0.13043614472E+02  0.45850073656E+01  0.15438458011E+02  0.00000000000E+00 0. -1.
</event>
<event>
 7    1  0.2458979E-009  0.4778727E+02  0.7816164E-02  0.1312668E+00
        -11   -1    0    0    0    0  0.00000000000E+00  0.00000000000E+00  0.45593999997E+02  0.45594000000E+02  0.51100000000E-03 0. -1.
         11   -1    0    0    0    0 -0.00000000000E+00 -0.00000000000E+00 -0.45593999997E+02  0.45594000000E+02  0.51100000000E-03 0.  1.
    9900012    2    1    2    0    0  0.38589947487E+02  0.96518870620E+01 -0.17357421914E+02  0.47787273434E+02  0.20000010897E+02 0.  0.
        -12    1    1    2    0    0 -0.38589947487E+02 -0.96518870620E+01  0.17357421914E+02  0.43400726566E+02  0.00000000000E+00 0.  1.
         11    1    3    3    0    0  0.13759701794E+02  0.16971658321E+01 -0.38795557354E+01  0.14396552305E+02  0.51100000000E-03 0. -1.
        -11    1    3    3    0    0  0.69364798834E+01  0.80700729905E+01  0.54675245847E+00  0.10655504200E+02  0.51100000000E-03 0.  1.
        -12    1    3    3    0    0  0.17893765810E+02 -0.11535176055E+00 -0.14024618637E+02  0.22735216929E+02  0.00000000000E+00 0.  1.
</event>
<event>
 7    1  0.2458979E-009  0.4778727E+02  0.7816164E-02  0.1312668E+00
        -11   -1    0    0    0    0  0.00000000000E+00  0.00000000000E+00  0.45593999997E+02  0.45594000000E+02  0.51100000000E-03 0.  1.
         11   -1    0    0    0    0 -0.00000000000E+00 -0.00000000000E+00 -0.45593999997E+02  0.45594000000E+02  0.51100000000E-03 0. -1.
    9900012    2    1    2    0    0  0.19683567494E+02  0.79658304011E+01 -0.37851364572E+02  0.47787273241E+02  0.20000010015E+02 0.  0.
        -12    1    1    2    0    0 -0.19683567494E+02 -0.79658304011E+01  0.37851364572E+02  0.43400726759E+02  0.00000000000E+00 0.  1.
         11    1    3    3    0    0  0.36863303939E+01 -0.26005967807E+01 -0.20339835621E+02  0.20834131821E+02  0.51100000000E-03 0. -1.
        -11    1    3    3    0    0 -0.57343516201E+00  0.61083849710E+00  0.45369423525E-01  0.83905315701E+00  0.51100000000E-03 0.  1.
         12    1    3    3    0    0  0.16570672262E+02  0.99555886847E+01 -0.17556898374E+02  0.26114088263E+02  0.00000000000E+00 0. -1.
</event>
<event>
 7    1  0.2458979E-009  0.4778727E+02  0.7816164E-02  0.1312668E+00
        -11   -1    0    0    0    0  0.00000000000E+00  0.00000000000E+00  0.45593999997E+02  0.45594000000E+02  0.51100000000E-03 0.  1.
         11   -1    0    0    0    0 -0.00000000000E+00 -0.00000000000E+00 -0.45593999997E+02  0.45594000000E+02  0.51100000000E-03 0. -1.
    9900012    2    1    2    0    0 -0.28272752201E+02 -0.29373782020E+02 -0.14881376591E+02  0.47787274701E+02  0.20000016674E+02 0.  0.
        -12    1    1    2    0    0  0.28272752201E+02  0.29373782020E+02  0.14881376591E+02  0.43400725299E+02  0.00000000000E+00 0.  1.
         11    1    3    3    0    0 -0.59233800839E+01 -0.16925842251E+02  0.82956770446E-01  0.17932580673E+02  0.51100000000E-03 0. -1.
        -11    1    3    3    0    0 -0.12287362362E+02 -0.88232486671E+01 -0.92034034548E+01  0.17706824286E+02  0.51100000000E-03 0.  1.
         12    1    3    3    0    0 -0.10062009755E+02 -0.36246911021E+01 -0.57609299064E+01  0.12147869743E+02  0.00000000000E+00 0. -1.
</event>
<event>
 7    1  0.2458979E-009  0.4778727E+02  0.7816164E-02  0.1312668E+00
        -11   -1    0    0    0    0  0.00000000000E+00  0.00000000000E+00  0.45593999997E+02  0.45594000000E+02  0.51100000000E-03 0.  1.
         11   -1    0    0    0    0 -0.00000000000E+00 -0.00000000000E+00 -0.45593999997E+02  0.45594000000E+02  0.51100000000E-03 0. -1.
    9900012    2    1    2    0    0  0.89862920797E+01  0.17269132404E+01 -0.42425080017E+02  0.47787273173E+02  0.20000009703E+02 0.  0.
        -12    1    1    2    0    0 -0.89862920797E+01 -0.17269132404E+01  0.42425080017E+02  0.43400726827E+02  0.00000000000E+00 0.  1.
         11    1    3    3    0    0 -0.39318548928E+01 -0.26588941018E+01 -0.51673717946E+01  0.70164757726E+01  0.51100000000E-03 0. -1.
        -11    1    3    3    0    0 -0.12047072781E+01  0.18503164658E+01 -0.49877421844E+01  0.54545910029E+01  0.51100000000E-03 0.  1.
         12    1    3    3    0    0  0.14122854251E+02  0.25354908764E+01 -0.32269966038E+02  0.35316206397E+02  0.00000000000E+00 0. -1.
</event>
<event>
 7    1  0.2458979E-009  0.4778727E+02  0.7816164E-02  0.1312668E+00
        -11   -1    0    0    0    0  0.00000000000E+00  0.00000000000E+00  0.45593999997E+02  0.45594000000E+02  0.51100000000E-03 0.  1.
         11   -1    0    0    0    0 -0.00000000000E+00 -0.00000000000E+00 -0.45593999997E+02  0.45594000000E+02  0.51100000000E-03 0. -1.
    9900012    2    1    2    0    0  0.22980334739E+02 -0.36743016955E+02 -0.23405847973E+01  0.47787269397E+02  0.19999992490E+02 0.  0.
        -12    1    1    2    0    0 -0.22980334739E+02  0.36743016955E+02  0.23405847973E+01  0.43400730603E+02  0.00000000000E+00 0.  1.
         11    1    3    3    0    0  0.99440715393E+01 -0.24126148788E+02  0.39569468347E+01  0.26393428019E+02  0.51100000000E-03 0. -1.
        -11    1    3    3    0    0  0.92469597245E+01 -0.11028237826E+02 -0.85176175219E+01  0.16723579228E+02  0.51100000000E-03 0.  1.
        -12    1    3    3    0    0  0.37893034752E+01 -0.15886303415E+01  0.22200858900E+01  0.46702621498E+01  0.00000000000E+00 0.  1.
</event>
<event>
 7    1  0.2458979E-009  0.4778727E+02  0.7816164E-02  0.1312668E+00
        -11   -1    0    0    0    0  0.00000000000E+00  0.00000000000E+00  0.45593999997E+02  0.45594000000E+02  0.51100000000E-03 0. -1.
         11   -1    0    0    0    0 -0.00000000000E+00 -0.00000000000E+00 -0.45593999997E+02  0.45594000000E+02  0.51100000000E-03 0.  1.
    9900012    2    1    2    0    0  0.52243920553E+00  0.33395190607E+02  0.27714832235E+02  0.47787267009E+02  0.19999981600E+02 0.  0.
        -12    1    1    2    0    0 -0.52243920553E+00 -0.33395190607E+02 -0.27714832235E+02  0.43400732991E+02  0.00000000000E+00 0.  1.
         11    1    3    3    0    0  0.64942307250E+01  0.21160589160E+02  0.19279904264E+02  0.29354050402E+02  0.51100000000E-03 0. -1.
        -11    1    3    3    0    0 -0.78984347207E+01  0.11869239063E+02  0.64675909520E+01  0.15655473163E+02  0.51100000000E-03 0.  1.
        -12    1    3    3    0    0  0.19266432012E+01  0.36536238408E+00  0.19673370190E+01  0.27777434444E+01  0.00000000000E+00 0.  1.
</event>
<event>
 7    1  0.2458979E-009  0.4778727E+02  0.7816164E-02  0.1312668E+00
        -11   -1    0    0    0    0  0.00000000000E+00  0.00000000000E+00  0.45593999997E+02  0.45594000000E+02  0.51100000000E-03 0.  1.
         11   -1    0    0    0    0 -0.00000000000E+00 -0.00000000000E+00 -0.45593999997E+02  0.45594000000E+02  0.51100000000E-03 0. -1.
    9900012    2    1    2    0    0 -0.15144404224E+02  0.32560913935E+02 -0.24373285986E+02  0.47787272295E+02  0.20000005701E+02 0.  0.
        -12    1    1    2    0    0  0.15144404224E+02 -0.32560913935E+02  0.24373285986E+02  0.43400727705E+02  0.00000000000E+00 0.  1.
         11    1    3    3    0    0 -0.19559909710E+01  0.12502183614E+02 -0.15194821719E+02  0.19774051257E+02  0.51100000000E-03 0. -1.
        -11    1    3    3    0    0 -0.82725467385E+01  0.36224568295E+01 -0.12603603852E+01  0.91184281312E+01  0.51100000000E-03 0.  1.
        -12    1    3    3    0    0 -0.49158665141E+01  0.16436273492E+02 -0.79181038817E+01  0.18894792906E+02  0.00000000000E+00 0.  1.
</event>
<event>
 7    1  0.2458979E-009  0.4778727E+02  0.7816164E-02  0.1312668E+00
        -11   -1    0    0    0    0  0.00000000000E+00  0.00000000000E+00  0.45593999997E+02  0.45594000000E+02  0.51100000000E-03 0.  1.
         11   -1    0    0    0    0 -0.00000000000E+00 -0.00000000000E+00 -0.45593999997E+02  0.45594000000E+02  0.51100000000E-03 0. -1.
    9900012    2    1    2    0    0 -0.28823259612E+02 -0.30781472489E+02 -0.10263711669E+02  0.47787272812E+02  0.20000008058E+02 0.  0.
        -12    1    1    2    0    0  0.28823259612E+02  0.30781472489E+02  0.10263711669E+02  0.43400727188E+02  0.00000000000E+00 0.  1.
         11    1    3    3    0    0 -0.14930311616E+02 -0.46507386825E+01 -0.69721238380E+01  0.17121743087E+02  0.51100000000E-03 0. -1.
        -11    1    3    3    0    0 -0.33107863582E+01 -0.14020385700E+02 -0.15527739020E+01  0.14489431615E+02  0.51100000000E-03 0.  1.
         12    1    3    3    0    0 -0.10582161638E+02 -0.12110348106E+02 -0.17388139292E+01  0.16176098110E+02  0.00000000000E+00 0. -1.
</event>
<event>
 7    1  0.2458979E-009  0.4778727E+02  0.7816164E-02  0.1312668E+00
        -11   -1    0    0    0    0  0.00000000000E+00  0.00000000000E+00  0.45593999997E+02  0.45594000000E+02  0.51100000000E-03 0.  1.
         11   -1    0    0    0    0 -0.00000000000E+00 -0.00000000000E+00 -0.45593999997E+02  0.45594000000E+02  0.51100000000E-03 0. -1.
    9900012    2    1    2    0    0  0.89579811394E+01 -0.16026757669E+02 -0.39325829061E+02  0.47787271679E+02  0.20000002893E+02 0.  0.
        -12    1    1    2    0    0 -0.89579811394E+01  0.16026757669E+02  0.39325829061E+02  0.43400728321E+02  0.00000000000E+00 0.  1.
         11    1    3    3    0    0  0.12512833144E+01 -0.61321718813E+01 -0.12768211244E+02  0.14219580182E+02  0.51100000000E-03 0. -1.
        -11    1    3    3    0    0 -0.24882701960E+01 -0.34339295564E+01 -0.18678586026E+02  0.19153927456E+02  0.51100000000E-03 0.  1.
        -12    1    3    3    0    0  0.10194968021E+02 -0.64606562312E+01 -0.78790317906E+01  0.14413764042E+02  0.00000000000E+00 0.  1.
</event>
<event>
 7    1  0.2458979E-009  0.4778727E+02  0.7816164E-02  0.1312668E+00
        -11   -1    0    0    0    0  0.00000000000E+00  0.00000000000E+00  0.45593999997E+02  0.45594000000E+02  0.51100000000E-03 0. -1.
         11   -1    0    0    0    0 -0.00000000000E+00 -0.00000000000E+00 -0.45593999997E+02  0.45594000000E+02  0.51100000000E-03 0.  1.
    9900012    2    1    2    0    0  0.12688759012E+02 -0.39913076052E+02 -0.11382666527E+02  0.47787270254E+02  0.19999996398E+02 0.  0.
        -12    1    1    2    0    0 -0.12688759012E+02  0.39913076052E+02  0.11382666527E+02  0.43400729746E+02  0.00000000000E+00 0.  1.
         11    1    3    3    0    0 -0.12707674806E+01 -0.17514175807E+02 -0.92289875191E+01  0.19837727064E+02  0.51100000000E-03 0. -1.
        -11    1    3    3    0    0  0.88566023413E+01 -0.67862885492E+01 -0.28274961563E+01  0.11510336749E+02  0.51100000000E-03 0.  1.
        -12    1    3    3    0    0  0.51029241509E+01 -0.15612611696E+02  0.67381714843E+00  0.16439206441E+02  0.00000000000E+00 0.  1.
</event>
<event>
 7    1  0.2458979E-009  0.4778727E+02  0.7816164E-02  0.1312668E+00
        -11   -1    0    0    0    0  0.00000000000E+00  0.00000000000E+00  0.45593999997E+02  0.45594000000E+02  0.51100000000E-03 0.  1.
         11   -1    0    0    0    0 -0.00000000000E+00 -0.00000000000E+00 -0.45593999997E+02  0.45594000000E+02  0.51100000000E-03 0. -1.
    9900012    2    1    2    0    0 -0.36715470696E+02  0.20639248195E+02  0.10469915823E+02  0.47787268534E+02  0.19999988553E+02 0.  0.
        -12    1    1    2    0    0  0.36715470696E+02 -0.20639248195E+02 -0.10469915823E+02  0.43400731466E+02  0.00000000000E+00 0.  1.
         11    1    3    3    0    0 -0.78641335197E+01  0.63767612798E+01 -0.51241608757E-01  0.10124737350E+02  0.51100000000E-03 0. -1.
        -11    1    3    3    0    0 -0.16691388013E+02  0.25841934814E+01 -0.14991092335E+01  0.16956645261E+02  0.51100000000E-03 0.  1.
        -12    1    3    3    0    0 -0.12159949163E+02  0.11678293434E+02  0.12020266665E+02  0.20705885923E+02  0.00000000000E+00 0.  1.
</event>
<event>
 7    1  0.2458979E-009  0.4778729E+02  0.7816164E-02  0.1312668E+00
        -11   -1    0    0    0    0  0.00000000000E+00  0.00000000000E+00  0.45593999997E+02  0.45594000000E+02  0.51100000000E-03 0.  1.
         11   -1    0    0    0    0 -0.00000000000E+00 -0.00000000000E+00 -0.45593999997E+02  0.45594000000E+02  0.51100000000E-03 0. -1.
    9900012    2    1    2    0    0  0.21398472880E+02  0.11659443743E+02 -0.35913563763E+02  0.47787293414E+02  0.20000101992E+02 0.  0.
        -12    1    1    2    0    0 -0.21398472880E+02 -0.11659443743E+02  0.35913563763E+02  0.43400706586E+02  0.00000000000E+00 0.  1.
         11    1    3    3    0    0  0.13295116130E+02 -0.19662518226E+01 -0.11436998039E+02  0.17647412942E+02  0.51100000000E-03 0. -1.
        -11    1    3    3    0    0  0.33260951752E+01  0.11067044546E+02 -0.20052787215E+02  0.23144257591E+02  0.51100000000E-03 0.  1.
        -12    1    3    3    0    0  0.47772615741E+01  0.25586510202E+01 -0.44237785099E+01  0.69956228811E+01  0.00000000000E+00 0.  1.
</event>
<event>
 7    1  0.2458979E-009  0.4778727E+02  0.7816164E-02  0.1312668E+00
        -11   -1    0    0    0    0  0.00000000000E+00  0.00000000000E+00  0.45593999997E+02  0.45594000000E+02  0.51100000000E-03 0.  1.
         11   -1    0    0    0    0 -0.00000000000E+00 -0.00000000000E+00 -0.45593999997E+02  0.45594000000E+02  0.51100000000E-03 0. -1.
    9900012    2    1    2    0    0 -0.11873713621E+02  0.21460584176E+02 -0.35806167986E+02  0.47787269428E+02  0.19999992631E+02 0.  0.
        -12    1    1    2    0    0  0.11873713621E+02 -0.21460584176E+02  0.35806167986E+02  0.43400730572E+02  0.00000000000E+00 0.  1.
         11    1    3    3    0    0 -0.17000108440E+01  0.16505759586E+01 -0.13822723135E+02  0.14024340020E+02  0.51100000000E-03 0. -1.
        -11    1    3    3    0    0 -0.10984992145E+02  0.20586170871E+02 -0.22598173195E+02  0.32482886503E+02  0.51100000000E-03 0.  1.
         12    1    3    3    0    0  0.81128936806E+00 -0.77616265317E+00  0.61472834424E+00  0.12800429056E+01  0.00000000000E+00 0. -1.
</event>
<event>
 7    1  0.2458979E-009  0.4778727E+02  0.7816164E-02  0.1312668E+00
        -11   -1    0    0    0    0  0.00000000000E+00  0.00000000000E+00  0.45593999997E+02  0.45594000000E+02  0.51100000000E-03 0.  1.
         11   -1    0    0    0    0 -0.00000000000E+00 -0.00000000000E+00 -0.45593999997E+02  0.45594000000E+02  0.51100000000E-03 0. -1.
    9900012    2    1    2    0    0  0.42400428695E+02 -0.87252690716E+01 -0.31139278370E+01  0.47787271660E+02  0.20000002805E+02 0.  0.
        -12    1    1    2    0    0 -0.42400428695E+02  0.87252690716E+01  0.31139278370E+01  0.43400728340E+02  0.00000000000E+00 0.  1.
         11    1    3    3    0    0  0.49859304090E+01 -0.31252757525E+01 -0.32146060588E+01  0.67052623325E+01  0.51100000000E-03 0.  1.
        -11    1    3    3    0    0  0.21643218989E+02 -0.54545334005E+01 -0.75368683279E+01  0.23558124868E+02  0.51100000000E-03 0. -1.
        -12    1    3    3    0    0  0.15771279297E+02 -0.14545991855E+00  0.76375465497E+01  0.17523884459E+02  0.00000000000E+00 0.  1.
</event>
<event>
 7    1  0.2458979E-009  0.4778728E+02  0.7816164E-02  0.1312668E+00
        -11   -1    0    0    0    0  0.00000000000E+00  0.00000000000E+00  0.45593999997E+02  0.45594000000E+02  0.51100000000E-03 0.  1.
         11   -1    0    0    0    0 -0.00000000000E+00 -0.00000000000E+00 -0.45593999997E+02  0.45594000000E+02  0.51100000000E-03 0. -1.
    9900012    2    1    2    0    0 -0.24481086321E+02  0.19153676105E+01 -0.35785892867E+02  0.47787281701E+02  0.20000048589E+02 0.  0.
        -12    1    1    2    0    0  0.24481086321E+02 -0.19153676105E+01  0.35785892867E+02  0.43400718299E+02  0.00000000000E+00 0.  1.
         11    1    3    3    0    0 -0.12068523682E+02  0.60139304713E+00 -0.14310859866E+02  0.18729966573E+02  0.51100000000E-03 0. -1.
        -11    1    3    3    0    0  0.31952567528E+01  0.17151239622E+01 -0.21594959887E+01  0.42207510124E+01  0.51100000000E-03 0.  1.
        -12    1    3    3    0    0 -0.15607819392E+02 -0.40114939877E+00 -0.19315537012E+02  0.24836564116E+02  0.00000000000E+00 0.  1.
</event>
<event>
 7    1  0.2458979E-009  0.4778727E+02  0.7816164E-02  0.1312668E+00
        -11   -1    0    0    0    0  0.00000000000E+00  0.00000000000E+00  0.45593999997E+02  0.45594000000E+02  0.51100000000E-03 0.  1.
         11   -1    0    0    0    0 -0.00000000000E+00 -0.00000000000E+00 -0.45593999997E+02  0.45594000000E+02  0.51100000000E-03 0. -1.
    9900012    2    1    2    0    0 -0.25066455740E+02  0.34262586377E+02 -0.90206119570E+01  0.47787268801E+02  0.19999989770E+02 0.  0.
        -12    1    1    2    0    0  0.25066455740E+02 -0.34262586377E+02  0.90206119570E+01  0.43400731199E+02  0.00000000000E+00 0.  1.
         11    1    3    3    0    0 -0.60204847436E+01  0.55097571321E+01  0.63074443508E+00  0.81854443377E+01  0.51100000000E-03 0. -1.
        -11    1    3    3    0    0 -0.29553600189E+01 -0.20896461480E+01 -0.83424049671E+00  0.37143951503E+01  0.51100000000E-03 0.  1.
        -12    1    3    3    0    0 -0.16090610977E+02  0.30842475393E+02 -0.88171158954E+01  0.35887429313E+02  0.00000000000E+00 0.  1.
</event>
<event>
 7    1  0.2458979E-009  0.4778727E+02  0.7816164E-02  0.1312668E+00
        -11   -1    0    0    0    0  0.00000000000E+00  0.00000000000E+00  0.45593999997E+02  0.45594000000E+02  0.51100000000E-03 0. -1.
         11   -1    0    0    0    0 -0.00000000000E+00 -0.00000000000E+00 -0.45593999997E+02  0.45594000000E+02  0.51100000000E-03 0.  1.
    9900012    2    1    2    0    0  0.33498293632E+02  0.12323922215E+02 -0.24690251249E+02  0.47787271415E+02  0.20000001688E+02 0.  0.
        -12    1    1    2    0    0 -0.33498293632E+02 -0.12323922215E+02  0.24690251249E+02  0.43400728585E+02  0.00000000000E+00 0.  1.
         11    1    3    3    0    0  0.10979268765E+02  0.19679463687E+01  0.55251119681E+00  0.11167919430E+02  0.51100000000E-03 0. -1.
        -11    1    3    3    0    0  0.19332953050E+02  0.45550881032E+01 -0.17954347928E+02  0.26774437642E+02  0.51100000000E-03 0.  1.
         12    1    3    3    0    0  0.31860718173E+01  0.58008877432E+01 -0.72884145173E+01  0.98449143425E+01  0.00000000000E+00 0. -1.
</event>
<event>
 7    1  0.2458979E-009  0.4778727E+02  0.7816164E-02  0.1312668E+00
        -11   -1    0    0    0    0  0.00000000000E+00  0.00000000000E+00  0.45593999997E+02  0.45594000000E+02  0.51100000000E-03 0.  1.
         11   -1    0    0    0    0 -0.00000000000E+00 -0.00000000000E+00 -0.45593999997E+02  0.45594000000E+02  0.51100000000E-03 0. -1.
    9900012    2    1    2    0    0 -0.38706939204E+02 -0.35938719146E+01 -0.19299748079E+02  0.47787270354E+02  0.19999996854E+02 0.  0.
        -12    1    1    2    0    0  0.38706939204E+02  0.35938719146E+01  0.19299748079E+02  0.43400729646E+02  0.00000000000E+00 0.  1.
         11    1    3    3    0    0 -0.37242598213E+02 -0.54685541394E+00 -0.20714561100E+02  0.42619282189E+02  0.51100000000E-03 0. -1.
        -11    1    3    3    0    0  0.10018411362E+01 -0.16787360337E+01  0.12952963704E+01  0.23451296940E+01  0.51100000000E-03 0.  1.
         12    1    3    3    0    0 -0.24661821273E+01 -0.13682804669E+01  0.11951665065E+00  0.28228584717E+01  0.00000000000E+00 0. -1.
</event>
<event>
 7    1  0.2458979E-009  0.4778727E+02  0.7816164E-02  0.1312668E+00
        -11   -1    0    0    0    0  0.00000000000E+00  0.00000000000E+00  0.45593999997E+02  0.45594000000E+02  0.51100000000E-03 0.  1.
         11   -1    0    0    0    0 -0.00000000000E+00 -0.00000000000E+00 -0.45593999997E+02  0.45594000000E+02  0.51100000000E-03 0. -1.
    9900012    2    1    2    0    0 -0.31632923126E+02 -0.23349893750E+02 -0.18378355181E+02  0.47787270712E+02  0.19999998483E+02 0.  0.
        -12    1    1    2    0    0  0.31632923126E+02  0.23349893750E+02  0.18378355181E+02  0.43400729288E+02  0.00000000000E+00 0.  1.
         11    1    3    3    0    0  0.24753853165E+01 -0.25143948404E+01 -0.27942024138E+01  0.45008089571E+01  0.51100000000E-03 0. -1.
        -11    1    3    3    0    0 -0.21521399436E+02 -0.13853259696E+02 -0.70294219649E+01  0.26542347509E+02  0.51100000000E-03 0.  1.
        -12    1    3    3    0    0 -0.12586909006E+02 -0.69822392136E+01 -0.85547308019E+01  0.16744114245E+02  0.00000000000E+00 0.  1.
</event>
<event>
 7    1  0.2458979E-009  0.4778727E+02  0.7816164E-02  0.1312668E+00
        -11   -1    0    0    0    0  0.00000000000E+00  0.00000000000E+00  0.45593999997E+02  0.45594000000E+02  0.51100000000E-03 0.  1.
         11   -1    0    0    0    0 -0.00000000000E+00 -0.00000000000E+00 -0.45593999997E+02  0.45594000000E+02  0.51100000000E-03 0. -1.
    9900012    2    1    2    0    0 -0.17264153769E+02  0.36742595024E+02 -0.15347758500E+02  0.47787274367E+02  0.20000015151E+02 0.  0.
        -12    1    1    2    0    0  0.17264153769E+02 -0.36742595024E+02  0.15347758500E+02  0.43400725633E+02  0.00000000000E+00 0.  1.
         11    1    3    3    0    0 -0.39543582271E+01  0.95256054272E+01 -0.37673252142E+01  0.10980293588E+02  0.51100000000E-03 0. -1.
        -11    1    3    3    0    0 -0.74987786117E+01  0.70962500122E+01  0.36076495869E+01  0.10936342200E+02  0.51100000000E-03 0.  1.
        -12    1    3    3    0    0 -0.58110169303E+01  0.20120739585E+02 -0.15188082873E+02  0.25870638580E+02  0.00000000000E+00 0.  1.
</event>
<event>
 7    1  0.2458979E-009  0.4778727E+02  0.7816164E-02  0.1312668E+00
        -11   -1    0    0    0    0  0.00000000000E+00  0.00000000000E+00  0.45593999997E+02  0.45594000000E+02  0.51100000000E-03 0.  1.
         11   -1    0    0    0    0 -0.00000000000E+00 -0.00000000000E+00 -0.45593999997E+02  0.45594000000E+02  0.51100000000E-03 0. -1.
    9900012    2    1    2    0    0  0.29099999974E+02  0.14979826645E+02  0.28502948004E+02  0.47787271322E+02  0.20000001268E+02 0.  0.
        -12    1    1    2    0    0 -0.29099999974E+02 -0.14979826645E+02 -0.28502948004E+02  0.43400728678E+02  0.00000000000E+00 0.  1.
         11    1    3    3    0    0  0.18911976619E+02  0.81636104207E+01  0.16057147051E+02  0.26117797886E+02  0.51100000000E-03 0. -1.
        -11    1    3    3    0    0 -0.17062027254E+01  0.83609113719E+00 -0.14766026623E+01  0.24063523876E+01  0.51100000000E-03 0.  1.
        -12    1    3    3    0    0  0.11894226081E+02  0.59801250871E+01  0.13922403615E+02  0.19263121049E+02  0.00000000000E+00 0.  1.
</event>
<event>
 7    1  0.2458979E-009  0.4778728E+02  0.7816164E-02  0.1312668E+00
        -11   -1    0    0    0    0  0.00000000000E+00  0.00000000000E+00  0.45593999997E+02  0.45594000000E+02  0.51100000000E-03 0.  1.
         11   -1    0    0    0    0 -0.00000000000E+00 -0.00000000000E+00 -0.45593999997E+02  0.45594000000E+02  0.51100000000E-03 0. -1.
    9900012    2    1    2    0    0 -0.53012155211E+01 -0.42323306987E+02 -0.80160898415E+01  0.47787275390E+02  0.20000019812E+02 0.  0.
        -12    1    1    2    0    0  0.53012155211E+01  0.42323306987E+02  0.80160898415E+01  0.43400724610E+02  0.00000000000E+00 0.  1.
         11    1    3    3    0    0  0.39682903809E+00 -0.26624403096E+01  0.71734822433E+00  0.27857943973E+01  0.51100000000E-03 0. -1.
        -11    1    3    3    0    0  0.18597886873E+01 -0.33752898239E+02 -0.32701684070E+01  0.33961904469E+02  0.51100000000E-03 0.  1.
        -12    1    3    3    0    0 -0.75578332465E+01 -0.59079684390E+01 -0.54632696588E+01  0.11039576524E+02  0.00000000000E+00 0.  1.
</event>
<event>
 7    1  0.2458979E-009  0.4778727E+02  0.7816164E-02  0.1312668E+00
        -11   -1    0    0    0    0  0.00000000000E+00  0.00000000000E+00  0.45593999997E+02  0.45594000000E+02  0.51100000000E-03 0. -1.
         11   -1    0    0    0    0 -0.00000000000E+00 -0.00000000000E+00 -0.45593999997E+02  0.45594000000E+02  0.51100000000E-03 0.  1.
    9900012    2    1    2    0    0 -0.26410619488E+02  0.23775324915E+02  0.24916583820E+02  0.47787273672E+02  0.20000011980E+02 0.  0.
        -12    1    1    2    0    0  0.26410619488E+02 -0.23775324915E+02 -0.24916583820E+02  0.43400726328E+02  0.00000000000E+00 0.  1.
         11    1    3    3    0    0 -0.25085995642E+02  0.16535609236E+02  0.15902452398E+02  0.33994433995E+02  0.51100000000E-03 0. -1.
        -11    1    3    3    0    0 -0.19719413636E+01  0.85913598153E+01  0.83903486030E+01  0.12169550779E+02  0.51100000000E-03 0.  1.
         12    1    3    3    0    0  0.64731751742E+00 -0.13516441366E+01  0.62378281951E+00  0.16232888980E+01  0.00000000000E+00 0. -1.
</event>
<event>
 7    1  0.2458979E-009  0.4778728E+02  0.7816164E-02  0.1312668E+00
        -11   -1    0    0    0    0  0.00000000000E+00  0.00000000000E+00  0.45593999997E+02  0.45594000000E+02  0.51100000000E-03 0.  1.
         11   -1    0    0    0    0 -0.00000000000E+00 -0.00000000000E+00 -0.45593999997E+02  0.45594000000E+02  0.51100000000E-03 0. -1.
    9900012    2    1    2    0    0 -0.85073566739E+01 -0.24194770120E+02 -0.35012295022E+02  0.47787276257E+02  0.20000023765E+02 0.  0.
        -12    1    1    2    0    0  0.85073566739E+01  0.24194770120E+02  0.35012295022E+02  0.43400723743E+02  0.00000000000E+00 0.  1.
         11    1    3    3    0    0 -0.10275112818E+02 -0.83588744683E+01 -0.20284082957E+02  0.24225869385E+02  0.51100000000E-03 0. -1.
        -11    1    3    3    0    0  0.72912043980E+00 -0.16408310852E+02 -0.15107877927E+02  0.22316188235E+02  0.51100000000E-03 0.  1.
        -12    1    3    3    0    0  0.10386357042E+01  0.57241519978E+00  0.37966586167E+00  0.12452186368E+01  0.00000000000E+00 0.  1.
</event>
<event>
 7    1  0.2458979E-009  0.4778727E+02  0.7816164E-02  0.1312668E+00
        -11   -1    0    0    0    0  0.00000000000E+00  0.00000000000E+00  0.45593999997E+02  0.45594000000E+02  0.51100000000E-03 0.  1.
         11   -1    0    0    0    0 -0.00000000000E+00 -0.00000000000E+00 -0.45593999997E+02  0.45594000000E+02  0.51100000000E-03 0. -1.
    9900012    2    1    2    0    0  0.90593582414E+01  0.36873664671E+02 -0.21021039451E+02  0.47787271693E+02  0.20000002957E+02 0.  0.
        -12    1    1    2    0    0 -0.90593582414E+01 -0.36873664671E+02  0.21021039451E+02  0.43400728307E+02  0.00000000000E+00 0.  1.
         11    1    3    3    0    0  0.55594236146E+01  0.14941606057E+02 -0.10684813640E+02  0.19191769727E+02  0.51100000000E-03 0. -1.
        -11    1    3    3    0    0  0.43297625449E+01  0.15340532216E+02  0.42866589363E+00  0.15945611530E+02  0.51100000000E-03 0.  1.
        -12    1    3    3    0    0 -0.82982791806E+00  0.65915263982E+01 -0.10764891704E+02  0.12649890436E+02  0.00000000000E+00 0.  1.
</event>
<event>
 7    1  0.2458979E-009  0.4778727E+02  0.7816164E-02  0.1312668E+00
        -11   -1    0    0    0    0  0.00000000000E+00  0.00000000000E+00  0.45593999997E+02  0.45594000000E+02  0.51100000000E-03 0. -1.
         11   -1    0    0    0    0 -0.00000000000E+00 -0.00000000000E+00 -0.45593999997E+02  0.45594000000E+02  0.51100000000E-03 0.  1.
    9900012    2    1    2    0    0  0.40395438375E+02 -0.94912831558E+01  0.12717987714E+02  0.47787272945E+02  0.20000008665E+02 0.  0.
        -12    1    1    2    0    0 -0.40395438375E+02  0.94912831558E+01 -0.12717987714E+02  0.43400727055E+02  0.00000000000E+00 0.  1.
         11    1    3    3    0    0  0.15751855172E+02 -0.56238528985E+01  0.14170555004E+00  0.16726288994E+02  0.51100000000E-03 0. -1.
        -11    1    3    3    0    0  0.63918699272E+01  0.33474571778E+01  0.82568858857E+01  0.10965292313E+02  0.51100000000E-03 0.  1.
         12    1    3    3    0    0  0.18251713276E+02 -0.72148874350E+01  0.43193962785E+01  0.20095691638E+02  0.00000000000E+00 0. -1.
</event>
<event>
 7    1  0.2458979E-009  0.4778728E+02  0.7816164E-02  0.1312668E+00
        -11   -1    0    0    0    0  0.00000000000E+00  0.00000000000E+00  0.45593999997E+02  0.45594000000E+02  0.51100000000E-03 0.  1.
         11   -1    0    0    0    0 -0.00000000000E+00 -0.00000000000E+00 -0.45593999997E+02  0.45594000000E+02  0.51100000000E-03 0. -1.
    9900012    2    1    2    0    0 -0.20683572712E+02  0.72404674901E-01 -0.38155043634E+02  0.47787276766E+02  0.20000026085E+02 0.  0.
        -12    1    1    2    0    0  0.20683572712E+02 -0.72404674901E-01  0.38155043634E+02  0.43400723234E+02  0.00000000000E+00 0.  1.
         11    1    3    3    0    0 -0.19062572345E+01 -0.45618869210E+00  0.10979567473E+01  0.22466495158E+01  0.51100000000E-03 0. -1.
        -11    1    3    3    0    0 -0.58816828055E+01 -0.59918916300E+01 -0.11352539594E+02  0.14120096084E+02  0.51100000000E-03 0.  1.
         12    1    3    3    0    0 -0.12895632672E+02  0.65204849970E+01 -0.27900460787E+02  0.31420531166E+02  0.00000000000E+00 0. -1.
</event>
<event>
 7    1  0.2458979E-009  0.4778727E+02  0.7816164E-02  0.1312668E+00
        -11   -1    0    0    0    0  0.00000000000E+00  0.00000000000E+00  0.45593999997E+02  0.45594000000E+02  0.51100000000E-03 0.  1.
         11   -1    0    0    0    0 -0.00000000000E+00 -0.00000000000E+00 -0.45593999997E+02  0.45594000000E+02  0.51100000000E-03 0. -1.
    9900012    2    1    2    0    0 -0.10354026179E+02 -0.26746606356E+02 -0.32573553300E+02  0.47787272077E+02  0.20000004707E+02 0.  0.
        -12    1    1    2    0    0  0.10354026179E+02  0.26746606356E+02  0.32573553300E+02  0.43400727923E+02  0.00000000000E+00 0.  1.
         11    1    3    3    0    0 -0.77939898144E+01 -0.13545574602E+02 -0.18317776187E+02  0.24078409275E+02  0.51100000000E-03 0. -1.
        -11    1    3    3    0    0  0.11337040663E+01  0.25338029572E+01 -0.18856245649E+01  0.33557447157E+01  0.51100000000E-03 0.  1.
        -12    1    3    3    0    0 -0.36937404308E+01 -0.15734834712E+02 -0.12370152548E+02  0.20353118086E+02  0.00000000000E+00 0.  1.
</event>
<event>
 7    1  0.2458979E-009  0.4778727E+02  0.7816164E-02  0.1312668E+00
        -11   -1    0    0    0    0  0.00000000000E+00  0.00000000000E+00  0.45593999997E+02  0.45594000000E+02  0.51100000000E-03 0.  1.
         11   -1    0    0    0    0 -0.00000000000E+00 -0.00000000000E+00 -0.45593999997E+02  0.45594000000E+02  0.51100000000E-03 0. -1.
    9900012    2    1    2    0    0 -0.16574793293E+02  0.36483944132E+02  0.16667972065E+02  0.47787271378E+02  0.20000001521E+02 0.  0.
        -12    1    1    2    0    0  0.16574793293E+02 -0.36483944132E+02 -0.16667972065E+02  0.43400728622E+02  0.00000000000E+00 0.  1.
         11    1    3    3    0    0 -0.15181396379E+02  0.29813144033E+02  0.19497707692E+02  0.38722848018E+02  0.51100000000E-03 0. -1.
        -11    1    3    3    0    0  0.16811273001E+01  0.45301012679E+01 -0.11989528689E+01  0.49785032630E+01  0.51100000000E-03 0.  1.
         12    1    3    3    0    0 -0.30745242141E+01  0.21406988319E+01 -0.16307827584E+01  0.40859200968E+01  0.00000000000E+00 0. -1.
</event>
<event>
 7    1  0.2458979E-009  0.4778727E+02  0.7816164E-02  0.1312668E+00
        -11   -1    0    0    0    0  0.00000000000E+00  0.00000000000E+00  0.45593999997E+02  0.45594000000E+02  0.51100000000E-03 0.  1.
         11   -1    0    0    0    0 -0.00000000000E+00 -0.00000000000E+00 -0.45593999997E+02  0.45594000000E+02  0.51100000000E-03 0. -1.
    9900012    2    1    2    0    0  0.15845511395E+02 -0.68147640206E+01 -0.39825896544E+02  0.47787271025E+02  0.19999999912E+02 0.  0.
        -12    1    1    2    0    0 -0.15845511395E+02  0.68147640206E+01  0.39825896544E+02  0.43400728975E+02  0.00000000000E+00 0.  1.
         11    1    3    3    0    0 -0.12523995637E+01 -0.55585572439E+00 -0.11838051100E+02  0.11917085817E+02  0.51100000000E-03 0. -1.
        -11    1    3    3    0    0  0.12212411029E+02 -0.93064186798E+01 -0.14141327184E+02  0.20874135828E+02  0.51100000000E-03 0.  1.
        -12    1    3    3    0    0  0.48854999305E+01  0.30475103836E+01 -0.13846518259E+02  0.14996049380E+02  0.00000000000E+00 0.  1.
</event>
<event>
 7    1  0.2458979E-009  0.4778727E+02  0.7816164E-02  0.1312668E+00
        -11   -1    0    0    0    0  0.00000000000E+00  0.00000000000E+00  0.45593999997E+02  0.45594000000E+02  0.51100000000E-03 0.  1.
         11   -1    0    0    0    0 -0.00000000000E+00 -0.00000000000E+00 -0.45593999997E+02  0.45594000000E+02  0.51100000000E-03 0. -1.
    9900012    2    1    2    0    0 -0.39806959856E+02  0.79616117063E+01 -0.15350631584E+02  0.47787271850E+02  0.20000003672E+02 0.  0.
        -12    1    1    2    0    0  0.39806959856E+02 -0.79616117063E+01  0.15350631584E+02  0.43400728150E+02  0.00000000000E+00 0.  1.
         11    1    3    3    0    0 -0.10018548989E+02 -0.61910918622E+00 -0.33789213716E+01  0.10591115613E+02  0.51100000000E-03 0. -1.
        -11    1    3    3    0    0 -0.16235254940E+02  0.81352554771E+00  0.18210490828E+01  0.16357308666E+02  0.51100000000E-03 0.  1.
        -12    1    3    3    0    0 -0.13553155927E+02  0.77671953448E+01 -0.13792759295E+02  0.20838847571E+02  0.00000000000E+00 0.  1.
</event>
<event>
 7    1  0.2458979E-009  0.4778727E+02  0.7816164E-02  0.1312668E+00
        -11   -1    0    0    0    0  0.00000000000E+00  0.00000000000E+00  0.45593999997E+02  0.45594000000E+02  0.51100000000E-03 0.  1.
         11   -1    0    0    0    0 -0.00000000000E+00 -0.00000000000E+00 -0.45593999997E+02  0.45594000000E+02  0.51100000000E-03 0. -1.
    9900012    2    1    2    0    0  0.40579981355E+02 -0.14765984336E+02  0.43421250447E+01  0.47787271549E+02  0.20000002302E+02 0.  0.
        -12    1    1    2    0    0 -0.40579981355E+02  0.14765984336E+02 -0.43421250447E+01  0.43400728451E+02  0.00000000000E+00 0.  1.
         11    1    3    3    0    0  0.31878686767E+02 -0.56902345193E+01  0.43360106364E+01  0.32671553795E+02  0.51100000000E-03 0. -1.
        -11    1    3    3    0    0  0.21957776147E+01 -0.40804597108E+01 -0.38761588877E+01  0.60412083865E+01  0.51100000000E-03 0.  1.
        -12    1    3    3    0    0  0.65055169727E+01 -0.49952901057E+01  0.38822732961E+01  0.90745093679E+01  0.00000000000E+00 0.  1.
</event>
<event>
 7    1  0.2458979E-009  0.4778727E+02  0.7816164E-02  0.1312668E+00
        -11   -1    0    0    0    0  0.00000000000E+00  0.00000000000E+00  0.45593999997E+02  0.45594000000E+02  0.51100000000E-03 0.  1.
         11   -1    0    0    0    0 -0.00000000000E+00 -0.00000000000E+00 -0.45593999997E+02  0.45594000000E+02  0.51100000000E-03 0. -1.
    9900012    2    1    2    0    0  0.20230624866E+02 -0.37670221358E+02  0.74363573776E+01  0.47787272234E+02  0.20000005422E+02 0.  0.
        -12    1    1    2    0    0 -0.20230624866E+02  0.37670221358E+02 -0.74363573776E+01  0.43400727766E+02  0.00000000000E+00 0.  1.
         11    1    3    3    0    0  0.16173053436E+02 -0.28404641794E+02  0.61888631916E+01  0.33267001078E+02  0.51100000000E-03 0. -1.
        -11    1    3    3    0    0  0.86369088412E+00  0.53419504153E+00  0.37738179209E+01  0.39080721906E+01  0.51100000000E-03 0.  1.
        -12    1    3    3    0    0  0.31938805458E+01 -0.97997746057E+01 -0.25263237349E+01  0.10612198965E+02  0.00000000000E+00 0.  1.
</event>
<event>
 7    1  0.2458979E-009  0.4778726E+02  0.7816164E-02  0.1312668E+00
        -11   -1    0    0    0    0  0.00000000000E+00  0.00000000000E+00  0.45593999997E+02  0.45594000000E+02  0.51100000000E-03 0.  1.
         11   -1    0    0    0    0 -0.00000000000E+00 -0.00000000000E+00 -0.45593999997E+02  0.45594000000E+02  0.51100000000E-03 0. -1.
    9900012    2    1    2    0    0  0.82906122793E+01  0.24041613587E+02  0.35169461572E+02  0.47787257344E+02  0.19999937532E+02 0.  0.
        -12    1    1    2    0    0 -0.82906122793E+01 -0.24041613587E+02 -0.35169461572E+02  0.43400742656E+02  0.00000000000E+00 0.  1.
         11    1    3    3    0    0  0.63311616800E+01  0.29782757245E+01  0.74447500201E+01  0.10216557034E+02  0.51100000000E-03 0. -1.
        -11    1    3    3    0    0 -0.12816150874E+00  0.66700436807E+01  0.20040274100E+02  0.21121517330E+02  0.51100000000E-03 0.  1.
        -12    1    3    3    0    0  0.20876121080E+01  0.14393294182E+02  0.76844374524E+01  0.16449182979E+02  0.00000000000E+00 0.  1.
</event>
<event>
 7    1  0.2458979E-009  0.4778727E+02  0.7816164E-02  0.1312668E+00
        -11   -1    0    0    0    0  0.00000000000E+00  0.00000000000E+00  0.45593999997E+02  0.45594000000E+02  0.51100000000E-03 0.  1.
         11   -1    0    0    0    0 -0.00000000000E+00 -0.00000000000E+00 -0.45593999997E+02  0.45594000000E+02  0.51100000000E-03 0. -1.
    9900012    2    1    2    0    0  0.32846781001E+02  0.27033457128E+02  0.85967683528E+01  0.47787271290E+02  0.20000001121E+02 0.  0.
        -12    1    1    2    0    0 -0.32846781001E+02 -0.27033457128E+02 -0.85967683528E+01  0.43400728710E+02  0.00000000000E+00 0.  1.
         11    1    3    3    0    0  0.17932989654E+02  0.10833734216E+02  0.18697249649E+01  0.21034680570E+02  0.51100000000E-03 0. -1.
        -11    1    3    3    0    0  0.78877585749E+01  0.10825828548E+02  0.10614555134E+02  0.17090467520E+02  0.51100000000E-03 0.  1.
        -12    1    3    3    0    0  0.70260327722E+01  0.53738943644E+01 -0.38875117465E+01  0.96621232001E+01  0.00000000000E+00 0.  1.
</event>
<event>
 7    1  0.2458979E-009  0.4778727E+02  0.7816164E-02  0.1312668E+00
        -11   -1    0    0    0    0  0.00000000000E+00  0.00000000000E+00  0.45593999997E+02  0.45594000000E+02  0.51100000000E-03 0. -1.
         11   -1    0    0    0    0 -0.00000000000E+00 -0.00000000000E+00 -0.45593999997E+02  0.45594000000E+02  0.51100000000E-03 0.  1.
    9900012    2    1    2    0    0  0.48754187246E+01  0.17520353502E+02  0.39406733786E+02  0.47787272331E+02  0.20000005865E+02 0.  0.
        -12    1    1    2    0    0 -0.48754187246E+01 -0.17520353502E+02 -0.39406733786E+02  0.43400727669E+02  0.00000000000E+00 0.  1.
         11    1    3    3    0    0  0.74720721473E+01  0.13317548242E+02  0.13850723182E+02  0.20616291768E+02  0.51100000000E-03 0. -1.
        -11    1    3    3    0    0  0.23124658257E+01  0.11282780100E+01  0.14110784213E+02  0.14343456376E+02  0.51100000000E-03 0.  1.
         12    1    3    3    0    0 -0.49091192485E+01  0.30745272503E+01  0.11445226390E+02  0.12827524186E+02  0.00000000000E+00 0. -1.
</event>
<event>
 7    1  0.2458979E-009  0.4778726E+02  0.7816164E-02  0.1312668E+00
        -11   -1    0    0    0    0  0.00000000000E+00  0.00000000000E+00  0.45593999997E+02  0.45594000000E+02  0.51100000000E-03 0.  1.
         11   -1    0    0    0    0 -0.00000000000E+00 -0.00000000000E+00 -0.45593999997E+02  0.45594000000E+02  0.51100000000E-03 0. -1.
    9900012    2    1    2    0    0 -0.80626515045E+01 -0.21796676264E+01 -0.42589511986E+02  0.47787264621E+02  0.19999970713E+02 0.  0.
        -12    1    1    2    0    0  0.80626515045E+01  0.21796676264E+01  0.42589511986E+02  0.43400735379E+02  0.00000000000E+00 0.  1.
         11    1    3    3    0    0 -0.39725017161E+01  0.70448793482E+01 -0.14369511712E+02  0.16489207440E+02  0.51100000000E-03 0. -1.
        -11    1    3    3    0    0 -0.51583560719E+01 -0.10565830176E+02 -0.23522662904E+02  0.26297548840E+02  0.51100000000E-03 0.  1.
        -12    1    3    3    0    0  0.10682062836E+01  0.13412832012E+01 -0.46973373705E+01  0.50005083404E+01  0.00000000000E+00 0.  1.
</event>
<event>
 7    1  0.2458979E-009  0.4778727E+02  0.7816164E-02  0.1312668E+00
        -11   -1    0    0    0    0  0.00000000000E+00  0.00000000000E+00  0.45593999997E+02  0.45594000000E+02  0.51100000000E-03 0. -1.
         11   -1    0    0    0    0 -0.00000000000E+00 -0.00000000000E+00 -0.45593999997E+02  0.45594000000E+02  0.51100000000E-03 0.  1.
    9900012    2    1    2    0    0 -0.20669695094E+02  0.34733869469E+02  0.15809663026E+02  0.47787269263E+02  0.19999991876E+02 0.  0.
        -12    1    1    2    0    0  0.20669695094E+02 -0.34733869469E+02 -0.15809663026E+02  0.43400730737E+02  0.00000000000E+00 0.  1.
         11    1    3    3    0    0 -0.28160275902E+01  0.19708392209E+02  0.43722880794E+01  0.20383023283E+02  0.51100000000E-03 0. -1.
        -11    1    3    3    0    0 -0.12650893018E+02  0.69286197412E+01  0.10276004363E+02  0.17710085590E+02  0.51100000000E-03 0.  1.
        -12    1    3    3    0    0 -0.52027744849E+01  0.80968575190E+01  0.11613705838E+01  0.96941603895E+01  0.00000000000E+00 0.  1.
</event>
<event>
 7    1  0.2458979E-009  0.4778727E+02  0.7816164E-02  0.1312668E+00
        -11   -1    0    0    0    0  0.00000000000E+00  0.00000000000E+00  0.45593999997E+02  0.45594000000E+02  0.51100000000E-03 0.  1.
         11   -1    0    0    0    0 -0.00000000000E+00 -0.00000000000E+00 -0.45593999997E+02  0.45594000000E+02  0.51100000000E-03 0. -1.
    9900012    2    1    2    0    0 -0.43352547943E+01 -0.42647140524E+02  0.67860665048E+01  0.47787265817E+02  0.19999976167E+02 0.  0.
        -12    1    1    2    0    0  0.43352547943E+01  0.42647140524E+02 -0.67860665048E+01  0.43400734183E+02  0.00000000000E+00 0.  1.
         11    1    3    3    0    0  0.50004488985E+01 -0.29951142955E+02  0.75489457313E+01  0.31289967009E+02  0.51100000000E-03 0. -1.
        -11    1    3    3    0    0 -0.94713030879E+01 -0.11650273637E+02 -0.16690385771E+01  0.15106956942E+02  0.51100000000E-03 0.  1.
        -12    1    3    3    0    0  0.13559939508E+00 -0.10457239319E+01  0.90615935064E+00  0.13903418668E+01  0.00000000000E+00 0.  1.
</event>
<event>
 7    1  0.2458979E-009  0.4778727E+02  0.7816164E-02  0.1312668E+00
        -11   -1    0    0    0    0  0.00000000000E+00  0.00000000000E+00  0.45593999997E+02  0.45594000000E+02  0.51100000000E-03 0.  1.
         11   -1    0    0    0    0 -0.00000000000E+00 -0.00000000000E+00 -0.45593999997E+02  0.45594000000E+02  0.51100000000E-03 0. -1.
    9900012    2    1    2    0    0 -0.34355017415E+02 -0.15394215644E+02 -0.21595696267E+02  0.47787271963E+02  0.20000004189E+02 0.  0.
        -12    1    1    2    0    0  0.34355017415E+02  0.15394215644E+02  0.21595696267E+02  0.43400728037E+02  0.00000000000E+00 0.  1.
         11    1    3    3    0    0 -0.12946064084E+02  0.89122954803E+00 -0.90520407586E+01  0.15821956501E+02  0.51100000000E-03 0. -1.
        -11    1    3    3    0    0 -0.16953608562E+02 -0.17449488056E+02 -0.83078729012E+01  0.25708563342E+02  0.51100000000E-03 0.  1.
        -12    1    3    3    0    0 -0.44553447687E+01  0.11640428638E+01 -0.42357826070E+01  0.62567521199E+01  0.00000000000E+00 0.  1.
</event>
<event>
 7    1  0.2458979E-009  0.4778728E+02  0.7816164E-02  0.1312668E+00
        -11   -1    0    0    0    0  0.00000000000E+00  0.00000000000E+00  0.45593999997E+02  0.45594000000E+02  0.51100000000E-03 0.  1.
         11   -1    0    0    0    0 -0.00000000000E+00 -0.00000000000E+00 -0.45593999997E+02  0.45594000000E+02  0.51100000000E-03 0. -1.
    9900012    2    1    2    0    0  0.21348375709E+02 -0.17442029184E+02 -0.33520816324E+02  0.47787278180E+02  0.20000032534E+02 0.  0.
        -12    1    1    2    0    0 -0.21348375709E+02  0.17442029184E+02  0.33520816324E+02  0.43400721820E+02  0.00000000000E+00 0.  1.
         11    1    3    3    0    0  0.12923377148E+02 -0.24584058869E+01 -0.65081605636E+01  0.14676974845E+02  0.51100000000E-03 0. -1.
        -11    1    3    3    0    0 -0.47766641745E+00 -0.72225574430E+01 -0.11922255016E+02  0.13947532619E+02  0.51100000000E-03 0.  1.
         12    1    3    3    0    0  0.89026649787E+01 -0.77610658543E+01 -0.15090400744E+02  0.19162770717E+02  0.00000000000E+00 0. -1.
</event>
<event>
 7    1  0.2458979E-009  0.4778728E+02  0.7816164E-02  0.1312668E+00
        -11   -1    0    0    0    0  0.00000000000E+00  0.00000000000E+00  0.45593999997E+02  0.45594000000E+02  0.51100000000E-03 0. -1.
         11   -1    0    0    0    0 -0.00000000000E+00 -0.00000000000E+00 -0.45593999997E+02  0.45594000000E+02  0.51100000000E-03 0.  1.
    9900012    2    1    2    0    0 -0.35965652208E+02  0.24284537644E+02  0.59654352496E+00  0.47787276832E+02  0.20000026388E+02 0.  0.
        -12    1    1    2    0    0  0.35965652208E+02 -0.24284537644E+02 -0.59654352496E+00  0.43400723168E+02  0.00000000000E+00 0.  1.
         11    1    3    3    0    0 -0.85712157545E+01  0.63179931825E+01 -0.82454105217E+01  0.13467352089E+02  0.51100000000E-03 0. -1.
        -11    1    3    3    0    0 -0.21891949107E+02  0.12648823947E+02  0.50622882773E+01  0.25785207888E+02  0.51100000000E-03 0.  1.
         12    1    3    3    0    0 -0.55024873468E+01  0.53177205139E+01  0.37796657694E+01  0.85347168549E+01  0.00000000000E+00 0. -1.
</event>
<event>
 7    1  0.2458979E-009  0.4778727E+02  0.7816164E-02  0.1312668E+00
        -11   -1    0    0    0    0  0.00000000000E+00  0.00000000000E+00  0.45593999997E+02  0.45594000000E+02  0.51100000000E-03 0. -1.
         11   -1    0    0    0    0 -0.00000000000E+00 -0.00000000000E+00 -0.45593999997E+02  0.45594000000E+02  0.51100000000E-03 0.  1.
    9900012    2    1    2    0    0  0.24272244946E+02  0.25245393875E+02 -0.25634973829E+02  0.47787266483E+02  0.19999979202E+02 0.  0.
        -12    1    1    2    0    0 -0.24272244946E+02 -0.25245393875E+02  0.25634973829E+02  0.43400733517E+02  0.00000000000E+00 0.  1.
         11    1    3    3    0    0  0.11476402892E+02  0.21703628863E+02 -0.16635793351E+02  0.29656448705E+02  0.51100000000E-03 0.  1.
        -11    1    3    3    0    0  0.13227168368E+02  0.50592297398E+01 -0.81413658318E+01  0.16335104116E+02  0.51100000000E-03 0. -1.
         12    1    3    3    0    0 -0.43132631433E+00 -0.15174647271E+01 -0.85781464620E+00  0.17957136617E+01  0.00000000000E+00 0. -1.
</event>
<event>
 7    1  0.2458979E-009  0.4778727E+02  0.7816164E-02  0.1312668E+00
        -11   -1    0    0    0    0  0.00000000000E+00  0.00000000000E+00  0.45593999997E+02  0.45594000000E+02  0.51100000000E-03 0. -1.
         11   -1    0    0    0    0 -0.00000000000E+00 -0.00000000000E+00 -0.45593999997E+02  0.45594000000E+02  0.51100000000E-03 0.  1.
    9900012    2    1    2    0    0 -0.30040055835E+02 -0.13170593951E+02  0.28421007245E+02  0.47787272444E+02  0.20000006380E+02 0.  0.
        -12    1    1    2    0    0  0.30040055835E+02  0.13170593951E+02 -0.28421007245E+02  0.43400727556E+02  0.00000000000E+00 0.  1.
         11    1    3    3    0    0 -0.96666717902E+01  0.50522319353E+01  0.68733596126E+01  0.12892349036E+02  0.51100000000E-03 0. -1.
        -11    1    3    3    0    0 -0.16270089789E+02 -0.13131793305E+02  0.16363719794E+02  0.26550539409E+02  0.51100000000E-03 0.  1.
         12    1    3    3    0    0 -0.41032942555E+01 -0.50910325810E+01  0.51839278383E+01  0.83443839988E+01  0.00000000000E+00 0. -1.
</event>
<event>
 7    1  0.2458979E-009  0.4778728E+02  0.7816164E-02  0.1312668E+00
        -11   -1    0    0    0    0  0.00000000000E+00  0.00000000000E+00  0.45593999997E+02  0.45594000000E+02  0.51100000000E-03 0. -1.
         11   -1    0    0    0    0 -0.00000000000E+00 -0.00000000000E+00 -0.45593999997E+02  0.45594000000E+02  0.51100000000E-03 0.  1.
    9900012    2    1    2    0    0 -0.71982928415E+01 -0.33873689144E+02  0.26160667322E+02  0.47787277070E+02  0.20000027475E+02 0.  0.
        -12    1    1    2    0    0  0.71982928415E+01  0.33873689144E+02 -0.26160667322E+02  0.43400722930E+02  0.00000000000E+00 0.  1.
         11    1    3    3    0    0 -0.83734266889E+01 -0.13681689644E+02  0.19920793502E+02  0.25576178762E+02  0.51100000000E-03 0. -1.
        -11    1    3    3    0    0 -0.47391528687E+00 -0.35517266906E+01 -0.13738602297E+01  0.38375578661E+01  0.51100000000E-03 0.  1.
         12    1    3    3    0    0  0.16490491343E+01 -0.16640272809E+02  0.76137340495E+01  0.18373540443E+02  0.00000000000E+00 0. -1.
</event>
<event>
 7    1  0.2458979E-009  0.4778727E+02  0.7816164E-02  0.1312668E+00
        -11   -1    0    0    0    0  0.00000000000E+00  0.00000000000E+00  0.45593999997E+02  0.45594000000E+02  0.51100000000E-03 0. -1.
         11   -1    0    0    0    0 -0.00000000000E+00 -0.00000000000E+00 -0.45593999997E+02  0.45594000000E+02  0.51100000000E-03 0.  1.
    9900012    2    1    2    0    0 -0.20430532923E+01 -0.33055818424E+02  0.28049275943E+02  0.47787273285E+02  0.20000010217E+02 0.  0.
        -12    1    1    2    0    0  0.20430532923E+01  0.33055818424E+02 -0.28049275943E+02  0.43400726715E+02  0.00000000000E+00 0.  1.
         11    1    3    3    0    0 -0.20039991669E-01 -0.92137002772E+00  0.44182019287E+01  0.45132951236E+01  0.51100000000E-03 0.  1.
        -11    1    3    3    0    0 -0.15846280268E+01  0.15326691402E+01  0.12021627219E+00  0.22078434931E+01  0.51100000000E-03 0. -1.
        -12    1    3    3    0    0 -0.43838527377E+00 -0.33667117537E+02  0.23510857742E+02  0.41066134669E+02  0.00000000000E+00 0.  1.
</event>
<event>
 7    1  0.2458979E-009  0.4778728E+02  0.7816164E-02  0.1312668E+00
        -11   -1    0    0    0    0  0.00000000000E+00  0.00000000000E+00  0.45593999997E+02  0.45594000000E+02  0.51100000000E-03 0.  1.
         11   -1    0    0    0    0 -0.00000000000E+00 -0.00000000000E+00 -0.45593999997E+02  0.45594000000E+02  0.51100000000E-03 0. -1.
    9900012    2    1    2    0    0 -0.59891462678E+01  0.76983345101E+01 -0.42290517686E+02  0.47787284414E+02  0.20000060955E+02 0.  0.
        -12    1    1    2    0    0  0.59891462678E+01 -0.76983345101E+01  0.42290517686E+02  0.43400715586E+02  0.00000000000E+00 0.  1.
         11    1    3    3    0    0  0.54557615233E+01  0.55702054783E+00 -0.66344550189E+01  0.86076477245E+01  0.51100000000E-03 0. -1.
        -11    1    3    3    0    0 -0.57824731894E+01  0.84839918842E+01 -0.20094698510E+02  0.22565726732E+02  0.51100000000E-03 0.  1.
         12    1    3    3    0    0 -0.56624346017E+01 -0.13426779219E+01 -0.15561364157E+02  0.16613909957E+02  0.00000000000E+00 0. -1.
</event>
<event>
 7    1  0.2458979E-009  0.4778726E+02  0.7816164E-02  0.1312668E+00
        -11   -1    0    0    0    0  0.00000000000E+00  0.00000000000E+00  0.45593999997E+02  0.45594000000E+02  0.51100000000E-03 0.  1.
         11   -1    0    0    0    0 -0.00000000000E+00 -0.00000000000E+00 -0.45593999997E+02  0.45594000000E+02  0.51100000000E-03 0. -1.
    9900012    2    1    2    0    0 -0.23690990947E+02 -0.19041726707E+02 -0.30980222185E+02  0.47787256058E+02  0.19999931673E+02 0.  0.
        -12    1    1    2    0    0  0.23690990947E+02  0.19041726707E+02  0.30980222185E+02  0.43400743942E+02  0.00000000000E+00 0.  1.
         11    1    3    3    0    0 -0.25704257991E+02 -0.16307933703E+02 -0.30054212301E+02  0.42777485408E+02  0.51100000000E-03 0. -1.
        -11    1    3    3    0    0  0.21955640476E+01 -0.19849066234E+00  0.23176214879E+00  0.22166673149E+01  0.51100000000E-03 0.  1.
         12    1    3    3    0    0 -0.18229700275E+00 -0.25353023417E+01 -0.11577720333E+01  0.27931033354E+01  0.00000000000E+00 0. -1.
</event>
<event>
 7    1  0.2458979E-009  0.4778727E+02  0.7816164E-02  0.1312668E+00
        -11   -1    0    0    0    0  0.00000000000E+00  0.00000000000E+00  0.45593999997E+02  0.45594000000E+02  0.51100000000E-03 0.  1.
         11   -1    0    0    0    0 -0.00000000000E+00 -0.00000000000E+00 -0.45593999997E+02  0.45594000000E+02  0.51100000000E-03 0. -1.
    9900012    2    1    2    0    0  0.59649568962E+01  0.13045324860E+02 -0.40961714819E+02  0.47787270831E+02  0.19999999028E+02 0.  0.
        -12    1    1    2    0    0 -0.59649568962E+01 -0.13045324860E+02  0.40961714819E+02  0.43400729169E+02  0.00000000000E+00 0.  1.
         11    1    3    3    0    0 -0.31823994665E+01  0.79348038880E+01 -0.24241462044E+02  0.25704810083E+02  0.51100000000E-03 0. -1.
        -11    1    3    3    0    0  0.55725276652E+01  0.49296826279E+01 -0.32046276485E+01  0.81008934086E+01  0.51100000000E-03 0.  1.
        -12    1    3    3    0    0  0.35748286974E+01  0.18083834408E+00 -0.13515625126E+02  0.13981567339E+02  0.00000000000E+00 0.  1.
</event>
<event>
 7    1  0.2458979E-009  0.4778727E+02  0.7816164E-02  0.1312668E+00
        -11   -1    0    0    0    0  0.00000000000E+00  0.00000000000E+00  0.45593999997E+02  0.45594000000E+02  0.51100000000E-03 0.  1.
         11   -1    0    0    0    0 -0.00000000000E+00 -0.00000000000E+00 -0.45593999997E+02  0.45594000000E+02  0.51100000000E-03 0. -1.
    9900012    2    1    2    0    0 -0.16817203154E-01 -0.28708746337E+02 -0.32548900528E+02  0.47787270459E+02  0.19999997332E+02 0.  0.
        -12    1    1    2    0    0  0.16817203154E-01  0.28708746337E+02  0.32548900528E+02  0.43400729541E+02  0.00000000000E+00 0.  1.
         11    1    3    3    0    0 -0.33854467826E+01 -0.14854979095E+02 -0.11655027792E+02  0.19182578735E+02  0.51100000000E-03 0. -1.
        -11    1    3    3    0    0 -0.84898138003E+00  0.87561392304E+00  0.12047508583E+01  0.17143202786E+01  0.51100000000E-03 0.  1.
        -12    1    3    3    0    0  0.42176109594E+01 -0.14729381166E+02 -0.22098623595E+02  0.26890371446E+02  0.00000000000E+00 0.  1.
</event>
<event>
 7    1  0.2458979E-009  0.4778727E+02  0.7816164E-02  0.1312668E+00
        -11   -1    0    0    0    0  0.00000000000E+00  0.00000000000E+00  0.45593999997E+02  0.45594000000E+02  0.51100000000E-03 0.  1.
         11   -1    0    0    0    0 -0.00000000000E+00 -0.00000000000E+00 -0.45593999997E+02  0.45594000000E+02  0.51100000000E-03 0. -1.
    9900012    2    1    2    0    0 -0.71767254092E+01  0.93564811778E+01 -0.41768096736E+02  0.47787273824E+02  0.20000012674E+02 0.  0.
        -12    1    1    2    0    0  0.71767254092E+01 -0.93564811778E+01  0.41768096736E+02  0.43400726176E+02  0.00000000000E+00 0.  1.
         11    1    3    3    0    0 -0.94105784557E+01  0.10291959616E+02 -0.29805986937E+02  0.32907146293E+02  0.51100000000E-03 0. -1.
        -11    1    3    3    0    0  0.15822638881E+00 -0.10425439314E+01  0.11754861331E+01  0.15791457656E+01  0.51100000000E-03 0.  1.
         12    1    3    3    0    0  0.20756266577E+01  0.10706549283E+00 -0.13137595932E+02  0.13300981766E+02  0.00000000000E+00 0. -1.
</event>
<event>
 7    1  0.2458979E-009  0.4778727E+02  0.7816164E-02  0.1312668E+00
        -11   -1    0    0    0    0  0.00000000000E+00  0.00000000000E+00  0.45593999997E+02  0.45594000000E+02  0.51100000000E-03 0.  1.
         11   -1    0    0    0    0 -0.00000000000E+00 -0.00000000000E+00 -0.45593999997E+02  0.45594000000E+02  0.51100000000E-03 0. -1.
    9900012    2    1    2    0    0 -0.19490944058E+02 -0.13064043565E+02 -0.36511056510E+02  0.47787269798E+02  0.19999994317E+02 0.  0.
        -12    1    1    2    0    0  0.19490944058E+02  0.13064043565E+02  0.36511056510E+02  0.43400730202E+02  0.00000000000E+00 0.  1.
         11    1    3    3    0    0 -0.14553754455E+02 -0.12234209414E+02 -0.20646624236E+02  0.28067253898E+02  0.51100000000E-03 0. -1.
        -11    1    3    3    0    0  0.30578664666E+01  0.89199923851E-01 -0.75618616062E+01  0.81572210443E+01  0.51100000000E-03 0.  1.
        -12    1    3    3    0    0 -0.79950560695E+01 -0.91903407408E+00 -0.83025706680E+01  0.11562794856E+02  0.00000000000E+00 0.  1.
</event>
<event>
 7    1  0.2458979E-009  0.4778727E+02  0.7816164E-02  0.1312668E+00
        -11   -1    0    0    0    0  0.00000000000E+00  0.00000000000E+00  0.45593999997E+02  0.45594000000E+02  0.51100000000E-03 0.  1.
         11   -1    0    0    0    0 -0.00000000000E+00 -0.00000000000E+00 -0.45593999997E+02  0.45594000000E+02  0.51100000000E-03 0. -1.
    9900012    2    1    2    0    0  0.28214745620E+02 -0.32914201230E+02 -0.20510595021E+01  0.47787270074E+02  0.19999995575E+02 0.  0.
        -12    1    1    2    0    0 -0.28214745620E+02  0.32914201230E+02  0.20510595021E+01  0.43400729926E+02  0.00000000000E+00 0.  1.
         11    1    3    3    0    0  0.24242335749E+02 -0.20390822424E+02 -0.45124012084E+01  0.31997472504E+02  0.51100000000E-03 0. -1.
        -11    1    3    3    0    0 -0.15349793817E+01 -0.63242043438E+01 -0.13776192556E+01  0.66520340768E+01  0.51100000000E-03 0.  1.
         12    1    3    3    0    0  0.55073892527E+01 -0.61991744625E+01  0.38389609618E+01  0.91377634936E+01  0.00000000000E+00 0. -1.
</event>
<event>
 7    1  0.2458979E-009  0.4778727E+02  0.7816164E-02  0.1312668E+00
        -11   -1    0    0    0    0  0.00000000000E+00  0.00000000000E+00  0.45593999997E+02  0.45594000000E+02  0.51100000000E-03 0.  1.
         11   -1    0    0    0    0 -0.00000000000E+00 -0.00000000000E+00 -0.45593999997E+02  0.45594000000E+02  0.51100000000E-03 0. -1.
    9900012    2    1    2    0    0 -0.21537043352E+01  0.16497037440E+02 -0.40085315930E+02  0.47787271437E+02  0.20000001788E+02 0.  0.
        -12    1    1    2    0    0  0.21537043352E+01 -0.16497037440E+02  0.40085315930E+02  0.43400728563E+02  0.00000000000E+00 0.  1.
         11    1    3    3    0    0  0.31564293775E+00  0.15773271553E+01 -0.27537641781E+02  0.27584584582E+02  0.51100000000E-03 0. -1.
        -11    1    3    3    0    0 -0.33580947156E+00  0.11531196933E+02 -0.10905251013E+02  0.15874689623E+02  0.51100000000E-03 0.  1.
        -12    1    3    3    0    0 -0.21335378014E+01  0.33885133514E+01 -0.16424231356E+01  0.43279972318E+01  0.00000000000E+00 0.  1.
</event>
<event>
 7    1  0.2458979E-009  0.4778727E+02  0.7816164E-02  0.1312668E+00
        -11   -1    0    0    0    0  0.00000000000E+00  0.00000000000E+00  0.45593999997E+02  0.45594000000E+02  0.51100000000E-03 0. -1.
         11   -1    0    0    0    0 -0.00000000000E+00 -0.00000000000E+00 -0.45593999997E+02  0.45594000000E+02  0.51100000000E-03 0.  1.
    9900012    2    1    2    0    0  0.32782136335E+01  0.19086656943E+02  0.38840391673E+02  0.47787272089E+02  0.20000004764E+02 0.  0.
        -12    1    1    2    0    0 -0.32782136335E+01 -0.19086656943E+02 -0.38840391673E+02  0.43400727911E+02  0.00000000000E+00 0.  1.
         11    1    3    3    0    0  0.80793102097E+01  0.92532820306E+01  0.11792488840E+02  0.17028249326E+02  0.51100000000E-03 0. -1.
        -11    1    3    3    0    0 -0.46843106388E+01  0.25776820727E+00  0.12407527043E+02  0.13264838416E+02  0.51100000000E-03 0.  1.
        -12    1    3    3    0    0 -0.11678593748E+00  0.95756067048E+01  0.14640375790E+02  0.17494184348E+02  0.00000000000E+00 0.  1.
</event>
<event>
 7    1  0.2458979E-009  0.4778725E+02  0.7816164E-02  0.1312668E+00
        -11   -1    0    0    0    0  0.00000000000E+00  0.00000000000E+00  0.45593999997E+02  0.45594000000E+02  0.51100000000E-03 0.  1.
         11   -1    0    0    0    0 -0.00000000000E+00 -0.00000000000E+00 -0.45593999997E+02  0.45594000000E+02  0.51100000000E-03 0. -1.
    9900012    2    1    2    0    0 -0.13276767532E+02 -0.10913167500E+02 -0.39852920847E+02  0.47787250225E+02  0.19999905076E+02 0.  0.
        -12    1    1    2    0    0  0.13276767532E+02  0.10913167500E+02  0.39852920847E+02  0.43400749775E+02  0.00000000000E+00 0.  1.
         11    1    3    3    0    0 -0.78949834425E+01  0.42253946321E+01 -0.95521764306E+01  0.13093082073E+02  0.51100000000E-03 0. -1.
        -11    1    3    3    0    0  0.28848946812E+00 -0.55051507844E+01 -0.12684615561E+02  0.13830740527E+02  0.51100000000E-03 0.  1.
         12    1    3    3    0    0 -0.56702735578E+01 -0.96334113473E+01 -0.17616128855E+02  0.20863427624E+02  0.00000000000E+00 0. -1.
</event>
<event>
 7    1  0.2458979E-009  0.4778727E+02  0.7816164E-02  0.1312668E+00
        -11   -1    0    0    0    0  0.00000000000E+00  0.00000000000E+00  0.45593999997E+02  0.45594000000E+02  0.51100000000E-03 0.  1.
         11   -1    0    0    0    0 -0.00000000000E+00 -0.00000000000E+00 -0.45593999997E+02  0.45594000000E+02  0.51100000000E-03 0. -1.
    9900012    2    1    2    0    0 -0.19033405787E+02  0.35181432279E+01 -0.38845528386E+02  0.47787274854E+02  0.20000017368E+02 0.  0.
        -12    1    1    2    0    0  0.19033405787E+02 -0.35181432279E+01  0.38845528386E+02  0.43400725146E+02  0.00000000000E+00 0.  1.
         11    1    3    3    0    0 -0.19888560189E+02  0.18570986670E+01 -0.23015425638E+02  0.30474800400E+02  0.51100000000E-03 0. -1.
        -11    1    3    3    0    0  0.18694400448E+01  0.26674165532E+01 -0.30810782870E+01  0.44836325475E+01  0.51100000000E-03 0.  1.
         12    1    3    3    0    0 -0.10142856430E+01 -0.10063719924E+01 -0.12749024461E+02  0.12828841907E+02  0.00000000000E+00 0. -1.
</event>
<event>
 7    1  0.2458979E-009  0.4778727E+02  0.7816164E-02  0.1312668E+00
        -11   -1    0    0    0    0  0.00000000000E+00  0.00000000000E+00  0.45593999997E+02  0.45594000000E+02  0.51100000000E-03 0. -1.
         11   -1    0    0    0    0 -0.00000000000E+00 -0.00000000000E+00 -0.45593999997E+02  0.45594000000E+02  0.51100000000E-03 0.  1.
    9900012    2    1    2    0    0  0.28648922139E+02 -0.20686709136E+02  0.25197669032E+02  0.47787271904E+02  0.20000003920E+02 0.  0.
        -12    1    1    2    0    0 -0.28648922139E+02  0.20686709136E+02 -0.25197669032E+02  0.43400728096E+02  0.00000000000E+00 0.  1.
         11    1    3    3    0    0  0.57792951433E+01 -0.89867865358E+00  0.14734334541E+01  0.60314908671E+01  0.51100000000E-03 0. -1.
        -11    1    3    3    0    0  0.20809020933E+02 -0.81208847631E+01  0.17475481955E+02  0.28361181064E+02  0.51100000000E-03 0.  1.
        -12    1    3    3    0    0  0.20606060622E+01 -0.11667145720E+02  0.62487536228E+01  0.13394599973E+02  0.00000000000E+00 0.  1.
</event>
<event>
 7    1  0.2458979E-009  0.4778727E+02  0.7816164E-02  0.1312668E+00
        -11   -1    0    0    0    0  0.00000000000E+00  0.00000000000E+00  0.45593999997E+02  0.45594000000E+02  0.51100000000E-03 0.  1.
         11   -1    0    0    0    0 -0.00000000000E+00 -0.00000000000E+00 -0.45593999997E+02  0.45594000000E+02  0.51100000000E-03 0. -1.
    9900012    2    1    2    0    0 -0.35209476647E+01  0.15489169453E+01 -0.43229933844E+02  0.47787269634E+02  0.19999993569E+02 0.  0.
        -12    1    1    2    0    0  0.35209476647E+01 -0.15489169453E+01  0.43229933844E+02  0.43400730366E+02  0.00000000000E+00 0.  1.
         11    1    3    3    0    0  0.50917133185E+01  0.50555411157E+01 -0.17458157860E+02  0.18875150771E+02  0.51100000000E-03 0. -1.
        -11    1    3    3    0    0 -0.80778024971E+01 -0.41487651696E+01 -0.26366445906E+02  0.27886423499E+02  0.51100000000E-03 0.  1.
         12    1    3    3    0    0 -0.53485848610E+00  0.64214099918E+00  0.59466992221E+00  0.10256953638E+01  0.00000000000E+00 0. -1.
</event>
<event>
 7    1  0.2458979E-009  0.4778727E+02  0.7816164E-02  0.1312668E+00
        -11   -1    0    0    0    0  0.00000000000E+00  0.00000000000E+00  0.45593999997E+02  0.45594000000E+02  0.51100000000E-03 0. -1.
         11   -1    0    0    0    0 -0.00000000000E+00 -0.00000000000E+00 -0.45593999997E+02  0.45594000000E+02  0.51100000000E-03 0.  1.
    9900012    2    1    2    0    0  0.67436683383E+01 -0.35706109823E+02  0.23732254001E+02  0.47787271650E+02  0.20000002761E+02 0.  0.
        -12    1    1    2    0    0 -0.67436683383E+01  0.35706109823E+02 -0.23732254001E+02  0.43400728350E+02  0.00000000000E+00 0.  1.
         11    1    3    3    0    0  0.22064363272E+01 -0.14175497865E+02  0.69041219223E+01  0.15921055265E+02  0.51100000000E-03 0. -1.
        -11    1    3    3    0    0  0.46114188081E+01  0.83377609067E+00  0.32435692880E+01  0.56992199448E+01  0.51100000000E-03 0.  1.
        -12    1    3    3    0    0 -0.74186796906E-01 -0.22364388049E+02  0.13584562790E+02  0.26166996440E+02  0.00000000000E+00 0.  1.
</event>
<event>
 7    1  0.2458979E-009  0.4778727E+02  0.7816164E-02  0.1312668E+00
        -11   -1    0    0    0    0  0.00000000000E+00  0.00000000000E+00  0.45593999997E+02  0.45594000000E+02  0.51100000000E-03 0.  1.
         11   -1    0    0    0    0 -0.00000000000E+00 -0.00000000000E+00 -0.45593999997E+02  0.45594000000E+02  0.51100000000E-03 0. -1.
    9900012    2    1    2    0    0  0.67611104247E+01  0.21257317591E+02 -0.37229519688E+02  0.47787270726E+02  0.19999998549E+02 0.  0.
        -12    1    1    2    0    0 -0.67611104247E+01 -0.21257317591E+02  0.37229519688E+02  0.43400729274E+02  0.00000000000E+00 0.  1.
         11    1    3    3    0    0  0.60468823235E+01  0.24278487032E+01 -0.27214117460E+01  0.70615378858E+01  0.51100000000E-03 0.  1.
        -11    1    3    3    0    0 -0.17463654599E+01  0.21819489905E+00 -0.41899173543E+00  0.18091311917E+01  0.51100000000E-03 0. -1.
         12    1    3    3    0    0  0.24605935611E+01  0.18611273989E+02 -0.34089116206E+02  0.38916601649E+02  0.00000000000E+00 0. -1.
</event>
<event>
 7    1  0.2458979E-009  0.4778727E+02  0.7816164E-02  0.1312668E+00
        -11   -1    0    0    0    0  0.00000000000E+00  0.00000000000E+00  0.45593999997E+02  0.45594000000E+02  0.51100000000E-03 0.  1.
         11   -1    0    0    0    0 -0.00000000000E+00 -0.00000000000E+00 -0.45593999997E+02  0.45594000000E+02  0.51100000000E-03 0. -1.
    9900012    2    1    2    0    0 -0.67400737537E+00  0.16443990508E+02 -0.40159234518E+02  0.47787271586E+02  0.20000002470E+02 0.  0.
        -12    1    1    2    0    0  0.67400737537E+00 -0.16443990508E+02  0.40159234518E+02  0.43400728414E+02  0.00000000000E+00 0.  1.
         11    1    3    3    0    0  0.56291758572E+01  0.12670933609E+01 -0.37911199156E+01  0.69040377238E+01  0.51100000000E-03 0.  1.
        -11    1    3    3    0    0 -0.15834644653E+01  0.27519239506E+01 -0.13917087104E+01  0.34665975449E+01  0.51100000000E-03 0. -1.
         12    1    3    3    0    0 -0.47197187672E+01  0.12424973197E+02 -0.34976405892E+02  0.37416636317E+02  0.00000000000E+00 0. -1.
</event>
<event>
 7    1  0.2458979E-009  0.4778727E+02  0.7816164E-02  0.1312668E+00
        -11   -1    0    0    0    0  0.00000000000E+00  0.00000000000E+00  0.45593999997E+02  0.45594000000E+02  0.51100000000E-03 0.  1.
         11   -1    0    0    0    0 -0.00000000000E+00 -0.00000000000E+00 -0.45593999997E+02  0.45594000000E+02  0.51100000000E-03 0. -1.
    9900012    2    1    2    0    0  0.25458837235E+02  0.22658632357E+01 -0.35076157331E+02  0.47787270252E+02  0.19999996387E+02 0.  0.
        -12    1    1    2    0    0 -0.25458837235E+02 -0.22658632357E+01  0.35076157331E+02  0.43400729748E+02  0.00000000000E+00 0.  1.
         11    1    3    3    0    0  0.12329475778E+02  0.80718279502E+01 -0.17947382412E+02  0.23222379618E+02  0.51100000000E-03 0. -1.
        -11    1    3    3    0    0  0.26483107784E+01  0.29371145189E+01 -0.36263020947E+01  0.53656554883E+01  0.51100000000E-03 0.  1.
         12    1    3    3    0    0  0.10481050679E+02 -0.87430792334E+01 -0.13502472824E+02  0.19199235146E+02  0.00000000000E+00 0. -1.
</event>
<event>
 7    1  0.2458979E-009  0.4778727E+02  0.7816164E-02  0.1312668E+00
        -11   -1    0    0    0    0  0.00000000000E+00  0.00000000000E+00  0.45593999997E+02  0.45594000000E+02  0.51100000000E-03 0.  1.
         11   -1    0    0    0    0 -0.00000000000E+00 -0.00000000000E+00 -0.45593999997E+02  0.45594000000E+02  0.51100000000E-03 0. -1.
    9900012    2    1    2    0    0  0.19475595030E+02 -0.24580096324E+01 -0.38707659504E+02  0.47787268239E+02  0.19999987208E+02 0.  0.
        -12    1    1    2    0    0 -0.19475595030E+02  0.24580096324E+01  0.38707659504E+02  0.43400731761E+02  0.00000000000E+00 0.  1.
         11    1    3    3    0    0  0.11234893721E+02  0.48162047415E+01 -0.30112913887E+02  0.32499326886E+02  0.51100000000E-03 0. -1.
        -11    1    3    3    0    0 -0.65040231125E-01 -0.35248665069E+01 -0.22065371425E+01  0.41590528424E+01  0.51100000000E-03 0.  1.
         12    1    3    3    0    0  0.83057415397E+01 -0.37493478670E+01 -0.63882084748E+01  0.11128888510E+02  0.00000000000E+00 0. -1.
</event>
<event>
 7    1  0.2458979E-009  0.4778727E+02  0.7816164E-02  0.1312668E+00
        -11   -1    0    0    0    0  0.00000000000E+00  0.00000000000E+00  0.45593999997E+02  0.45594000000E+02  0.51100000000E-03 0.  1.
         11   -1    0    0    0    0 -0.00000000000E+00 -0.00000000000E+00 -0.45593999997E+02  0.45594000000E+02  0.51100000000E-03 0. -1.
    9900012    2    1    2    0    0 -0.19699622936E+02 -0.86517631218E+01 -0.37692111367E+02  0.47787269497E+02  0.19999992944E+02 0.  0.
        -12    1    1    2    0    0  0.19699622936E+02  0.86517631218E+01  0.37692111367E+02  0.43400730503E+02  0.00000000000E+00 0.  1.
         11    1    3    3    0    0 -0.11836462315E+02 -0.71951683113E+00 -0.25863017865E+02  0.28451981265E+02  0.51100000000E-03 0. -1.
        -11    1    3    3    0    0  0.20937673815E+01 -0.33020987353E+01 -0.12954472249E+01  0.41189685213E+01  0.51100000000E-03 0.  1.
        -12    1    3    3    0    0 -0.99569280025E+01 -0.46301475553E+01 -0.10533646277E+02  0.15216319710E+02  0.00000000000E+00 0.  1.
</event>
<event>
 7    1  0.2458979E-009  0.4778726E+02  0.7816164E-02  0.1312668E+00
        -11   -1    0    0    0    0  0.00000000000E+00  0.00000000000E+00  0.45593999997E+02  0.45594000000E+02  0.51100000000E-03 0. -1.
         11   -1    0    0    0    0 -0.00000000000E+00 -0.00000000000E+00 -0.45593999997E+02  0.45594000000E+02  0.51100000000E-03 0.  1.
    9900012    2    1    2    0    0  0.95830420006E+01 -0.80246855140E+01  0.41561927812E+02  0.47787261354E+02  0.19999955817E+02 0.  0.
        -12    1    1    2    0    0 -0.95830420006E+01  0.80246855140E+01 -0.41561927812E+02  0.43400738646E+02  0.00000000000E+00 0.  1.
         11    1    3    3    0    0  0.61017879067E+01  0.18922149201E+01  0.11162973680E+02  0.12861736843E+02  0.51100000000E-03 0. -1.
        -11    1    3    3    0    0 -0.12582448027E+01  0.26399611875E+01  0.20852285213E+01  0.35917618660E+01  0.51100000000E-03 0.  1.
         12    1    3    3    0    0  0.47394988967E+01 -0.12556861622E+02  0.28313725610E+02  0.31333762645E+02  0.00000000000E+00 0. -1.
</event>
<event>
 7    1  0.2458979E-009  0.4778725E+02  0.7816164E-02  0.1312668E+00
        -11   -1    0    0    0    0  0.00000000000E+00  0.00000000000E+00  0.45593999997E+02  0.45594000000E+02  0.51100000000E-03 0.  1.
         11   -1    0    0    0    0 -0.00000000000E+00 -0.00000000000E+00 -0.45593999997E+02  0.45594000000E+02  0.51100000000E-03 0. -1.
    9900012    2    1    2    0    0 -0.32433046372E+02  0.88332232896E+01 -0.27453541846E+02  0.47787247811E+02  0.19999894069E+02 0.  0.
        -12    1    1    2    0    0  0.32433046372E+02 -0.88332232896E+01  0.27453541846E+02  0.43400752189E+02  0.00000000000E+00 0.  1.
         11    1    3    3    0    0 -0.19006952933E+02  0.12795485994E+02 -0.23897025311E+02  0.33106744639E+02  0.51100000000E-03 0. -1.
        -11    1    3    3    0    0 -0.13530829425E+02 -0.40039641320E+01 -0.34523261518E+01  0.14526996586E+02  0.51100000000E-03 0.  1.
        -12    1    3    3    0    0  0.10473598570E+00  0.41701427599E-01 -0.10419038353E+00  0.15350658548E+00  0.00000000000E+00 0.  1.
</event>
<event>
 7    1  0.2458979E-009  0.4778727E+02  0.7816164E-02  0.1312668E+00
        -11   -1    0    0    0    0  0.00000000000E+00  0.00000000000E+00  0.45593999997E+02  0.45594000000E+02  0.51100000000E-03 0.  1.
         11   -1    0    0    0    0 -0.00000000000E+00 -0.00000000000E+00 -0.45593999997E+02  0.45594000000E+02  0.51100000000E-03 0. -1.
    9900012    2    1    2    0    0  0.27745771272E+01 -0.17073455341E+02 -0.39804801530E+02  0.47787269817E+02  0.19999994405E+02 0.  0.
        -12    1    1    2    0    0 -0.27745771272E+01  0.17073455341E+02  0.39804801530E+02  0.43400730183E+02  0.00000000000E+00 0.  1.
         11    1    3    3    0    0 -0.13598228977E+01 -0.10433078657E+02 -0.76674511912E+01  0.13018757875E+02  0.51100000000E-03 0. -1.
        -11    1    3    3    0    0  0.76612832680E+01 -0.40904797142E+01 -0.18171861488E+02  0.20140601674E+02  0.51100000000E-03 0.  1.
         12    1    3    3    0    0 -0.35268832431E+01 -0.25498969705E+01 -0.13965488851E+02  0.14627910269E+02  0.00000000000E+00 0. -1.
</event>
<event>
 7    1  0.2458979E-009  0.4778727E+02  0.7816164E-02  0.1312668E+00
        -11   -1    0    0    0    0  0.00000000000E+00  0.00000000000E+00  0.45593999997E+02  0.45594000000E+02  0.51100000000E-03 0.  1.
         11   -1    0    0    0    0 -0.00000000000E+00 -0.00000000000E+00 -0.45593999997E+02  0.45594000000E+02  0.51100000000E-03 0. -1.
    9900012    2    1    2    0    0 -0.21742941512E+02 -0.25625542943E+00 -0.37560644574E+02  0.47787271973E+02  0.20000004235E+02 0.  0.
        -12    1    1    2    0    0  0.21742941512E+02  0.25625542943E+00  0.37560644574E+02  0.43400728027E+02  0.00000000000E+00 0.  1.
         11    1    3    3    0    0 -0.13834361058E+02  0.26690865253E+01 -0.86890242235E+01  0.16553329302E+02  0.51100000000E-03 0. -1.
        -11    1    3    3    0    0 -0.73589364124E+01 -0.55152159797E+01 -0.23754192921E+02  0.25472205126E+02  0.51100000000E-03 0.  1.
        -12    1    3    3    0    0 -0.54964404151E+00  0.25898740249E+01 -0.51174274294E+01  0.57617375446E+01  0.00000000000E+00 0.  1.
</event>
<event>
 7    1  0.2458979E-009  0.4778727E+02  0.7816164E-02  0.1312668E+00
        -11   -1    0    0    0    0  0.00000000000E+00  0.00000000000E+00  0.45593999997E+02  0.45594000000E+02  0.51100000000E-03 0.  1.
         11   -1    0    0    0    0 -0.00000000000E+00 -0.00000000000E+00 -0.45593999997E+02  0.45594000000E+02  0.51100000000E-03 0. -1.
    9900012    2    1    2    0    0 -0.30803372664E+02 -0.15655269655E+02 -0.26261914111E+02  0.47787269958E+02  0.19999995045E+02 0.  0.
        -12    1    1    2    0    0  0.30803372664E+02  0.15655269655E+02  0.26261914111E+02  0.43400730042E+02  0.00000000000E+00 0.  1.
         11    1    3    3    0    0 -0.12437276496E+02  0.18132716575E+01 -0.30676792176E+01  0.12937714512E+02  0.51100000000E-03 0. -1.
        -11    1    3    3    0    0 -0.44365167416E+01 -0.69902507948E+01 -0.50934865091E+01  0.97205911370E+01  0.51100000000E-03 0.  1.
         12    1    3    3    0    0 -0.13929579426E+02 -0.10478290518E+02 -0.18100748384E+02  0.25128964309E+02  0.00000000000E+00 0. -1.
</event>
<event>
 7    1  0.2458979E-009  0.4778727E+02  0.7816164E-02  0.1312668E+00
        -11   -1    0    0    0    0  0.00000000000E+00  0.00000000000E+00  0.45593999997E+02  0.45594000000E+02  0.51100000000E-03 0. -1.
         11   -1    0    0    0    0 -0.00000000000E+00 -0.00000000000E+00 -0.45593999997E+02  0.45594000000E+02  0.51100000000E-03 0.  1.
    9900012    2    1    2    0    0 -0.11742891782E+02  0.19608735284E+02 -0.36894784355E+02  0.47787272824E+02  0.20000008113E+02 0.  0.
        -12    1    1    2    0    0  0.11742891782E+02 -0.19608735284E+02  0.36894784355E+02  0.43400727176E+02  0.00000000000E+00 0.  1.
         11    1    3    3    0    0 -0.70338366502E+01  0.54267799790E+01 -0.95537059168E+01  0.13045999232E+02  0.51100000000E-03 0. -1.
        -11    1    3    3    0    0 -0.79781394142E+01  0.15658827262E+02 -0.20384457720E+02  0.26914228515E+02  0.51100000000E-03 0.  1.
        -12    1    3    3    0    0  0.32690842821E+01 -0.14768719576E+01 -0.69566207178E+01  0.78270450768E+01  0.00000000000E+00 0.  1.
</event>
<event>
 7    1  0.2458979E-009  0.4778727E+02  0.7816164E-02  0.1312668E+00
        -11   -1    0    0    0    0  0.00000000000E+00  0.00000000000E+00  0.45593999997E+02  0.45594000000E+02  0.51100000000E-03 0.  1.
         11   -1    0    0    0    0 -0.00000000000E+00 -0.00000000000E+00 -0.45593999997E+02  0.45594000000E+02  0.51100000000E-03 0. -1.
    9900012    2    1    2    0    0 -0.42791390132E+02  0.53250023129E+01 -0.49157582033E+01  0.47787269617E+02  0.19999993493E+02 0.  0.
        -12    1    1    2    0    0  0.42791390132E+02 -0.53250023129E+01  0.49157582033E+01  0.43400730383E+02  0.00000000000E+00 0.  1.
         11    1    3    3    0    0 -0.40702680560E+01  0.11593218038E+01 -0.42644377876E+01  0.60080395303E+01  0.51100000000E-03 0. -1.
        -11    1    3    3    0    0 -0.23839143624E+02 -0.18014528245E+01 -0.63952468409E+01  0.24747710671E+02  0.51100000000E-03 0.  1.
        -12    1    3    3    0    0 -0.14881978451E+02  0.59671333335E+01  0.57439264252E+01  0.17031519416E+02  0.00000000000E+00 0.  1.
</event>
<event>
 7    1  0.2458979E-009  0.4778727E+02  0.7816164E-02  0.1312668E+00
        -11   -1    0    0    0    0  0.00000000000E+00  0.00000000000E+00  0.45593999997E+02  0.45594000000E+02  0.51100000000E-03 0.  1.
         11   -1    0    0    0    0 -0.00000000000E+00 -0.00000000000E+00 -0.45593999997E+02  0.45594000000E+02  0.51100000000E-03 0. -1.
    9900012    2    1    2    0    0 -0.19768026214E+02  0.39109386565E+01 -0.38438950182E+02  0.47787271980E+02  0.20000004266E+02 0.  0.
        -12    1    1    2    0    0  0.19768026214E+02 -0.39109386565E+01  0.38438950182E+02  0.43400728020E+02  0.00000000000E+00 0.  1.
         11    1    3    3    0    0 -0.75426573097E+01  0.14480264382E+01 -0.71963397887E+01  0.10525006721E+02  0.51100000000E-03 0. -1.
        -11    1    3    3    0    0 -0.14946860174E+02 -0.44948076312E+00 -0.29146585689E+02  0.32758725854E+02  0.51100000000E-03 0.  1.
        -12    1    3    3    0    0  0.27214912700E+01  0.29123929814E+01 -0.20960247043E+01  0.45035394050E+01  0.00000000000E+00 0.  1.
</event>
<event>
 7    1  0.2458979E-009  0.4778727E+02  0.7816164E-02  0.1312668E+00
        -11   -1    0    0    0    0  0.00000000000E+00  0.00000000000E+00  0.45593999997E+02  0.45594000000E+02  0.51100000000E-03 0.  1.
         11   -1    0    0    0    0 -0.00000000000E+00 -0.00000000000E+00 -0.45593999997E+02  0.45594000000E+02  0.51100000000E-03 0. -1.
    9900012    2    1    2    0    0 -0.16392058298E+02 -0.62842126552E+01 -0.39691721179E+02  0.47787266895E+02  0.19999981080E+02 0.  0.
        -12    1    1    2    0    0  0.16392058298E+02  0.62842126552E+01  0.39691721179E+02  0.43400733105E+02  0.00000000000E+00 0.  1.
         11    1    3    3    0    0 -0.11042953150E+02 -0.53824852843E+01 -0.18335073556E+02  0.22070180893E+02  0.51100000000E-03 0. -1.
        -11    1    3    3    0    0 -0.15971277027E+01  0.12560217353E+01  0.14546011762E+01  0.24988542057E+01  0.51100000000E-03 0.  1.
        -12    1    3    3    0    0 -0.37519774456E+01 -0.21577491062E+01 -0.22811248799E+02  0.23218231796E+02  0.00000000000E+00 0.  1.
</event>
<event>
 7    1  0.2458979E-009  0.4778727E+02  0.7816164E-02  0.1312668E+00
        -11   -1    0    0    0    0  0.00000000000E+00  0.00000000000E+00  0.45593999997E+02  0.45594000000E+02  0.51100000000E-03 0.  1.
         11   -1    0    0    0    0 -0.00000000000E+00 -0.00000000000E+00 -0.45593999997E+02  0.45594000000E+02  0.51100000000E-03 0. -1.
    9900012    2    1    2    0    0 -0.30340916906E+02 -0.20581221162E+02 -0.23226393922E+02  0.47787270999E+02  0.19999999792E+02 0.  0.
        -12    1    1    2    0    0  0.30340916906E+02  0.20581221162E+02  0.23226393922E+02  0.43400729001E+02  0.00000000000E+00 0.  1.
         11    1    3    3    0    0 -0.25475948574E+02 -0.77147265177E+01 -0.13329075720E+02  0.29769199197E+02  0.51100000000E-03 0. -1.
        -11    1    3    3    0    0 -0.69372098907E+00 -0.84086594626E+01 -0.79949085050E+01  0.11623483343E+02  0.51100000000E-03 0.  1.
        -12    1    3    3    0    0 -0.41712473433E+01 -0.44578351813E+01 -0.19024096965E+01  0.63945884587E+01  0.00000000000E+00 0.  1.
</event>
<event>
 7    1  0.2458979E-009  0.4778727E+02  0.7816164E-02  0.1312668E+00
        -11   -1    0    0    0    0  0.00000000000E+00  0.00000000000E+00  0.45593999997E+02  0.45594000000E+02  0.51100000000E-03 0.  1.
         11   -1    0    0    0    0 -0.00000000000E+00 -0.00000000000E+00 -0.45593999997E+02  0.45594000000E+02  0.51100000000E-03 0. -1.
    9900012    2    1    2    0    0  0.35777018866E+02 -0.22884587411E+02 -0.89400096747E+01  0.47787271977E+02  0.20000004252E+02 0.  0.
        -12    1    1    2    0    0 -0.35777018866E+02  0.22884587411E+02  0.89400096747E+01  0.43400728023E+02  0.00000000000E+00 0.  1.
         11    1    3    3    0    0  0.24384397017E+02 -0.83412389245E+01 -0.77673265907E+01  0.26916657432E+02  0.51100000000E-03 0. -1.
        -11    1    3    3    0    0  0.57065069724E+01 -0.10886970977E+02 -0.48033981140E+01  0.13197082730E+02  0.51100000000E-03 0.  1.
         12    1    3    3    0    0  0.56861148767E+01 -0.36563775095E+01  0.36307150301E+01  0.76735318148E+01  0.00000000000E+00 0. -1.
</event>
<event>
 7    1  0.2458979E-009  0.4778727E+02  0.7816164E-02  0.1312668E+00
        -11   -1    0    0    0    0  0.00000000000E+00  0.00000000000E+00  0.45593999997E+02  0.45594000000E+02  0.51100000000E-03 0. -1.
         11   -1    0    0    0    0 -0.00000000000E+00 -0.00000000000E+00 -0.45593999997E+02  0.45594000000E+02  0.51100000000E-03 0.  1.
    9900012    2    1    2    0    0 -0.19035008027E+02 -0.30512600548E+02 -0.24295539476E+02  0.47787267734E+02  0.19999984908E+02 0.  0.
        -12    1    1    2    0    0  0.19035008027E+02  0.30512600548E+02  0.24295539476E+02  0.43400732266E+02  0.00000000000E+00 0.  1.
         11    1    3    3    0    0 -0.14203449850E+02 -0.20527325263E+02 -0.13847988213E+02  0.28546030335E+02  0.51100000000E-03 0. -1.
        -11    1    3    3    0    0 -0.97867019893E+00  0.87505486230E+00  0.19272138375E+01  0.23318811734E+01  0.51100000000E-03 0.  1.
        -12    1    3    3    0    0 -0.38528879780E+01 -0.10860330147E+02 -0.12374765101E+02  0.16909356226E+02  0.00000000000E+00 0.  1.
</event>
<event>
 7    1  0.2458979E-009  0.4778727E+02  0.7816164E-02  0.1312668E+00
        -11   -1    0    0    0    0  0.00000000000E+00  0.00000000000E+00  0.45593999997E+02  0.45594000000E+02  0.51100000000E-03 0.  1.
         11   -1    0    0    0    0 -0.00000000000E+00 -0.00000000000E+00 -0.45593999997E+02  0.45594000000E+02  0.51100000000E-03 0. -1.
    9900012    2    1    2    0    0 -0.28033289536E+02 -0.32710693848E+02  0.52696155009E+01  0.47787266576E+02  0.19999979627E+02 0.  0.
        -12    1    1    2    0    0  0.28033289536E+02  0.32710693848E+02 -0.52696155009E+01  0.43400733424E+02  0.00000000000E+00 0.  1.
         11    1    3    3    0    0 -0.65535032177E+01  0.12484144637E+01  0.31653220914E+00  0.66788573872E+01  0.51100000000E-03 0. -1.
        -11    1    3    3    0    0 -0.29082655737E+01 -0.51049805845E+01 -0.17818836327E+01  0.61395394744E+01  0.51100000000E-03 0.  1.
         12    1    3    3    0    0 -0.18571520745E+02 -0.28854127727E+02  0.67349669245E+01  0.34968869715E+02  0.00000000000E+00 0. -1.
</event>
<event>
 7    1  0.2458979E-009  0.4778727E+02  0.7816164E-02  0.1312668E+00
        -11   -1    0    0    0    0  0.00000000000E+00  0.00000000000E+00  0.45593999997E+02  0.45594000000E+02  0.51100000000E-03 0.  1.
         11   -1    0    0    0    0 -0.00000000000E+00 -0.00000000000E+00 -0.45593999997E+02  0.45594000000E+02  0.51100000000E-03 0. -1.
    9900012    2    1    2    0    0 -0.26786886584E+02  0.33796877807E+02  0.48843518815E+01  0.47787272637E+02  0.20000007259E+02 0.  0.
        -12    1    1    2    0    0  0.26786886584E+02 -0.33796877807E+02 -0.48843518815E+01  0.43400727363E+02  0.00000000000E+00 0.  1.
         11    1    3    3    0    0 -0.21392998274E+02  0.23869961398E+02 -0.17948132940E+00  0.32054136178E+02  0.51100000000E-03 0. -1.
        -11    1    3    3    0    0 -0.32718148234E+01 -0.12581601076E+01  0.13819803562E+01  0.37679714782E+01  0.51100000000E-03 0.  1.
         12    1    3    3    0    0 -0.21220734864E+01  0.11185076517E+02  0.36818528547E+01  0.11965164980E+02  0.00000000000E+00 0. -1.
</event>
<event>
 7    1  0.2458979E-009  0.4778724E+02  0.7816164E-02  0.1312668E+00
        -11   -1    0    0    0    0  0.00000000000E+00  0.00000000000E+00  0.45593999997E+02  0.45594000000E+02  0.51100000000E-03 0.  1.
         11   -1    0    0    0    0 -0.00000000000E+00 -0.00000000000E+00 -0.45593999997E+02  0.45594000000E+02  0.51100000000E-03 0. -1.
    9900012    2    1    2    0    0 -0.56592427951E+01 -0.40311520040E+02  0.15052587026E+02  0.47787239026E+02  0.19999854014E+02 0.  0.
        -12    1    1    2    0    0  0.56592427951E+01  0.40311520040E+02 -0.15052587026E+02  0.43400760974E+02  0.00000000000E+00 0.  1.
         11    1    3    3    0    0  0.42842480664E+01 -0.27512584794E+01 -0.12382338997E+01  0.52399836036E+01  0.51100000000E-03 0. -1.
        -11    1    3    3    0    0 -0.10073661864E+02 -0.35958514998E+02  0.14296512467E+02  0.39986044230E+02  0.51100000000E-03 0.  1.
        -12    1    3    3    0    0  0.13017100291E+00 -0.16017465625E+01  0.19943084587E+01  0.25612111918E+01  0.00000000000E+00 0.  1.
</event>
<event>
 7    1  0.2458979E-009  0.4778729E+02  0.7816164E-02  0.1312668E+00
        -11   -1    0    0    0    0  0.00000000000E+00  0.00000000000E+00  0.45593999997E+02  0.45594000000E+02  0.51100000000E-03 0.  1.
         11   -1    0    0    0    0 -0.00000000000E+00 -0.00000000000E+00 -0.45593999997E+02  0.45594000000E+02  0.51100000000E-03 0. -1.
    9900012    2    1    2    0    0 -0.24887150603E+02  0.16765988235E+02 -0.31355274038E+02  0.47787287602E+02  0.20000075493E+02 0.  0.
        -12    1    1    2    0    0  0.24887150603E+02 -0.16765988235E+02  0.31355274038E+02  0.43400712398E+02  0.00000000000E+00 0.  1.
         11    1    3    3    0    0 -0.16871370561E+02  0.10499021292E+02 -0.25850044295E+02  0.32605174175E+02  0.51100000000E-03 0. -1.
        -11    1    3    3    0    0 -0.87494161200E+01  0.30674039302E+01 -0.61446696375E+00  0.92918684462E+01  0.51100000000E-03 0.  1.
         12    1    3    3    0    0  0.73363607784E+00  0.31995630127E+01 -0.48907627794E+01  0.58902449806E+01  0.00000000000E+00 0. -1.
</event>
<event>
 7    1  0.2458979E-009  0.4778727E+02  0.7816164E-02  0.1312668E+00
        -11   -1    0    0    0    0  0.00000000000E+00  0.00000000000E+00  0.45593999997E+02  0.45594000000E+02  0.51100000000E-03 0.  1.
         11   -1    0    0    0    0 -0.00000000000E+00 -0.00000000000E+00 -0.45593999997E+02  0.45594000000E+02  0.51100000000E-03 0. -1.
    9900012    2    1    2    0    0  0.39264581126E+02 -0.12723394696E+01 -0.18447140783E+02  0.47787272105E+02  0.20000004838E+02 0.  0.
        -12    1    1    2    0    0 -0.39264581126E+02  0.12723394696E+01  0.18447140783E+02  0.43400727895E+02  0.00000000000E+00 0.  1.
         11    1    3    3    0    0  0.13345056593E+02 -0.57317368656E+01 -0.91927357336E+01  0.17188651300E+02  0.51100000000E-03 0. -1.
        -11    1    3    3    0    0  0.61741901310E+01  0.61876140591E+01 -0.41312298311E-01  0.87412183639E+01  0.51100000000E-03 0.  1.
        -12    1    3    3    0    0  0.19745334401E+02 -0.17282166631E+01 -0.92130927513E+01  0.21857402442E+02  0.00000000000E+00 0.  1.
</event>
<event>
 7    1  0.2458979E-009  0.4778728E+02  0.7816164E-02  0.1312668E+00
        -11   -1    0    0    0    0  0.00000000000E+00  0.00000000000E+00  0.45593999997E+02  0.45594000000E+02  0.51100000000E-03 0. -1.
         11   -1    0    0    0    0 -0.00000000000E+00 -0.00000000000E+00 -0.45593999997E+02  0.45594000000E+02  0.51100000000E-03 0.  1.
    9900012    2    1    2    0    0 -0.36969304666E+02 -0.22267306434E+01 -0.22625975967E+02  0.47787278746E+02  0.20000035116E+02 0.  0.
        -12    1    1    2    0    0  0.36969304666E+02  0.22267306434E+01  0.22625975967E+02  0.43400721254E+02  0.00000000000E+00 0.  1.
         11    1    3    3    0    0 -0.24989535186E+02 -0.92180858547E+01 -0.90894684115E+01  0.28143709989E+02  0.51100000000E-03 0. -1.
        -11    1    3    3    0    0 -0.43320181324E+00 -0.11302969884E+00 -0.13213203179E+01  0.13951082996E+01  0.51100000000E-03 0.  1.
         12    1    3    3    0    0 -0.11546567667E+02  0.71043849102E+01 -0.12215187238E+02  0.18248460458E+02  0.00000000000E+00 0. -1.
</event>
<event>
 7    1  0.2458979E-009  0.4778728E+02  0.7816164E-02  0.1312668E+00
        -11   -1    0    0    0    0  0.00000000000E+00  0.00000000000E+00  0.45593999997E+02  0.45594000000E+02  0.51100000000E-03 0. -1.
         11   -1    0    0    0    0 -0.00000000000E+00 -0.00000000000E+00 -0.45593999997E+02  0.45594000000E+02  0.51100000000E-03 0.  1.
    9900012    2    1    2    0    0  0.43562452113E+01 -0.23066167797E+02  0.36504760600E+02  0.47787279779E+02  0.20000039826E+02 0.  0.
        -12    1    1    2    0    0 -0.43562452113E+01  0.23066167797E+02 -0.36504760600E+02  0.43400720221E+02  0.00000000000E+00 0.  1.
         11    1    3    3    0    0 -0.25921484279E+01 -0.35753020330E+01  0.20060718496E+02  0.20541042937E+02  0.51100000000E-03 0. -1.
        -11    1    3    3    0    0  0.68108957813E+01 -0.13332901358E+02  0.14355973488E+02  0.20742433199E+02  0.51100000000E-03 0.  1.
         12    1    3    3    0    0  0.13749785789E+00 -0.61579644062E+01  0.20880686168E+01  0.65038036438E+01  0.00000000000E+00 0. -1.
</event>
<event>
 7    1  0.2458979E-009  0.4778727E+02  0.7816164E-02  0.1312668E+00
        -11   -1    0    0    0    0  0.00000000000E+00  0.00000000000E+00  0.45593999997E+02  0.45594000000E+02  0.51100000000E-03 0.  1.
         11   -1    0    0    0    0 -0.00000000000E+00 -0.00000000000E+00 -0.45593999997E+02  0.45594000000E+02  0.51100000000E-03 0. -1.
    9900012    2    1    2    0    0  0.24762807173E+02  0.32073926034E+02 -0.15546384551E+02  0.47787269327E+02  0.19999992171E+02 0.  0.
        -12    1    1    2    0    0 -0.24762807173E+02 -0.32073926034E+02  0.15546384551E+02  0.43400730673E+02  0.00000000000E+00 0.  1.
         11    1    3    3    0    0  0.45750416378E+01  0.57224605461E+00 -0.16369897282E+01  0.48926687161E+01  0.51100000000E-03 0. -1.
        -11    1    3    3    0    0  0.13107873805E+02  0.13934435173E+02 -0.14405387093E+02  0.23947860381E+02  0.51100000000E-03 0.  1.
        -12    1    3    3    0    0  0.70798917299E+01  0.17567244807E+02  0.49599227044E+00  0.18946740230E+02  0.00000000000E+00 0.  1.
</event>
<event>
 7    1  0.2458979E-009  0.4778727E+02  0.7816164E-02  0.1312668E+00
        -11   -1    0    0    0    0  0.00000000000E+00  0.00000000000E+00  0.45593999997E+02  0.45594000000E+02  0.51100000000E-03 0.  1.
         11   -1    0    0    0    0 -0.00000000000E+00 -0.00000000000E+00 -0.45593999997E+02  0.45594000000E+02  0.51100000000E-03 0. -1.
    9900012    2    1    2    0    0  0.31747342115E+02  0.29354050352E+02  0.37509630280E+01  0.47787265824E+02  0.19999976198E+02 0.  0.
        -12    1    1    2    0    0 -0.31747342115E+02 -0.29354050352E+02 -0.37509630280E+01  0.43400734176E+02  0.00000000000E+00 0.  1.
         11    1    3    3    0    0  0.25839167922E+02  0.22965060539E+02  0.77797671215E+01  0.35434183795E+02  0.51100000000E-03 0. -1.
        -11    1    3    3    0    0 -0.87705992464E+00  0.43981494278E+01 -0.70582452482E+00  0.45399494514E+01  0.51100000000E-03 0.  1.
         12    1    3    3    0    0  0.67852341177E+01  0.19908403843E+01 -0.33229795687E+01  0.78131325780E+01  0.00000000000E+00 0. -1.
</event>
<event>
 7    1  0.2458979E-009  0.4778726E+02  0.7816164E-02  0.1312668E+00
        -11   -1    0    0    0    0  0.00000000000E+00  0.00000000000E+00  0.45593999997E+02  0.45594000000E+02  0.51100000000E-03 0.  1.
         11   -1    0    0    0    0 -0.00000000000E+00 -0.00000000000E+00 -0.45593999997E+02  0.45594000000E+02  0.51100000000E-03 0. -1.
    9900012    2    1    2    0    0  0.43094799563E+02 -0.24057791401E+01 -0.45469137084E+01  0.47787263290E+02  0.19999964646E+02 0.  0.
        -12    1    1    2    0    0 -0.43094799563E+02  0.24057791401E+01  0.45469137084E+01  0.43400736710E+02  0.00000000000E+00 0.  1.
         11    1    3    3    0    0  0.28933221029E+02 -0.86383373814E+01 -0.16482183667E+01  0.30240184786E+02  0.51100000000E-03 0. -1.
        -11    1    3    3    0    0  0.15947850648E+01  0.41570010719E+01 -0.16526327280E+01  0.47492307282E+01  0.51100000000E-03 0.  1.
         12    1    3    3    0    0  0.12566793470E+02  0.20755571694E+01 -0.12460626138E+01  0.12797847777E+02  0.00000000000E+00 0. -1.
</event>
<event>
 7    1  0.2458979E-009  0.4778727E+02  0.7816164E-02  0.1312668E+00
        -11   -1    0    0    0    0  0.00000000000E+00  0.00000000000E+00  0.45593999997E+02  0.45594000000E+02  0.51100000000E-03 0.  1.
         11   -1    0    0    0    0 -0.00000000000E+00 -0.00000000000E+00 -0.45593999997E+02  0.45594000000E+02  0.51100000000E-03 0. -1.
    9900012    2    1    2    0    0 -0.42972437883E+02  0.17862619121E+01  0.58139570386E+01  0.47787271369E+02  0.20000001480E+02 0.  0.
        -12    1    1    2    0    0  0.42972437883E+02 -0.17862619121E+01 -0.58139570386E+01  0.43400728631E+02  0.00000000000E+00 0.  1.
         11    1    3    3    0    0 -0.17073293369E+02  0.41886317827E+01  0.19777500312E+01  0.17690491178E+02  0.51100000000E-03 0. -1.
        -11    1    3    3    0    0 -0.22918460340E+02 -0.64599996578E+01  0.60940139922E+01  0.24578942750E+02  0.51100000000E-03 0.  1.
        -12    1    3    3    0    0 -0.29806841743E+01  0.40576297871E+01 -0.22578069848E+01  0.55178374402E+01  0.00000000000E+00 0.  1.
</event>
<event>
 7    1  0.2458979E-009  0.4778728E+02  0.7816164E-02  0.1312668E+00
        -11   -1    0    0    0    0  0.00000000000E+00  0.00000000000E+00  0.45593999997E+02  0.45594000000E+02  0.51100000000E-03 0.  1.
         11   -1    0    0    0    0 -0.00000000000E+00 -0.00000000000E+00 -0.45593999997E+02  0.45594000000E+02  0.51100000000E-03 0. -1.
    9900012    2    1    2    0    0  0.14294378845E+02 -0.33025300504E+02 -0.24261556882E+02  0.47787275556E+02  0.20000020569E+02 0.  0.
        -12    1    1    2    0    0 -0.14294378845E+02  0.33025300504E+02  0.24261556882E+02  0.43400724444E+02  0.00000000000E+00 0.  1.
         11    1    3    3    0    0 -0.20497632440E+01 -0.11418966606E+02 -0.39145257697E+01  0.12244094085E+02  0.51100000000E-03 0.  1.
        -11    1    3    3    0    0  0.91221595765E+01 -0.16548133828E+02 -0.18678465389E+02  0.26569523858E+02  0.51100000000E-03 0. -1.
        -12    1    3    3    0    0  0.72219825131E+01 -0.50582000697E+01 -0.16685657241E+01  0.89736576122E+01  0.00000000000E+00 0.  1.
</event>
<event>
 7    1  0.2458979E-009  0.4778727E+02  0.7816164E-02  0.1312668E+00
        -11   -1    0    0    0    0  0.00000000000E+00  0.00000000000E+00  0.45593999997E+02  0.45594000000E+02  0.51100000000E-03 0.  1.
         11   -1    0    0    0    0 -0.00000000000E+00 -0.00000000000E+00 -0.45593999997E+02  0.45594000000E+02  0.51100000000E-03 0. -1.
    9900012    2    1    2    0    0  0.40443141301E+02  0.14520527113E+02  0.60934152362E+01  0.47787273103E+02  0.20000009388E+02 0.  0.
        -12    1    1    2    0    0 -0.40443141301E+02 -0.14520527113E+02 -0.60934152362E+01  0.43400726897E+02  0.00000000000E+00 0.  1.
         11    1    3    3    0    0  0.98087000894E+01  0.49885432859E+01  0.32755589771E+00  0.11009244056E+02  0.51100000000E-03 0. -1.
        -11    1    3    3    0    0  0.17037087734E+02  0.10774243213E+02  0.99735629637E+01  0.22490412040E+02  0.51100000000E-03 0.  1.
        -12    1    3    3    0    0  0.13597353477E+02 -0.12422593853E+01 -0.42077036251E+01  0.14287617008E+02  0.00000000000E+00 0.  1.
</event>
<event>
 7    1  0.2458979E-009  0.4778728E+02  0.7816164E-02  0.1312668E+00
        -11   -1    0    0    0    0  0.00000000000E+00  0.00000000000E+00  0.45593999997E+02  0.45594000000E+02  0.51100000000E-03 0. -1.
         11   -1    0    0    0    0 -0.00000000000E+00 -0.00000000000E+00 -0.45593999997E+02  0.45594000000E+02  0.51100000000E-03 0.  1.
    9900012    2    1    2    0    0 -0.40696712252E+02 -0.13542841742E+02 -0.66325969367E+01  0.47787282348E+02  0.20000051537E+02 0.  0.
        -12    1    1    2    0    0  0.40696712252E+02  0.13542841742E+02  0.66325969367E+01  0.43400717652E+02  0.00000000000E+00 0.  1.
         11    1    3    3    0    0 -0.36847549538E+02 -0.11516636565E+02 -0.11271702041E+02  0.40217236254E+02  0.51100000000E-03 0. -1.
        -11    1    3    3    0    0  0.39741725303E+00 -0.15907959117E+01  0.18438100454E+01  0.24674294013E+01  0.51100000000E-03 0.  1.
         12    1    3    3    0    0 -0.42465799673E+01 -0.43540926472E+00  0.27952950591E+01  0.51026166928E+01  0.00000000000E+00 0. -1.
</event>
<event>
 7    1  0.2458979E-009  0.4778726E+02  0.7816164E-02  0.1312668E+00
        -11   -1    0    0    0    0  0.00000000000E+00  0.00000000000E+00  0.45593999997E+02  0.45594000000E+02  0.51100000000E-03 0.  1.
         11   -1    0    0    0    0 -0.00000000000E+00 -0.00000000000E+00 -0.45593999997E+02  0.45594000000E+02  0.51100000000E-03 0. -1.
    9900012    2    1    2    0    0  0.15757667765E+02 -0.23627053202E+02 -0.32818936319E+02  0.47787259022E+02  0.19999945183E+02 0.  0.
        -12    1    1    2    0    0 -0.15757667765E+02  0.23627053202E+02  0.32818936319E+02  0.43400740978E+02  0.00000000000E+00 0.  1.
         11    1    3    3    0    0  0.81774044732E+01 -0.16656174201E+02 -0.23595245711E+02  0.30017223445E+02  0.51100000000E-03 0. -1.
        -11    1    3    3    0    0  0.66056370141E+01 -0.68723970369E+01 -0.11091579551E+01  0.95965886140E+01  0.51100000000E-03 0.  1.
         12    1    3    3    0    0  0.97462627730E+00 -0.98481963703E-01 -0.81145326527E+01  0.81734469626E+01  0.00000000000E+00 0. -1.
</event>
<event>
 7    1  0.2458979E-009  0.4778727E+02  0.7816164E-02  0.1312668E+00
        -11   -1    0    0    0    0  0.00000000000E+00  0.00000000000E+00  0.45593999997E+02  0.45594000000E+02  0.51100000000E-03 0.  1.
         11   -1    0    0    0    0 -0.00000000000E+00 -0.00000000000E+00 -0.45593999997E+02  0.45594000000E+02  0.51100000000E-03 0. -1.
    9900012    2    1    2    0    0  0.81518827931E+01  0.28771833952E+02 -0.31453959932E+02  0.47787271694E+02  0.20000002964E+02 0.  0.
        -12    1    1    2    0    0 -0.81518827931E+01 -0.28771833952E+02  0.31453959932E+02  0.43400728306E+02  0.00000000000E+00 0.  1.
         11    1    3    3    0    0 -0.27840719143E+01  0.21374768109E+02 -0.23367869846E+02  0.31791337021E+02  0.51100000000E-03 0.  1.
        -11    1    3    3    0    0  0.74679614107E+01  0.26942995701E+01 -0.42381587028E+01  0.89995381691E+01  0.51100000000E-03 0. -1.
        -12    1    3    3    0    0  0.34679932967E+01  0.47027662728E+01 -0.38479313826E+01  0.69963965045E+01  0.00000000000E+00 0.  1.
</event>
<event>
 7    1  0.2458979E-009  0.4778725E+02  0.7816164E-02  0.1312668E+00
        -11   -1    0    0    0    0  0.00000000000E+00  0.00000000000E+00  0.45593999997E+02  0.45594000000E+02  0.51100000000E-03 0.  1.
         11   -1    0    0    0    0 -0.00000000000E+00 -0.00000000000E+00 -0.45593999997E+02  0.45594000000E+02  0.51100000000E-03 0. -1.
    9900012    2    1    2    0    0  0.71023409270E+01 -0.28897050572E+02 -0.31593387721E+02  0.47787252010E+02  0.19999913212E+02 0.  0.
        -12    1    1    2    0    0 -0.71023409270E+01  0.28897050572E+02  0.31593387721E+02  0.43400747990E+02  0.00000000000E+00 0.  1.
         11    1    3    3    0    0  0.87394864597E+01 -0.20202709990E+02 -0.30558308245E+02  0.37660832672E+02  0.51100000000E-03 0. -1.
        -11    1    3    3    0    0 -0.45858606613E+00 -0.46229893465E+00  0.13298384377E+01  0.14807065937E+01  0.51100000000E-03 0.  1.
         12    1    3    3    0    0 -0.11785594666E+01 -0.82320416476E+01 -0.23649179144E+01  0.86457127437E+01  0.00000000000E+00 0. -1.
</event>
<event>
 7    1  0.2458979E-009  0.4778727E+02  0.7816164E-02  0.1312668E+00
        -11   -1    0    0    0    0  0.00000000000E+00  0.00000000000E+00  0.45593999997E+02  0.45594000000E+02  0.51100000000E-03 0.  1.
         11   -1    0    0    0    0 -0.00000000000E+00 -0.00000000000E+00 -0.45593999997E+02  0.45594000000E+02  0.51100000000E-03 0. -1.
    9900012    2    1    2    0    0  0.23913931401E+02  0.35789441483E+02 -0.55554572496E+01  0.47787270260E+02  0.19999996422E+02 0.  0.
        -12    1    1    2    0    0 -0.23913931401E+02 -0.35789441483E+02  0.55554572496E+01  0.43400729740E+02  0.00000000000E+00 0.  1.
         11    1    3    3    0    0  0.72251556017E+01  0.15242666394E+02 -0.22765568075E+01  0.17021294411E+02  0.51100000000E-03 0. -1.
        -11    1    3    3    0    0 -0.76873748953E+00  0.10176014452E+02 -0.21498996114E+01  0.10429012228E+02  0.51100000000E-03 0.  1.
        -12    1    3    3    0    0  0.17457513289E+02  0.10370760638E+02 -0.11290008307E+01  0.20336963621E+02  0.00000000000E+00 0.  1.
</event>
<event>
 7    1  0.2458979E-009  0.4778727E+02  0.7816164E-02  0.1312668E+00
        -11   -1    0    0    0    0  0.00000000000E+00  0.00000000000E+00  0.45593999997E+02  0.45594000000E+02  0.51100000000E-03 0.  1.
         11   -1    0    0    0    0 -0.00000000000E+00 -0.00000000000E+00 -0.45593999997E+02  0.45594000000E+02  0.51100000000E-03 0. -1.
    9900012    2    1    2    0    0 -0.15164355166E+02  0.13197815429E+02 -0.38464047650E+02  0.47787274645E+02  0.20000016416E+02 0.  0.
        -12    1    1    2    0    0  0.15164355166E+02 -0.13197815429E+02  0.38464047650E+02  0.43400725355E+02  0.00000000000E+00 0.  1.
         11    1    3    3    0    0 -0.53085521243E+01  0.41441847016E+01 -0.15445948347E+02  0.16850291187E+02  0.51100000000E-03 0. -1.
        -11    1    3    3    0    0 -0.66605565584E+01  0.13497221829E+02 -0.15177648868E+02  0.21375196752E+02  0.51100000000E-03 0.  1.
        -12    1    3    3    0    0 -0.31952464834E+01 -0.44435911020E+01 -0.78404504351E+01  0.95617867053E+01  0.00000000000E+00 0.  1.
</event>
<event>
 7    1  0.2458979E-009  0.4778727E+02  0.7816164E-02  0.1312668E+00
        -11   -1    0    0    0    0  0.00000000000E+00  0.00000000000E+00  0.45593999997E+02  0.45594000000E+02  0.51100000000E-03 0. -1.
         11   -1    0    0    0    0 -0.00000000000E+00 -0.00000000000E+00 -0.45593999997E+02  0.45594000000E+02  0.51100000000E-03 0.  1.
    9900012    2    1    2    0    0 -0.35864171583E+02  0.24384756004E+02 -0.16638712027E+01  0.47787267333E+02  0.19999983077E+02 0.  0.
        -12    1    1    2    0    0  0.35864171583E+02 -0.24384756004E+02  0.16638712027E+01  0.43400732667E+02  0.00000000000E+00 0.  1.
         11    1    3    3    0    0 -0.22928800930E+02  0.19454331049E+02  0.37597897990E+01  0.30304074450E+02  0.51100000000E-03 0. -1.
        -11    1    3    3    0    0  0.10578188009E+01  0.19919189852E+01 -0.12946912858E+01  0.26005667932E+01  0.51100000000E-03 0.  1.
         12    1    3    3    0    0 -0.13993189454E+02  0.29385059694E+01 -0.41289697160E+01  0.14882626090E+02  0.00000000000E+00 0. -1.
</event>
<event>
 7    1  0.2458979E-009  0.4778727E+02  0.7816164E-02  0.1312668E+00
        -11   -1    0    0    0    0  0.00000000000E+00  0.00000000000E+00  0.45593999997E+02  0.45594000000E+02  0.51100000000E-03 0. -1.
         11   -1    0    0    0    0 -0.00000000000E+00 -0.00000000000E+00 -0.45593999997E+02  0.45594000000E+02  0.51100000000E-03 0.  1.
    9900012    2    1    2    0    0  0.24320621113E+02 -0.10540949845E+02  0.34365957890E+02  0.47787270782E+02  0.19999998805E+02 0.  0.
        -12    1    1    2    0    0 -0.24320621113E+02  0.10540949845E+02 -0.34365957890E+02  0.43400729218E+02  0.00000000000E+00 0.  1.
         11    1    3    3    0    0  0.17405112646E+02 -0.42915528484E+01  0.14063436475E+02  0.22784547786E+02  0.51100000000E-03 0. -1.
        -11    1    3    3    0    0 -0.29471456621E+01 -0.21772737341E+01  0.33100691275E+01  0.49378888563E+01  0.51100000000E-03 0.  1.
        -12    1    3    3    0    0  0.98626541290E+01 -0.40721232628E+01  0.16992452287E+02  0.20064834140E+02  0.00000000000E+00 0.  1.
</event>
<event>
 7    1  0.2458979E-009  0.4778727E+02  0.7816164E-02  0.1312668E+00
        -11   -1    0    0    0    0  0.00000000000E+00  0.00000000000E+00  0.45593999997E+02  0.45594000000E+02  0.51100000000E-03 0.  1.
         11   -1    0    0    0    0 -0.00000000000E+00 -0.00000000000E+00 -0.45593999997E+02  0.45594000000E+02  0.51100000000E-03 0. -1.
    9900012    2    1    2    0    0  0.28789672620E+02 -0.11060377764E+02 -0.30535976445E+02  0.47787273471E+02  0.20000011062E+02 0.  0.
        -12    1    1    2    0    0 -0.28789672620E+02  0.11060377764E+02  0.30535976445E+02  0.43400726529E+02  0.00000000000E+00 0.  1.
         11    1    3    3    0    0  0.19922433193E+02 -0.15343922667E+01 -0.22683502884E+02  0.30229108609E+02  0.51100000000E-03 0. -1.
        -11    1    3    3    0    0 -0.34373860358E+00 -0.17939185009E+00  0.14318067932E+01  0.14833774360E+01  0.51100000000E-03 0.  1.
         12    1    3    3    0    0  0.92109780302E+01 -0.93465936471E+01 -0.92842803540E+01  0.16074787425E+02  0.00000000000E+00 0. -1.
</event>
<event>
 7    1  0.2458979E-009  0.4778726E+02  0.7816164E-02  0.1312668E+00
        -11   -1    0    0    0    0  0.00000000000E+00  0.00000000000E+00  0.45593999997E+02  0.45594000000E+02  0.51100000000E-03 0.  1.
         11   -1    0    0    0    0 -0.00000000000E+00 -0.00000000000E+00 -0.45593999997E+02  0.45594000000E+02  0.51100000000E-03 0. -1.
    9900012    2    1    2    0    0 -0.30146566721E+02  0.77301208123E+01 -0.30249854803E+02  0.47787263043E+02  0.19999963517E+02 0.  0.
        -12    1    1    2    0    0  0.30146566721E+02 -0.77301208123E+01  0.30249854803E+02  0.43400736957E+02  0.00000000000E+00 0.  1.
         11    1    3    3    0    0 -0.61657125439E+01  0.79335992534E+01 -0.12920401121E+02  0.16367491368E+02  0.51100000000E-03 0. -1.
        -11    1    3    3    0    0 -0.12256851425E+02 -0.51550790247E+01 -0.10714953081E+02  0.17076752220E+02  0.51100000000E-03 0.  1.
        -12    1    3    3    0    0 -0.11724002752E+02  0.49516005836E+01 -0.66145006008E+01  0.14343019454E+02  0.00000000000E+00 0.  1.
</event>
<event>
 7    1  0.2458979E-009  0.4778727E+02  0.7816164E-02  0.1312668E+00
        -11   -1    0    0    0    0  0.00000000000E+00  0.00000000000E+00  0.45593999997E+02  0.45594000000E+02  0.51100000000E-03 0.  1.
         11   -1    0    0    0    0 -0.00000000000E+00 -0.00000000000E+00 -0.45593999997E+02  0.45594000000E+02  0.51100000000E-03 0. -1.
    9900012    2    1    2    0    0 -0.12105490625E+02  0.19633037239E+02 -0.36764447756E+02  0.47787266443E+02  0.19999979020E+02 0.  0.
        -12    1    1    2    0    0  0.12105490625E+02 -0.19633037239E+02  0.36764447756E+02  0.43400733557E+02  0.00000000000E+00 0.  1.
         11    1    3    3    0    0 -0.75328683596E+01  0.71867429854E+01 -0.94337761209E+01  0.14049537808E+02  0.51100000000E-03 0. -1.
        -11    1    3    3    0    0  0.12868620187E+01  0.12355908469E+02 -0.11781791072E+02  0.17121188308E+02  0.51100000000E-03 0.  1.
        -12    1    3    3    0    0 -0.58594842840E+01  0.90385784166E-01 -0.15548880563E+02  0.16616540327E+02  0.00000000000E+00 0.  1.
</event>
<event>
 7    1  0.2458979E-009  0.4778727E+02  0.7816164E-02  0.1312668E+00
        -11   -1    0    0    0    0  0.00000000000E+00  0.00000000000E+00  0.45593999997E+02  0.45594000000E+02  0.51100000000E-03 0.  1.
         11   -1    0    0    0    0 -0.00000000000E+00 -0.00000000000E+00 -0.45593999997E+02  0.45594000000E+02  0.51100000000E-03 0. -1.
    9900012    2    1    2    0    0  0.14115190460E+02 -0.11794052846E+01 -0.41024304718E+02  0.47787272170E+02  0.20000005133E+02 0.  0.
        -12    1    1    2    0    0 -0.14115190460E+02  0.11794052846E+01  0.41024304718E+02  0.43400727830E+02  0.00000000000E+00 0.  1.
         11    1    3    3    0    0  0.10369934897E+02  0.36582593214E+01 -0.33848179270E+02  0.35589572225E+02  0.51100000000E-03 0. -1.
        -11    1    3    3    0    0  0.28747239768E+01 -0.69474184425E+01 -0.49002523122E+01  0.89745826612E+01  0.51100000000E-03 0.  1.
        -12    1    3    3    0    0  0.87053158644E+00  0.21097538365E+01 -0.22758731365E+01  0.32231172841E+01  0.00000000000E+00 0.  1.
</event>
<event>
 7    1  0.2458979E-009  0.4778727E+02  0.7816164E-02  0.1312668E+00
        -11   -1    0    0    0    0  0.00000000000E+00  0.00000000000E+00  0.45593999997E+02  0.45594000000E+02  0.51100000000E-03 0. -1.
         11   -1    0    0    0    0 -0.00000000000E+00 -0.00000000000E+00 -0.45593999997E+02  0.45594000000E+02  0.51100000000E-03 0.  1.
    9900012    2    1    2    0    0 -0.16260687566E+02 -0.70723681355E+01  0.39613063564E+02  0.47787272401E+02  0.20000006184E+02 0.  0.
        -12    1    1    2    0    0  0.16260687566E+02  0.70723681355E+01 -0.39613063564E+02  0.43400727599E+02  0.00000000000E+00 0.  1.
         11    1    3    3    0    0 -0.10618904116E+02 -0.13205893803E+02  0.32596045373E+02  0.36737704474E+02  0.51100000000E-03 0. -1.
        -11    1    3    3    0    0 -0.63217827224E+00  0.21180050352E+00  0.13523867347E+00  0.68029301122E+00  0.51100000000E-03 0.  1.
         12    1    3    3    0    0 -0.50096051778E+01  0.59217251635E+01  0.68817795175E+01  0.10369274916E+02  0.00000000000E+00 0. -1.
</event>
<event>
 7    1  0.2458979E-009  0.4778727E+02  0.7816164E-02  0.1312668E+00
        -11   -1    0    0    0    0  0.00000000000E+00  0.00000000000E+00  0.45593999997E+02  0.45594000000E+02  0.51100000000E-03 0.  1.
         11   -1    0    0    0    0 -0.00000000000E+00 -0.00000000000E+00 -0.45593999997E+02  0.45594000000E+02  0.51100000000E-03 0. -1.
    9900012    2    1    2    0    0 -0.21697958417E+02 -0.28216627938E+02 -0.24832309296E+02  0.47787273317E+02  0.20000010360E+02 0.  0.
        -12    1    1    2    0    0  0.21697958417E+02  0.28216627938E+02  0.24832309296E+02  0.43400726683E+02  0.00000000000E+00 0.  1.
         11    1    3    3    0    0 -0.19328768266E+02 -0.12951580340E+02 -0.11380941778E+02  0.25901168931E+02  0.51100000000E-03 0. -1.
        -11    1    3    3    0    0  0.12390135974E+01 -0.68318010408E+00 -0.37399346225E+01  0.39986248875E+01  0.51100000000E-03 0.  1.
         12    1    3    3    0    0 -0.36082037485E+01 -0.14581867494E+02 -0.97114328961E+01  0.17887479498E+02  0.00000000000E+00 0. -1.
</event>
<event>
 7    1  0.2458979E-009  0.4778726E+02  0.7816164E-02  0.1312668E+00
        -11   -1    0    0    0    0  0.00000000000E+00  0.00000000000E+00  0.45593999997E+02  0.45594000000E+02  0.51100000000E-03 0.  1.
         11   -1    0    0    0    0 -0.00000000000E+00 -0.00000000000E+00 -0.45593999997E+02  0.45594000000E+02  0.51100000000E-03 0. -1.
    9900012    2    1    2    0    0  0.18835147669E+02  0.13547680210E+02 -0.36678630413E+02  0.47787258581E+02  0.19999943172E+02 0.  0.
        -12    1    1    2    0    0 -0.18835147669E+02 -0.13547680210E+02  0.36678630413E+02  0.43400741419E+02  0.00000000000E+00 0.  1.
         11    1    3    3    0    0  0.69980515153E+01 -0.94377557989E+00 -0.23624985729E+02  0.24657724719E+02  0.51100000000E-03 0. -1.
        -11    1    3    3    0    0  0.69286967983E+01  0.11013520075E+02 -0.98074251316E+01  0.16293865463E+02  0.51100000000E-03 0.  1.
         12    1    3    3    0    0  0.49083993553E+01  0.34779357151E+01 -0.32462195526E+01  0.68356683985E+01  0.00000000000E+00 0. -1.
</event>
<event>
 7    1  0.2458979E-009  0.4778727E+02  0.7816164E-02  0.1312668E+00
        -11   -1    0    0    0    0  0.00000000000E+00  0.00000000000E+00  0.45593999997E+02  0.45594000000E+02  0.51100000000E-03 0.  1.
         11   -1    0    0    0    0 -0.00000000000E+00 -0.00000000000E+00 -0.45593999997E+02  0.45594000000E+02  0.51100000000E-03 0. -1.
    9900012    2    1    2    0    0 -0.14476244086E+02 -0.23631940501E+02 -0.33400500186E+02  0.47787266511E+02  0.19999979332E+02 0.  0.
        -12    1    1    2    0    0  0.14476244086E+02  0.23631940501E+02  0.33400500186E+02  0.43400733489E+02  0.00000000000E+00 0.  1.
         11    1    3    3    0    0 -0.11700651665E+02 -0.75509415334E+01 -0.93103535491E+01  0.16751258188E+02  0.51100000000E-03 0. -1.
        -11    1    3    3    0    0  0.16464024321E+01 -0.12974139010E+02 -0.11818809045E+02  0.17627341590E+02  0.51100000000E-03 0.  1.
        -12    1    3    3    0    0 -0.44219948534E+01 -0.31068599584E+01 -0.12271337591E+02  0.13408666733E+02  0.00000000000E+00 0.  1.
</event>
<event>
 7    1  0.2458979E-009  0.4778726E+02  0.7816164E-02  0.1312668E+00
        -11   -1    0    0    0    0  0.00000000000E+00  0.00000000000E+00  0.45593999997E+02  0.45594000000E+02  0.51100000000E-03 0. -1.
         11   -1    0    0    0    0 -0.00000000000E+00 -0.00000000000E+00 -0.45593999997E+02  0.45594000000E+02  0.51100000000E-03 0.  1.
    9900012    2    1    2    0    0  0.97665708422E+01  0.39472823858E+02  0.15170185455E+02  0.47787259729E+02  0.19999948408E+02 0.  0.
        -12    1    1    2    0    0 -0.97665708422E+01 -0.39472823858E+02 -0.15170185455E+02  0.43400740271E+02  0.00000000000E+00 0.  1.
         11    1    3    3    0    0  0.10271112936E+02  0.14604753984E+02  0.36086069068E+01  0.18215834978E+02  0.51100000000E-03 0. -1.
        -11    1    3    3    0    0 -0.47300607234E+01  0.61516193385E+01  0.52640230826E+01  0.93768776364E+01  0.51100000000E-03 0.  1.
        -12    1    3    3    0    0  0.42255186300E+01  0.18716450535E+02  0.62975554656E+01  0.20194547114E+02  0.00000000000E+00 0.  1.
</event>
<event>
 7    1  0.2458979E-009  0.4778727E+02  0.7816164E-02  0.1312668E+00
        -11   -1    0    0    0    0  0.00000000000E+00  0.00000000000E+00  0.45593999997E+02  0.45594000000E+02  0.51100000000E-03 0.  1.
         11   -1    0    0    0    0 -0.00000000000E+00 -0.00000000000E+00 -0.45593999997E+02  0.45594000000E+02  0.51100000000E-03 0. -1.
    9900012    2    1    2    0    0  0.11476540092E+02  0.41852504528E+02 -0.52952820511E+00  0.47787268348E+02  0.19999987708E+02 0.  0.
        -12    1    1    2    0    0 -0.11476540092E+02 -0.41852504528E+02  0.52952820511E+00  0.43400731652E+02  0.00000000000E+00 0.  1.
         11    1    3    3    0    0  0.15824242511E+02  0.23062019657E+02 -0.36175111862E+01  0.28201946549E+02  0.51100000000E-03 0. -1.
        -11    1    3    3    0    0 -0.34499613400E+01  0.16871892854E+02  0.28150994756E+01  0.17449578420E+02  0.51100000000E-03 0.  1.
         12    1    3    3    0    0 -0.89774107922E+00  0.19185920168E+01  0.27288350551E+00  0.21357433787E+01  0.00000000000E+00 0. -1.
</event>
<event>
 7    1  0.2458979E-009  0.4778727E+02  0.7816164E-02  0.1312668E+00
        -11   -1    0    0    0    0  0.00000000000E+00  0.00000000000E+00  0.45593999997E+02  0.45594000000E+02  0.51100000000E-03 0.  1.
         11   -1    0    0    0    0 -0.00000000000E+00 -0.00000000000E+00 -0.45593999997E+02  0.45594000000E+02  0.51100000000E-03 0. -1.
    9900012    2    1    2    0    0  0.13697104187E+01 -0.29963202087E+01 -0.43275503084E+02  0.47787271797E+02  0.20000003429E+02 0.  0.
        -12    1    1    2    0    0 -0.13697104187E+01  0.29963202087E+01  0.43275503084E+02  0.43400728203E+02  0.00000000000E+00 0.  1.
         11    1    3    3    0    0 -0.21372246489E+01  0.31149681078E+01 -0.94320465957E+01  0.10160426111E+02  0.51100000000E-03 0.  1.
        -11    1    3    3    0    0 -0.41601739321E+01  0.34229361565E+00 -0.20601532310E+02  0.21020165219E+02  0.51100000000E-03 0. -1.
        -12    1    3    3    0    0  0.76671089996E+01 -0.64535819322E+01 -0.13241924179E+02  0.16606680467E+02  0.00000000000E+00 0.  1.
</event>
<event>
 7    1  0.2458979E-009  0.4778726E+02  0.7816164E-02  0.1312668E+00
        -11   -1    0    0    0    0  0.00000000000E+00  0.00000000000E+00  0.45593999997E+02  0.45594000000E+02  0.51100000000E-03 0. -1.
         11   -1    0    0    0    0 -0.00000000000E+00 -0.00000000000E+00 -0.45593999997E+02  0.45594000000E+02  0.51100000000E-03 0.  1.
    9900012    2    1    2    0    0  0.32814530208E+02 -0.13207837336E+02  0.25147236162E+02  0.47787264448E+02  0.19999969923E+02 0.  0.
        -12    1    1    2    0    0 -0.32814530208E+02  0.13207837336E+02 -0.25147236162E+02  0.43400735552E+02  0.00000000000E+00 0.  1.
         11    1    3    3    0    0  0.24270630099E+02 -0.88048305551E-01  0.13892409732E+02  0.27965519597E+02  0.51100000000E-03 0. -1.
        -11    1    3    3    0    0  0.78749057260E+01 -0.13415956948E+02  0.10486651316E+02  0.18760914079E+02  0.51100000000E-03 0.  1.
        -12    1    3    3    0    0  0.66899438348E+00  0.29616791701E+00  0.76817511412E+00  0.10608307717E+01  0.00000000000E+00 0.  1.
</event>
<event>
 7    1  0.2458979E-009  0.4778727E+02  0.7816164E-02  0.1312668E+00
        -11   -1    0    0    0    0  0.00000000000E+00  0.00000000000E+00  0.45593999997E+02  0.45594000000E+02  0.51100000000E-03 0.  1.
         11   -1    0    0    0    0 -0.00000000000E+00 -0.00000000000E+00 -0.45593999997E+02  0.45594000000E+02  0.51100000000E-03 0. -1.
    9900012    2    1    2    0    0 -0.30651739420E+02 -0.26128237795E+02 -0.16168156009E+02  0.47787271798E+02  0.20000003435E+02 0.  0.
        -12    1    1    2    0    0  0.30651739420E+02  0.26128237795E+02  0.16168156009E+02  0.43400728202E+02  0.00000000000E+00 0.  1.
         11    1    3    3    0    0 -0.50535857804E+01 -0.64862719917E+01 -0.11099536898E+02  0.13813405561E+02  0.51100000000E-03 0. -1.
        -11    1    3    3    0    0 -0.10128696549E+02 -0.11769113350E+02 -0.58645038473E+01  0.16598039898E+02  0.51100000000E-03 0.  1.
        -12    1    3    3    0    0 -0.15469457090E+02 -0.78728524534E+01  0.79588473641E+00  0.17375826338E+02  0.00000000000E+00 0.  1.
</event>
<event>
 7    1  0.2458979E-009  0.4778724E+02  0.7816164E-02  0.1312668E+00
        -11   -1    0    0    0    0  0.00000000000E+00  0.00000000000E+00  0.45593999997E+02  0.45594000000E+02  0.51100000000E-03 0. -1.
         11   -1    0    0    0    0 -0.00000000000E+00 -0.00000000000E+00 -0.45593999997E+02  0.45594000000E+02  0.51100000000E-03 0.  1.
    9900012    2    1    2    0    0 -0.39246125194E+02 -0.18521017137E+02  0.58261930604E+00  0.47787241207E+02  0.19999863958E+02 0.  0.
        -12    1    1    2    0    0  0.39246125194E+02  0.18521017137E+02 -0.58261930604E+00  0.43400758793E+02  0.00000000000E+00 0.  1.
         11    1    3    3    0    0 -0.35985571663E+02 -0.82099186303E+01  0.14399554523E+01  0.36938294544E+02  0.51100000000E-03 0. -1.
        -11    1    3    3    0    0 -0.26482573977E+01 -0.84188640712E+01 -0.65451394495E+00  0.88497982044E+01  0.51100000000E-03 0.  1.
         12    1    3    3    0    0 -0.61229613388E+00 -0.18922344357E+01 -0.20282220130E+00  0.19991484588E+01  0.00000000000E+00 0. -1.
</event>
<event>
 7    1  0.2458979E-009  0.4778727E+02  0.7816164E-02  0.1312668E+00
        -11   -1    0    0    0    0  0.00000000000E+00  0.00000000000E+00  0.45593999997E+02  0.45594000000E+02  0.51100000000E-03 0.  1.
         11   -1    0    0    0    0 -0.00000000000E+00 -0.00000000000E+00 -0.45593999997E+02  0.45594000000E+02  0.51100000000E-03 0. -1.
    9900012    2    1    2    0    0  0.23018628014E+02 -0.16806602665E+02 -0.32730778705E+02  0.47787274160E+02  0.20000014206E+02 0.  0.
        -12    1    1    2    0    0 -0.23018628014E+02  0.16806602665E+02  0.32730778705E+02  0.43400725840E+02  0.00000000000E+00 0.  1.
         11    1    3    3    0    0  0.18247567054E+02 -0.11854127073E+01 -0.17055744488E+02  0.25005545924E+02  0.51100000000E-03 0. -1.
        -11    1    3    3    0    0  0.27378750351E+01 -0.65163383916E+01 -0.82110867674E+01  0.10834231487E+02  0.51100000000E-03 0.  1.
         12    1    3    3    0    0  0.20331859253E+01 -0.91048515661E+01 -0.74639474500E+01  0.11947496750E+02  0.00000000000E+00 0. -1.
</event>
<event>
 7    1  0.2458979E-009  0.4778727E+02  0.7816164E-02  0.1312668E+00
        -11   -1    0    0    0    0  0.00000000000E+00  0.00000000000E+00  0.45593999997E+02  0.45594000000E+02  0.51100000000E-03 0.  1.
         11   -1    0    0    0    0 -0.00000000000E+00 -0.00000000000E+00 -0.45593999997E+02  0.45594000000E+02  0.51100000000E-03 0. -1.
    9900012    2    1    2    0    0  0.31563897930E+02  0.19780449809E+02 -0.22272791820E+02  0.47787273017E+02  0.20000008993E+02 0.  0.
        -12    1    1    2    0    0 -0.31563897930E+02 -0.19780449809E+02  0.22272791820E+02  0.43400726983E+02  0.00000000000E+00 0.  1.
         11    1    3    3    0    0  0.22870258293E+02  0.12568873816E+02 -0.22511271388E+02  0.34464222654E+02  0.51100000000E-03 0. -1.
        -11    1    3    3    0    0  0.89886520180E+01  0.40068879409E+01  0.13167235905E+01  0.99289867230E+01  0.51100000000E-03 0.  1.
         12    1    3    3    0    0 -0.29501238046E+00  0.32046880525E+01 -0.10782440220E+01  0.33940636396E+01  0.00000000000E+00 0. -1.
</event>
<event>
 7    1  0.2458979E-009  0.4778727E+02  0.7816164E-02  0.1312668E+00
        -11   -1    0    0    0    0  0.00000000000E+00  0.00000000000E+00  0.45593999997E+02  0.45594000000E+02  0.51100000000E-03 0. -1.
         11   -1    0    0    0    0 -0.00000000000E+00 -0.00000000000E+00 -0.45593999997E+02  0.45594000000E+02  0.51100000000E-03 0.  1.
    9900012    2    1    2    0    0  0.38443690221E+02  0.68319565098E+01  0.18948107351E+02  0.47787265908E+02  0.19999976579E+02 0.  0.
        -12    1    1    2    0    0 -0.38443690221E+02 -0.68319565098E+01 -0.18948107351E+02  0.43400734092E+02  0.00000000000E+00 0.  1.
         11    1    3    3    0    0  0.26596481143E+01  0.36191838155E+01  0.26532944414E+01  0.52165305747E+01  0.51100000000E-03 0. -1.
        -11    1    3    3    0    0  0.23060958622E+02  0.94735839937E+01  0.12513016481E+02  0.27895020845E+02  0.51100000000E-03 0.  1.
        -12    1    3    3    0    0  0.12723083485E+02 -0.62608112994E+01  0.37817964282E+01  0.14675714488E+02  0.00000000000E+00 0.  1.
</event>
<event>
 7    1  0.2458979E-009  0.4778727E+02  0.7816164E-02  0.1312668E+00
        -11   -1    0    0    0    0  0.00000000000E+00  0.00000000000E+00  0.45593999997E+02  0.45594000000E+02  0.51100000000E-03 0.  1.
         11   -1    0    0    0    0 -0.00000000000E+00 -0.00000000000E+00 -0.45593999997E+02  0.45594000000E+02  0.51100000000E-03 0. -1.
    9900012    2    1    2    0    0 -0.27075532930E+02 -0.13927592569E+02 -0.30928317929E+02  0.47787272262E+02  0.20000005553E+02 0.  0.
        -12    1    1    2    0    0  0.27075532930E+02  0.13927592569E+02  0.30928317929E+02  0.43400727738E+02  0.00000000000E+00 0.  1.
         11    1    3    3    0    0 -0.23537651021E+02 -0.89123672878E+01 -0.12039897232E+02  0.27900007740E+02  0.51100000000E-03 0. -1.
        -11    1    3    3    0    0 -0.23940319995E+01 -0.41421713871E+01 -0.14452354336E+02  0.15223649993E+02  0.51100000000E-03 0.  1.
         12    1    3    3    0    0 -0.11438499101E+01 -0.87305389367E+00 -0.44360663611E+01  0.46636145293E+01  0.00000000000E+00 0. -1.
</event>
<event>
 7    1  0.2458979E-009  0.4778727E+02  0.7816164E-02  0.1312668E+00
        -11   -1    0    0    0    0  0.00000000000E+00  0.00000000000E+00  0.45593999997E+02  0.45594000000E+02  0.51100000000E-03 0. -1.
         11   -1    0    0    0    0 -0.00000000000E+00 -0.00000000000E+00 -0.45593999997E+02  0.45594000000E+02  0.51100000000E-03 0.  1.
    9900012    2    1    2    0    0  0.12099932365E+01  0.20983449438E+02  0.37971753355E+02  0.47787270896E+02  0.19999999323E+02 0.  0.
        -12    1    1    2    0    0 -0.12099932365E+01 -0.20983449438E+02 -0.37971753355E+02  0.43400729104E+02  0.00000000000E+00 0.  1.
         11    1    3    3    0    0  0.14460696478E+01  0.19297201390E+02  0.20599956245E+02  0.28263603742E+02  0.51100000000E-03 0. -1.
        -11    1    3    3    0    0 -0.41873198972E+01 -0.61993873987E+00  0.68819571407E+01  0.80795610221E+01  0.51100000000E-03 0.  1.
         12    1    3    3    0    0  0.39512434859E+01  0.23061867878E+01  0.10489839969E+02  0.11444106132E+02  0.00000000000E+00 0. -1.
</event>
<event>
 7    1  0.2458979E-009  0.4778727E+02  0.7816164E-02  0.1312668E+00
        -11   -1    0    0    0    0  0.00000000000E+00  0.00000000000E+00  0.45593999997E+02  0.45594000000E+02  0.51100000000E-03 0.  1.
         11   -1    0    0    0    0 -0.00000000000E+00 -0.00000000000E+00 -0.45593999997E+02  0.45594000000E+02  0.51100000000E-03 0. -1.
    9900012    2    1    2    0    0 -0.22698216645E+02 -0.30275320136E+01 -0.36867981373E+02  0.47787273744E+02  0.20000012309E+02 0.  0.
        -12    1    1    2    0    0  0.22698216645E+02  0.30275320136E+01  0.36867981373E+02  0.43400726256E+02  0.00000000000E+00 0.  1.
         11    1    3    3    0    0 -0.51011192849E+01  0.11885355234E+01 -0.51816029353E+01  0.73677027552E+01  0.51100000000E-03 0. -1.
        -11    1    3    3    0    0 -0.20255792692E+02 -0.15438893848E+01 -0.30136122616E+02  0.36343728738E+02  0.51100000000E-03 0.  1.
        -12    1    3    3    0    0  0.26586953311E+01 -0.26721781522E+01 -0.15502558224E+01  0.40758422510E+01  0.00000000000E+00 0.  1.
</event>
<event>
 7    1  0.2458979E-009  0.4778728E+02  0.7816164E-02  0.1312668E+00
        -11   -1    0    0    0    0  0.00000000000E+00  0.00000000000E+00  0.45593999997E+02  0.45594000000E+02  0.51100000000E-03 0.  1.
         11   -1    0    0    0    0 -0.00000000000E+00 -0.00000000000E+00 -0.45593999997E+02  0.45594000000E+02  0.51100000000E-03 0. -1.
    9900012    2    1    2    0    0  0.76480806580E+01 -0.41842427524E+02 -0.86221087104E+01  0.47787278376E+02  0.20000033427E+02 0.  0.
        -12    1    1    2    0    0 -0.76480806580E+01  0.41842427524E+02  0.86221087104E+01  0.43400721624E+02  0.00000000000E+00 0.  1.
         11    1    3    3    0    0  0.23507695714E+01 -0.21238617689E+02  0.54593102321E+01  0.22054683571E+02  0.51100000000E-03 0. -1.
        -11    1    3    3    0    0  0.42678404695E+01 -0.10749841612E+02 -0.65913081644E+01  0.13312358939E+02  0.51100000000E-03 0.  1.
         12    1    3    3    0    0  0.10294706171E+01 -0.98539682236E+01 -0.74901107780E+01  0.12420235866E+02  0.00000000000E+00 0. -1.
</event>
<event>
 7    1  0.2458979E-009  0.4778727E+02  0.7816164E-02  0.1312668E+00
        -11   -1    0    0    0    0  0.00000000000E+00  0.00000000000E+00  0.45593999997E+02  0.45594000000E+02  0.51100000000E-03 0.  1.
         11   -1    0    0    0    0 -0.00000000000E+00 -0.00000000000E+00 -0.45593999997E+02  0.45594000000E+02  0.51100000000E-03 0. -1.
    9900012    2    1    2    0    0 -0.16737906032E+02  0.33824293346E+02 -0.21433222516E+02  0.47787270213E+02  0.19999996208E+02 0.  0.
        -12    1    1    2    0    0  0.16737906032E+02 -0.33824293346E+02  0.21433222516E+02  0.43400729787E+02  0.00000000000E+00 0.  1.
         11    1    3    3    0    0 -0.23845408535E+01  0.70931673206E+01 -0.62343020560E+01  0.97398963088E+01  0.51100000000E-03 0. -1.
        -11    1    3    3    0    0 -0.53114417939E+01  0.23530522250E+02 -0.62262663544E+01  0.24913114705E+02  0.51100000000E-03 0.  1.
        -12    1    3    3    0    0 -0.90419233849E+01  0.32006037745E+01 -0.89726541052E+01  0.13134259199E+02  0.00000000000E+00 0.  1.
</event>
<event>
 7    1  0.2458979E-009  0.4778727E+02  0.7816164E-02  0.1312668E+00
        -11   -1    0    0    0    0  0.00000000000E+00  0.00000000000E+00  0.45593999997E+02  0.45594000000E+02  0.51100000000E-03 0. -1.
         11   -1    0    0    0    0 -0.00000000000E+00 -0.00000000000E+00 -0.45593999997E+02  0.45594000000E+02  0.51100000000E-03 0.  1.
    9900012    2    1    2    0    0 -0.30341556896E+02  0.45004805526E+01  0.30704381831E+02  0.47787268858E+02  0.19999990030E+02 0.  0.
        -12    1    1    2    0    0  0.30341556896E+02 -0.45004805526E+01 -0.30704381831E+02  0.43400731142E+02  0.00000000000E+00 0.  1.
         11    1    3    3    0    0 -0.13521617325E+02 -0.74968994345E+01  0.14250465572E+02  0.21026492943E+02  0.51100000000E-03 0. -1.
        -11    1    3    3    0    0 -0.13039340040E+02  0.69512297795E+01  0.10954356207E+02  0.18394072532E+02  0.51100000000E-03 0.  1.
         12    1    3    3    0    0 -0.37805995308E+01  0.50461502076E+01  0.54995600520E+01  0.83667033828E+01  0.00000000000E+00 0. -1.
</event>
<event>
 7    1  0.2458979E-009  0.4778727E+02  0.7816164E-02  0.1312668E+00
        -11   -1    0    0    0    0  0.00000000000E+00  0.00000000000E+00  0.45593999997E+02  0.45594000000E+02  0.51100000000E-03 0.  1.
         11   -1    0    0    0    0 -0.00000000000E+00 -0.00000000000E+00 -0.45593999997E+02  0.45594000000E+02  0.51100000000E-03 0. -1.
    9900012    2    1    2    0    0  0.23820088905E+02 -0.33897468171E+02 -0.12930124825E+02  0.47787272912E+02  0.20000008514E+02 0.  0.
        -12    1    1    2    0    0 -0.23820088905E+02  0.33897468171E+02  0.12930124825E+02  0.43400727088E+02  0.00000000000E+00 0.  1.
         11    1    3    3    0    0  0.95817159537E+01 -0.91771253920E+01 -0.26966649919E+01  0.13538866770E+02  0.51100000000E-03 0. -1.
        -11    1    3    3    0    0  0.15272223030E+02 -0.10851382731E+02 -0.50180249211E+01  0.19395202443E+02  0.51100000000E-03 0.  1.
         12    1    3    3    0    0 -0.10338500790E+01 -0.13868960047E+02 -0.52154349119E+01  0.14853203698E+02  0.00000000000E+00 0. -1.
</event>
<event>
 7    1  0.2458979E-009  0.4778727E+02  0.7816164E-02  0.1312668E+00
        -11   -1    0    0    0    0  0.00000000000E+00  0.00000000000E+00  0.45593999997E+02  0.45594000000E+02  0.51100000000E-03 0.  1.
         11   -1    0    0    0    0 -0.00000000000E+00 -0.00000000000E+00 -0.45593999997E+02  0.45594000000E+02  0.51100000000E-03 0. -1.
    9900012    2    1    2    0    0  0.14548428347E+02 -0.33195903585E+02 -0.23874635870E+02  0.47787273968E+02  0.20000013330E+02 0.  0.
        -12    1    1    2    0    0 -0.14548428347E+02  0.33195903585E+02  0.23874635870E+02  0.43400726032E+02  0.00000000000E+00 0.  1.
         11    1    3    3    0    0  0.11868598177E+02 -0.96241528366E+01 -0.13186302072E+02  0.20183322400E+02  0.51100000000E-03 0. -1.
        -11    1    3    3    0    0  0.28208202986E+01 -0.17487940211E+02 -0.32773324091E+01  0.18014604851E+02  0.51100000000E-03 0.  1.
         12    1    3    3    0    0 -0.14099012855E+00 -0.60838105377E+01 -0.74110013886E+01  0.95893467169E+01  0.00000000000E+00 0. -1.
</event>
<event>
 7    1  0.2458979E-009  0.4778727E+02  0.7816164E-02  0.1312668E+00
        -11   -1    0    0    0    0  0.00000000000E+00  0.00000000000E+00  0.45593999997E+02  0.45594000000E+02  0.51100000000E-03 0.  1.
         11   -1    0    0    0    0 -0.00000000000E+00 -0.00000000000E+00 -0.45593999997E+02  0.45594000000E+02  0.51100000000E-03 0. -1.
    9900012    2    1    2    0    0 -0.24659728006E+02 -0.13283823330E+02 -0.33152096609E+02  0.47787266629E+02  0.19999979868E+02 0.  0.
        -12    1    1    2    0    0  0.24659728006E+02  0.13283823330E+02  0.33152096609E+02  0.43400733371E+02  0.00000000000E+00 0.  1.
         11    1    3    3    0    0 -0.16747749501E+02 -0.35677332357E+01 -0.17473917123E+02  0.24465355376E+02  0.51100000000E-03 0. -1.
        -11    1    3    3    0    0  0.29389086483E+01 -0.40335822844E+00 -0.27120527094E+01  0.40193422426E+01  0.51100000000E-03 0.  1.
        -12    1    3    3    0    0 -0.10850887154E+02 -0.93127318662E+01 -0.12966126776E+02  0.19302569010E+02  0.00000000000E+00 0.  1.
</event>
<event>
 7    1  0.2458979E-009  0.4778727E+02  0.7816164E-02  0.1312668E+00
        -11   -1    0    0    0    0  0.00000000000E+00  0.00000000000E+00  0.45593999997E+02  0.45594000000E+02  0.51100000000E-03 0.  1.
         11   -1    0    0    0    0 -0.00000000000E+00 -0.00000000000E+00 -0.45593999997E+02  0.45594000000E+02  0.51100000000E-03 0. -1.
    9900012    2    1    2    0    0 -0.30466576130E+02 -0.26873737827E+02  0.15271317425E+02  0.47787272106E+02  0.20000004840E+02 0.  0.
        -12    1    1    2    0    0  0.30466576130E+02  0.26873737827E+02 -0.15271317425E+02  0.43400727894E+02  0.00000000000E+00 0.  1.
         11    1    3    3    0    0 -0.14768496507E+02 -0.12709972657E+02  0.15736464127E+02  0.25045722141E+02  0.51100000000E-03 0. -1.
        -11    1    3    3    0    0 -0.67316210705E+00 -0.49491923842E+01 -0.10602603499E+01  0.51060556939E+01  0.51100000000E-03 0.  1.
         12    1    3    3    0    0 -0.15024917515E+02 -0.92145727850E+01  0.59511364729E+00  0.17635494272E+02  0.00000000000E+00 0. -1.
</event>
<event>
 7    1  0.2458979E-009  0.4778727E+02  0.7816164E-02  0.1312668E+00
        -11   -1    0    0    0    0  0.00000000000E+00  0.00000000000E+00  0.45593999997E+02  0.45594000000E+02  0.51100000000E-03 0.  1.
         11   -1    0    0    0    0 -0.00000000000E+00 -0.00000000000E+00 -0.45593999997E+02  0.45594000000E+02  0.51100000000E-03 0. -1.
    9900012    2    1    2    0    0  0.43009089290E+02  0.39440770600E+01 -0.42761941660E+01  0.47787270260E+02  0.19999996422E+02 0.  0.
        -12    1    1    2    0    0 -0.43009089290E+02 -0.39440770600E+01  0.42761941660E+01  0.43400729740E+02  0.00000000000E+00 0.  1.
         11    1    3    3    0    0  0.15613929070E+02 -0.57486892519E+01  0.42845130456E+01  0.17181363783E+02  0.51100000000E-03 0.  1.
        -11    1    3    3    0    0  0.11880066018E+02  0.19338673599E+01 -0.33933934543E+01  0.12505635968E+02  0.51100000000E-03 0. -1.
         12    1    3    3    0    0  0.15515094202E+02  0.77588989520E+01 -0.51673137573E+01  0.18100270509E+02  0.00000000000E+00 0. -1.
</event>
<event>
 7    1  0.2458979E-009  0.4778727E+02  0.7816164E-02  0.1312668E+00
        -11   -1    0    0    0    0  0.00000000000E+00  0.00000000000E+00  0.45593999997E+02  0.45594000000E+02  0.51100000000E-03 0.  1.
         11   -1    0    0    0    0 -0.00000000000E+00 -0.00000000000E+00 -0.45593999997E+02  0.45594000000E+02  0.51100000000E-03 0. -1.
    9900012    2    1    2    0    0 -0.29666156902E+02 -0.21745862764E+02 -0.23036060132E+02  0.47787268680E+02  0.19999989221E+02 0.  0.
        -12    1    1    2    0    0  0.29666156902E+02  0.21745862764E+02  0.23036060132E+02  0.43400731320E+02  0.00000000000E+00 0.  1.
         11    1    3    3    0    0 -0.51379532859E+01 -0.79607361514E+00 -0.44779706273E+01  0.68618159673E+01  0.51100000000E-03 0. -1.
        -11    1    3    3    0    0 -0.14878229573E+02 -0.11388210756E+02 -0.19829689430E+02  0.27281305735E+02  0.51100000000E-03 0.  1.
        -12    1    3    3    0    0 -0.96499740431E+01 -0.95615783929E+01  0.12715999250E+01  0.13644146978E+02  0.00000000000E+00 0.  1.
</event>
<event>
 7    1  0.2458979E-009  0.4778721E+02  0.7816164E-02  0.1312668E+00
        -11   -1    0    0    0    0  0.00000000000E+00  0.00000000000E+00  0.45593999997E+02  0.45594000000E+02  0.51100000000E-03 0.  1.
         11   -1    0    0    0    0 -0.00000000000E+00 -0.00000000000E+00 -0.45593999997E+02  0.45594000000E+02  0.51100000000E-03 0. -1.
    9900012    2    1    2    0    0  0.27631907962E+02  0.20704684409E+01 -0.33403885536E+02  0.47787208002E+02  0.19999712562E+02 0.  0.
        -12    1    1    2    0    0 -0.27631907962E+02 -0.20704684409E+01  0.33403885536E+02  0.43400791998E+02  0.00000000000E+00 0.  1.
         11    1    3    3    0    0  0.57482067798E+01  0.36713404856E+01 -0.90067330078E+01  0.11297869794E+02  0.51100000000E-03 0. -1.
        -11    1    3    3    0    0  0.73007336528E+01 -0.32223200893E+01 -0.19419357154E+02  0.20995130177E+02  0.51100000000E-03 0.  1.
        -12    1    3    3    0    0  0.14582967529E+02  0.16214480446E+01 -0.49777953739E+01  0.15494208031E+02  0.00000000000E+00 0.  1.
</event>
<event>
 7    1  0.2458979E-009  0.4778727E+02  0.7816164E-02  0.1312668E+00
        -11   -1    0    0    0    0  0.00000000000E+00  0.00000000000E+00  0.45593999997E+02  0.45594000000E+02  0.51100000000E-03 0. -1.
         11   -1    0    0    0    0 -0.00000000000E+00 -0.00000000000E+00 -0.45593999997E+02  0.45594000000E+02  0.51100000000E-03 0.  1.
    9900012    2    1    2    0    0 -0.75108914339E+01 -0.35344162420E+02  0.24041628583E+02  0.47787271755E+02  0.20000003238E+02 0.  0.
        -12    1    1    2    0    0  0.75108914339E+01  0.35344162420E+02 -0.24041628583E+02  0.43400728245E+02  0.00000000000E+00 0.  1.
         11    1    3    3    0    0  0.21383283282E+01 -0.18285076984E+02  0.46530938383E+01  0.18988622143E+02  0.51100000000E-03 0. -1.
        -11    1    3    3    0    0 -0.46314442560E+01 -0.57544018938E+01  0.23642729840E+01  0.77558496670E+01  0.51100000000E-03 0.  1.
         12    1    3    3    0    0 -0.50177755061E+01 -0.11304683542E+02  0.17024261760E+02  0.21042799944E+02  0.00000000000E+00 0. -1.
</event>
<event>
 7    1  0.2458979E-009  0.4778727E+02  0.7816164E-02  0.1312668E+00
        -11   -1    0    0    0    0  0.00000000000E+00  0.00000000000E+00  0.45593999997E+02  0.45594000000E+02  0.51100000000E-03 0.  1.
         11   -1    0    0    0    0 -0.00000000000E+00 -0.00000000000E+00 -0.45593999997E+02  0.45594000000E+02  0.51100000000E-03 0. -1.
    9900012    2    1    2    0    0 -0.18831396254E+02  0.14508804432E+02 -0.36311106421E+02  0.47787270277E+02  0.19999996502E+02 0.  0.
        -12    1    1    2    0    0  0.18831396254E+02 -0.14508804432E+02  0.36311106421E+02  0.43400729723E+02  0.00000000000E+00 0.  1.
         11    1    3    3    0    0 -0.11010127472E+02  0.17270768315E+02 -0.19913813605E+02  0.28566804471E+02  0.51100000000E-03 0. -1.
        -11    1    3    3    0    0 -0.37847061762E+01 -0.13492017171E+01 -0.13422377686E+02  0.14010873246E+02  0.51100000000E-03 0.  1.
        -12    1    3    3    0    0 -0.40365626056E+01 -0.14127621656E+01 -0.29749151307E+01  0.52095925599E+01  0.00000000000E+00 0.  1.
</event>
<event>
 7    1  0.2458979E-009  0.4778727E+02  0.7816164E-02  0.1312668E+00
        -11   -1    0    0    0    0  0.00000000000E+00  0.00000000000E+00  0.45593999997E+02  0.45594000000E+02  0.51100000000E-03 0.  1.
         11   -1    0    0    0    0 -0.00000000000E+00 -0.00000000000E+00 -0.45593999997E+02  0.45594000000E+02  0.51100000000E-03 0. -1.
    9900012    2    1    2    0    0 -0.28289430558E+02 -0.17199051773E+02 -0.28062859531E+02  0.47787270188E+02  0.19999996094E+02 0.  0.
        -12    1    1    2    0    0  0.28289430558E+02  0.17199051773E+02  0.28062859531E+02  0.43400729812E+02  0.00000000000E+00 0.  1.
         11    1    3    3    0    0 -0.80646286211E+01 -0.47420372211E+01 -0.65457513184E-01  0.93557167950E+01  0.51100000000E-03 0. -1.
        -11    1    3    3    0    0 -0.13190418779E+02 -0.10701299962E+02 -0.25738013607E+02  0.30837482276E+02  0.51100000000E-03 0.  1.
        -12    1    3    3    0    0 -0.70343831582E+01 -0.17557145898E+01 -0.22593884112E+01  0.75940711170E+01  0.00000000000E+00 0.  1.
</event>
<event>
 7    1  0.2458979E-009  0.4778728E+02  0.7816164E-02  0.1312668E+00
        -11   -1    0    0    0    0  0.00000000000E+00  0.00000000000E+00  0.45593999997E+02  0.45594000000E+02  0.51100000000E-03 0.  1.
         11   -1    0    0    0    0 -0.00000000000E+00 -0.00000000000E+00 -0.45593999997E+02  0.45594000000E+02  0.51100000000E-03 0. -1.
    9900012    2    1    2    0    0 -0.37535049905E+02 -0.53330219617E+01 -0.21125839012E+02  0.47787283779E+02  0.20000058060E+02 0.  0.
        -12    1    1    2    0    0  0.37535049905E+02  0.53330219617E+01  0.21125839012E+02  0.43400716221E+02  0.00000000000E+00 0.  1.
         11    1    3    3    0    0 -0.59003376363E+01  0.45849608225E+01 -0.95246838553E+01  0.12106008953E+02  0.51100000000E-03 0. -1.
        -11    1    3    3    0    0 -0.27946951889E+02 -0.65745737281E+01 -0.10597621218E+02  0.30603377515E+02  0.51100000000E-03 0.  1.
        -12    1    3    3    0    0 -0.36877603796E+01 -0.33434090561E+01 -0.10035339388E+01  0.50778973109E+01  0.00000000000E+00 0.  1.
</event>
<event>
 7    1  0.2458979E-009  0.4778727E+02  0.7816164E-02  0.1312668E+00
        -11   -1    0    0    0    0  0.00000000000E+00  0.00000000000E+00  0.45593999997E+02  0.45594000000E+02  0.51100000000E-03 0. -1.
         11   -1    0    0    0    0 -0.00000000000E+00 -0.00000000000E+00 -0.45593999997E+02  0.45594000000E+02  0.51100000000E-03 0.  1.
    9900012    2    1    2    0    0 -0.18000505081E+02 -0.46773417053E+01  0.39213868700E+02  0.47787271814E+02  0.20000003510E+02 0.  0.
        -12    1    1    2    0    0  0.18000505081E+02  0.46773417053E+01 -0.39213868700E+02  0.43400728186E+02  0.00000000000E+00 0.  1.
         11    1    3    3    0    0 -0.13822970601E+02  0.37772083474E+01  0.15276125904E+02  0.20945210479E+02  0.51100000000E-03 0. -1.
        -11    1    3    3    0    0 -0.22065608108E+01 -0.54353242367E+01  0.54537537881E+01  0.80096873105E+01  0.51100000000E-03 0.  1.
        -12    1    3    3    0    0 -0.19709736694E+01 -0.30192258160E+01  0.18483989008E+02  0.18832374024E+02  0.00000000000E+00 0.  1.
</event>
<event>
 7    1  0.2458979E-009  0.4778727E+02  0.7816164E-02  0.1312668E+00
        -11   -1    0    0    0    0  0.00000000000E+00  0.00000000000E+00  0.45593999997E+02  0.45594000000E+02  0.51100000000E-03 0.  1.
         11   -1    0    0    0    0 -0.00000000000E+00 -0.00000000000E+00 -0.45593999997E+02  0.45594000000E+02  0.51100000000E-03 0. -1.
    9900012    2    1    2    0    0 -0.43041815471E+02  0.33817036790E+01  0.44260002954E+01  0.47787271003E+02  0.19999999812E+02 0.  0.
        -12    1    1    2    0    0  0.43041815471E+02 -0.33817036790E+01 -0.44260002954E+01  0.43400728997E+02  0.00000000000E+00 0.  1.
         11    1    3    3    0    0 -0.12596517301E+02 -0.56103101418E+01 -0.29337761328E+01  0.14098044924E+02  0.51100000000E-03 0. -1.
        -11    1    3    3    0    0 -0.13809391471E+01  0.83390340922E+00  0.26984057645E+01  0.31438482398E+01  0.51100000000E-03 0.  1.
         12    1    3    3    0    0 -0.29064359023E+02  0.81581104115E+01  0.46613706636E+01  0.30545377840E+02  0.00000000000E+00 0. -1.
</event>
<event>
 7    1  0.2458979E-009  0.4778727E+02  0.7816164E-02  0.1312668E+00
        -11   -1    0    0    0    0  0.00000000000E+00  0.00000000000E+00  0.45593999997E+02  0.45594000000E+02  0.51100000000E-03 0. -1.
         11   -1    0    0    0    0 -0.00000000000E+00 -0.00000000000E+00 -0.45593999997E+02  0.45594000000E+02  0.51100000000E-03 0.  1.
    9900012    2    1    2    0    0  0.24543140956E+02 -0.12655493577E+01  0.35772276717E+02  0.47787272303E+02  0.20000005736E+02 0.  0.
        -12    1    1    2    0    0 -0.24543140956E+02  0.12655493577E+01 -0.35772276717E+02  0.43400727697E+02  0.00000000000E+00 0.  1.
         11    1    3    3    0    0  0.16402742533E+02  0.16471842286E+01  0.11167736208E+02  0.19911843480E+02  0.51100000000E-03 0. -1.
        -11    1    3    3    0    0  0.30581019915E+00 -0.48112995341E+01  0.11771730175E+02  0.12720682162E+02  0.51100000000E-03 0.  1.
         12    1    3    3    0    0  0.78345882240E+01  0.18985659478E+01  0.12832810334E+02  0.15154746661E+02  0.00000000000E+00 0. -1.
</event>
<event>
 7    1  0.2458979E-009  0.4778727E+02  0.7816164E-02  0.1312668E+00
        -11   -1    0    0    0    0  0.00000000000E+00  0.00000000000E+00  0.45593999997E+02  0.45594000000E+02  0.51100000000E-03 0.  1.
         11   -1    0    0    0    0 -0.00000000000E+00 -0.00000000000E+00 -0.45593999997E+02  0.45594000000E+02  0.51100000000E-03 0. -1.
    9900012    2    1    2    0    0 -0.38654191033E+02 -0.16053662504E+02 -0.11478541456E+02  0.47787268691E+02  0.19999989271E+02 0.  0.
        -12    1    1    2    0    0  0.38654191033E+02  0.16053662504E+02  0.11478541456E+02  0.43400731309E+02  0.00000000000E+00 0.  1.
         11    1    3    3    0    0 -0.12699756047E+02 -0.87878917494E+00 -0.11325888602E+02  0.17039126356E+02  0.51100000000E-03 0. -1.
        -11    1    3    3    0    0 -0.16813745419E+02 -0.12757765934E+02 -0.16714241367E+01  0.21172063800E+02  0.51100000000E-03 0.  1.
         12    1    3    3    0    0 -0.91406895672E+01 -0.24171073947E+01  0.15187712831E+01  0.95760785362E+01  0.00000000000E+00 0. -1.
</event>
<event>
 7    1  0.2458979E-009  0.4778730E+02  0.7816164E-02  0.1312668E+00
        -11   -1    0    0    0    0  0.00000000000E+00  0.00000000000E+00  0.45593999997E+02  0.45594000000E+02  0.51100000000E-03 0.  1.
         11   -1    0    0    0    0 -0.00000000000E+00 -0.00000000000E+00 -0.45593999997E+02  0.45594000000E+02  0.51100000000E-03 0. -1.
    9900012    2    1    2    0    0  0.24091867076E+02 -0.13155817525E+02 -0.33617365865E+02  0.47787298605E+02  0.20000125657E+02 0.  0.
        -12    1    1    2    0    0 -0.24091867076E+02  0.13155817525E+02  0.33617365865E+02  0.43400701395E+02  0.00000000000E+00 0.  1.
         11    1    3    3    0    0  0.13785257756E+02 -0.40002294496E+01 -0.86663530836E+01  0.16767255085E+02  0.51100000000E-03 0. -1.
        -11    1    3    3    0    0 -0.22133283183E-01  0.14674749788E+01 -0.95007213625E+01  0.96134114322E+01  0.51100000000E-03 0.  1.
        -12    1    3    3    0    0  0.10328742603E+02 -0.10623063054E+02 -0.15450291418E+02  0.21406632087E+02  0.00000000000E+00 0.  1.
</event>
<event>
 7    1  0.2458979E-009  0.4778727E+02  0.7816164E-02  0.1312668E+00
        -11   -1    0    0    0    0  0.00000000000E+00  0.00000000000E+00  0.45593999997E+02  0.45594000000E+02  0.51100000000E-03 0.  1.
         11   -1    0    0    0    0 -0.00000000000E+00 -0.00000000000E+00 -0.45593999997E+02  0.45594000000E+02  0.51100000000E-03 0. -1.
    9900012    2    1    2    0    0 -0.16106171122E+02  0.14145668278E+02 -0.37737443677E+02  0.47787270346E+02  0.19999996816E+02 0.  0.
        -12    1    1    2    0    0  0.16106171122E+02 -0.14145668278E+02  0.37737443677E+02  0.43400729654E+02  0.00000000000E+00 0.  1.
         11    1    3    3    0    0 -0.14098569938E+02  0.12391960301E+01 -0.11103652197E+02  0.17988784658E+02  0.51100000000E-03 0. -1.
        -11    1    3    3    0    0 -0.25821242613E+01  0.10801900770E+02 -0.23340514178E+02  0.25848172630E+02  0.51100000000E-03 0.  1.
         12    1    3    3    0    0  0.57452307752E+00  0.21045714773E+01 -0.32932773014E+01  0.39503130577E+01  0.00000000000E+00 0. -1.
</event>
<event>
 7    1  0.2458979E-009  0.4778727E+02  0.7816164E-02  0.1312668E+00
        -11   -1    0    0    0    0  0.00000000000E+00  0.00000000000E+00  0.45593999997E+02  0.45594000000E+02  0.51100000000E-03 0. -1.
         11   -1    0    0    0    0 -0.00000000000E+00 -0.00000000000E+00 -0.45593999997E+02  0.45594000000E+02  0.51100000000E-03 0.  1.
    9900012    2    1    2    0    0  0.73545712292E+01  0.42540021466E+02 -0.44587049946E+01  0.47787271958E+02  0.20000004167E+02 0.  0.
        -12    1    1    2    0    0 -0.73545712292E+01 -0.42540021466E+02  0.44587049946E+01  0.43400728042E+02  0.00000000000E+00 0.  1.
         11    1    3    3    0    0  0.54428369526E+01  0.34423683879E+02 -0.67130790454E+01  0.35491969746E+02  0.51100000000E-03 0. -1.
        -11    1    3    3    0    0  0.40436235145E+01  0.38117214713E+00  0.85629100292E+00  0.41508333953E+01  0.51100000000E-03 0.  1.
         12    1    3    3    0    0 -0.21318892379E+01  0.77351654403E+01  0.13980830479E+01  0.81444688175E+01  0.00000000000E+00 0. -1.
</event>
<event>
 7    1  0.2458979E-009  0.4778727E+02  0.7816164E-02  0.1312668E+00
        -11   -1    0    0    0    0  0.00000000000E+00  0.00000000000E+00  0.45593999997E+02  0.45594000000E+02  0.51100000000E-03 0.  1.
         11   -1    0    0    0    0 -0.00000000000E+00 -0.00000000000E+00 -0.45593999997E+02  0.45594000000E+02  0.51100000000E-03 0. -1.
    9900012    2    1    2    0    0 -0.10657242322E+02  0.57875163782E+01 -0.41671944470E+02  0.47787272867E+02  0.20000008311E+02 0.  0.
        -12    1    1    2    0    0  0.10657242322E+02 -0.57875163782E+01  0.41671944470E+02  0.43400727133E+02  0.00000000000E+00 0.  1.
         11    1    3    3    0    0 -0.91501071692E+01  0.33930687113E+01 -0.60689540720E+01  0.11492152987E+02  0.51100000000E-03 0. -1.
        -11    1    3    3    0    0  0.17275877231E+01  0.23214035441E+01 -0.26025194933E+02  0.26185573229E+02  0.51100000000E-03 0.  1.
        -12    1    3    3    0    0 -0.32347228763E+01  0.73044122733E-01 -0.95777954648E+01  0.10109546651E+02  0.00000000000E+00 0.  1.
</event>
<event>
 7    1  0.2458979E-009  0.4778727E+02  0.7816164E-02  0.1312668E+00
        -11   -1    0    0    0    0  0.00000000000E+00  0.00000000000E+00  0.45593999997E+02  0.45594000000E+02  0.51100000000E-03 0.  1.
         11   -1    0    0    0    0 -0.00000000000E+00 -0.00000000000E+00 -0.45593999997E+02  0.45594000000E+02  0.51100000000E-03 0. -1.
    9900012    2    1    2    0    0  0.17293099233E+02 -0.17764816068E+02 -0.35622788334E+02  0.47787273972E+02  0.20000013349E+02 0.  0.
        -12    1    1    2    0    0 -0.17293099233E+02  0.17764816068E+02  0.35622788334E+02  0.43400726028E+02  0.00000000000E+00 0.  1.
         11    1    3    3    0    0  0.17291540199E+02 -0.14214170195E+02 -0.36423751915E+02  0.42751955518E+02  0.51100000000E-03 0. -1.
        -11    1    3    3    0    0  0.99777618576E+00 -0.25072369187E+01 -0.86294786693E+00  0.28331031689E+01  0.51100000000E-03 0.  1.
         12    1    3    3    0    0 -0.99621715129E+00 -0.10434089547E+01  0.16639114475E+01  0.22022152857E+01  0.00000000000E+00 0. -1.
</event>
<event>
 7    1  0.2458979E-009  0.4778727E+02  0.7816164E-02  0.1312668E+00
        -11   -1    0    0    0    0  0.00000000000E+00  0.00000000000E+00  0.45593999997E+02  0.45594000000E+02  0.51100000000E-03 0.  1.
         11   -1    0    0    0    0 -0.00000000000E+00 -0.00000000000E+00 -0.45593999997E+02  0.45594000000E+02  0.51100000000E-03 0. -1.
    9900012    2    1    2    0    0  0.28795116921E+02 -0.19627242498E+02 -0.25869590484E+02  0.47787272836E+02  0.20000008168E+02 0.  0.
        -12    1    1    2    0    0 -0.28795116921E+02  0.19627242498E+02  0.25869590484E+02  0.43400727164E+02  0.00000000000E+00 0.  1.
         11    1    3    3    0    0  0.43415068591E+01 -0.67767696741E+01 -0.60776290189E+01  0.10085180404E+02  0.51100000000E-03 0. -1.
        -11    1    3    3    0    0  0.12290562524E+02 -0.45925541350E+01 -0.18854923963E+02  0.22970799693E+02  0.51100000000E-03 0.  1.
        -12    1    3    3    0    0  0.12163047538E+02 -0.82579186894E+01 -0.93703750244E+00  0.14731292739E+02  0.00000000000E+00 0.  1.
</event>
<event>
 7    1  0.2458979E-009  0.4778727E+02  0.7816164E-02  0.1312668E+00
        -11   -1    0    0    0    0  0.00000000000E+00  0.00000000000E+00  0.45593999997E+02  0.45594000000E+02  0.51100000000E-03 0. -1.
         11   -1    0    0    0    0 -0.00000000000E+00 -0.00000000000E+00 -0.45593999997E+02  0.45594000000E+02  0.51100000000E-03 0.  1.
    9900012    2    1    2    0    0 -0.17826731709E+02 -0.22022184939E+02  0.32876355824E+02  0.47787265385E+02  0.19999974194E+02 0.  0.
        -12    1    1    2    0    0  0.17826731709E+02  0.22022184939E+02 -0.32876355824E+02  0.43400734615E+02  0.00000000000E+00 0.  1.
         11    1    3    3    0    0 -0.75735165849E+01 -0.11957279668E+02  0.28038900384E+02  0.31408830375E+02  0.51100000000E-03 0. -1.
        -11    1    3    3    0    0 -0.10676367553E+02 -0.90316350984E+01  0.55595610742E+01  0.15048720087E+02  0.51100000000E-03 0.  1.
        -12    1    3    3    0    0  0.42315242846E+00 -0.10332701726E+01 -0.72210563439E+00  0.13297149222E+01  0.00000000000E+00 0.  1.
</event>
<event>
 7    1  0.2458979E-009  0.4778727E+02  0.7816164E-02  0.1312668E+00
        -11   -1    0    0    0    0  0.00000000000E+00  0.00000000000E+00  0.45593999997E+02  0.45594000000E+02  0.51100000000E-03 0.  1.
         11   -1    0    0    0    0 -0.00000000000E+00 -0.00000000000E+00 -0.45593999997E+02  0.45594000000E+02  0.51100000000E-03 0. -1.
    9900012    2    1    2    0    0  0.12479771960E+02 -0.20647644977E+02 -0.36077044368E+02  0.47787273259E+02  0.20000010099E+02 0.  0.
        -12    1    1    2    0    0 -0.12479771960E+02  0.20647644977E+02  0.36077044368E+02  0.43400726741E+02  0.00000000000E+00 0.  1.
         11    1    3    3    0    0  0.18415968748E+01 -0.63279223267E+01 -0.26482557131E+02  0.27290289711E+02  0.51100000000E-03 0. -1.
        -11    1    3    3    0    0  0.86827121462E+01 -0.94544801250E+01 -0.73636138738E+01  0.14798631497E+02  0.51100000000E-03 0.  1.
         12    1    3    3    0    0  0.19554629394E+01 -0.48652425255E+01 -0.22308733627E+01  0.56983520512E+01  0.00000000000E+00 0. -1.
</event>
<event>
 7    1  0.2458979E-009  0.4778727E+02  0.7816164E-02  0.1312668E+00
        -11   -1    0    0    0    0  0.00000000000E+00  0.00000000000E+00  0.45593999997E+02  0.45594000000E+02  0.51100000000E-03 0.  1.
         11   -1    0    0    0    0 -0.00000000000E+00 -0.00000000000E+00 -0.45593999997E+02  0.45594000000E+02  0.51100000000E-03 0. -1.
    9900012    2    1    2    0    0  0.24801903119E+02  0.25989792485E+02 -0.24351995302E+02  0.47787269742E+02  0.19999994060E+02 0.  0.
        -12    1    1    2    0    0 -0.24801903119E+02 -0.25989792485E+02  0.24351995302E+02  0.43400730258E+02  0.00000000000E+00 0.  1.
         11    1    3    3    0    0  0.15602093263E+02  0.26268962892E+02 -0.14869171631E+02  0.33979052236E+02  0.51100000000E-03 0. -1.
        -11    1    3    3    0    0  0.63657368733E+01 -0.19568016141E+01 -0.71579530904E+01  0.97769101050E+01  0.51100000000E-03 0.  1.
         12    1    3    3    0    0  0.28340729834E+01  0.16776312077E+01 -0.23248705800E+01  0.40313074006E+01  0.00000000000E+00 0. -1.
</event>
<event>
 7    1  0.2458979E-009  0.4778727E+02  0.7816164E-02  0.1312668E+00
        -11   -1    0    0    0    0  0.00000000000E+00  0.00000000000E+00  0.45593999997E+02  0.45594000000E+02  0.51100000000E-03 0. -1.
         11   -1    0    0    0    0 -0.00000000000E+00 -0.00000000000E+00 -0.45593999997E+02  0.45594000000E+02  0.51100000000E-03 0.  1.
    9900012    2    1    2    0    0  0.46506753171E+01  0.84062280705E+01  0.42324105999E+02  0.47787269593E+02  0.19999993381E+02 0.  0.
        -12    1    1    2    0    0 -0.46506753171E+01 -0.84062280705E+01 -0.42324105999E+02  0.43400730407E+02  0.00000000000E+00 0.  1.
         11    1    3    3    0    0  0.36741721583E+01 -0.16336926131E+01  0.12468137526E+02  0.13100494122E+02  0.51100000000E-03 0. -1.
        -11    1    3    3    0    0 -0.49222334257E+01  0.82973866000E+01  0.99795143449E+01  0.13880407527E+02  0.51100000000E-03 0.  1.
        -12    1    3    3    0    0  0.58987365846E+01  0.17425340836E+01  0.19876454128E+02  0.20806367944E+02  0.00000000000E+00 0.  1.
</event>
<event>
 7    1  0.2458979E-009  0.4778727E+02  0.7816164E-02  0.1312668E+00
        -11   -1    0    0    0    0  0.00000000000E+00  0.00000000000E+00  0.45593999997E+02  0.45594000000E+02  0.51100000000E-03 0.  1.
         11   -1    0    0    0    0 -0.00000000000E+00 -0.00000000000E+00 -0.45593999997E+02  0.45594000000E+02  0.51100000000E-03 0. -1.
    9900012    2    1    2    0    0  0.85450881931E+01  0.21137494059E+02 -0.36929815535E+02  0.47787268868E+02  0.19999990077E+02 0.  0.
        -12    1    1    2    0    0 -0.85450881931E+01 -0.21137494059E+02  0.36929815535E+02  0.43400731132E+02  0.00000000000E+00 0.  1.
         11    1    3    3    0    0  0.40474728040E+01  0.24890925952E+01  0.88612836750E+00  0.48335123659E+01  0.51100000000E-03 0. -1.
        -11    1    3    3    0    0  0.24837659928E+01  0.16768951765E+02 -0.27753891134E+02  0.32521459225E+02  0.51100000000E-03 0.  1.
         12    1    3    3    0    0  0.20138493963E+01  0.18794496997E+01 -0.10062052768E+02  0.10432297277E+02  0.00000000000E+00 0. -1.
</event>
<event>
 7    1  0.2458979E-009  0.4778729E+02  0.7816164E-02  0.1312668E+00
        -11   -1    0    0    0    0  0.00000000000E+00  0.00000000000E+00  0.45593999997E+02  0.45594000000E+02  0.51100000000E-03 0. -1.
         11   -1    0    0    0    0 -0.00000000000E+00 -0.00000000000E+00 -0.45593999997E+02  0.45594000000E+02  0.51100000000E-03 0.  1.
    9900012    2    1    2    0    0  0.36064808578E+02 -0.20076834001E+02  0.13411646700E+02  0.47787286314E+02  0.20000069621E+02 0.  0.
        -12    1    1    2    0    0 -0.36064808578E+02  0.20076834001E+02 -0.13411646700E+02  0.43400713686E+02  0.00000000000E+00 0.  1.
         11    1    3    3    0    0  0.54082516250E+01 -0.50500443065E+01  0.10473680998E+02  0.12823810941E+02  0.51100000000E-03 0. -1.
        -11    1    3    3    0    0  0.43055218458E+01 -0.50948245518E+01  0.87149324191E+00  0.67271283851E+01  0.51100000000E-03 0.  1.
         12    1    3    3    0    0  0.26351035107E+02 -0.99319651421E+01  0.20664724595E+01  0.28236346988E+02  0.00000000000E+00 0. -1.
</event>
<event>
 7    1  0.2458979E-009  0.4778727E+02  0.7816164E-02  0.1312668E+00
        -11   -1    0    0    0    0  0.00000000000E+00  0.00000000000E+00  0.45593999997E+02  0.45594000000E+02  0.51100000000E-03 0.  1.
         11   -1    0    0    0    0 -0.00000000000E+00 -0.00000000000E+00 -0.45593999997E+02  0.45594000000E+02  0.51100000000E-03 0. -1.
    9900012    2    1    2    0    0  0.20862431925E+02 -0.20211781978E+02 -0.32246950538E+02  0.47787274020E+02  0.20000013569E+02 0.  0.
        -12    1    1    2    0    0 -0.20862431925E+02  0.20211781978E+02  0.32246950538E+02  0.43400725980E+02  0.00000000000E+00 0.  1.
         11    1    3    3    0    0  0.47946208468E+01 -0.66342576894E+01 -0.10326341172E+02  0.13177066685E+02  0.51100000000E-03 0. -1.
        -11    1    3    3    0    0  0.20008380164E+01 -0.11649576441E+02 -0.14104576665E+02  0.18402583166E+02  0.51100000000E-03 0.  1.
        -12    1    3    3    0    0  0.14066973062E+02 -0.19279478473E+01 -0.78160327007E+01  0.16207624169E+02  0.00000000000E+00 0.  1.
</event>
<event>
 7    1  0.2458979E-009  0.4778727E+02  0.7816164E-02  0.1312668E+00
        -11   -1    0    0    0    0  0.00000000000E+00  0.00000000000E+00  0.45593999997E+02  0.45594000000E+02  0.51100000000E-03 0. -1.
         11   -1    0    0    0    0 -0.00000000000E+00 -0.00000000000E+00 -0.45593999997E+02  0.45594000000E+02  0.51100000000E-03 0.  1.
    9900012    2    1    2    0    0  0.36515072194E+02 -0.23371626351E+02 -0.20099798027E+01  0.47787269195E+02  0.19999991567E+02 0.  0.
        -12    1    1    2    0    0 -0.36515072194E+02  0.23371626351E+02  0.20099798027E+01  0.43400730805E+02  0.00000000000E+00 0.  1.
         11    1    3    3    0    0  0.17891418717E+02 -0.76113670242E+01 -0.52123158136E+01  0.20129679781E+02  0.51100000000E-03 0. -1.
        -11    1    3    3    0    0  0.12589208562E+02 -0.16291710913E+02  0.52767357192E+01  0.21254457339E+02  0.51100000000E-03 0.  1.
        -12    1    3    3    0    0  0.60344449141E+01  0.53145158557E+00 -0.20743997083E+01  0.64031320742E+01  0.00000000000E+00 0.  1.
</event>
<event>
 7    1  0.2458979E-009  0.4778727E+02  0.7816164E-02  0.1312668E+00
        -11   -1    0    0    0    0  0.00000000000E+00  0.00000000000E+00  0.45593999997E+02  0.45594000000E+02  0.51100000000E-03 0.  1.
         11   -1    0    0    0    0 -0.00000000000E+00 -0.00000000000E+00 -0.45593999997E+02  0.45594000000E+02  0.51100000000E-03 0. -1.
    9900012    2    1    2    0    0 -0.38267035104E+02  0.11469826821E+02 -0.16961744551E+02  0.47787266352E+02  0.19999978606E+02 0.  0.
        -12    1    1    2    0    0  0.38267035104E+02 -0.11469826821E+02  0.16961744551E+02  0.43400733648E+02  0.00000000000E+00 0.  1.
         11    1    3    3    0    0 -0.22824117250E+02  0.42268722498E+01 -0.46813082865E+01  0.23679557107E+02  0.51100000000E-03 0. -1.
        -11    1    3    3    0    0 -0.87203483616E+01  0.12870873574E+00 -0.42200869425E+00  0.87315023384E+01  0.51100000000E-03 0.  1.
         12    1    3    3    0    0 -0.67225694925E+01  0.71142458356E+01 -0.11858427571E+02  0.15376206907E+02  0.00000000000E+00 0. -1.
</event>
<event>
 7    1  0.2458979E-009  0.4778728E+02  0.7816164E-02  0.1312668E+00
        -11   -1    0    0    0    0  0.00000000000E+00  0.00000000000E+00  0.45593999997E+02  0.45594000000E+02  0.51100000000E-03 0.  1.
         11   -1    0    0    0    0 -0.00000000000E+00 -0.00000000000E+00 -0.45593999997E+02  0.45594000000E+02  0.51100000000E-03 0. -1.
    9900012    2    1    2    0    0 -0.22605413015E+02  0.21331960449E+02 -0.30291342860E+02  0.47787277812E+02  0.20000030855E+02 0.  0.
        -12    1    1    2    0    0  0.22605413015E+02 -0.21331960449E+02  0.30291342860E+02  0.43400722188E+02  0.00000000000E+00 0.  1.
         11    1    3    3    0    0 -0.10225844200E+02  0.53348041073E+01 -0.17514604198E+02  0.20971156023E+02  0.51100000000E-03 0. -1.
        -11    1    3    3    0    0 -0.96325042149E+00 -0.92502680776E+00 -0.46616284377E+01  0.48491551761E+01  0.51100000000E-03 0.  1.
         12    1    3    3    0    0 -0.11416318393E+02  0.16922183150E+02 -0.81151102246E+01  0.21966966613E+02  0.00000000000E+00 0. -1.
</event>
<event>
 7    1  0.2458979E-009  0.4778727E+02  0.7816164E-02  0.1312668E+00
        -11   -1    0    0    0    0  0.00000000000E+00  0.00000000000E+00  0.45593999997E+02  0.45594000000E+02  0.51100000000E-03 0.  1.
         11   -1    0    0    0    0 -0.00000000000E+00 -0.00000000000E+00 -0.45593999997E+02  0.45594000000E+02  0.51100000000E-03 0. -1.
    9900012    2    1    2    0    0  0.41942212230E+02  0.10072873119E+02 -0.47970571097E+01  0.47787266175E+02  0.19999977798E+02 0.  0.
        -12    1    1    2    0    0 -0.41942212230E+02 -0.10072873119E+02  0.47970571097E+01  0.43400733825E+02  0.00000000000E+00 0.  1.
         11    1    3    3    0    0  0.13837076670E+02  0.13737582694E+01 -0.28337420093E+01  0.14190912465E+02  0.51100000000E-03 0. -1.
        -11    1    3    3    0    0  0.26435129740E+02  0.98510417075E+01  0.28679830959E+01  0.28356382604E+02  0.51100000000E-03 0.  1.
        -12    1    3    3    0    0  0.16700058200E+01 -0.11519268576E+01 -0.48312981962E+01  0.52399711053E+01  0.00000000000E+00 0.  1.
</event>
<event>
 7    1  0.2458979E-009  0.4778727E+02  0.7816164E-02  0.1312668E+00
        -11   -1    0    0    0    0  0.00000000000E+00  0.00000000000E+00  0.45593999997E+02  0.45594000000E+02  0.51100000000E-03 0.  1.
         11   -1    0    0    0    0 -0.00000000000E+00 -0.00000000000E+00 -0.45593999997E+02  0.45594000000E+02  0.51100000000E-03 0. -1.
    9900012    2    1    2    0    0 -0.33858010014E+02  0.27079755915E+02 -0.19863422150E+01  0.47787267542E+02  0.19999984031E+02 0.  0.
        -12    1    1    2    0    0  0.33858010014E+02 -0.27079755915E+02  0.19863422150E+01  0.43400732458E+02  0.00000000000E+00 0.  1.
         11    1    3    3    0    0 -0.36221523785E+01  0.82667055826E+01 -0.43151099431E+01  0.10003928385E+02  0.51100000000E-03 0. -1.
        -11    1    3    3    0    0 -0.13084852731E+02  0.12912869958E+01  0.16869335679E+01  0.13256188676E+02  0.51100000000E-03 0.  1.
        -12    1    3    3    0    0 -0.17151004905E+02  0.17521763336E+02  0.64183416015E+00  0.24527150481E+02  0.00000000000E+00 0.  1.
</event>
<event>
 7    1  0.2458979E-009  0.4778728E+02  0.7816164E-02  0.1312668E+00
        -11   -1    0    0    0    0  0.00000000000E+00  0.00000000000E+00  0.45593999997E+02  0.45594000000E+02  0.51100000000E-03 0.  1.
         11   -1    0    0    0    0 -0.00000000000E+00 -0.00000000000E+00 -0.45593999997E+02  0.45594000000E+02  0.51100000000E-03 0. -1.
    9900012    2    1    2    0    0 -0.25576051188E+02 -0.22157960977E+02 -0.27175598142E+02  0.47787276925E+02  0.20000026813E+02 0.  0.
        -12    1    1    2    0    0  0.25576051188E+02  0.22157960977E+02  0.27175598142E+02  0.43400723075E+02  0.00000000000E+00 0.  1.
         11    1    3    3    0    0 -0.24221551260E+02 -0.16132002926E+02 -0.25943563968E+02  0.38987094986E+02  0.51100000000E-03 0. -1.
        -11    1    3    3    0    0 -0.21467882235E+01 -0.16697283848E-01  0.96400925520E+00  0.23533577249E+01  0.51100000000E-03 0.  1.
         12    1    3    3    0    0  0.79228829508E+00 -0.60092607672E+01 -0.21960434299E+01  0.64468242148E+01  0.00000000000E+00 0. -1.
</event>
<event>
 7    1  0.2458979E-009  0.4778727E+02  0.7816164E-02  0.1312668E+00
        -11   -1    0    0    0    0  0.00000000000E+00  0.00000000000E+00  0.45593999997E+02  0.45594000000E+02  0.51100000000E-03 0.  1.
         11   -1    0    0    0    0 -0.00000000000E+00 -0.00000000000E+00 -0.45593999997E+02  0.45594000000E+02  0.51100000000E-03 0. -1.
    9900012    2    1    2    0    0 -0.28443202953E+02  0.19451180782E+02 -0.26386721943E+02  0.47787270479E+02  0.19999997424E+02 0.  0.
        -12    1    1    2    0    0  0.28443202953E+02 -0.19451180782E+02  0.26386721943E+02  0.43400729521E+02  0.00000000000E+00 0.  1.
         11    1    3    3    0    0 -0.12951125321E+02  0.14202704792E+02 -0.22891746480E+02  0.29891144637E+02  0.51100000000E-03 0. -1.
        -11    1    3    3    0    0 -0.48553132659E+01 -0.13406725429E+01 -0.11323140875E+01  0.51627129719E+01  0.51100000000E-03 0.  1.
         12    1    3    3    0    0 -0.10636764366E+02  0.65891485327E+01 -0.23626613747E+01  0.12733412871E+02  0.00000000000E+00 0. -1.
</event>
<event>
 7    1  0.2458979E-009  0.4778729E+02  0.7816164E-02  0.1312668E+00
        -11   -1    0    0    0    0  0.00000000000E+00  0.00000000000E+00  0.45593999997E+02  0.45594000000E+02  0.51100000000E-03 0.  1.
         11   -1    0    0    0    0 -0.00000000000E+00 -0.00000000000E+00 -0.45593999997E+02  0.45594000000E+02  0.51100000000E-03 0. -1.
    9900012    2    1    2    0    0 -0.23672147284E+02 -0.11713844605E+02 -0.34438886443E+02  0.47787290191E+02  0.20000087298E+02 0.  0.
        -12    1    1    2    0    0  0.23672147284E+02  0.11713844605E+02  0.34438886443E+02  0.43400709809E+02  0.00000000000E+00 0.  1.
         11    1    3    3    0    0 -0.29820289583E+01 -0.39619739158E+01 -0.93147569943E-01  0.49596784925E+01  0.51100000000E-03 0.  1.
        -11    1    3    3    0    0 -0.44531270972E+01 -0.54022726074E+00 -0.18452016323E+02  0.18989446888E+02  0.51100000000E-03 0. -1.
        -12    1    3    3    0    0 -0.16236991228E+02 -0.72116434284E+01 -0.15893722550E+02  0.23838164811E+02  0.00000000000E+00 0.  1.
</event>
<event>
 7    1  0.2458979E-009  0.4778726E+02  0.7816164E-02  0.1312668E+00
        -11   -1    0    0    0    0  0.00000000000E+00  0.00000000000E+00  0.45593999997E+02  0.45594000000E+02  0.51100000000E-03 0.  1.
         11   -1    0    0    0    0 -0.00000000000E+00 -0.00000000000E+00 -0.45593999997E+02  0.45594000000E+02  0.51100000000E-03 0. -1.
    9900012    2    1    2    0    0 -0.17969105330E+02 -0.27484778496E+02 -0.28378201780E+02  0.47787261163E+02  0.19999954946E+02 0.  0.
        -12    1    1    2    0    0  0.17969105330E+02  0.27484778496E+02  0.28378201780E+02  0.43400738837E+02  0.00000000000E+00 0.  1.
         11    1    3    3    0    0 -0.47604352609E+01 -0.81900722326E+01 -0.85288977555E+01  0.12746808394E+02  0.51100000000E-03 0. -1.
        -11    1    3    3    0    0 -0.12386313460E+02 -0.12385828644E+02 -0.43462424831E+01  0.18047696150E+02  0.51100000000E-03 0.  1.
        -12    1    3    3    0    0 -0.82235660856E+00 -0.69088776192E+01 -0.15503061542E+02  0.16992756619E+02  0.00000000000E+00 0.  1.
</event>
<event>
 7    1  0.2458979E-009  0.4778727E+02  0.7816164E-02  0.1312668E+00
        -11   -1    0    0    0    0  0.00000000000E+00  0.00000000000E+00  0.45593999997E+02  0.45594000000E+02  0.51100000000E-03 0.  1.
         11   -1    0    0    0    0 -0.00000000000E+00 -0.00000000000E+00 -0.45593999997E+02  0.45594000000E+02  0.51100000000E-03 0. -1.
    9900012    2    1    2    0    0 -0.35832525609E+02  0.20690675548E+02 -0.13097681263E+02  0.47787271889E+02  0.20000003850E+02 0.  0.
        -12    1    1    2    0    0  0.35832525609E+02 -0.20690675548E+02  0.13097681263E+02  0.43400728111E+02  0.00000000000E+00 0.  1.
         11    1    3    3    0    0 -0.22989676974E+02  0.16913596468E+02 -0.10737435721E+02  0.30494057109E+02  0.51100000000E-03 0. -1.
        -11    1    3    3    0    0 -0.62075882791E+01 -0.33986511191E+01 -0.25376419219E+01  0.75182849412E+01  0.51100000000E-03 0.  1.
         12    1    3    3    0    0 -0.66352603553E+01  0.71757301991E+01  0.17739637927E+00  0.97749298385E+01  0.00000000000E+00 0. -1.
</event>
<event>
 7    1  0.2458979E-009  0.4778727E+02  0.7816164E-02  0.1312668E+00
        -11   -1    0    0    0    0  0.00000000000E+00  0.00000000000E+00  0.45593999997E+02  0.45594000000E+02  0.51100000000E-03 0.  1.
         11   -1    0    0    0    0 -0.00000000000E+00 -0.00000000000E+00 -0.45593999997E+02  0.45594000000E+02  0.51100000000E-03 0. -1.
    9900012    2    1    2    0    0 -0.18686359891E+02 -0.29644880587E+02 -0.25605162983E+02  0.47787270025E+02  0.19999995353E+02 0.  0.
        -12    1    1    2    0    0  0.18686359891E+02  0.29644880587E+02  0.25605162983E+02  0.43400729975E+02  0.00000000000E+00 0.  1.
         11    1    3    3    0    0  0.12095026629E+01 -0.12998183357E+01 -0.18431828617E+01  0.25592474910E+01  0.51100000000E-03 0. -1.
        -11    1    3    3    0    0 -0.62565504268E+01 -0.18004733137E+02 -0.47443180390E+01  0.19642387648E+02  0.51100000000E-03 0.  1.
        -12    1    3    3    0    0 -0.13639312127E+02 -0.10340329113E+02 -0.19017662082E+02  0.25585634886E+02  0.00000000000E+00 0.  1.
</event>
<event>
 7    1  0.2458979E-009  0.4778727E+02  0.7816164E-02  0.1312668E+00
        -11   -1    0    0    0    0  0.00000000000E+00  0.00000000000E+00  0.45593999997E+02  0.45594000000E+02  0.51100000000E-03 0.  1.
         11   -1    0    0    0    0 -0.00000000000E+00 -0.00000000000E+00 -0.45593999997E+02  0.45594000000E+02  0.51100000000E-03 0. -1.
    9900012    2    1    2    0    0 -0.16642274727E+02 -0.99239216791E+01 -0.38835213383E+02  0.47787270420E+02  0.19999997151E+02 0.  0.
        -12    1    1    2    0    0  0.16642274727E+02  0.99239216791E+01  0.38835213383E+02  0.43400729580E+02  0.00000000000E+00 0.  1.
         11    1    3    3    0    0 -0.19354836010E+01 -0.12643825171E+02 -0.19779938077E+02  0.23555431694E+02  0.51100000000E-03 0. -1.
        -11    1    3    3    0    0 -0.11309726849E+02  0.23090562051E+01 -0.14448420476E+02  0.18493201899E+02  0.51100000000E-03 0.  1.
         12    1    3    3    0    0 -0.33970642772E+01  0.41084728675E+00 -0.46068548308E+01  0.57386368267E+01  0.00000000000E+00 0. -1.
</event>
<event>
 7    1  0.2458979E-009  0.4778727E+02  0.7816164E-02  0.1312668E+00
        -11   -1    0    0    0    0  0.00000000000E+00  0.00000000000E+00  0.45593999997E+02  0.45594000000E+02  0.51100000000E-03 0.  1.
         11   -1    0    0    0    0 -0.00000000000E+00 -0.00000000000E+00 -0.45593999997E+02  0.45594000000E+02  0.51100000000E-03 0. -1.
    9900012    2    1    2    0    0 -0.16417406924E+02 -0.19888236409E+02 -0.34907738580E+02  0.47787269473E+02  0.19999992834E+02 0.  0.
        -12    1    1    2    0    0  0.16417406924E+02  0.19888236409E+02  0.34907738580E+02  0.43400730527E+02  0.00000000000E+00 0.  1.
         11    1    3    3    0    0 -0.15235777698E+02 -0.14977363085E+02 -0.23159072453E+02  0.31508617301E+02  0.51100000000E-03 0. -1.
        -11    1    3    3    0    0 -0.16979964617E+01  0.61849637829E+00  0.12136168180E+01  0.21768315957E+01  0.51100000000E-03 0.  1.
         12    1    3    3    0    0  0.51636723647E+00 -0.55293697025E+01 -0.12962282945E+02  0.14101820576E+02  0.00000000000E+00 0. -1.
</event>
<event>
 7    1  0.2458979E-009  0.4778727E+02  0.7816164E-02  0.1312668E+00
        -11   -1    0    0    0    0  0.00000000000E+00  0.00000000000E+00  0.45593999997E+02  0.45594000000E+02  0.51100000000E-03 0.  1.
         11   -1    0    0    0    0 -0.00000000000E+00 -0.00000000000E+00 -0.45593999997E+02  0.45594000000E+02  0.51100000000E-03 0. -1.
    9900012    2    1    2    0    0  0.31894145954E+02  0.74634523334E+01 -0.28472502827E+02  0.47787273230E+02  0.20000009967E+02 0.  0.
        -12    1    1    2    0    0 -0.31894145954E+02 -0.74634523334E+01  0.28472502827E+02  0.43400726770E+02  0.00000000000E+00 0.  1.
         11    1    3    3    0    0  0.28718459018E+02  0.12477177445E+02 -0.21749373564E+02  0.38124337320E+02  0.51100000000E-03 0. -1.
        -11    1    3    3    0    0  0.30306315379E+01 -0.53515340244E+01 -0.50731139223E+01  0.79724606655E+01  0.51100000000E-03 0.  1.
         12    1    3    3    0    0  0.14505539812E+00  0.33780891309E+00 -0.16500153405E+01  0.16904752450E+01  0.00000000000E+00 0. -1.
</event>
<event>
 7    1  0.2458979E-009  0.4778727E+02  0.7816164E-02  0.1312668E+00
        -11   -1    0    0    0    0  0.00000000000E+00  0.00000000000E+00  0.45593999997E+02  0.45594000000E+02  0.51100000000E-03 0.  1.
         11   -1    0    0    0    0 -0.00000000000E+00 -0.00000000000E+00 -0.45593999997E+02  0.45594000000E+02  0.51100000000E-03 0. -1.
    9900012    2    1    2    0    0  0.32565400975E+02 -0.26487670732E+02 -0.11023689559E+02  0.47787265295E+02  0.19999973784E+02 0.  0.
        -12    1    1    2    0    0 -0.32565400975E+02  0.26487670732E+02  0.11023689559E+02  0.43400734705E+02  0.00000000000E+00 0.  1.
         11    1    3    3    0    0  0.51226592841E+01 -0.12078931341E+02  0.11359581217E+01  0.13169381975E+02  0.51100000000E-03 0. -1.
        -11    1    3    3    0    0  0.11923586484E+02 -0.22644867211E+01 -0.15442933029E+01  0.12234568109E+02  0.51100000000E-03 0.  1.
         12    1    3    3    0    0  0.15519155207E+02 -0.12144252670E+02 -0.10615354378E+02  0.22383315211E+02  0.00000000000E+00 0. -1.
</event>
<event>
 7    1  0.2458979E-009  0.4778728E+02  0.7816164E-02  0.1312668E+00
        -11   -1    0    0    0    0  0.00000000000E+00  0.00000000000E+00  0.45593999997E+02  0.45594000000E+02  0.51100000000E-03 0.  1.
         11   -1    0    0    0    0 -0.00000000000E+00 -0.00000000000E+00 -0.45593999997E+02  0.45594000000E+02  0.51100000000E-03 0. -1.
    9900012    2    1    2    0    0  0.37110124871E+02 -0.20439674806E+02 -0.94170640019E+01  0.47787276866E+02  0.20000026544E+02 0.  0.
        -12    1    1    2    0    0 -0.37110124871E+02  0.20439674806E+02  0.94170640019E+01  0.43400723134E+02  0.00000000000E+00 0.  1.
         11    1    3    3    0    0  0.10455420843E+02  0.12814845949E+01 -0.37213183027E+01  0.11171671225E+02  0.51100000000E-03 0. -1.
        -11    1    3    3    0    0  0.11064035948E+02 -0.15872869136E+02 -0.48272914125E+01  0.19941504675E+02  0.51100000000E-03 0.  1.
         12    1    3    3    0    0  0.15590668080E+02 -0.58482902649E+01 -0.86845428683E+00  0.16674100967E+02  0.00000000000E+00 0. -1.
</event>
<event>
 7    1  0.2458979E-009  0.4778727E+02  0.7816164E-02  0.1312668E+00
        -11   -1    0    0    0    0  0.00000000000E+00  0.00000000000E+00  0.45593999997E+02  0.45594000000E+02  0.51100000000E-03 0.  1.
         11   -1    0    0    0    0 -0.00000000000E+00 -0.00000000000E+00 -0.45593999997E+02  0.45594000000E+02  0.51100000000E-03 0. -1.
    9900012    2    1    2    0    0 -0.34116518579E+02  0.71693200958E+01 -0.25851255609E+02  0.47787269509E+02  0.19999992999E+02 0.  0.
        -12    1    1    2    0    0  0.34116518579E+02 -0.71693200958E+01  0.25851255609E+02  0.43400730491E+02  0.00000000000E+00 0.  1.
         11    1    3    3    0    0 -0.16274174107E+02  0.10597253982E+02 -0.93139635771E+01  0.21538348419E+02  0.51100000000E-03 0. -1.
        -11    1    3    3    0    0 -0.10212976790E+02 -0.28361266487E+01 -0.15122058376E+02  0.18466866520E+02  0.51100000000E-03 0.  1.
         12    1    3    3    0    0 -0.76293676816E+01 -0.59180723749E+00 -0.14152336553E+01  0.77820545697E+01  0.00000000000E+00 0. -1.
</event>
<event>
 7    1  0.2458979E-009  0.4778727E+02  0.7816164E-02  0.1312668E+00
        -11   -1    0    0    0    0  0.00000000000E+00  0.00000000000E+00  0.45593999997E+02  0.45594000000E+02  0.51100000000E-03 0.  1.
         11   -1    0    0    0    0 -0.00000000000E+00 -0.00000000000E+00 -0.45593999997E+02  0.45594000000E+02  0.51100000000E-03 0. -1.
    9900012    2    1    2    0    0  0.13933322307E+02  0.23719625837E+02 -0.33568807902E+02  0.47787274380E+02  0.20000015209E+02 0.  0.
        -12    1    1    2    0    0 -0.13933322307E+02 -0.23719625837E+02  0.33568807902E+02  0.43400725620E+02  0.00000000000E+00 0.  1.
         11    1    3    3    0    0  0.99824090202E+00  0.32927477755E+01 -0.85085945789E+01  0.91779548256E+01  0.51100000000E-03 0. -1.
        -11    1    3    3    0    0  0.13494246111E+02  0.18178061724E+02 -0.27245658910E+02  0.35424038954E+02  0.51100000000E-03 0.  1.
        -12    1    3    3    0    0 -0.55916470577E+00  0.22488163380E+01  0.21854455869E+01  0.31852806005E+01  0.00000000000E+00 0.  1.
</event>
<event>
 7    1  0.2458979E-009  0.4778728E+02  0.7816164E-02  0.1312668E+00
        -11   -1    0    0    0    0  0.00000000000E+00  0.00000000000E+00  0.45593999997E+02  0.45594000000E+02  0.51100000000E-03 0.  1.
         11   -1    0    0    0    0 -0.00000000000E+00 -0.00000000000E+00 -0.45593999997E+02  0.45594000000E+02  0.51100000000E-03 0. -1.
    9900012    2    1    2    0    0  0.28747332466E+02  0.16087781676E+02 -0.28255919545E+02  0.47787276129E+02  0.20000023181E+02 0.  0.
        -12    1    1    2    0    0 -0.28747332466E+02 -0.16087781676E+02  0.28255919545E+02  0.43400723871E+02  0.00000000000E+00 0.  1.
         11    1    3    3    0    0  0.12206019808E+02  0.84581826636E+01 -0.24579905586E+02  0.28717582287E+02  0.51100000000E-03 0. -1.
        -11    1    3    3    0    0  0.13223937854E+02  0.47023228842E+01 -0.41092094977E+01  0.14624294028E+02  0.51100000000E-03 0.  1.
         12    1    3    3    0    0  0.33173748048E+01  0.29272761286E+01  0.43319553826E+00  0.44453998136E+01  0.00000000000E+00 0. -1.
</event>
<event>
 7    1  0.2458979E-009  0.4778727E+02  0.7816164E-02  0.1312668E+00
        -11   -1    0    0    0    0  0.00000000000E+00  0.00000000000E+00  0.45593999997E+02  0.45594000000E+02  0.51100000000E-03 0.  1.
         11   -1    0    0    0    0 -0.00000000000E+00 -0.00000000000E+00 -0.45593999997E+02  0.45594000000E+02  0.51100000000E-03 0. -1.
    9900012    2    1    2    0    0 -0.31688220957E+02 -0.18000385570E+02 -0.23568328579E+02  0.47787270281E+02  0.19999996521E+02 0.  0.
        -12    1    1    2    0    0  0.31688220957E+02  0.18000385570E+02  0.23568328579E+02  0.43400729719E+02  0.00000000000E+00 0.  1.
         11    1    3    3    0    0 -0.91600890754E+01 -0.58962961233E+01 -0.63826632220E+01  0.12625843731E+02  0.51100000000E-03 0. -1.
        -11    1    3    3    0    0 -0.43317916469E+01 -0.11343072373E+02 -0.93970427576E+01  0.15353635484E+02  0.51100000000E-03 0.  1.
        -12    1    3    3    0    0 -0.18196340235E+02 -0.76101707364E+00 -0.77886225992E+01  0.19807791066E+02  0.00000000000E+00 0.  1.
</event>
<event>
 7    1  0.2458979E-009  0.4778727E+02  0.7816164E-02  0.1312668E+00
        -11   -1    0    0    0    0  0.00000000000E+00  0.00000000000E+00  0.45593999997E+02  0.45594000000E+02  0.51100000000E-03 0.  1.
         11   -1    0    0    0    0 -0.00000000000E+00 -0.00000000000E+00 -0.45593999997E+02  0.45594000000E+02  0.51100000000E-03 0. -1.
    9900012    2    1    2    0    0 -0.21021098053E+02  0.23134975313E+02 -0.30108300011E+02  0.47787269872E+02  0.19999994654E+02 0.  0.
        -12    1    1    2    0    0  0.21021098053E+02 -0.23134975313E+02  0.30108300011E+02  0.43400730128E+02  0.00000000000E+00 0.  1.
         11    1    3    3    0    0 -0.96262273012E+01  0.22221796278E+02 -0.15331915653E+02  0.28662521168E+02  0.51100000000E-03 0. -1.
        -11    1    3    3    0    0 -0.33094112074E+01 -0.13934887145E+01 -0.58324032471E+01  0.68491562426E+01  0.51100000000E-03 0.  1.
         12    1    3    3    0    0 -0.80854595447E+01  0.23066677499E+01 -0.89439811108E+01  0.12275592461E+02  0.00000000000E+00 0. -1.
</event>
<event>
 7    1  0.2458979E-009  0.4778727E+02  0.7816164E-02  0.1312668E+00
        -11   -1    0    0    0    0  0.00000000000E+00  0.00000000000E+00  0.45593999997E+02  0.45594000000E+02  0.51100000000E-03 0.  1.
         11   -1    0    0    0    0 -0.00000000000E+00 -0.00000000000E+00 -0.45593999997E+02  0.45594000000E+02  0.51100000000E-03 0. -1.
    9900012    2    1    2    0    0 -0.88461871548E+01 -0.42462472255E+01 -0.42276914554E+02  0.47787272507E+02  0.20000006668E+02 0.  0.
        -12    1    1    2    0    0  0.88461871548E+01  0.42462472255E+01  0.42276914554E+02  0.43400727493E+02  0.00000000000E+00 0.  1.
         11    1    3    3    0    0 -0.19778541793E+01  0.76937863749E+00 -0.49559415604E+01  0.53912157863E+01  0.51100000000E-03 0. -1.
        -11    1    3    3    0    0  0.56421502310E+01 -0.48741052657E+01 -0.16478455565E+02  0.18086742643E+02  0.51100000000E-03 0.  1.
        -12    1    3    3    0    0 -0.12510483206E+02 -0.14152059727E+00 -0.20842517429E+02  0.24309314077E+02  0.00000000000E+00 0.  1.
</event>
<event>
 7    1  0.2458979E-009  0.4778726E+02  0.7816164E-02  0.1312668E+00
        -11   -1    0    0    0    0  0.00000000000E+00  0.00000000000E+00  0.45593999997E+02  0.45594000000E+02  0.51100000000E-03 0. -1.
         11   -1    0    0    0    0 -0.00000000000E+00 -0.00000000000E+00 -0.45593999997E+02  0.45594000000E+02  0.51100000000E-03 0.  1.
    9900012    2    1    2    0    0  0.16538925193E+02  0.37674525814E+02  0.13810067940E+02  0.47787263620E+02  0.19999966148E+02 0.  0.
        -12    1    1    2    0    0 -0.16538925193E+02 -0.37674525814E+02 -0.13810067940E+02  0.43400736380E+02  0.00000000000E+00 0.  1.
         11    1    3    3    0    0  0.13859565665E+02  0.25936871259E+02  0.10170187428E+02  0.31116580206E+02  0.51100000000E-03 0. -1.
        -11    1    3    3    0    0 -0.23501269365E+01  0.20512545217E+01 -0.26330576743E+01  0.40821237987E+01  0.51100000000E-03 0.  1.
        -12    1    3    3    0    0  0.50294864647E+01  0.96864000325E+01  0.62729381861E+01  0.12588559615E+02  0.00000000000E+00 0.  1.
</event>
<event>
 7    1  0.2458979E-009  0.4778727E+02  0.7816164E-02  0.1312668E+00
        -11   -1    0    0    0    0  0.00000000000E+00  0.00000000000E+00  0.45593999997E+02  0.45594000000E+02  0.51100000000E-03 0.  1.
         11   -1    0    0    0    0 -0.00000000000E+00 -0.00000000000E+00 -0.45593999997E+02  0.45594000000E+02  0.51100000000E-03 0. -1.
    9900012    2    1    2    0    0  0.95820836487E+01 -0.21217913113E+02 -0.36627958751E+02  0.47787268137E+02  0.19999986745E+02 0.  0.
        -12    1    1    2    0    0 -0.95820836487E+01  0.21217913113E+02  0.36627958751E+02  0.43400731863E+02  0.00000000000E+00 0.  1.
         11    1    3    3    0    0  0.36694017009E+01 -0.57392225315E+01 -0.15114794048E+02  0.16578907789E+02  0.51100000000E-03 0. -1.
        -11    1    3    3    0    0  0.10639822653E+02 -0.12378638688E+02 -0.12459289383E+02  0.20534615021E+02  0.51100000000E-03 0.  1.
        -12    1    3    3    0    0 -0.47271407056E+01 -0.31000518938E+01 -0.90538753204E+01  0.10673745327E+02  0.00000000000E+00 0.  1.
</event>
<event>
 7    1  0.2458979E-009  0.4778727E+02  0.7816164E-02  0.1312668E+00
        -11   -1    0    0    0    0  0.00000000000E+00  0.00000000000E+00  0.45593999997E+02  0.45594000000E+02  0.51100000000E-03 0.  1.
         11   -1    0    0    0    0 -0.00000000000E+00 -0.00000000000E+00 -0.45593999997E+02  0.45594000000E+02  0.51100000000E-03 0. -1.
    9900012    2    1    2    0    0 -0.57311760035E+01  0.23980028439E+02 -0.35717429913E+02  0.47787274869E+02  0.20000017436E+02 0.  0.
        -12    1    1    2    0    0  0.57311760035E+01 -0.23980028439E+02  0.35717429913E+02  0.43400725131E+02  0.00000000000E+00 0.  1.
         11    1    3    3    0    0 -0.84251603808E+01  0.56670021393E+01 -0.97150469671E+01  0.14052771204E+02  0.51100000000E-03 0. -1.
        -11    1    3    3    0    0  0.21955477833E+01  0.18885429166E+02 -0.26649928038E+02  0.32736806954E+02  0.51100000000E-03 0.  1.
         12    1    3    3    0    0  0.49843659408E+00 -0.57240286646E+00  0.64754509172E+00  0.99769671025E+00  0.00000000000E+00 0. -1.
</event>
<event>
 7    1  0.2458979E-009  0.4778727E+02  0.7816164E-02  0.1312668E+00
        -11   -1    0    0    0    0  0.00000000000E+00  0.00000000000E+00  0.45593999997E+02  0.45594000000E+02  0.51100000000E-03 0.  1.
         11   -1    0    0    0    0 -0.00000000000E+00 -0.00000000000E+00 -0.45593999997E+02  0.45594000000E+02  0.51100000000E-03 0. -1.
    9900012    2    1    2    0    0 -0.41630752677E+02 -0.35700216674E+01 -0.11737061238E+02  0.47787271554E+02  0.20000002323E+02 0.  0.
        -12    1    1    2    0    0  0.41630752677E+02  0.35700216674E+01  0.11737061238E+02  0.43400728446E+02  0.00000000000E+00 0.  1.
         11    1    3    3    0    0 -0.22129821282E+02  0.34964107447E+01  0.17344950071E+01  0.22471367365E+02  0.51100000000E-03 0. -1.
        -11    1    3    3    0    0 -0.30775865642E+01 -0.33731133661E+01 -0.34736334461E+01  0.57372085913E+01  0.51100000000E-03 0.  1.
         12    1    3    3    0    0 -0.16423344831E+02 -0.36933190461E+01 -0.99979227990E+01  0.19578695598E+02  0.00000000000E+00 0. -1.
</event>
<event>
 7    1  0.2458979E-009  0.4778727E+02  0.7816164E-02  0.1312668E+00
        -11   -1    0    0    0    0  0.00000000000E+00  0.00000000000E+00  0.45593999997E+02  0.45594000000E+02  0.51100000000E-03 0. -1.
         11   -1    0    0    0    0 -0.00000000000E+00 -0.00000000000E+00 -0.45593999997E+02  0.45594000000E+02  0.51100000000E-03 0.  1.
    9900012    2    1    2    0    0 -0.27977359183E+02  0.25668295575E+02  0.21024495675E+02  0.47787269096E+02  0.19999991118E+02 0.  0.
        -12    1    1    2    0    0  0.27977359183E+02 -0.25668295575E+02 -0.21024495675E+02  0.43400730904E+02  0.00000000000E+00 0.  1.
         11    1    3    3    0    0  0.10039550865E+01 -0.16956956894E+01  0.26673422387E+01  0.33163269692E+01  0.51100000000E-03 0. -1.
        -11    1    3    3    0    0 -0.21301211322E+02  0.16209021532E+02  0.10100329737E+02  0.28609275487E+02  0.51100000000E-03 0.  1.
         12    1    3    3    0    0 -0.76801029473E+01  0.11154969733E+02  0.82568236988E+01  0.15861666640E+02  0.00000000000E+00 0. -1.
</event>
<event>
 7    1  0.2458979E-009  0.4778727E+02  0.7816164E-02  0.1312668E+00
        -11   -1    0    0    0    0  0.00000000000E+00  0.00000000000E+00  0.45593999997E+02  0.45594000000E+02  0.51100000000E-03 0.  1.
         11   -1    0    0    0    0 -0.00000000000E+00 -0.00000000000E+00 -0.45593999997E+02  0.45594000000E+02  0.51100000000E-03 0. -1.
    9900012    2    1    2    0    0 -0.10337490794E+02 -0.41693910533E+02 -0.61949562993E+01  0.47787269879E+02  0.19999994687E+02 0.  0.
        -12    1    1    2    0    0  0.10337490794E+02  0.41693910533E+02  0.61949562993E+01  0.43400730121E+02  0.00000000000E+00 0.  1.
         11    1    3    3    0    0 -0.59794100969E+01 -0.73267452423E+01 -0.73921467098E+01  0.12003265147E+02  0.51100000000E-03 0. -1.
        -11    1    3    3    0    0 -0.62829767492E+01 -0.30999588049E+02  0.24055964930E+01  0.31721241318E+02  0.51100000000E-03 0.  1.
        -12    1    3    3    0    0  0.19248960524E+01 -0.33675772422E+01 -0.12084060825E+01  0.40627634136E+01  0.00000000000E+00 0.  1.
</event>
<event>
 7    1  0.2458979E-009  0.4778727E+02  0.7816164E-02  0.1312668E+00
        -11   -1    0    0    0    0  0.00000000000E+00  0.00000000000E+00  0.45593999997E+02  0.45594000000E+02  0.51100000000E-03 0.  1.
         11   -1    0    0    0    0 -0.00000000000E+00 -0.00000000000E+00 -0.45593999997E+02  0.45594000000E+02  0.51100000000E-03 0. -1.
    9900012    2    1    2    0    0 -0.53536331405E+01  0.25800289031E+02 -0.34486330441E+02  0.47787270868E+02  0.19999999195E+02 0.  0.
        -12    1    1    2    0    0  0.53536331405E+01 -0.25800289031E+02  0.34486330441E+02  0.43400729132E+02  0.00000000000E+00 0.  1.
         11    1    3    3    0    0 -0.21147308701E+01  0.17451582089E+02 -0.23020842698E+02  0.28965306883E+02  0.51100000000E-03 0. -1.
        -11    1    3    3    0    0 -0.26553757957E+01 -0.23705687029E+01 -0.71766184785E+00  0.36312057750E+01  0.51100000000E-03 0.  1.
        -12    1    3    3    0    0 -0.58352647473E+00  0.10719275645E+02 -0.10747825896E+02  0.15190758210E+02  0.00000000000E+00 0.  1.
</event>
<event>
 7    1  0.2458979E-009  0.4778727E+02  0.7816164E-02  0.1312668E+00
        -11   -1    0    0    0    0  0.00000000000E+00  0.00000000000E+00  0.45593999997E+02  0.45594000000E+02  0.51100000000E-03 0.  1.
         11   -1    0    0    0    0 -0.00000000000E+00 -0.00000000000E+00 -0.45593999997E+02  0.45594000000E+02  0.51100000000E-03 0. -1.
    9900012    2    1    2    0    0 -0.20855606203E+00 -0.16436999264E+02 -0.40167212403E+02  0.47787269676E+02  0.19999993760E+02 0.  0.
        -12    1    1    2    0    0  0.20855606203E+00  0.16436999264E+02  0.40167212403E+02  0.43400730324E+02  0.00000000000E+00 0.  1.
         11    1    3    3    0    0 -0.61476339695E+01 -0.11073617047E+02 -0.12401043822E+02  0.17725808474E+02  0.51100000000E-03 0. -1.
        -11    1    3    3    0    0  0.26022212090E+01  0.20366236677E+01 -0.63473681894E+01  0.71560096686E+01  0.51100000000E-03 0.  1.
         12    1    3    3    0    0  0.33368566984E+01 -0.74000058852E+01 -0.21418800392E+02  0.22905451533E+02  0.00000000000E+00 0. -1.
</event>
<event>
 7    1  0.2458979E-009  0.4778727E+02  0.7816164E-02  0.1312668E+00
        -11   -1    0    0    0    0  0.00000000000E+00  0.00000000000E+00  0.45593999997E+02  0.45594000000E+02  0.51100000000E-03 0. -1.
         11   -1    0    0    0    0 -0.00000000000E+00 -0.00000000000E+00 -0.45593999997E+02  0.45594000000E+02  0.51100000000E-03 0.  1.
    9900012    2    1    2    0    0 -0.30664843318E+02  0.45868425962E+01  0.30368599009E+02  0.47787267904E+02  0.19999985681E+02 0.  0.
        -12    1    1    2    0    0  0.30664843318E+02 -0.45868425962E+01 -0.30368599009E+02  0.43400732096E+02  0.00000000000E+00 0.  1.
         11    1    3    3    0    0 -0.21346941007E+02  0.98019941999E+01  0.26463406748E+02  0.35384783137E+02  0.51100000000E-03 0. -1.
        -11    1    3    3    0    0 -0.83000518581E+01 -0.39469840782E+01  0.12311493857E+01  0.92728244473E+01  0.51100000000E-03 0.  1.
        -12    1    3    3    0    0 -0.10178504522E+01 -0.12681675255E+01  0.26740428758E+01  0.31296603198E+01  0.00000000000E+00 0.  1.
</event>
<event>
 7    1  0.2458979E-009  0.4778727E+02  0.7816164E-02  0.1312668E+00
        -11   -1    0    0    0    0  0.00000000000E+00  0.00000000000E+00  0.45593999997E+02  0.45594000000E+02  0.51100000000E-03 0. -1.
         11   -1    0    0    0    0 -0.00000000000E+00 -0.00000000000E+00 -0.45593999997E+02  0.45594000000E+02  0.51100000000E-03 0.  1.
    9900012    2    1    2    0    0  0.30972377688E+01 -0.42220999182E+02  0.95612541896E+01  0.47787271488E+02  0.20000002022E+02 0.  0.
        -12    1    1    2    0    0 -0.30972377688E+01  0.42220999182E+02 -0.95612541896E+01  0.43400728512E+02  0.00000000000E+00 0.  1.
         11    1    3    3    0    0  0.68824094918E+01 -0.34467004716E+02  0.76053524594E+01  0.35960858732E+02  0.51100000000E-03 0. -1.
        -11    1    3    3    0    0  0.59503498575E+00 -0.34072645682E+00 -0.21718605737E+01  0.22775293117E+01  0.51100000000E-03 0.  1.
         12    1    3    3    0    0 -0.43802067087E+01 -0.74132680092E+01  0.41277623039E+01  0.95488834439E+01  0.00000000000E+00 0. -1.
</event>
<event>
 7    1  0.2458979E-009  0.4778727E+02  0.7816164E-02  0.1312668E+00
        -11   -1    0    0    0    0  0.00000000000E+00  0.00000000000E+00  0.45593999997E+02  0.45594000000E+02  0.51100000000E-03 0. -1.
         11   -1    0    0    0    0 -0.00000000000E+00 -0.00000000000E+00 -0.45593999997E+02  0.45594000000E+02  0.51100000000E-03 0.  1.
    9900012    2    1    2    0    0 -0.49194118736E+01  0.43076557079E+02 -0.19577370396E+01  0.47787272849E+02  0.20000008227E+02 0.  0.
        -12    1    1    2    0    0  0.49194118736E+01 -0.43076557079E+02  0.19577370396E+01  0.43400727151E+02  0.00000000000E+00 0.  1.
         11    1    3    3    0    0  0.10756351292E+01  0.33758562633E+02 -0.47041552752E+01  0.34101709915E+02  0.51100000000E-03 0. -1.
        -11    1    3    3    0    0  0.21469784559E-01 -0.11242349714E+01  0.10065081156E+01  0.15091136705E+01  0.51100000000E-03 0.  1.
        -12    1    3    3    0    0 -0.60165167873E+01  0.10442229417E+02  0.17399101200E+01  0.12176449264E+02  0.00000000000E+00 0.  1.
</event>
<event>
 7    1  0.2458979E-009  0.4778727E+02  0.7816164E-02  0.1312668E+00
        -11   -1    0    0    0    0  0.00000000000E+00  0.00000000000E+00  0.45593999997E+02  0.45594000000E+02  0.51100000000E-03 0. -1.
         11   -1    0    0    0    0 -0.00000000000E+00 -0.00000000000E+00 -0.45593999997E+02  0.45594000000E+02  0.51100000000E-03 0.  1.
    9900012    2    1    2    0    0 -0.34656617019E+02 -0.16262079608E+02 -0.20447179532E+02  0.47787268587E+02  0.19999988795E+02 0.  0.
        -12    1    1    2    0    0  0.34656617019E+02  0.16262079608E+02  0.20447179532E+02  0.43400731413E+02  0.00000000000E+00 0.  1.
         11    1    3    3    0    0 -0.30755438860E+02 -0.84262714777E+01 -0.17631020063E+02  0.36438330632E+02  0.51100000000E-03 0. -1.
        -11    1    3    3    0    0 -0.41206249593E+01 -0.72737047947E+01  0.11068554514E+00  0.83605372463E+01  0.51100000000E-03 0.  1.
        -12    1    3    3    0    0  0.21944680042E+00 -0.56210333553E+00 -0.29268450144E+01  0.29884007088E+01  0.00000000000E+00 0.  1.
</event>
<event>
 7    1  0.2458979E-009  0.4778727E+02  0.7816164E-02  0.1312668E+00
        -11   -1    0    0    0    0  0.00000000000E+00  0.00000000000E+00  0.45593999997E+02  0.45594000000E+02  0.51100000000E-03 0.  1.
         11   -1    0    0    0    0 -0.00000000000E+00 -0.00000000000E+00 -0.45593999997E+02  0.45594000000E+02  0.51100000000E-03 0. -1.
    9900012    2    1    2    0    0  0.15937831607E+02  0.15814821748E+02 -0.37141621124E+02  0.47787273244E+02  0.20000010027E+02 0.  0.
        -12    1    1    2    0    0 -0.15937831607E+02 -0.15814821748E+02  0.37141621124E+02  0.43400726756E+02  0.00000000000E+00 0.  1.
         11    1    3    3    0    0 -0.21219441086E+01 -0.22539838020E+01 -0.86170743866E+01  0.91562580253E+01  0.51100000000E-03 0. -1.
        -11    1    3    3    0    0  0.12398159609E+02  0.14509074646E+02 -0.23458140172E+02  0.30240898620E+02  0.51100000000E-03 0.  1.
        -12    1    3    3    0    0  0.56616161063E+01  0.35597309036E+01 -0.50664065660E+01  0.83901165983E+01  0.00000000000E+00 0.  1.
</event>
<event>
 7    1  0.2458979E-009  0.4778727E+02  0.7816164E-02  0.1312668E+00
        -11   -1    0    0    0    0  0.00000000000E+00  0.00000000000E+00  0.45593999997E+02  0.45594000000E+02  0.51100000000E-03 0.  1.
         11   -1    0    0    0    0 -0.00000000000E+00 -0.00000000000E+00 -0.45593999997E+02  0.45594000000E+02  0.51100000000E-03 0. -1.
    9900012    2    1    2    0    0 -0.26334376965E+02  0.26516298548E+02  0.22068296420E+02  0.47787271830E+02  0.20000003580E+02 0.  0.
        -12    1    1    2    0    0  0.26334376965E+02 -0.26516298548E+02 -0.22068296420E+02  0.43400728170E+02  0.00000000000E+00 0.  1.
         11    1    3    3    0    0 -0.13861988036E+02  0.19849717937E+02  0.20175305094E+02  0.31515217759E+02  0.51100000000E-03 0. -1.
        -11    1    3    3    0    0 -0.70131999835E+01 -0.49791076818E-01 -0.11306162832E+01  0.71039247322E+01  0.51100000000E-03 0.  1.
        -12    1    3    3    0    0 -0.54591889452E+01  0.67163716884E+01  0.30236076096E+01  0.91681293388E+01  0.00000000000E+00 0.  1.
</event>
<event>
 7    1  0.2458979E-009  0.4778727E+02  0.7816164E-02  0.1312668E+00
        -11   -1    0    0    0    0  0.00000000000E+00  0.00000000000E+00  0.45593999997E+02  0.45594000000E+02  0.51100000000E-03 0.  1.
         11   -1    0    0    0    0 -0.00000000000E+00 -0.00000000000E+00 -0.45593999997E+02  0.45594000000E+02  0.51100000000E-03 0. -1.
    9900012    2    1    2    0    0  0.20032184884E+02 -0.35521597825E+02 -0.14850957320E+02  0.47787271013E+02  0.19999999859E+02 0.  0.
        -12    1    1    2    0    0 -0.20032184884E+02  0.35521597825E+02  0.14850957320E+02  0.43400728987E+02  0.00000000000E+00 0.  1.
         11    1    3    3    0    0  0.15917750476E+02 -0.15310269862E+02 -0.11885510153E+02  0.25080759464E+02  0.51100000000E-03 0. -1.
        -11    1    3    3    0    0  0.30218918298E+01 -0.86581201243E+01  0.30126037388E+01  0.96524948001E+01  0.51100000000E-03 0.  1.
         12    1    3    3    0    0  0.10925425779E+01 -0.11553207838E+02 -0.59780509065E+01  0.13054016749E+02  0.00000000000E+00 0. -1.
</event>
<event>
 7    1  0.2458979E-009  0.4778727E+02  0.7816164E-02  0.1312668E+00
        -11   -1    0    0    0    0  0.00000000000E+00  0.00000000000E+00  0.45593999997E+02  0.45594000000E+02  0.51100000000E-03 0.  1.
         11   -1    0    0    0    0 -0.00000000000E+00 -0.00000000000E+00 -0.45593999997E+02  0.45594000000E+02  0.51100000000E-03 0. -1.
    9900012    2    1    2    0    0 -0.59494620918E+01  0.42906844491E+02 -0.26888929965E+01  0.47787267876E+02  0.19999985555E+02 0.  0.
        -12    1    1    2    0    0  0.59494620918E+01 -0.42906844491E+02  0.26888929965E+01  0.43400732124E+02  0.00000000000E+00 0.  1.
         11    1    3    3    0    0  0.12326699915E+01  0.19860572249E+02 -0.64326453818E+01  0.20912693089E+02  0.51100000000E-03 0. -1.
        -11    1    3    3    0    0 -0.79242086610E+01  0.23841809088E+02  0.45338884124E+01  0.25530003680E+02  0.51100000000E-03 0.  1.
        -12    1    3    3    0    0  0.74207657772E+00 -0.79553684634E+00 -0.79013602713E+00  0.13445711073E+01  0.00000000000E+00 0.  1.
</event>
<event>
 7    1  0.2458979E-009  0.4778727E+02  0.7816164E-02  0.1312668E+00
        -11   -1    0    0    0    0  0.00000000000E+00  0.00000000000E+00  0.45593999997E+02  0.45594000000E+02  0.51100000000E-03 0.  1.
         11   -1    0    0    0    0 -0.00000000000E+00 -0.00000000000E+00 -0.45593999997E+02  0.45594000000E+02  0.51100000000E-03 0. -1.
    9900012    2    1    2    0    0 -0.21764812603E+01  0.16318212632E+02 -0.40157216755E+02  0.47787271991E+02  0.20000004317E+02 0.  0.
        -12    1    1    2    0    0  0.21764812603E+01 -0.16318212632E+02  0.40157216755E+02  0.43400728009E+02  0.00000000000E+00 0.  1.
         11    1    3    3    0    0  0.25788587874E+01 -0.72890303349E+00 -0.86228670569E+01  0.90297092323E+01  0.51100000000E-03 0.  1.
        -11    1    3    3    0    0 -0.83919746828E+00  0.17036931687E+02 -0.30080383744E+02  0.34580207925E+02  0.51100000000E-03 0. -1.
        -12    1    3    3    0    0 -0.39161425794E+01  0.10183978556E-01 -0.14539659544E+01  0.41773548343E+01  0.00000000000E+00 0.  1.
</event>
<event>
 7    1  0.2458979E-009  0.4778727E+02  0.7816164E-02  0.1312668E+00
        -11   -1    0    0    0    0  0.00000000000E+00  0.00000000000E+00  0.45593999997E+02  0.45594000000E+02  0.51100000000E-03 0.  1.
         11   -1    0    0    0    0 -0.00000000000E+00 -0.00000000000E+00 -0.45593999997E+02  0.45594000000E+02  0.51100000000E-03 0. -1.
    9900012    2    1    2    0    0  0.12163646451E+02 -0.33805146520E+02 -0.24349142680E+02  0.47787274482E+02  0.20000015672E+02 0.  0.
        -12    1    1    2    0    0 -0.12163646451E+02  0.33805146520E+02  0.24349142680E+02  0.43400725518E+02  0.00000000000E+00 0.  1.
         11    1    3    3    0    0 -0.12025637901E+01 -0.38617400401E+01 -0.23358306380E+01  0.46706852642E+01  0.51100000000E-03 0. -1.
        -11    1    3    3    0    0  0.77332765681E+01 -0.30437195378E+02 -0.18209283501E+02  0.36301576204E+02  0.51100000000E-03 0.  1.
        -12    1    3    3    0    0  0.56329336728E+01  0.49378889829E+00 -0.38040285410E+01  0.68150130139E+01  0.00000000000E+00 0.  1.
</event>
<event>
 7    1  0.2458979E-009  0.4778728E+02  0.7816164E-02  0.1312668E+00
        -11   -1    0    0    0    0  0.00000000000E+00  0.00000000000E+00  0.45593999997E+02  0.45594000000E+02  0.51100000000E-03 0.  1.
         11   -1    0    0    0    0 -0.00000000000E+00 -0.00000000000E+00 -0.45593999997E+02  0.45594000000E+02  0.51100000000E-03 0. -1.
    9900012    2    1    2    0    0 -0.25149715357E+02 -0.28592960453E+02 -0.20822037723E+02  0.47787276217E+02  0.20000023582E+02 0.  0.
        -12    1    1    2    0    0  0.25149715357E+02  0.28592960453E+02  0.20822037723E+02  0.43400723783E+02  0.00000000000E+00 0.  1.
         11    1    3    3    0    0 -0.76856622970E+01 -0.18425512737E+02 -0.15598533557E+02  0.25335413436E+02  0.51100000000E-03 0. -1.
        -11    1    3    3    0    0 -0.17093682347E+02 -0.11401442310E+02 -0.48918973357E+01  0.21121494331E+02  0.51100000000E-03 0.  1.
         12    1    3    3    0    0 -0.37037071229E+00  0.12339945944E+01 -0.33160683017E+00  0.13303684502E+01  0.00000000000E+00 0. -1.
</event>
<event>
 7    1  0.2458979E-009  0.4778727E+02  0.7816164E-02  0.1312668E+00
        -11   -1    0    0    0    0  0.00000000000E+00  0.00000000000E+00  0.45593999997E+02  0.45594000000E+02  0.51100000000E-03 0.  1.
         11   -1    0    0    0    0 -0.00000000000E+00 -0.00000000000E+00 -0.45593999997E+02  0.45594000000E+02  0.51100000000E-03 0. -1.
    9900012    2    1    2    0    0 -0.36251045699E+02  0.12825892525E+02 -0.20124153170E+02  0.47787269889E+02  0.19999994734E+02 0.  0.
        -12    1    1    2    0    0  0.36251045699E+02 -0.12825892525E+02  0.20124153170E+02  0.43400730111E+02  0.00000000000E+00 0.  1.
         11    1    3    3    0    0 -0.16549913244E+02  0.77069947677E+01 -0.19597578840E+02  0.26783623604E+02  0.51100000000E-03 0. -1.
        -11    1    3    3    0    0 -0.10390862231E+02  0.41115919510E-01 -0.15073559693E+00  0.10392036851E+02  0.51100000000E-03 0.  1.
        -12    1    3    3    0    0 -0.93102702237E+01  0.50777818382E+01 -0.37583873302E+00  0.10611609434E+02  0.00000000000E+00 0.  1.
</event>
<event>
 7    1  0.2458979E-009  0.4778728E+02  0.7816164E-02  0.1312668E+00
        -11   -1    0    0    0    0  0.00000000000E+00  0.00000000000E+00  0.45593999997E+02  0.45594000000E+02  0.51100000000E-03 0. -1.
         11   -1    0    0    0    0 -0.00000000000E+00 -0.00000000000E+00 -0.45593999997E+02  0.45594000000E+02  0.51100000000E-03 0.  1.
    9900012    2    1    2    0    0 -0.17225926512E+02 -0.39345793385E+02  0.62288561274E+01  0.47787278232E+02  0.20000032773E+02 0.  0.
        -12    1    1    2    0    0  0.17225926512E+02  0.39345793385E+02 -0.62288561274E+01  0.43400721768E+02  0.00000000000E+00 0.  1.
         11    1    3    3    0    0 -0.37018609358E+00 -0.74213013292E+01  0.37200786089E+01  0.83097374375E+01  0.51100000000E-03 0. -1.
        -11    1    3    3    0    0 -0.10413684934E+02 -0.30001376710E+02 -0.12371518664E+01  0.31781409399E+02  0.51100000000E-03 0.  1.
        -12    1    3    3    0    0 -0.64420554846E+01 -0.19231153455E+01  0.37459293850E+01  0.76961313954E+01  0.00000000000E+00 0.  1.
</event>
<event>
 7    1  0.2458979E-009  0.4778728E+02  0.7816164E-02  0.1312668E+00
        -11   -1    0    0    0    0  0.00000000000E+00  0.00000000000E+00  0.45593999997E+02  0.45594000000E+02  0.51100000000E-03 0.  1.
         11   -1    0    0    0    0 -0.00000000000E+00 -0.00000000000E+00 -0.45593999997E+02  0.45594000000E+02  0.51100000000E-03 0. -1.
    9900012    2    1    2    0    0  0.47372772561E+01  0.24985396213E+02 -0.35169743325E+02  0.47787278056E+02  0.20000031967E+02 0.  0.
        -12    1    1    2    0    0 -0.47372772561E+01 -0.24985396213E+02  0.35169743325E+02  0.43400721944E+02  0.00000000000E+00 0.  1.
         11    1    3    3    0    0  0.28665330557E+01  0.30534627656E+01 -0.72545837061E+01  0.83767315601E+01  0.51100000000E-03 0.  1.
        -11    1    3    3    0    0 -0.24078188167E+01 -0.32391896473E+00 -0.10640072359E+02  0.10913920240E+02  0.51100000000E-03 0. -1.
        -12    1    3    3    0    0  0.42785630171E+01  0.22255852412E+02 -0.17275087260E+02  0.28496626255E+02  0.00000000000E+00 0.  1.
</event>
<event>
 7    1  0.2458979E-009  0.4778723E+02  0.7816164E-02  0.1312668E+00
        -11   -1    0    0    0    0  0.00000000000E+00  0.00000000000E+00  0.45593999997E+02  0.45594000000E+02  0.51100000000E-03 0. -1.
         11   -1    0    0    0    0 -0.00000000000E+00 -0.00000000000E+00 -0.45593999997E+02  0.45594000000E+02  0.51100000000E-03 0.  1.
    9900012    2    1    2    0    0  0.17329011756E+02  0.39486696001E+02 -0.49124955880E+01  0.47787234772E+02  0.19999834618E+02 0.  0.
        -12    1    1    2    0    0 -0.17329011756E+02 -0.39486696001E+02  0.49124955880E+01  0.43400765228E+02  0.00000000000E+00 0.  1.
         11    1    3    3    0    0  0.15462647601E+02  0.37369088059E+02 -0.67199253737E+01  0.40996336549E+02  0.51100000000E-03 0. -1.
        -11    1    3    3    0    0  0.32541656635E+01 -0.76823424612E+00  0.94513338824E+00  0.34746302545E+01  0.51100000000E-03 0.  1.
         12    1    3    3    0    0 -0.13878015082E+01  0.28858421881E+01  0.86229639745E+00  0.33162679684E+01  0.00000000000E+00 0. -1.
</event>
<event>
 7    1  0.2458979E-009  0.4778727E+02  0.7816164E-02  0.1312668E+00
        -11   -1    0    0    0    0  0.00000000000E+00  0.00000000000E+00  0.45593999997E+02  0.45594000000E+02  0.51100000000E-03 0.  1.
         11   -1    0    0    0    0 -0.00000000000E+00 -0.00000000000E+00 -0.45593999997E+02  0.45594000000E+02  0.51100000000E-03 0. -1.
    9900012    2    1    2    0    0  0.14701582142E+01 -0.15227009785E+02 -0.40615271843E+02  0.47787268451E+02  0.19999988174E+02 0.  0.
        -12    1    1    2    0    0 -0.14701582142E+01  0.15227009785E+02  0.40615271843E+02  0.43400731549E+02  0.00000000000E+00 0.  1.
         11    1    3    3    0    0  0.54703267712E+01 -0.46195688546E+01 -0.23043286431E+02  0.24130021574E+02  0.51100000000E-03 0. -1.
        -11    1    3    3    0    0  0.53619232409E+00 -0.47652575457E+01 -0.22665960358E+00  0.48006829225E+01  0.51100000000E-03 0.  1.
        -12    1    3    3    0    0 -0.45363608811E+01 -0.58421833847E+01 -0.17345325809E+02  0.18856563954E+02  0.00000000000E+00 0.  1.
</event>
<event>
 7    1  0.2458979E-009  0.4778727E+02  0.7816164E-02  0.1312668E+00
        -11   -1    0    0    0    0  0.00000000000E+00  0.00000000000E+00  0.45593999997E+02  0.45594000000E+02  0.51100000000E-03 0. -1.
         11   -1    0    0    0    0 -0.00000000000E+00 -0.00000000000E+00 -0.45593999997E+02  0.45594000000E+02  0.51100000000E-03 0.  1.
    9900012    2    1    2    0    0  0.30340202163E+02  0.35363553987E+01  0.30831631186E+02  0.47787272375E+02  0.20000006068E+02 0.  0.
        -12    1    1    2    0    0 -0.30340202163E+02 -0.35363553987E+01 -0.30831631186E+02  0.43400727625E+02  0.00000000000E+00 0.  1.
         11    1    3    3    0    0  0.20081306445E+02  0.42939165958E+00  0.18934257465E+02  0.27603430072E+02  0.51100000000E-03 0. -1.
        -11    1    3    3    0    0  0.84320717971E+00  0.50770167339E+00  0.10226905076E+02  0.10274159188E+02  0.51100000000E-03 0.  1.
         12    1    3    3    0    0  0.94156885386E+01  0.25992620658E+01  0.16704686445E+01  0.99096831148E+01  0.00000000000E+00 0. -1.
</event>
<event>
 7    1  0.2458979E-009  0.4778725E+02  0.7816164E-02  0.1312668E+00
        -11   -1    0    0    0    0  0.00000000000E+00  0.00000000000E+00  0.45593999997E+02  0.45594000000E+02  0.51100000000E-03 0. -1.
         11   -1    0    0    0    0 -0.00000000000E+00 -0.00000000000E+00 -0.45593999997E+02  0.45594000000E+02  0.51100000000E-03 0.  1.
    9900012    2    1    2    0    0  0.12912228806E+02  0.25413085775E+02 -0.32727275148E+02  0.47787249776E+02  0.19999903031E+02 0.  0.
        -12    1    1    2    0    0 -0.12912228806E+02 -0.25413085775E+02  0.32727275148E+02  0.43400750224E+02  0.00000000000E+00 0.  1.
         11    1    3    3    0    0  0.43234915316E+01  0.78463843566E+01 -0.96191262953E+00  0.90101943743E+01  0.51100000000E-03 0. -1.
        -11    1    3    3    0    0  0.10921756808E+02  0.15576938919E+02 -0.25639508168E+02  0.31926637424E+02  0.51100000000E-03 0.  1.
        -12    1    3    3    0    0 -0.23330195336E+01  0.19897624994E+01 -0.61258543503E+01  0.68504179777E+01  0.00000000000E+00 0.  1.
</event>
<event>
 7    1  0.2458979E-009  0.4778727E+02  0.7816164E-02  0.1312668E+00
        -11   -1    0    0    0    0  0.00000000000E+00  0.00000000000E+00  0.45593999997E+02  0.45594000000E+02  0.51100000000E-03 0.  1.
         11   -1    0    0    0    0 -0.00000000000E+00 -0.00000000000E+00 -0.45593999997E+02  0.45594000000E+02  0.51100000000E-03 0. -1.
    9900012    2    1    2    0    0  0.21306303277E+02 -0.50232582379E+01 -0.37475747348E+02  0.47787270491E+02  0.19999997475E+02 0.  0.
        -12    1    1    2    0    0 -0.21306303277E+02  0.50232582379E+01  0.37475747348E+02  0.43400729509E+02  0.00000000000E+00 0.  1.
         11    1    3    3    0    0 -0.22188829849E+00 -0.58026494830E+01 -0.92672800990E+01  0.10936290785E+02  0.51100000000E-03 0. -1.
        -11    1    3    3    0    0  0.20717924735E+02 -0.43227777569E+00 -0.21023324189E+02  0.29519475429E+02  0.51100000000E-03 0.  1.
         12    1    3    3    0    0  0.81026684144E+00  0.12116690207E+01 -0.71851430599E+01  0.73315042769E+01  0.00000000000E+00 0. -1.
</event>
<event>
 7    1  0.2458979E-009  0.4778723E+02  0.7816164E-02  0.1312668E+00
        -11   -1    0    0    0    0  0.00000000000E+00  0.00000000000E+00  0.45593999997E+02  0.45594000000E+02  0.51100000000E-03 0.  1.
         11   -1    0    0    0    0 -0.00000000000E+00 -0.00000000000E+00 -0.45593999997E+02  0.45594000000E+02  0.51100000000E-03 0. -1.
    9900012    2    1    2    0    0  0.24127679862E+01 -0.64091550915E+01 -0.42857064852E+02  0.47787231273E+02  0.19999818665E+02 0.  0.
        -12    1    1    2    0    0 -0.24127679862E+01  0.64091550915E+01  0.42857064852E+02  0.43400768727E+02  0.00000000000E+00 0.  1.
         11    1    3    3    0    0  0.40104821326E+01 -0.27856295397E+01 -0.82961444677E+01  0.96265109026E+01  0.51100000000E-03 0. -1.
        -11    1    3    3    0    0  0.27749178761E+01  0.52998889240E+01 -0.98200101403E+01  0.11498764770E+02  0.51100000000E-03 0.  1.
        -12    1    3    3    0    0 -0.43726320224E+01 -0.89234144758E+01 -0.24740910244E+02  0.26661955600E+02  0.00000000000E+00 0.  1.
</event>
<event>
 7    1  0.2458979E-009  0.4778727E+02  0.7816164E-02  0.1312668E+00
        -11   -1    0    0    0    0  0.00000000000E+00  0.00000000000E+00  0.45593999997E+02  0.45594000000E+02  0.51100000000E-03 0.  1.
         11   -1    0    0    0    0 -0.00000000000E+00 -0.00000000000E+00 -0.45593999997E+02  0.45594000000E+02  0.51100000000E-03 0. -1.
    9900012    2    1    2    0    0  0.11751623947E+02  0.35222568594E+02 -0.22469826954E+02  0.47787272735E+02  0.20000007708E+02 0.  0.
        -12    1    1    2    0    0 -0.11751623947E+02 -0.35222568594E+02  0.22469826954E+02  0.43400727265E+02  0.00000000000E+00 0.  1.
         11    1    3    3    0    0  0.17275882336E+01  0.37116179892E+01  0.13402801872E+01  0.43077860258E+01  0.51100000000E-03 0. -1.
        -11    1    3    3    0    0 -0.63082776511E-01 -0.16844365191E+01 -0.11639120224E+01  0.20484133569E+01  0.51100000000E-03 0.  1.
         12    1    3    3    0    0  0.10087118490E+02  0.33195387124E+02 -0.22646195119E+02  0.41431073352E+02  0.00000000000E+00 0. -1.
</event>
<event>
 7    1  0.2458979E-009  0.4778727E+02  0.7816164E-02  0.1312668E+00
        -11   -1    0    0    0    0  0.00000000000E+00  0.00000000000E+00  0.45593999997E+02  0.45594000000E+02  0.51100000000E-03 0.  1.
         11   -1    0    0    0    0 -0.00000000000E+00 -0.00000000000E+00 -0.45593999997E+02  0.45594000000E+02  0.51100000000E-03 0. -1.
    9900012    2    1    2    0    0  0.82159653255E+01  0.16477615834E+02 -0.39301517621E+02  0.47787271929E+02  0.20000004034E+02 0.  0.
        -12    1    1    2    0    0 -0.82159653255E+01 -0.16477615834E+02  0.39301517621E+02  0.43400728071E+02  0.00000000000E+00 0.  1.
         11    1    3    3    0    0 -0.16165582887E+01 -0.68569481250E+00 -0.17739423668E+02  0.17826121014E+02  0.51100000000E-03 0. -1.
        -11    1    3    3    0    0  0.49475145051E+01  0.13947801223E+02 -0.13737917630E+02  0.20192806635E+02  0.51100000000E-03 0.  1.
         12    1    3    3    0    0  0.48850091090E+01  0.32155094230E+01 -0.78241763230E+01  0.97683442803E+01  0.00000000000E+00 0. -1.
</event>
<event>
 7    1  0.2458979E-009  0.4778727E+02  0.7816164E-02  0.1312668E+00
        -11   -1    0    0    0    0  0.00000000000E+00  0.00000000000E+00  0.45593999997E+02  0.45594000000E+02  0.51100000000E-03 0. -1.
         11   -1    0    0    0    0 -0.00000000000E+00 -0.00000000000E+00 -0.45593999997E+02  0.45594000000E+02  0.51100000000E-03 0.  1.
    9900012    2    1    2    0    0 -0.14492409365E+01 -0.12653914118E+02  0.41489774223E+02  0.47787271816E+02  0.20000003517E+02 0.  0.
        -12    1    1    2    0    0  0.14492409365E+01  0.12653914118E+02 -0.41489774223E+02  0.43400728184E+02  0.00000000000E+00 0.  1.
         11    1    3    3    0    0 -0.38121085763E+01 -0.10841532481E+02  0.28520070544E+02  0.30748421463E+02  0.51100000000E-03 0. -1.
        -11    1    3    3    0    0  0.14612810306E+01  0.81909092607E+00 -0.15336258547E+01  0.22711804681E+01  0.51100000000E-03 0.  1.
         12    1    3    3    0    0  0.90158660911E+00 -0.26314725630E+01  0.14503329534E+02  0.14767669885E+02  0.00000000000E+00 0. -1.
</event>
<event>
 7    1  0.2458979E-009  0.4778727E+02  0.7816164E-02  0.1312668E+00
        -11   -1    0    0    0    0  0.00000000000E+00  0.00000000000E+00  0.45593999997E+02  0.45594000000E+02  0.51100000000E-03 0.  1.
         11   -1    0    0    0    0 -0.00000000000E+00 -0.00000000000E+00 -0.45593999997E+02  0.45594000000E+02  0.51100000000E-03 0. -1.
    9900012    2    1    2    0    0 -0.21383112154E+02  0.16820608220E+02 -0.33814982007E+02  0.47787270116E+02  0.19999995769E+02 0.  0.
        -12    1    1    2    0    0  0.21383112154E+02 -0.16820608220E+02  0.33814982007E+02  0.43400729884E+02  0.00000000000E+00 0.  1.
         11    1    3    3    0    0 -0.23264994429E+02  0.15252282506E+02 -0.33941781924E+02  0.43885494732E+02  0.51100000000E-03 0. -1.
        -11    1    3    3    0    0  0.37820570676E+00  0.22747850168E+00  0.14338625663E+01  0.15002493611E+01  0.51100000000E-03 0.  1.
         12    1    3    3    0    0  0.15036765687E+01  0.13408472130E+01 -0.13070626496E+01  0.24015260236E+01  0.00000000000E+00 0. -1.
</event>
<event>
 7    1  0.2458979E-009  0.4778728E+02  0.7816164E-02  0.1312668E+00
        -11   -1    0    0    0    0  0.00000000000E+00  0.00000000000E+00  0.45593999997E+02  0.45594000000E+02  0.51100000000E-03 0.  1.
         11   -1    0    0    0    0 -0.00000000000E+00 -0.00000000000E+00 -0.45593999997E+02  0.45594000000E+02  0.51100000000E-03 0. -1.
    9900012    2    1    2    0    0 -0.19894406985E+02 -0.38128295253E+02 -0.58367686793E+01  0.47787283453E+02  0.20000056575E+02 0.  0.
        -12    1    1    2    0    0  0.19894406985E+02  0.38128295253E+02  0.58367686793E+01  0.43400716547E+02  0.00000000000E+00 0.  1.
         11    1    3    3    0    0  0.39686844161E+00 -0.66407751735E+01  0.43691855910E+01  0.79590943238E+01  0.51100000000E-03 0. -1.
        -11    1    3    3    0    0 -0.10959720869E+02 -0.21382292622E+02 -0.27547198488E+01  0.24184838247E+02  0.51100000000E-03 0.  1.
         12    1    3    3    0    0 -0.93315545579E+01 -0.10105227457E+02 -0.74512344215E+01  0.15643350882E+02  0.00000000000E+00 0. -1.
</event>
<event>
 7    1  0.2458979E-009  0.4778728E+02  0.7816164E-02  0.1312668E+00
        -11   -1    0    0    0    0  0.00000000000E+00  0.00000000000E+00  0.45593999997E+02  0.45594000000E+02  0.51100000000E-03 0.  1.
         11   -1    0    0    0    0 -0.00000000000E+00 -0.00000000000E+00 -0.45593999997E+02  0.45594000000E+02  0.51100000000E-03 0. -1.
    9900012    2    1    2    0    0  0.36413816079E+01 -0.42145326902E+02 -0.97022750516E+01  0.47787281332E+02  0.20000046906E+02 0.  0.
        -12    1    1    2    0    0 -0.36413816079E+01  0.42145326902E+02  0.97022750516E+01  0.43400718668E+02  0.00000000000E+00 0.  1.
         11    1    3    3    0    0  0.49088928840E+01 -0.18409603956E+02 -0.72821223971E+01  0.20397059936E+02  0.51100000000E-03 0. -1.
        -11    1    3    3    0    0 -0.54186097687E+01 -0.22145944886E+02 -0.25629411369E+01  0.22942817488E+02  0.51100000000E-03 0.  1.
        -12    1    3    3    0    0  0.41510984926E+01 -0.15897780594E+01  0.14278848242E+00  0.44474039083E+01  0.00000000000E+00 0.  1.
</event>
<event>
 7    1  0.2458979E-009  0.4778727E+02  0.7816164E-02  0.1312668E+00
        -11   -1    0    0    0    0  0.00000000000E+00  0.00000000000E+00  0.45593999997E+02  0.45594000000E+02  0.51100000000E-03 0.  1.
         11   -1    0    0    0    0 -0.00000000000E+00 -0.00000000000E+00 -0.45593999997E+02  0.45594000000E+02  0.51100000000E-03 0. -1.
    9900012    2    1    2    0    0 -0.83329590361E+01  0.23587282781E+02 -0.35465829116E+02  0.47787272470E+02  0.20000006499E+02 0.  0.
        -12    1    1    2    0    0  0.83329590361E+01 -0.23587282781E+02  0.35465829116E+02  0.43400727530E+02  0.00000000000E+00 0.  1.
         11    1    3    3    0    0 -0.68269533378E+01  0.14895956945E+02 -0.20330034287E+02  0.26111436567E+02  0.51100000000E-03 0. -1.
        -11    1    3    3    0    0  0.40675782272E+00  0.59266276589E+01  0.23152359049E+00  0.59450795426E+01  0.51100000000E-03 0.  1.
        -12    1    3    3    0    0 -0.19127635210E+01  0.27646981775E+01 -0.15367318419E+02  0.15730756361E+02  0.00000000000E+00 0.  1.
</event>
<event>
 7    1  0.2458979E-009  0.4778725E+02  0.7816164E-02  0.1312668E+00
        -11   -1    0    0    0    0  0.00000000000E+00  0.00000000000E+00  0.45593999997E+02  0.45594000000E+02  0.51100000000E-03 0.  1.
         11   -1    0    0    0    0 -0.00000000000E+00 -0.00000000000E+00 -0.45593999997E+02  0.45594000000E+02  0.51100000000E-03 0. -1.
    9900012    2    1    2    0    0  0.15259844507E+01 -0.11817883176E+02 -0.41732887355E+02  0.47787252561E+02  0.19999915726E+02 0.  0.
        -12    1    1    2    0    0 -0.15259844507E+01  0.11817883176E+02  0.41732887355E+02  0.43400747439E+02  0.00000000000E+00 0.  1.
         11    1    3    3    0    0  0.69394939946E+01 -0.84345630143E+01 -0.20005479758E+02  0.22792929841E+02  0.51100000000E-03 0. -1.
        -11    1    3    3    0    0 -0.44224569102E+01 -0.16265390341E+01 -0.22382838481E+02  0.22873460890E+02  0.51100000000E-03 0.  1.
         12    1    3    3    0    0 -0.99105263371E+00 -0.17567811277E+01  0.65543088485E+00  0.21208618291E+01  0.00000000000E+00 0. -1.
</event>
<event>
 7    1  0.2458979E-009  0.4778727E+02  0.7816164E-02  0.1312668E+00
        -11   -1    0    0    0    0  0.00000000000E+00  0.00000000000E+00  0.45593999997E+02  0.45594000000E+02  0.51100000000E-03 0. -1.
         11   -1    0    0    0    0 -0.00000000000E+00 -0.00000000000E+00 -0.45593999997E+02  0.45594000000E+02  0.51100000000E-03 0.  1.
    9900012    2    1    2    0    0  0.21592384438E+02  0.35755699718E+02 -0.11786533339E+02  0.47787268483E+02  0.19999988324E+02 0.  0.
        -12    1    1    2    0    0 -0.21592384438E+02 -0.35755699718E+02  0.11786533339E+02  0.43400731517E+02  0.00000000000E+00 0.  1.
         11    1    3    3    0    0  0.21657610349E+02  0.32290391223E+02 -0.16086273974E+02  0.42077186954E+02  0.51100000000E-03 0. -1.
        -11    1    3    3    0    0 -0.48744382657E+00  0.12622945389E+01  0.24658489301E+01  0.28127211369E+01  0.51100000000E-03 0.  1.
         12    1    3    3    0    0  0.42221791596E+00  0.22030139561E+01  0.18338917050E+01  0.28973603927E+01  0.00000000000E+00 0. -1.
</event>
<event>
 7    1  0.2458979E-009  0.4778728E+02  0.7816164E-02  0.1312668E+00
        -11   -1    0    0    0    0  0.00000000000E+00  0.00000000000E+00  0.45593999997E+02  0.45594000000E+02  0.51100000000E-03 0. -1.
         11   -1    0    0    0    0 -0.00000000000E+00 -0.00000000000E+00 -0.45593999997E+02  0.45594000000E+02  0.51100000000E-03 0.  1.
    9900012    2    1    2    0    0  0.30161439035E+02 -0.27060070723E+02 -0.15545511982E+02  0.47787276792E+02  0.20000026208E+02 0.  0.
        -12    1    1    2    0    0 -0.30161439035E+02  0.27060070723E+02  0.15545511982E+02  0.43400723208E+02  0.00000000000E+00 0.  1.
         11    1    3    3    0    0  0.47650609777E+01 -0.63345202064E+01 -0.31935541029E+01  0.85458025039E+01  0.51100000000E-03 0. -1.
        -11    1    3    3    0    0  0.21844166529E+02 -0.20545091764E+02 -0.16131643609E+02  0.34051407206E+02  0.51100000000E-03 0.  1.
        -12    1    3    3    0    0  0.35522115274E+01 -0.18045875270E+00  0.37796857303E+01  0.51900670821E+01  0.00000000000E+00 0.  1.
</event>
<event>
 7    1  0.2458979E-009  0.4778728E+02  0.7816164E-02  0.1312668E+00
        -11   -1    0    0    0    0  0.00000000000E+00  0.00000000000E+00  0.45593999997E+02  0.45594000000E+02  0.51100000000E-03 0.  1.
         11   -1    0    0    0    0 -0.00000000000E+00 -0.00000000000E+00 -0.45593999997E+02  0.45594000000E+02  0.51100000000E-03 0. -1.
    9900012    2    1    2    0    0  0.34357320078E+02  0.21933183078E+01 -0.26427003129E+02  0.47787279009E+02  0.20000036314E+02 0.  0.
        -12    1    1    2    0    0 -0.34357320078E+02 -0.21933183078E+01  0.26427003129E+02  0.43400720991E+02  0.00000000000E+00 0.  1.
         11    1    3    3    0    0  0.11965619425E+02  0.18091727398E+01 -0.12488464811E+01  0.12165885583E+02  0.51100000000E-03 0. -1.
        -11    1    3    3    0    0  0.97304881342E+01  0.23883476961E+01 -0.38422925141E+01  0.10730788232E+02  0.51100000000E-03 0.  1.
         12    1    3    3    0    0  0.12661212520E+02 -0.20042021280E+01 -0.21335864134E+02  0.24890605195E+02  0.00000000000E+00 0. -1.
</event>
<event>
 7    1  0.2458979E-009  0.4778728E+02  0.7816164E-02  0.1312668E+00
        -11   -1    0    0    0    0  0.00000000000E+00  0.00000000000E+00  0.45593999997E+02  0.45594000000E+02  0.51100000000E-03 0.  1.
         11   -1    0    0    0    0 -0.00000000000E+00 -0.00000000000E+00 -0.45593999997E+02  0.45594000000E+02  0.51100000000E-03 0. -1.
    9900012    2    1    2    0    0  0.37485343260E+02  0.10924656716E+02 -0.18950545814E+02  0.47787282606E+02  0.20000052714E+02 0.  0.
        -12    1    1    2    0    0 -0.37485343260E+02 -0.10924656716E+02  0.18950545814E+02  0.43400717394E+02  0.00000000000E+00 0.  1.
         11    1    3    3    0    0  0.20943975404E+02  0.18778910975E+01 -0.18388225969E+02  0.27933911922E+02  0.51100000000E-03 0. -1.
        -11    1    3    3    0    0  0.12036111237E+02  0.79546430391E+01  0.19861953489E+01  0.14563285749E+02  0.51100000000E-03 0.  1.
        -12    1    3    3    0    0  0.45052566189E+01  0.10921225791E+01 -0.25485151935E+01  0.52900849352E+01  0.00000000000E+00 0.  1.
</event>
<event>
 7    1  0.2458979E-009  0.4778727E+02  0.7816164E-02  0.1312668E+00
        -11   -1    0    0    0    0  0.00000000000E+00  0.00000000000E+00  0.45593999997E+02  0.45594000000E+02  0.51100000000E-03 0.  1.
         11   -1    0    0    0    0 -0.00000000000E+00 -0.00000000000E+00 -0.45593999997E+02  0.45594000000E+02  0.51100000000E-03 0. -1.
    9900012    2    1    2    0    0  0.13539422128E+01  0.24463257194E+02 -0.35823723848E+02  0.47787270716E+02  0.19999998502E+02 0.  0.
        -12    1    1    2    0    0 -0.13539422128E+01 -0.24463257194E+02  0.35823723848E+02  0.43400729284E+02  0.00000000000E+00 0.  1.
         11    1    3    3    0    0  0.12367096441E+00  0.42854358229E+01 -0.20863123222E+02  0.21299064898E+02  0.51100000000E-03 0. -1.
        -11    1    3    3    0    0  0.31862385471E+01  0.16264562393E+02 -0.83427930526E+01  0.18555061360E+02  0.51100000000E-03 0.  1.
         12    1    3    3    0    0 -0.19559672987E+01  0.39132589785E+01 -0.66178075729E+01  0.79331444572E+01  0.00000000000E+00 0. -1.
</event>
<event>
 7    1  0.2458979E-009  0.4778727E+02  0.7816164E-02  0.1312668E+00
        -11   -1    0    0    0    0  0.00000000000E+00  0.00000000000E+00  0.45593999997E+02  0.45594000000E+02  0.51100000000E-03 0.  1.
         11   -1    0    0    0    0 -0.00000000000E+00 -0.00000000000E+00 -0.45593999997E+02  0.45594000000E+02  0.51100000000E-03 0. -1.
    9900012    2    1    2    0    0  0.21001372519E+02  0.80150241487E+00 -0.37972662242E+02  0.47787272684E+02  0.20000007478E+02 0.  0.
        -12    1    1    2    0    0 -0.21001372519E+02 -0.80150241487E+00  0.37972662242E+02  0.43400727316E+02  0.00000000000E+00 0.  1.
         11    1    3    3    0    0  0.50301662154E+01  0.54414415960E+01 -0.14933173559E+02  0.16670678798E+02  0.51100000000E-03 0. -1.
        -11    1    3    3    0    0  0.23718717307E+00 -0.35406727988E+01 -0.46640001619E+00  0.35791271086E+01  0.51100000000E-03 0.  1.
        -12    1    3    3    0    0  0.15734019130E+02 -0.10992663823E+01 -0.22573088667E+02  0.27537466778E+02  0.00000000000E+00 0.  1.
</event>
<event>
 7    1  0.2458979E-009  0.4778727E+02  0.7816164E-02  0.1312668E+00
        -11   -1    0    0    0    0  0.00000000000E+00  0.00000000000E+00  0.45593999997E+02  0.45594000000E+02  0.51100000000E-03 0. -1.
         11   -1    0    0    0    0 -0.00000000000E+00 -0.00000000000E+00 -0.45593999997E+02  0.45594000000E+02  0.51100000000E-03 0.  1.
    9900012    2    1    2    0    0  0.12171663406E+02 -0.39499450773E+02  0.13238855298E+02  0.47787270846E+02  0.19999999097E+02 0.  0.
        -12    1    1    2    0    0 -0.12171663406E+02  0.39499450773E+02 -0.13238855298E+02  0.43400729154E+02  0.00000000000E+00 0.  1.
         11    1    3    3    0    0  0.65442380169E+01 -0.16594992589E+02  0.13341420013E+02  0.22275868524E+02  0.51100000000E-03 0. -1.
        -11    1    3    3    0    0  0.11494061859E+00 -0.18121410681E+02  0.90249123812E+00  0.18144233990E+02  0.51100000000E-03 0.  1.
         12    1    3    3    0    0  0.55124847709E+01 -0.47830475031E+01 -0.10050559528E+01  0.73671683321E+01  0.00000000000E+00 0. -1.
</event>
<event>
 7    1  0.2458979E-009  0.4778727E+02  0.7816164E-02  0.1312668E+00
        -11   -1    0    0    0    0  0.00000000000E+00  0.00000000000E+00  0.45593999997E+02  0.45594000000E+02  0.51100000000E-03 0. -1.
         11   -1    0    0    0    0 -0.00000000000E+00 -0.00000000000E+00 -0.45593999997E+02  0.45594000000E+02  0.51100000000E-03 0.  1.
    9900012    2    1    2    0    0 -0.20779272812E+02 -0.24326339105E+02  0.29327022372E+02  0.47787271964E+02  0.20000004193E+02 0.  0.
        -12    1    1    2    0    0  0.20779272812E+02  0.24326339105E+02 -0.29327022372E+02  0.43400728036E+02  0.00000000000E+00 0.  1.
         11    1    3    3    0    0 -0.15218929159E+02 -0.19359149084E+02  0.13447649518E+02  0.28057650219E+02  0.51100000000E-03 0.  1.
        -11    1    3    3    0    0 -0.39057895559E+01  0.20775934943E+01  0.69127230942E+01  0.82071510051E+01  0.51100000000E-03 0. -1.
         12    1    3    3    0    0 -0.16545540966E+01 -0.70447835160E+01  0.89666497595E+01  0.11522470740E+02  0.00000000000E+00 0. -1.
</event>
<event>
 7    1  0.2458979E-009  0.4778729E+02  0.7816164E-02  0.1312668E+00
        -11   -1    0    0    0    0  0.00000000000E+00  0.00000000000E+00  0.45593999997E+02  0.45594000000E+02  0.51100000000E-03 0.  1.
         11   -1    0    0    0    0 -0.00000000000E+00 -0.00000000000E+00 -0.45593999997E+02  0.45594000000E+02  0.51100000000E-03 0. -1.
    9900012    2    1    2    0    0  0.26398948795E+02  0.34133634835E+02 -0.46488787730E+01  0.47787290347E+02  0.20000088009E+02 0.  0.
        -12    1    1    2    0    0 -0.26398948795E+02 -0.34133634835E+02  0.46488787730E+01  0.43400709653E+02  0.00000000000E+00 0.  1.
         11    1    3    3    0    0  0.14762465958E+01  0.49898354967E+01  0.95058579675E+00  0.52897425187E+01  0.51100000000E-03 0.  1.
        -11    1    3    3    0    0  0.15669111220E+01  0.92195986857E+01  0.42282328793E+01  0.10263243344E+02  0.51100000000E-03 0. -1.
        -12    1    3    3    0    0  0.23355791077E+02  0.19924200652E+02 -0.98276974491E+01  0.32234304485E+02  0.00000000000E+00 0.  1.
</event>
<event>
 7    1  0.2458979E-009  0.4778727E+02  0.7816164E-02  0.1312668E+00
        -11   -1    0    0    0    0  0.00000000000E+00  0.00000000000E+00  0.45593999997E+02  0.45594000000E+02  0.51100000000E-03 0.  1.
         11   -1    0    0    0    0 -0.00000000000E+00 -0.00000000000E+00 -0.45593999997E+02  0.45594000000E+02  0.51100000000E-03 0. -1.
    9900012    2    1    2    0    0  0.10445903203E+02 -0.42068829751E+02  0.21726362769E+01  0.47787266380E+02  0.19999978735E+02 0.  0.
        -12    1    1    2    0    0 -0.10445903203E+02  0.42068829751E+02 -0.21726362769E+01  0.43400733620E+02  0.00000000000E+00 0.  1.
         11    1    3    3    0    0  0.33994255429E+01 -0.39859499883E+01  0.30592715995E+00  0.52476168895E+01  0.51100000000E-03 0. -1.
        -11    1    3    3    0    0  0.48143494904E+01 -0.24697175040E+01  0.40970132115E+01  0.67869715692E+01  0.51100000000E-03 0.  1.
        -12    1    3    3    0    0  0.22321281702E+01 -0.35613162258E+02 -0.22303040946E+01  0.35752677922E+02  0.00000000000E+00 0.  1.
</event>
<event>
 7    1  0.2458979E-009  0.4778727E+02  0.7816164E-02  0.1312668E+00
        -11   -1    0    0    0    0  0.00000000000E+00  0.00000000000E+00  0.45593999997E+02  0.45594000000E+02  0.51100000000E-03 0. -1.
         11   -1    0    0    0    0 -0.00000000000E+00 -0.00000000000E+00 -0.45593999997E+02  0.45594000000E+02  0.51100000000E-03 0.  1.
    9900012    2    1    2    0    0 -0.43120939767E+02  0.44508652254E+01  0.20970219437E+01  0.47787272487E+02  0.20000006575E+02 0.  0.
        -12    1    1    2    0    0  0.43120939767E+02 -0.44508652254E+01 -0.20970219437E+01  0.43400727513E+02  0.00000000000E+00 0.  1.
         11    1    3    3    0    0 -0.32785724186E+02  0.62304977922E+01  0.93763310058E+00  0.33385655142E+02  0.51100000000E-03 0. -1.
        -11    1    3    3    0    0 -0.15199871741E+01 -0.22307890606E+01 -0.35004029821E+01  0.44203622183E+01  0.51100000000E-03 0.  1.
         12    1    3    3    0    0 -0.88152284071E+01  0.45115649381E+00  0.46597918252E+01  0.99812551267E+01  0.00000000000E+00 0. -1.
</event>
<event>
 7    1  0.2458979E-009  0.4778733E+02  0.7816164E-02  0.1312667E+00
        -11   -1    0    0    0    0  0.00000000000E+00  0.00000000000E+00  0.45593999997E+02  0.45594000000E+02  0.51100000000E-03 0.  1.
         11   -1    0    0    0    0 -0.00000000000E+00 -0.00000000000E+00 -0.45593999997E+02  0.45594000000E+02  0.51100000000E-03 0. -1.
    9900012    2    1    2    0    0  0.20609973595E+02 -0.29688138126E+02 -0.24030430455E+02  0.47787330134E+02  0.20000269412E+02 0.  0.
        -12    1    1    2    0    0 -0.20609973595E+02  0.29688138126E+02  0.24030430455E+02  0.43400669866E+02  0.00000000000E+00 0.  1.
         11    1    3    3    0    0  0.92159718788E+01 -0.15626699229E+02 -0.19880532041E+02  0.26914000464E+02  0.51100000000E-03 0. -1.
        -11    1    3    3    0    0  0.31130080137E+01 -0.10558324457E+02 -0.90712879321E-01  0.11008054475E+02  0.51100000000E-03 0.  1.
         12    1    3    3    0    0  0.82809937024E+01 -0.35031144392E+01 -0.40591855343E+01  0.98652751951E+01  0.00000000000E+00 0. -1.
</event>
<event>
 7    1  0.2458979E-009  0.4778727E+02  0.7816164E-02  0.1312668E+00
        -11   -1    0    0    0    0  0.00000000000E+00  0.00000000000E+00  0.45593999997E+02  0.45594000000E+02  0.51100000000E-03 0.  1.
         11   -1    0    0    0    0 -0.00000000000E+00 -0.00000000000E+00 -0.45593999997E+02  0.45594000000E+02  0.51100000000E-03 0. -1.
    9900012    2    1    2    0    0 -0.43235504349E+02  0.52661387860E+00 -0.37466097739E+01  0.47787271396E+02  0.20000001605E+02 0.  0.
        -12    1    1    2    0    0  0.43235504349E+02 -0.52661387860E+00  0.37466097739E+01  0.43400728604E+02  0.00000000000E+00 0.  1.
         11    1    3    3    0    0 -0.31207179477E+02 -0.22576808068E+00 -0.54018264023E+01  0.31672049995E+02  0.51100000000E-03 0. -1.
        -11    1    3    3    0    0 -0.26725070504E+01  0.56192921056E+00  0.53878873790E+01  0.60404792064E+01  0.51100000000E-03 0.  1.
        -12    1    3    3    0    0 -0.93558178221E+01  0.19045274872E+00 -0.37326707506E+01  0.10074742195E+02  0.00000000000E+00 0.  1.
</event>
<event>
 7    1  0.2458979E-009  0.4778728E+02  0.7816164E-02  0.1312668E+00
        -11   -1    0    0    0    0  0.00000000000E+00  0.00000000000E+00  0.45593999997E+02  0.45594000000E+02  0.51100000000E-03 0.  1.
         11   -1    0    0    0    0 -0.00000000000E+00 -0.00000000000E+00 -0.45593999997E+02  0.45594000000E+02  0.51100000000E-03 0. -1.
    9900012    2    1    2    0    0  0.25264374576E+02  0.29859936981E+02 -0.18807404041E+02  0.47787275283E+02  0.20000019324E+02 0.  0.
        -12    1    1    2    0    0 -0.25264374576E+02 -0.29859936981E+02  0.18807404041E+02  0.43400724717E+02  0.00000000000E+00 0.  1.
         11    1    3    3    0    0  0.28910057531E+01  0.69883797547E+01 -0.10591267327E+02  0.13014234887E+02  0.51100000000E-03 0. -1.
        -11    1    3    3    0    0  0.19329402181E+02  0.12905592262E+02 -0.42720346610E+01  0.23631131600E+02  0.51100000000E-03 0.  1.
         12    1    3    3    0    0  0.30439666422E+01  0.99659649645E+01 -0.39441020530E+01  0.11141908795E+02  0.00000000000E+00 0. -1.
</event>
<event>
 7    1  0.2458979E-009  0.4778728E+02  0.7816164E-02  0.1312668E+00
        -11   -1    0    0    0    0  0.00000000000E+00  0.00000000000E+00  0.45593999997E+02  0.45594000000E+02  0.51100000000E-03 0.  1.
         11   -1    0    0    0    0 -0.00000000000E+00 -0.00000000000E+00 -0.45593999997E+02  0.45594000000E+02  0.51100000000E-03 0. -1.
    9900012    2    1    2    0    0 -0.26050061927E+02 -0.19856109353E+02 -0.28473709227E+02  0.47787275096E+02  0.20000018474E+02 0.  0.
        -12    1    1    2    0    0  0.26050061927E+02  0.19856109353E+02  0.28473709227E+02  0.43400724904E+02  0.00000000000E+00 0.  1.
         11    1    3    3    0    0 -0.11498718977E+00 -0.16139655207E+01 -0.99560573771E+01  0.10086683574E+02  0.51100000000E-03 0. -1.
        -11    1    3    3    0    0 -0.23880703131E+02 -0.14228127208E+02 -0.18101689767E+02  0.33172258871E+02  0.51100000000E-03 0.  1.
        -12    1    3    3    0    0 -0.20543716063E+01 -0.40140166240E+01 -0.41596208214E+00  0.45283326522E+01  0.00000000000E+00 0.  1.
</event>
<event>
 7    1  0.2458979E-009  0.4778727E+02  0.7816164E-02  0.1312668E+00
        -11   -1    0    0    0    0  0.00000000000E+00  0.00000000000E+00  0.45593999997E+02  0.45594000000E+02  0.51100000000E-03 0.  1.
         11   -1    0    0    0    0 -0.00000000000E+00 -0.00000000000E+00 -0.45593999997E+02  0.45594000000E+02  0.51100000000E-03 0. -1.
    9900012    2    1    2    0    0  0.34141745535E+01 -0.38176868641E+02 -0.20359108627E+02  0.47787271997E+02  0.20000004344E+02 0.  0.
        -12    1    1    2    0    0 -0.34141745535E+01  0.38176868641E+02  0.20359108627E+02  0.43400728003E+02  0.00000000000E+00 0.  1.
         11    1    3    3    0    0  0.39362385726E+01 -0.10093248883E+02 -0.10268923544E+02  0.14927104144E+02  0.51100000000E-03 0. -1.
        -11    1    3    3    0    0 -0.59263510912E+01 -0.69877053534E+01 -0.84321522508E+00  0.92011236020E+01  0.51100000000E-03 0.  1.
        -12    1    3    3    0    0  0.54042870722E+01 -0.21095914404E+02 -0.92469698579E+01  0.23659044251E+02  0.00000000000E+00 0.  1.
</event>
<event>
 7    1  0.2458979E-009  0.4778727E+02  0.7816164E-02  0.1312668E+00
        -11   -1    0    0    0    0  0.00000000000E+00  0.00000000000E+00  0.45593999997E+02  0.45594000000E+02  0.51100000000E-03 0.  1.
         11   -1    0    0    0    0 -0.00000000000E+00 -0.00000000000E+00 -0.45593999997E+02  0.45594000000E+02  0.51100000000E-03 0. -1.
    9900012    2    1    2    0    0  0.29837659076E+02  0.65505139111E+01 -0.30829016614E+02  0.47787269626E+02  0.19999993533E+02 0.  0.
        -12    1    1    2    0    0 -0.29837659076E+02 -0.65505139111E+01  0.30829016614E+02  0.43400730374E+02  0.00000000000E+00 0.  1.
         11    1    3    3    0    0  0.29662764582E+02  0.19519653081E+01 -0.23034496435E+02  0.37606884975E+02  0.51100000000E-03 0. -1.
        -11    1    3    3    0    0 -0.29292693265E+00  0.47641933789E+01 -0.36566398712E+01  0.60128495863E+01  0.51100000000E-03 0.  1.
         12    1    3    3    0    0  0.46782142613E+00 -0.16564477589E+00 -0.41378803071E+01  0.41675350646E+01  0.00000000000E+00 0. -1.
</event>
<event>
 7    1  0.2458979E-009  0.4778727E+02  0.7816164E-02  0.1312668E+00
        -11   -1    0    0    0    0  0.00000000000E+00  0.00000000000E+00  0.45593999997E+02  0.45594000000E+02  0.51100000000E-03 0. -1.
         11   -1    0    0    0    0 -0.00000000000E+00 -0.00000000000E+00 -0.45593999997E+02  0.45594000000E+02  0.51100000000E-03 0.  1.
    9900012    2    1    2    0    0  0.38877685336E+02 -0.13090913901E+02 -0.14169584387E+02  0.47787267684E+02  0.19999984679E+02 0.  0.
        -12    1    1    2    0    0 -0.38877685336E+02  0.13090913901E+02  0.14169584387E+02  0.43400732316E+02  0.00000000000E+00 0.  1.
         11    1    3    3    0    0  0.95733787634E+01 -0.11303703770E+02 -0.16492695701E+01  0.14904475511E+02  0.51100000000E-03 0. -1.
        -11    1    3    3    0    0  0.20432899173E+02  0.23035479475E+01 -0.74020234812E+01  0.21854053483E+02  0.51100000000E-03 0.  1.
         12    1    3    3    0    0  0.88714073997E+01 -0.40907580784E+01 -0.51182913356E+01  0.11028738691E+02  0.00000000000E+00 0. -1.
</event>
<event>
 7    1  0.2458979E-009  0.4778727E+02  0.7816164E-02  0.1312668E+00
        -11   -1    0    0    0    0  0.00000000000E+00  0.00000000000E+00  0.45593999997E+02  0.45594000000E+02  0.51100000000E-03 0.  1.
         11   -1    0    0    0    0 -0.00000000000E+00 -0.00000000000E+00 -0.45593999997E+02  0.45594000000E+02  0.51100000000E-03 0. -1.
    9900012    2    1    2    0    0  0.21859376599E+02  0.34414153441E+02 -0.14881428241E+02  0.47787271793E+02  0.20000003415E+02 0.  0.
        -12    1    1    2    0    0 -0.21859376599E+02 -0.34414153441E+02  0.14881428241E+02  0.43400728207E+02  0.00000000000E+00 0.  1.
         11    1    3    3    0    0  0.12801227193E+02  0.27960006621E+02 -0.13035579948E+02  0.33399995999E+02  0.51100000000E-03 0. -1.
        -11    1    3    3    0    0  0.58945484279E+00  0.50372899915E+01  0.13119733490E+01  0.52386087657E+01  0.51100000000E-03 0.  1.
         12    1    3    3    0    0  0.84686945629E+01  0.14168568285E+01 -0.31578216424E+01  0.91486670285E+01  0.00000000000E+00 0. -1.
</event>
<event>
 7    1  0.2458979E-009  0.4778727E+02  0.7816164E-02  0.1312668E+00
        -11   -1    0    0    0    0  0.00000000000E+00  0.00000000000E+00  0.45593999997E+02  0.45594000000E+02  0.51100000000E-03 0.  1.
         11   -1    0    0    0    0 -0.00000000000E+00 -0.00000000000E+00 -0.45593999997E+02  0.45594000000E+02  0.51100000000E-03 0. -1.
    9900012    2    1    2    0    0  0.16290875588E+02 -0.23152402942E+02 -0.32896758667E+02  0.47787272815E+02  0.20000008072E+02 0.  0.
        -12    1    1    2    0    0 -0.16290875588E+02  0.23152402942E+02  0.32896758667E+02  0.43400727185E+02  0.00000000000E+00 0.  1.
         11    1    3    3    0    0  0.26126577669E+01 -0.18066117925E+00  0.16805912309E+01  0.31117529168E+01  0.51100000000E-03 0. -1.
        -11    1    3    3    0    0  0.49507481067E+01 -0.38445868938E+01 -0.35730162552E+01  0.72150676103E+01  0.51100000000E-03 0.  1.
         12    1    3    3    0    0  0.87274697147E+01 -0.19127154869E+02 -0.31004333642E+02  0.37460452288E+02  0.00000000000E+00 0. -1.
</event>
<event>
 7    1  0.2458979E-009  0.4778727E+02  0.7816164E-02  0.1312668E+00
        -11   -1    0    0    0    0  0.00000000000E+00  0.00000000000E+00  0.45593999997E+02  0.45594000000E+02  0.51100000000E-03 0.  1.
         11   -1    0    0    0    0 -0.00000000000E+00 -0.00000000000E+00 -0.45593999997E+02  0.45594000000E+02  0.51100000000E-03 0. -1.
    9900012    2    1    2    0    0 -0.25773934998E+02  0.91822141708E+00 -0.34906801612E+02  0.47787266658E+02  0.19999980002E+02 0.  0.
        -12    1    1    2    0    0  0.25773934998E+02 -0.91822141708E+00  0.34906801612E+02  0.43400733342E+02  0.00000000000E+00 0.  1.
         11    1    3    3    0    0 -0.10718409802E+02  0.14792677611E+01 -0.84236790260E+01  0.13712436341E+02  0.51100000000E-03 0. -1.
        -11    1    3    3    0    0  0.95253581777E+00 -0.47602958700E+01 -0.51911375377E+01  0.71074362783E+01  0.51100000000E-03 0.  1.
        -12    1    3    3    0    0 -0.16008061013E+02  0.41992495260E+01 -0.21291985048E+02  0.26967394039E+02  0.00000000000E+00 0.  1.
</event>
<event>
 7    1  0.2458979E-009  0.4778726E+02  0.7816164E-02  0.1312668E+00
        -11   -1    0    0    0    0  0.00000000000E+00  0.00000000000E+00  0.45593999997E+02  0.45594000000E+02  0.51100000000E-03 0. -1.
         11   -1    0    0    0    0 -0.00000000000E+00 -0.00000000000E+00 -0.45593999997E+02  0.45594000000E+02  0.51100000000E-03 0.  1.
    9900012    2    1    2    0    0 -0.34396666078E+02  0.22259850847E+02  0.14317554924E+02  0.47787262956E+02  0.19999963121E+02 0.  0.
        -12    1    1    2    0    0  0.34396666078E+02 -0.22259850847E+02 -0.14317554924E+02  0.43400737044E+02  0.00000000000E+00 0.  1.
         11    1    3    3    0    0 -0.83221948731E+01  0.17978022457E+01  0.76844103154E+01  0.11469140446E+02  0.51100000000E-03 0. -1.
        -11    1    3    3    0    0 -0.13574323381E+02  0.64529016419E+01 -0.28279897735E+01  0.15293780477E+02  0.51100000000E-03 0.  1.
        -12    1    3    3    0    0 -0.12500147824E+02  0.14009146959E+02  0.94611343816E+01  0.21024342033E+02  0.00000000000E+00 0.  1.
</event>
<event>
 7    1  0.2458979E-009  0.4778727E+02  0.7816164E-02  0.1312668E+00
        -11   -1    0    0    0    0  0.00000000000E+00  0.00000000000E+00  0.45593999997E+02  0.45594000000E+02  0.51100000000E-03 0.  1.
         11   -1    0    0    0    0 -0.00000000000E+00 -0.00000000000E+00 -0.45593999997E+02  0.45594000000E+02  0.51100000000E-03 0. -1.
    9900012    2    1    2    0    0 -0.31630200524E+02 -0.29665096555E+02 -0.17708236732E+01  0.47787270107E+02  0.19999995725E+02 0.  0.
        -12    1    1    2    0    0  0.31630200524E+02  0.29665096555E+02  0.17708236732E+01  0.43400729893E+02  0.00000000000E+00 0.  1.
         11    1    3    3    0    0 -0.10653438453E+02 -0.13135999156E+01 -0.37817614483E+01  0.11380817876E+02  0.51100000000E-03 0. -1.
        -11    1    3    3    0    0 -0.45882117246E+01 -0.76660410573E+01 -0.32303209019E+01  0.95002550341E+01  0.51100000000E-03 0.  1.
         12    1    3    3    0    0 -0.16388550347E+02 -0.20685455582E+02  0.52412586770E+01  0.26906197197E+02  0.00000000000E+00 0. -1.
</event>
<event>
 7    1  0.2458979E-009  0.4778727E+02  0.7816164E-02  0.1312668E+00
        -11   -1    0    0    0    0  0.00000000000E+00  0.00000000000E+00  0.45593999997E+02  0.45594000000E+02  0.51100000000E-03 0.  1.
         11   -1    0    0    0    0 -0.00000000000E+00 -0.00000000000E+00 -0.45593999997E+02  0.45594000000E+02  0.51100000000E-03 0. -1.
    9900012    2    1    2    0    0  0.12659463264E+02  0.10279465437E+02 -0.40220569897E+02  0.47787266566E+02  0.19999979581E+02 0.  0.
        -12    1    1    2    0    0 -0.12659463264E+02 -0.10279465437E+02  0.40220569897E+02  0.43400733434E+02  0.00000000000E+00 0.  1.
         11    1    3    3    0    0  0.43131033271E+01  0.78982298697E+01 -0.28816839219E+01  0.94492855746E+01  0.51100000000E-03 0.  1.
        -11    1    3    3    0    0  0.69645596888E+01  0.21019569058E+01 -0.31949397971E+02  0.32767168713E+02  0.51100000000E-03 0. -1.
        -12    1    3    3    0    0  0.13818002477E+01  0.27927866145E+00 -0.53894880039E+01  0.55708122783E+01  0.00000000000E+00 0.  1.
</event>
<event>
 7    1  0.2458979E-009  0.4778727E+02  0.7816164E-02  0.1312668E+00
        -11   -1    0    0    0    0  0.00000000000E+00  0.00000000000E+00  0.45593999997E+02  0.45594000000E+02  0.51100000000E-03 0.  1.
         11   -1    0    0    0    0 -0.00000000000E+00 -0.00000000000E+00 -0.45593999997E+02  0.45594000000E+02  0.51100000000E-03 0. -1.
    9900012    2    1    2    0    0 -0.40504627635E+02 -0.49694304268E+01 -0.14775079706E+02  0.47787273290E+02  0.20000010239E+02 0.  0.
        -12    1    1    2    0    0  0.40504627635E+02  0.49694304268E+01  0.14775079706E+02  0.43400726710E+02  0.00000000000E+00 0.  1.
         11    1    3    3    0    0 -0.18597393856E+02  0.53658161040E+01 -0.86310297364E+01  0.21193152556E+02  0.51100000000E-03 0. -1.
        -11    1    3    3    0    0 -0.19365023080E+02 -0.10815377182E+02 -0.78118515192E+01  0.23515984498E+02  0.51100000000E-03 0.  1.
         12    1    3    3    0    0 -0.25422106991E+01  0.48013065121E+00  0.16678015494E+01  0.30781362363E+01  0.00000000000E+00 0. -1.
</event>
<event>
 7    1  0.2458979E-009  0.4778727E+02  0.7816164E-02  0.1312668E+00
        -11   -1    0    0    0    0  0.00000000000E+00  0.00000000000E+00  0.45593999997E+02  0.45594000000E+02  0.51100000000E-03 0.  1.
         11   -1    0    0    0    0 -0.00000000000E+00 -0.00000000000E+00 -0.45593999997E+02  0.45594000000E+02  0.51100000000E-03 0. -1.
    9900012    2    1    2    0    0  0.14927830080E+02 -0.34834450834E+02 -0.21150505211E+02  0.47787274816E+02  0.20000017197E+02 0.  0.
        -12    1    1    2    0    0 -0.14927830080E+02  0.34834450834E+02  0.21150505211E+02  0.43400725184E+02  0.00000000000E+00 0.  1.
         11    1    3    3    0    0  0.98138637678E+01 -0.20617145259E+02 -0.17000543125E+02  0.28467473852E+02  0.51100000000E-03 0. -1.
        -11    1    3    3    0    0  0.10890486369E+01 -0.84102946113E+01 -0.76623818713E+01  0.11429399747E+02  0.51100000000E-03 0.  1.
         12    1    3    3    0    0  0.40249176751E+01 -0.58070109636E+01  0.35124197849E+01  0.78904012172E+01  0.00000000000E+00 0. -1.
</event>
<event>
 7    1  0.2458979E-009  0.4778727E+02  0.7816164E-02  0.1312668E+00
        -11   -1    0    0    0    0  0.00000000000E+00  0.00000000000E+00  0.45593999997E+02  0.45594000000E+02  0.51100000000E-03 0.  1.
         11   -1    0    0    0    0 -0.00000000000E+00 -0.00000000000E+00 -0.45593999997E+02  0.45594000000E+02  0.51100000000E-03 0. -1.
    9900012    2    1    2    0    0  0.16531154350E+02  0.29644122669E+02 -0.27047552498E+02  0.47787272251E+02  0.20000005503E+02 0.  0.
        -12    1    1    2    0    0 -0.16531154350E+02 -0.29644122669E+02  0.27047552498E+02  0.43400727749E+02  0.00000000000E+00 0.  1.
         11    1    3    3    0    0  0.39747901027E+01  0.51443260162E+01 -0.14626771444E+02  0.16006420264E+02  0.51100000000E-03 0. -1.
        -11    1    3    3    0    0  0.67125574122E+01  0.39878357318E+01 -0.20913403543E+01  0.80830047368E+01  0.51100000000E-03 0.  1.
         12    1    3    3    0    0  0.58438068353E+01  0.20511960921E+02 -0.10329440699E+02  0.23697847251E+02  0.00000000000E+00 0. -1.
</event>
<event>
 7    1  0.2458979E-009  0.4778727E+02  0.7816164E-02  0.1312668E+00
        -11   -1    0    0    0    0  0.00000000000E+00  0.00000000000E+00  0.45593999997E+02  0.45594000000E+02  0.51100000000E-03 0.  1.
         11   -1    0    0    0    0 -0.00000000000E+00 -0.00000000000E+00 -0.45593999997E+02  0.45594000000E+02  0.51100000000E-03 0. -1.
    9900012    2    1    2    0    0  0.31163891290E+02  0.10368935101E+02 -0.28371118699E+02  0.47787270609E+02  0.19999998012E+02 0.  0.
        -12    1    1    2    0    0 -0.31163891290E+02 -0.10368935101E+02  0.28371118699E+02  0.43400729391E+02  0.00000000000E+00 0.  1.
         11    1    3    3    0    0  0.15332183927E+02  0.29583634460E+01 -0.34006394951E+01  0.15980992694E+02  0.51100000000E-03 0. -1.
        -11    1    3    3    0    0  0.59772747985E+01  0.23896097010E+01 -0.27789911102E+01  0.70114791871E+01  0.51100000000E-03 0.  1.
         12    1    3    3    0    0  0.98544325648E+01  0.50209619540E+01 -0.22191488094E+02  0.24794798728E+02  0.00000000000E+00 0. -1.
</event>
<event>
 7    1  0.2458979E-009  0.4778727E+02  0.7816164E-02  0.1312668E+00
        -11   -1    0    0    0    0  0.00000000000E+00  0.00000000000E+00  0.45593999997E+02  0.45594000000E+02  0.51100000000E-03 0.  1.
         11   -1    0    0    0    0 -0.00000000000E+00 -0.00000000000E+00 -0.45593999997E+02  0.45594000000E+02  0.51100000000E-03 0. -1.
    9900012    2    1    2    0    0 -0.88188837405E+01  0.36438502918E+02  0.21865188144E+02  0.47787266620E+02  0.19999979829E+02 0.  0.
        -12    1    1    2    0    0  0.88188837405E+01 -0.36438502918E+02 -0.21865188144E+02  0.43400733380E+02  0.00000000000E+00 0.  1.
         11    1    3    3    0    0 -0.81687401258E+01  0.19066957163E+02  0.49987478435E+01  0.21336931620E+02  0.51100000000E-03 0. -1.
        -11    1    3    3    0    0  0.42859945251E+00  0.19637320293E+01 -0.14592284346E+01  0.24838053183E+01  0.51100000000E-03 0.  1.
         12    1    3    3    0    0 -0.10787430671E+01  0.15407813725E+02  0.18325668735E+02  0.23966529682E+02  0.00000000000E+00 0. -1.
</event>
<event>
 7    1  0.2458979E-009  0.4778721E+02  0.7816164E-02  0.1312668E+00
        -11   -1    0    0    0    0  0.00000000000E+00  0.00000000000E+00  0.45593999997E+02  0.45594000000E+02  0.51100000000E-03 0. -1.
         11   -1    0    0    0    0 -0.00000000000E+00 -0.00000000000E+00 -0.45593999997E+02  0.45594000000E+02  0.51100000000E-03 0.  1.
    9900012    2    1    2    0    0 -0.30461622325E+02  0.29102906835E+02  0.10427795654E+02  0.47787210340E+02  0.19999723223E+02 0.  0.
        -12    1    1    2    0    0  0.30461622325E+02 -0.29102906835E+02 -0.10427795654E+02  0.43400789660E+02  0.00000000000E+00 0.  1.
         11    1    3    3    0    0 -0.14781834649E+01  0.47088146345E+01  0.85090211464E+01  0.98367374037E+01  0.51100000000E-03 0. -1.
        -11    1    3    3    0    0 -0.23685778146E+02  0.20478596401E+02  0.13987506876E+01  0.31342391432E+02  0.51100000000E-03 0.  1.
         12    1    3    3    0    0 -0.52976607145E+01  0.39154957994E+01  0.52002381953E+00  0.66080815048E+01  0.00000000000E+00 0. -1.
</event>
<event>
 7    1  0.2458979E-009  0.4778727E+02  0.7816164E-02  0.1312668E+00
        -11   -1    0    0    0    0  0.00000000000E+00  0.00000000000E+00  0.45593999997E+02  0.45594000000E+02  0.51100000000E-03 0.  1.
         11   -1    0    0    0    0 -0.00000000000E+00 -0.00000000000E+00 -0.45593999997E+02  0.45594000000E+02  0.51100000000E-03 0. -1.
    9900012    2    1    2    0    0 -0.24852212582E+02 -0.27155456092E+02 -0.22990692756E+02  0.47787271675E+02  0.20000002873E+02 0.  0.
        -12    1    1    2    0    0  0.24852212582E+02  0.27155456092E+02  0.22990692756E+02  0.43400728325E+02  0.00000000000E+00 0.  1.
         11    1    3    3    0    0 -0.17642826875E+02 -0.14284988319E+02 -0.12155287746E+02  0.25750364112E+02  0.51100000000E-03 0. -1.
        -11    1    3    3    0    0 -0.80997151685E+00 -0.11900129778E+02 -0.38968449771E+01  0.12548089242E+02  0.51100000000E-03 0.  1.
        -12    1    3    3    0    0 -0.63994141905E+01 -0.97033799468E+00 -0.69385600324E+01  0.94888183210E+01  0.00000000000E+00 0.  1.
</event>
<event>
 7    1  0.2458979E-009  0.4778728E+02  0.7816164E-02  0.1312668E+00
        -11   -1    0    0    0    0  0.00000000000E+00  0.00000000000E+00  0.45593999997E+02  0.45594000000E+02  0.51100000000E-03 0.  1.
         11   -1    0    0    0    0 -0.00000000000E+00 -0.00000000000E+00 -0.45593999997E+02  0.45594000000E+02  0.51100000000E-03 0. -1.
    9900012    2    1    2    0    0 -0.14405523541E+02 -0.22454853933E+02 -0.34232778765E+02  0.47787277476E+02  0.20000029322E+02 0.  0.
        -12    1    1    2    0    0  0.14405523541E+02  0.22454853933E+02  0.34232778765E+02  0.43400722524E+02  0.00000000000E+00 0.  1.
         11    1    3    3    0    0 -0.12593823016E+02 -0.78817865533E+01 -0.14258438699E+02  0.20591989020E+02  0.51100000000E-03 0. -1.
        -11    1    3    3    0    0  0.17559117330E+00 -0.13774376432E+02 -0.10074295142E+02  0.17066215199E+02  0.51100000000E-03 0.  1.
         12    1    3    3    0    0 -0.19872916986E+01 -0.79869094774E+00 -0.99000449248E+01  0.10129073257E+02  0.00000000000E+00 0. -1.
</event>
<event>
 7    1  0.2458979E-009  0.4778727E+02  0.7816164E-02  0.1312668E+00
        -11   -1    0    0    0    0  0.00000000000E+00  0.00000000000E+00  0.45593999997E+02  0.45594000000E+02  0.51100000000E-03 0.  1.
         11   -1    0    0    0    0 -0.00000000000E+00 -0.00000000000E+00 -0.45593999997E+02  0.45594000000E+02  0.51100000000E-03 0. -1.
    9900012    2    1    2    0    0 -0.29146204141E+02  0.18281058175E+01 -0.32105764467E+02  0.47787270758E+02  0.19999998695E+02 0.  0.
        -12    1    1    2    0    0  0.29146204141E+02 -0.18281058175E+01  0.32105764467E+02  0.43400729242E+02  0.00000000000E+00 0.  1.
         11    1    3    3    0    0 -0.15155876397E+02 -0.10968356760E+01 -0.14400860982E+02  0.20935339385E+02  0.51100000000E-03 0. -1.
        -11    1    3    3    0    0  0.63479158763E-01  0.56665478021E+01 -0.33826744021E+01  0.65997181735E+01  0.51100000000E-03 0.  1.
        -12    1    3    3    0    0 -0.14053806902E+02 -0.27416063087E+01 -0.14322229083E+02  0.20252213200E+02  0.00000000000E+00 0.  1.
</event>
<event>
 7    1  0.2458979E-009  0.4778727E+02  0.7816164E-02  0.1312668E+00
        -11   -1    0    0    0    0  0.00000000000E+00  0.00000000000E+00  0.45593999997E+02  0.45594000000E+02  0.51100000000E-03 0.  1.
         11   -1    0    0    0    0 -0.00000000000E+00 -0.00000000000E+00 -0.45593999997E+02  0.45594000000E+02  0.51100000000E-03 0. -1.
    9900012    2    1    2    0    0 -0.37986786076E+01 -0.29797912658E+02 -0.31325353799E+02  0.47787270184E+02  0.19999996079E+02 0.  0.
        -12    1    1    2    0    0  0.37986786076E+01  0.29797912658E+02  0.31325353799E+02  0.43400729816E+02  0.00000000000E+00 0.  1.
         11    1    3    3    0    0 -0.81645248600E+00 -0.46304710604E+01 -0.51144285069E+01  0.69473186278E+01  0.51100000000E-03 0. -1.
        -11    1    3    3    0    0  0.70097812411E+01 -0.12864580334E+02 -0.79798418659E+01  0.16682695726E+02  0.51100000000E-03 0.  1.
        -12    1    3    3    0    0 -0.99920073626E+01 -0.12302861263E+02 -0.18231083426E+02  0.24157255831E+02  0.00000000000E+00 0.  1.
</event>
<event>
 7    1  0.2458979E-009  0.4778727E+02  0.7816164E-02  0.1312668E+00
        -11   -1    0    0    0    0  0.00000000000E+00  0.00000000000E+00  0.45593999997E+02  0.45594000000E+02  0.51100000000E-03 0.  1.
         11   -1    0    0    0    0 -0.00000000000E+00 -0.00000000000E+00 -0.45593999997E+02  0.45594000000E+02  0.51100000000E-03 0. -1.
    9900012    2    1    2    0    0 -0.40603932808E+02 -0.76455058626E+01 -0.13284954100E+02  0.47787272762E+02  0.20000007829E+02 0.  0.
        -12    1    1    2    0    0  0.40603932808E+02  0.76455058626E+01  0.13284954100E+02  0.43400727238E+02  0.00000000000E+00 0.  1.
         11    1    3    3    0    0 -0.58534153579E+00  0.25329932953E+01 -0.43558752912E+01  0.50727043637E+01  0.51100000000E-03 0. -1.
        -11    1    3    3    0    0 -0.21676494260E+01  0.34094042069E+00  0.62970201042E+00  0.22828642727E+01  0.51100000000E-03 0.  1.
         12    1    3    3    0    0 -0.37850941846E+02 -0.10519439579E+02 -0.95587808191E+01  0.40431704125E+02  0.00000000000E+00 0. -1.
</event>
<event>
 7    1  0.2458979E-009  0.4778727E+02  0.7816164E-02  0.1312668E+00
        -11   -1    0    0    0    0  0.00000000000E+00  0.00000000000E+00  0.45593999997E+02  0.45594000000E+02  0.51100000000E-03 0.  1.
         11   -1    0    0    0    0 -0.00000000000E+00 -0.00000000000E+00 -0.45593999997E+02  0.45594000000E+02  0.51100000000E-03 0. -1.
    9900012    2    1    2    0    0  0.13999152264E+02  0.57522136320E+01 -0.40676274441E+02  0.47787268115E+02  0.19999986642E+02 0.  0.
        -12    1    1    2    0    0 -0.13999152264E+02 -0.57522136320E+01  0.40676274441E+02  0.43400731885E+02  0.00000000000E+00 0.  1.
         11    1    3    3    0    0  0.11459966840E+02 -0.36527065314E+01 -0.22794370623E+02  0.25773172822E+02  0.51100000000E-03 0. -1.
        -11    1    3    3    0    0  0.38547380365E+01  0.93820805504E+00 -0.80362151555E+01  0.89621422646E+01  0.51100000000E-03 0.  1.
         12    1    3    3    0    0 -0.13155526121E+01  0.84667121084E+01 -0.98456886627E+01  0.13051953028E+02  0.00000000000E+00 0. -1.
</event>
<event>
 7    1  0.2458979E-009  0.4778727E+02  0.7816164E-02  0.1312668E+00
        -11   -1    0    0    0    0  0.00000000000E+00  0.00000000000E+00  0.45593999997E+02  0.45594000000E+02  0.51100000000E-03 0.  1.
         11   -1    0    0    0    0 -0.00000000000E+00 -0.00000000000E+00 -0.45593999997E+02  0.45594000000E+02  0.51100000000E-03 0. -1.
    9900012    2    1    2    0    0 -0.10438474548E+02 -0.31792369800E+02 -0.27638865876E+02  0.47787269185E+02  0.19999991521E+02 0.  0.
        -12    1    1    2    0    0  0.10438474548E+02  0.31792369800E+02  0.27638865876E+02  0.43400730815E+02  0.00000000000E+00 0.  1.
         11    1    3    3    0    0 -0.49736609181E+01 -0.11914232327E+02 -0.86780107825E+01  0.15556159754E+02  0.51100000000E-03 0. -1.
        -11    1    3    3    0    0 -0.42076160273E+01 -0.20583912797E+02 -0.10204138528E+02  0.23356496784E+02  0.51100000000E-03 0.  1.
        -12    1    3    3    0    0 -0.12571976028E+01  0.70577532484E+00 -0.87567165657E+01  0.88746126469E+01  0.00000000000E+00 0.  1.
</event>
<event>
 7    1  0.2458979E-009  0.4778727E+02  0.7816164E-02  0.1312668E+00
        -11   -1    0    0    0    0  0.00000000000E+00  0.00000000000E+00  0.45593999997E+02  0.45594000000E+02  0.51100000000E-03 0.  1.
         11   -1    0    0    0    0 -0.00000000000E+00 -0.00000000000E+00 -0.45593999997E+02  0.45594000000E+02  0.51100000000E-03 0. -1.
    9900012    2    1    2    0    0 -0.25875702547E+02  0.24889122165E+02  0.24384482195E+02  0.47787270094E+02  0.19999995668E+02 0.  0.
        -12    1    1    2    0    0  0.25875702547E+02 -0.24889122165E+02 -0.24384482195E+02  0.43400729906E+02  0.00000000000E+00 0.  1.
         11    1    3    3    0    0 -0.24960053516E+02  0.18287953597E+02  0.23678749493E+02  0.38963273683E+02  0.51100000000E-03 0. -1.
        -11    1    3    3    0    0  0.12366349529E+01 -0.42152687695E+00  0.69291666678E+00  0.14788795363E+01  0.51100000000E-03 0.  1.
         12    1    3    3    0    0 -0.21522839836E+01  0.70226954445E+01  0.12816035388E-01  0.73451168747E+01  0.00000000000E+00 0. -1.
</event>
<event>
 7    1  0.2458979E-009  0.4778728E+02  0.7816164E-02  0.1312668E+00
        -11   -1    0    0    0    0  0.00000000000E+00  0.00000000000E+00  0.45593999997E+02  0.45594000000E+02  0.51100000000E-03 0. -1.
         11   -1    0    0    0    0 -0.00000000000E+00 -0.00000000000E+00 -0.45593999997E+02  0.45594000000E+02  0.51100000000E-03 0.  1.
    9900012    2    1    2    0    0 -0.32458452610E+02  0.28735397845E+02 -0.20853459743E+01  0.47787275318E+02  0.20000019484E+02 0.  0.
        -12    1    1    2    0    0  0.32458452610E+02 -0.28735397845E+02  0.20853459743E+01  0.43400724682E+02  0.00000000000E+00 0.  1.
         11    1    3    3    0    0 -0.13960179834E+02  0.21531310049E+02  0.51864240238E+01  0.26179819095E+02  0.51100000000E-03 0. -1.
        -11    1    3    3    0    0 -0.17488533104E+02  0.69031241476E+01 -0.78852739053E+01  0.20388218606E+02  0.51100000000E-03 0.  1.
         12    1    3    3    0    0 -0.10097396714E+01  0.30096364844E+00  0.61350390713E+00  0.12192376166E+01  0.00000000000E+00 0. -1.
</event>
<event>
 7    1  0.2458979E-009  0.4778727E+02  0.7816164E-02  0.1312668E+00
        -11   -1    0    0    0    0  0.00000000000E+00  0.00000000000E+00  0.45593999997E+02  0.45594000000E+02  0.51100000000E-03 0.  1.
         11   -1    0    0    0    0 -0.00000000000E+00 -0.00000000000E+00 -0.45593999997E+02  0.45594000000E+02  0.51100000000E-03 0. -1.
    9900012    2    1    2    0    0 -0.14072356355E+02 -0.45852429040E+01 -0.40799111725E+02  0.47787272086E+02  0.20000004750E+02 0.  0.
        -12    1    1    2    0    0  0.14072356355E+02  0.45852429040E+01  0.40799111725E+02  0.43400727914E+02  0.00000000000E+00 0.  1.
         11    1    3    3    0    0 -0.18654458708E+01 -0.74188365793E+01 -0.28735672340E+02  0.29736474061E+02  0.51100000000E-03 0. -1.
        -11    1    3    3    0    0 -0.92176131758E+01  0.10081189718E+01 -0.59878900599E+01  0.11037913034E+02  0.51100000000E-03 0.  1.
         12    1    3    3    0    0 -0.29892973088E+01  0.18254747035E+01 -0.60755493254E+01  0.70128849911E+01  0.00000000000E+00 0. -1.
</event>
<event>
 7    1  0.2458979E-009  0.4778727E+02  0.7816164E-02  0.1312668E+00
        -11   -1    0    0    0    0  0.00000000000E+00  0.00000000000E+00  0.45593999997E+02  0.45594000000E+02  0.51100000000E-03 0.  1.
         11   -1    0    0    0    0 -0.00000000000E+00 -0.00000000000E+00 -0.45593999997E+02  0.45594000000E+02  0.51100000000E-03 0. -1.
    9900012    2    1    2    0    0 -0.28930029804E+02 -0.17774592981E+02 -0.27032216942E+02  0.47787268061E+02  0.19999986396E+02 0.  0.
        -12    1    1    2    0    0  0.28930029804E+02  0.17774592981E+02  0.27032216942E+02  0.43400731939E+02  0.00000000000E+00 0.  1.
         11    1    3    3    0    0 -0.20553150400E+01  0.24617728254E+01 -0.45056014335E+01  0.55303788203E+01  0.51100000000E-03 0. -1.
        -11    1    3    3    0    0 -0.23663704575E+02 -0.11470283472E+02 -0.18105846406E+02  0.31927417551E+02  0.51100000000E-03 0.  1.
        -12    1    3    3    0    0 -0.32110101880E+01 -0.87660823340E+01 -0.44207691026E+01  0.10329471689E+02  0.00000000000E+00 0.  1.
</event>
<event>
 7    1  0.2458979E-009  0.4778728E+02  0.7816164E-02  0.1312668E+00
        -11   -1    0    0    0    0  0.00000000000E+00  0.00000000000E+00  0.45593999997E+02  0.45594000000E+02  0.51100000000E-03 0.  1.
         11   -1    0    0    0    0 -0.00000000000E+00 -0.00000000000E+00 -0.45593999997E+02  0.45594000000E+02  0.51100000000E-03 0. -1.
    9900012    2    1    2    0    0 -0.21154369766E+02 -0.18167121449E+01 -0.37852543329E+02  0.47787276047E+02  0.20000022809E+02 0.  0.
        -12    1    1    2    0    0  0.21154369766E+02  0.18167121449E+01  0.37852543329E+02  0.43400723953E+02  0.00000000000E+00 0.  1.
         11    1    3    3    0    0 -0.13447768287E+02  0.36495929105E+01 -0.13693616140E+02  0.19536558642E+02  0.51100000000E-03 0. -1.
        -11    1    3    3    0    0 -0.36505993709E+01  0.32287140989E+01 -0.10299118579E+02  0.11394003435E+02  0.51100000000E-03 0.  1.
         12    1    3    3    0    0 -0.40560021073E+01 -0.86950191543E+01 -0.13859808609E+02  0.16856713970E+02  0.00000000000E+00 0. -1.
</event>
<event>
 7    1  0.2458979E-009  0.4778727E+02  0.7816164E-02  0.1312668E+00
        -11   -1    0    0    0    0  0.00000000000E+00  0.00000000000E+00  0.45593999997E+02  0.45594000000E+02  0.51100000000E-03 0. -1.
         11   -1    0    0    0    0 -0.00000000000E+00 -0.00000000000E+00 -0.45593999997E+02  0.45594000000E+02  0.51100000000E-03 0.  1.
    9900012    2    1    2    0    0 -0.74241430447E+01 -0.15495025716E+02  0.39854855939E+02  0.47787271160E+02  0.20000000528E+02 0.  0.
        -12    1    1    2    0    0  0.74241430447E+01  0.15495025716E+02 -0.39854855939E+02  0.43400728840E+02  0.00000000000E+00 0.  1.
         11    1    3    3    0    0  0.24361454857E+01 -0.48484426051E+01  0.62182101810E+01  0.82527776317E+01  0.51100000000E-03 0. -1.
        -11    1    3    3    0    0 -0.81226283966E+01 -0.62641254748E+01  0.68460578586E+01  0.12332269398E+02  0.51100000000E-03 0.  1.
        -12    1    3    3    0    0 -0.17376601339E+01 -0.43824576365E+01  0.26790587899E+02  0.27202224131E+02  0.00000000000E+00 0.  1.
</event>
<event>
 7    1  0.2458979E-009  0.4778727E+02  0.7816164E-02  0.1312668E+00
        -11   -1    0    0    0    0  0.00000000000E+00  0.00000000000E+00  0.45593999997E+02  0.45594000000E+02  0.51100000000E-03 0. -1.
         11   -1    0    0    0    0 -0.00000000000E+00 -0.00000000000E+00 -0.45593999997E+02  0.45594000000E+02  0.51100000000E-03 0.  1.
    9900012    2    1    2    0    0  0.21396950032E+02  0.17836074808E+02  0.33281647827E+02  0.47787272848E+02  0.20000008223E+02 0.  0.
        -12    1    1    2    0    0 -0.21396950032E+02 -0.17836074808E+02 -0.33281647827E+02  0.43400727152E+02  0.00000000000E+00 0.  1.
         11    1    3    3    0    0 -0.11528845366E+01  0.14535492816E+01  0.56248973291E+01  0.59229569045E+01  0.51100000000E-03 0. -1.
        -11    1    3    3    0    0  0.13559740504E+02  0.17717764219E+02  0.20446283313E+02  0.30262786274E+02  0.51100000000E-03 0.  1.
        -12    1    3    3    0    0  0.89900940643E+01 -0.13352386927E+01  0.72104671846E+01  0.11601529669E+02  0.00000000000E+00 0.  1.
</event>
<event>
 7    1  0.2458979E-009  0.4778727E+02  0.7816164E-02  0.1312668E+00
        -11   -1    0    0    0    0  0.00000000000E+00  0.00000000000E+00  0.45593999997E+02  0.45594000000E+02  0.51100000000E-03 0.  1.
         11   -1    0    0    0    0 -0.00000000000E+00 -0.00000000000E+00 -0.45593999997E+02  0.45594000000E+02  0.51100000000E-03 0. -1.
    9900012    2    1    2    0    0 -0.53035079086E+01 -0.15715051901E+02 -0.40106523152E+02  0.47787271300E+02  0.20000001164E+02 0.  0.
        -12    1    1    2    0    0  0.53035079086E+01  0.15715051901E+02  0.40106523152E+02  0.43400728700E+02  0.00000000000E+00 0.  1.
         11    1    3    3    0    0 -0.36741003636E+01 -0.14635761711E+02 -0.21100548989E+02  0.25941042813E+02  0.51100000000E-03 0. -1.
        -11    1    3    3    0    0 -0.49038956513E+01  0.23561476013E+01 -0.13626377335E+02  0.14672347584E+02  0.51100000000E-03 0.  1.
        -12    1    3    3    0    0  0.32744881063E+01 -0.34354377916E+01 -0.53795968276E+01  0.71738809027E+01  0.00000000000E+00 0.  1.
</event>
<event>
 7    1  0.2458979E-009  0.4778727E+02  0.7816164E-02  0.1312668E+00
        -11   -1    0    0    0    0  0.00000000000E+00  0.00000000000E+00  0.45593999997E+02  0.45594000000E+02  0.51100000000E-03 0.  1.
         11   -1    0    0    0    0 -0.00000000000E+00 -0.00000000000E+00 -0.45593999997E+02  0.45594000000E+02  0.51100000000E-03 0. -1.
    9900012    2    1    2    0    0 -0.33560879101E+02 -0.25770818488E+02 -0.96517004557E+01  0.47787274047E+02  0.20000013689E+02 0.  0.
        -12    1    1    2    0    0  0.33560879101E+02  0.25770818488E+02  0.96517004557E+01  0.43400725953E+02  0.00000000000E+00 0.  1.
         11    1    3    3    0    0 -0.29267263543E+02 -0.13640315453E+02 -0.24200464590E+01  0.32380357411E+02  0.51100000000E-03 0. -1.
        -11    1    3    3    0    0  0.42909756811E+00 -0.81989928173E-01  0.20360659952E+00  0.48197819429E+00  0.51100000000E-03 0.  1.
         12    1    3    3    0    0 -0.47227131268E+01 -0.12048513107E+02 -0.74352605962E+01  0.14924938442E+02  0.00000000000E+00 0. -1.
</event>
<event>
 7    1  0.2458979E-009  0.4778727E+02  0.7816164E-02  0.1312668E+00
        -11   -1    0    0    0    0  0.00000000000E+00  0.00000000000E+00  0.45593999997E+02  0.45594000000E+02  0.51100000000E-03 0. -1.
         11   -1    0    0    0    0 -0.00000000000E+00 -0.00000000000E+00 -0.45593999997E+02  0.45594000000E+02  0.51100000000E-03 0.  1.
    9900012    2    1    2    0    0 -0.26186395333E+02 -0.26216570057E+02  0.22596178207E+02  0.47787272867E+02  0.20000008311E+02 0.  0.
        -12    1    1    2    0    0  0.26186395333E+02  0.26216570057E+02 -0.22596178207E+02  0.43400727133E+02  0.00000000000E+00 0.  1.
         11    1    3    3    0    0 -0.65582736188E+01 -0.31667616803E+01  0.32500927460E+01  0.79751135113E+01  0.51100000000E-03 0. -1.
        -11    1    3    3    0    0 -0.17041275524E+02 -0.19121472207E+02  0.22546504685E+02  0.34123022208E+02  0.51100000000E-03 0.  1.
        -12    1    3    3    0    0 -0.25868461907E+01 -0.39283361692E+01 -0.32004192244E+01  0.56891371476E+01  0.00000000000E+00 0.  1.
</event>
<event>
 7    1  0.2458979E-009  0.4778727E+02  0.7816164E-02  0.1312668E+00
        -11   -1    0    0    0    0  0.00000000000E+00  0.00000000000E+00  0.45593999997E+02  0.45594000000E+02  0.51100000000E-03 0. -1.
         11   -1    0    0    0    0 -0.00000000000E+00 -0.00000000000E+00 -0.45593999997E+02  0.45594000000E+02  0.51100000000E-03 0.  1.
    9900012    2    1    2    0    0  0.34194269623E+02 -0.22379252030E+02  0.14613150826E+02  0.47787272200E+02  0.20000005271E+02 0.  0.
        -12    1    1    2    0    0 -0.34194269623E+02  0.22379252030E+02 -0.14613150826E+02  0.43400727800E+02  0.00000000000E+00 0.  1.
         11    1    3    3    0    0  0.12343461578E+01 -0.34715451372E+01  0.49188388100E+01  0.61457474384E+01  0.51100000000E-03 0. -1.
        -11    1    3    3    0    0  0.21070748122E+02 -0.77359974935E+01 -0.41327260349E+00  0.22449785704E+02  0.51100000000E-03 0.  1.
        -12    1    3    3    0    0  0.11889175343E+02 -0.11171709399E+02  0.10107584620E+02  0.19191739059E+02  0.00000000000E+00 0.  1.
</event>
<event>
 7    1  0.2458979E-009  0.4778727E+02  0.7816164E-02  0.1312668E+00
        -11   -1    0    0    0    0  0.00000000000E+00  0.00000000000E+00  0.45593999997E+02  0.45594000000E+02  0.51100000000E-03 0.  1.
         11   -1    0    0    0    0 -0.00000000000E+00 -0.00000000000E+00 -0.45593999997E+02  0.45594000000E+02  0.51100000000E-03 0. -1.
    9900012    2    1    2    0    0 -0.28834209023E+02 -0.10157749877E+02 -0.30806361679E+02  0.47787269448E+02  0.19999992723E+02 0.  0.
        -12    1    1    2    0    0  0.28834209023E+02  0.10157749877E+02  0.30806361679E+02  0.43400730552E+02  0.00000000000E+00 0.  1.
         11    1    3    3    0    0 -0.33224419637E+01 -0.58747206182E+00 -0.96066286444E+01  0.10181898556E+02  0.51100000000E-03 0. -1.
        -11    1    3    3    0    0 -0.35343146688E+01 -0.43216165588E+01  0.12849437090E+01  0.57287721595E+01  0.51100000000E-03 0.  1.
        -12    1    3    3    0    0 -0.21977452390E+02 -0.52486612564E+01 -0.22484676743E+02  0.31876598733E+02  0.00000000000E+00 0.  1.
</event>
<event>
 7    1  0.2458979E-009  0.4778726E+02  0.7816164E-02  0.1312668E+00
        -11   -1    0    0    0    0  0.00000000000E+00  0.00000000000E+00  0.45593999997E+02  0.45594000000E+02  0.51100000000E-03 0.  1.
         11   -1    0    0    0    0 -0.00000000000E+00 -0.00000000000E+00 -0.45593999997E+02  0.45594000000E+02  0.51100000000E-03 0. -1.
    9900012    2    1    2    0    0 -0.10978630524E+02  0.34930207729E+02 -0.23301821074E+02  0.47787255703E+02  0.19999930053E+02 0.  0.
        -12    1    1    2    0    0  0.10978630524E+02 -0.34930207729E+02  0.23301821074E+02  0.43400744297E+02  0.00000000000E+00 0.  1.
         11    1    3    3    0    0  0.63676403213E+00 -0.35315516229E+00 -0.15738677014E+01  0.17341415179E+01  0.51100000000E-03 0. -1.
        -11    1    3    3    0    0 -0.64194173833E+01  0.29647656660E+02 -0.98074646618E+01  0.31880696798E+02  0.51100000000E-03 0.  1.
        -12    1    3    3    0    0 -0.51959771733E+01  0.56357062311E+01 -0.11920488710E+02  0.14172417387E+02  0.00000000000E+00 0.  1.
</event>
<event>
 7    1  0.2458979E-009  0.4778727E+02  0.7816164E-02  0.1312668E+00
        -11   -1    0    0    0    0  0.00000000000E+00  0.00000000000E+00  0.45593999997E+02  0.45594000000E+02  0.51100000000E-03 0. -1.
         11   -1    0    0    0    0 -0.00000000000E+00 -0.00000000000E+00 -0.45593999997E+02  0.45594000000E+02  0.51100000000E-03 0.  1.
    9900012    2    1    2    0    0 -0.38425225428E+00  0.37157134559E+02 -0.22423723928E+02  0.47787266213E+02  0.19999977972E+02 0.  0.
        -12    1    1    2    0    0  0.38425225428E+00 -0.37157134559E+02  0.22423723928E+02  0.43400733787E+02  0.00000000000E+00 0.  1.
         11    1    3    3    0    0  0.45216978608E+01  0.71714735818E+01 -0.10923610397E+02  0.13827546754E+02  0.51100000000E-03 0. -1.
        -11    1    3    3    0    0  0.67990198190E+00 -0.42354970759E+00 -0.10558296194E+01  0.13253065706E+01  0.51100000000E-03 0.  1.
         12    1    3    3    0    0 -0.55858520969E+01  0.30409210685E+02 -0.10444283912E+02  0.32634412888E+02  0.00000000000E+00 0. -1.
</event>
<event>
 7    1  0.2458979E-009  0.4778729E+02  0.7816164E-02  0.1312668E+00
        -11   -1    0    0    0    0  0.00000000000E+00  0.00000000000E+00  0.45593999997E+02  0.45594000000E+02  0.51100000000E-03 0.  1.
         11   -1    0    0    0    0 -0.00000000000E+00 -0.00000000000E+00 -0.45593999997E+02  0.45594000000E+02  0.51100000000E-03 0. -1.
    9900012    2    1    2    0    0 -0.79378058489E+01 -0.40316944155E+02  0.13969846189E+02  0.47787293206E+02  0.20000101044E+02 0.  0.
        -12    1    1    2    0    0  0.79378058489E+01  0.40316944155E+02 -0.13969846189E+02  0.43400706794E+02  0.00000000000E+00 0.  1.
         11    1    3    3    0    0  0.26000808776E+01 -0.16322546270E+02  0.14464602501E+01  0.16591509419E+02  0.51100000000E-03 0. -1.
        -11    1    3    3    0    0 -0.11560732521E+02 -0.24729235703E+02  0.11763286774E+02  0.29724746439E+02  0.51100000000E-03 0.  1.
        -12    1    3    3    0    0  0.10228457947E+01  0.73483781807E+00  0.76009916435E+00  0.14710373477E+01  0.00000000000E+00 0.  1.
</event>
<event>
 7    1  0.2458979E-009  0.4778727E+02  0.7816164E-02  0.1312668E+00
        -11   -1    0    0    0    0  0.00000000000E+00  0.00000000000E+00  0.45593999997E+02  0.45594000000E+02  0.51100000000E-03 0.  1.
         11   -1    0    0    0    0 -0.00000000000E+00 -0.00000000000E+00 -0.45593999997E+02  0.45594000000E+02  0.51100000000E-03 0. -1.
    9900012    2    1    2    0    0  0.25862528270E+01 -0.14683798295E+02 -0.40759299800E+02  0.47787272400E+02  0.20000006180E+02 0.  0.
        -12    1    1    2    0    0 -0.25862528270E+01  0.14683798295E+02  0.40759299800E+02  0.43400727600E+02  0.00000000000E+00 0.  1.
         11    1    3    3    0    0  0.68334818390E+01 -0.74584553665E+01 -0.18455712230E+02  0.21046100462E+02  0.51100000000E-03 0. -1.
        -11    1    3    3    0    0 -0.24192788932E+01  0.31482534400E+01 -0.84641923738E+01  0.93491691014E+01  0.51100000000E-03 0.  1.
        -12    1    3    3    0    0 -0.18279501188E+01 -0.10373596369E+02 -0.13839395196E+02  0.17392002836E+02  0.00000000000E+00 0.  1.
</event>
<event>
 7    1  0.2458979E-009  0.4778728E+02  0.7816164E-02  0.1312668E+00
        -11   -1    0    0    0    0  0.00000000000E+00  0.00000000000E+00  0.45593999997E+02  0.45594000000E+02  0.51100000000E-03 0.  1.
         11   -1    0    0    0    0 -0.00000000000E+00 -0.00000000000E+00 -0.45593999997E+02  0.45594000000E+02  0.51100000000E-03 0. -1.
    9900012    2    1    2    0    0 -0.57920824707E+01  0.20978191002E+02 -0.37549833942E+02  0.47787277125E+02  0.20000027721E+02 0.  0.
        -12    1    1    2    0    0  0.57920824707E+01 -0.20978191002E+02  0.37549833942E+02  0.43400722875E+02  0.00000000000E+00 0.  1.
         11    1    3    3    0    0 -0.84976211315E+01  0.17599847624E+02 -0.25872019125E+02  0.32424151109E+02  0.51100000000E-03 0. -1.
        -11    1    3    3    0    0  0.79516936565E+00 -0.31053020741E+01 -0.33334684548E+01  0.46246305249E+01  0.51100000000E-03 0.  1.
         12    1    3    3    0    0  0.19103692951E+01  0.64836454517E+01 -0.83443463619E+01  0.10738495490E+02  0.00000000000E+00 0. -1.
</event>
<event>
 7    1  0.2458979E-009  0.4778727E+02  0.7816164E-02  0.1312668E+00
        -11   -1    0    0    0    0  0.00000000000E+00  0.00000000000E+00  0.45593999997E+02  0.45594000000E+02  0.51100000000E-03 0.  1.
         11   -1    0    0    0    0 -0.00000000000E+00 -0.00000000000E+00 -0.45593999997E+02  0.45594000000E+02  0.51100000000E-03 0. -1.
    9900012    2    1    2    0    0 -0.33001128550E+02 -0.65149150371E+01 -0.27424533324E+02  0.47787266924E+02  0.19999981214E+02 0.  0.
        -12    1    1    2    0    0  0.33001128550E+02  0.65149150371E+01  0.27424533324E+02  0.43400733076E+02  0.00000000000E+00 0.  1.
         11    1    3    3    0    0 -0.57194868971E+01  0.51942103594E+01 -0.14108243993E+01  0.78538383846E+01  0.51100000000E-03 0.  1.
        -11    1    3    3    0    0 -0.17444719098E+02 -0.43965488032E+01 -0.16595865637E+02  0.24475919233E+02  0.51100000000E-03 0. -1.
         12    1    3    3    0    0 -0.98369225546E+01 -0.73125765933E+01 -0.94178432877E+01  0.15457509307E+02  0.00000000000E+00 0. -1.
</event>
<event>
 7    1  0.2458979E-009  0.4778727E+02  0.7816164E-02  0.1312668E+00
        -11   -1    0    0    0    0  0.00000000000E+00  0.00000000000E+00  0.45593999997E+02  0.45594000000E+02  0.51100000000E-03 0.  1.
         11   -1    0    0    0    0 -0.00000000000E+00 -0.00000000000E+00 -0.45593999997E+02  0.45594000000E+02  0.51100000000E-03 0. -1.
    9900012    2    1    2    0    0  0.29135676346E+02  0.14384594142E+01 -0.32135126688E+02  0.47787272254E+02  0.20000005517E+02 0.  0.
        -12    1    1    2    0    0 -0.29135676346E+02 -0.14384594142E+01  0.32135126688E+02  0.43400727746E+02  0.00000000000E+00 0.  1.
         11    1    3    3    0    0  0.24469656749E+02 -0.33806621535E+01 -0.15225743473E+02  0.29017516134E+02  0.51100000000E-03 0. -1.
        -11    1    3    3    0    0 -0.27150092533E+00  0.10374453661E+01 -0.69193910123E+01  0.70019981350E+01  0.51100000000E-03 0.  1.
         12    1    3    3    0    0  0.49375205219E+01  0.37816762017E+01 -0.99899922026E+01  0.11767757986E+02  0.00000000000E+00 0. -1.
</event>
<event>
 7    1  0.2458979E-009  0.4778726E+02  0.7816164E-02  0.1312668E+00
        -11   -1    0    0    0    0  0.00000000000E+00  0.00000000000E+00  0.45593999997E+02  0.45594000000E+02  0.51100000000E-03 0.  1.
         11   -1    0    0    0    0 -0.00000000000E+00 -0.00000000000E+00 -0.45593999997E+02  0.45594000000E+02  0.51100000000E-03 0. -1.
    9900012    2    1    2    0    0  0.12950250574E+02 -0.72747372386E+01 -0.40779817743E+02  0.47787258912E+02  0.19999944684E+02 0.  0.
        -12    1    1    2    0    0 -0.12950250574E+02  0.72747372386E+01  0.40779817743E+02  0.43400741088E+02  0.00000000000E+00 0.  1.
         11    1    3    3    0    0  0.12713404879E+02 -0.77268888376E+01 -0.25891631803E+02  0.29861548392E+02  0.51100000000E-03 0. -1.
        -11    1    3    3    0    0 -0.92069429307E+00  0.21542565826E+01  0.50411911673E+00  0.23963797174E+01  0.51100000000E-03 0.  1.
         12    1    3    3    0    0  0.11575399883E+01 -0.17021049836E+01 -0.15392305057E+02  0.15529330802E+02  0.00000000000E+00 0. -1.
</event>
<event>
 7    1  0.2458979E-009  0.4778727E+02  0.7816164E-02  0.1312668E+00
        -11   -1    0    0    0    0  0.00000000000E+00  0.00000000000E+00  0.45593999997E+02  0.45594000000E+02  0.51100000000E-03 0.  1.
         11   -1    0    0    0    0 -0.00000000000E+00 -0.00000000000E+00 -0.45593999997E+02  0.45594000000E+02  0.51100000000E-03 0. -1.
    9900012    2    1    2    0    0 -0.40157145330E+02  0.16457151485E+02  0.43472264040E+00  0.47787272589E+02  0.20000007040E+02 0.  0.
        -12    1    1    2    0    0  0.40157145330E+02 -0.16457151485E+02 -0.43472264040E+00  0.43400727411E+02  0.00000000000E+00 0.  1.
         11    1    3    3    0    0 -0.31345367158E+00  0.57491154446E+01  0.62509098143E+00  0.57914869072E+01  0.51100000000E-03 0. -1.
        -11    1    3    3    0    0 -0.18004559892E+02  0.49737899147E+01 -0.39862188298E+01  0.19099547216E+02  0.51100000000E-03 0.  1.
         12    1    3    3    0    0 -0.21839131766E+02  0.57342461258E+01  0.37958504888E+01  0.22896238466E+02  0.00000000000E+00 0. -1.
</event>
<event>
 7    1  0.2458979E-009  0.4778727E+02  0.7816164E-02  0.1312668E+00
        -11   -1    0    0    0    0  0.00000000000E+00  0.00000000000E+00  0.45593999997E+02  0.45594000000E+02  0.51100000000E-03 0.  1.
         11   -1    0    0    0    0 -0.00000000000E+00 -0.00000000000E+00 -0.45593999997E+02  0.45594000000E+02  0.51100000000E-03 0. -1.
    9900012    2    1    2    0    0  0.33753239269E+02 -0.25147427966E+02 -0.10580583123E+02  0.47787273811E+02  0.20000012616E+02 0.  0.
        -12    1    1    2    0    0 -0.33753239269E+02  0.25147427966E+02  0.10580583123E+02  0.43400726189E+02  0.00000000000E+00 0.  1.
         11    1    3    3    0    0  0.42120007321E+01 -0.11141376673E+02 -0.49021836416E+01  0.12880319447E+02  0.51100000000E-03 0. -1.
        -11    1    3    3    0    0  0.92578983700E+00 -0.33027791131E+01  0.11195009418E+01  0.36081462432E+01  0.51100000000E-03 0.  1.
         12    1    3    3    0    0  0.28615448700E+02 -0.10703272180E+02 -0.67979004232E+01  0.31298808121E+02  0.00000000000E+00 0. -1.
</event>
<event>
 7    1  0.2458979E-009  0.4778727E+02  0.7816164E-02  0.1312668E+00
        -11   -1    0    0    0    0  0.00000000000E+00  0.00000000000E+00  0.45593999997E+02  0.45594000000E+02  0.51100000000E-03 0.  1.
         11   -1    0    0    0    0 -0.00000000000E+00 -0.00000000000E+00 -0.45593999997E+02  0.45594000000E+02  0.51100000000E-03 0. -1.
    9900012    2    1    2    0    0  0.36100620099E+02 -0.15275762961E+02 -0.18628467763E+02  0.47787268246E+02  0.19999987240E+02 0.  0.
        -12    1    1    2    0    0 -0.36100620099E+02  0.15275762961E+02  0.18628467763E+02  0.43400731754E+02  0.00000000000E+00 0.  1.
         11    1    3    3    0    0  0.27756804121E+02 -0.12468252287E+02 -0.20775333226E+02  0.36844429172E+02  0.51100000000E-03 0. -1.
        -11    1    3    3    0    0  0.81405444925E+01 -0.29212755755E+01  0.36748708056E+01  0.93971799664E+01  0.51100000000E-03 0.  1.
        -12    1    3    3    0    0  0.20327148561E+00  0.11376490127E+00 -0.15280053421E+01  0.15456591070E+01  0.00000000000E+00 0.  1.
</event>
<event>
 7    1  0.2458979E-009  0.4778729E+02  0.7816164E-02  0.1312668E+00
        -11   -1    0    0    0    0  0.00000000000E+00  0.00000000000E+00  0.45593999997E+02  0.45594000000E+02  0.51100000000E-03 0. -1.
         11   -1    0    0    0    0 -0.00000000000E+00 -0.00000000000E+00 -0.45593999997E+02  0.45594000000E+02  0.51100000000E-03 0.  1.
    9900012    2    1    2    0    0 -0.39287458498E+02 -0.13634751517E+02  0.12418170730E+02  0.47787287927E+02  0.20000076972E+02 0.  0.
        -12    1    1    2    0    0  0.39287458498E+02  0.13634751517E+02 -0.12418170730E+02  0.43400712073E+02  0.00000000000E+00 0.  1.
         11    1    3    3    0    0 -0.78659863999E+01 -0.94168299463E+01 -0.40681889119E+00  0.12276641648E+02  0.51100000000E-03 0. -1.
        -11    1    3    3    0    0 -0.56138520085E+01  0.10073396664E+01  0.60648846255E+01  0.83254365266E+01  0.51100000000E-03 0.  1.
         12    1    3    3    0    0 -0.25807620090E+02 -0.52252612372E+01  0.67601049955E+01  0.27185209752E+02  0.00000000000E+00 0. -1.
</event>
<event>
 7    1  0.2458979E-009  0.4778728E+02  0.7816164E-02  0.1312668E+00
        -11   -1    0    0    0    0  0.00000000000E+00  0.00000000000E+00  0.45593999997E+02  0.45594000000E+02  0.51100000000E-03 0.  1.
         11   -1    0    0    0    0 -0.00000000000E+00 -0.00000000000E+00 -0.45593999997E+02  0.45594000000E+02  0.51100000000E-03 0. -1.
    9900012    2    1    2    0    0 -0.84120329359E+01  0.17153989044E+02 -0.38969230994E+02  0.47787278779E+02  0.20000035264E+02 0.  0.
        -12    1    1    2    0    0  0.84120329359E+01 -0.17153989044E+02  0.38969230994E+02  0.43400721221E+02  0.00000000000E+00 0.  1.
         11    1    3    3    0    0  0.13056829252E+01  0.44150440507E+01 -0.92865493092E+01  0.10365202372E+02  0.51100000000E-03 0. -1.
        -11    1    3    3    0    0 -0.66780862711E+01  0.16124727496E+02 -0.18937849171E+02  0.25753559065E+02  0.51100000000E-03 0.  1.
        -12    1    3    3    0    0 -0.30396295900E+01 -0.33857825021E+01 -0.10744832514E+02  0.11668517342E+02  0.00000000000E+00 0.  1.
</event>
<event>
 7    1  0.2458979E-009  0.4778727E+02  0.7816164E-02  0.1312668E+00
        -11   -1    0    0    0    0  0.00000000000E+00  0.00000000000E+00  0.45593999997E+02  0.45594000000E+02  0.51100000000E-03 0.  1.
         11   -1    0    0    0    0 -0.00000000000E+00 -0.00000000000E+00 -0.45593999997E+02  0.45594000000E+02  0.51100000000E-03 0. -1.
    9900012    2    1    2    0    0  0.10284426900E+02 -0.99821542954E+01 -0.40965967554E+02  0.47787270298E+02  0.19999996595E+02 0.  0.
        -12    1    1    2    0    0 -0.10284426900E+02  0.99821542954E+01  0.40965967554E+02  0.43400729702E+02  0.00000000000E+00 0.  1.
         11    1    3    3    0    0  0.48155346428E+01  0.40077253305E+01 -0.93203446885E+01  0.11230318855E+02  0.51100000000E-03 0. -1.
        -11    1    3    3    0    0 -0.46271733862E+00 -0.86519050489E+01 -0.87643006620E+01  0.12324063237E+02  0.51100000000E-03 0.  1.
        -12    1    3    3    0    0  0.59316095957E+01 -0.53379745769E+01 -0.22881322204E+02  0.24232888205E+02  0.00000000000E+00 0.  1.
</event>
<event>
 7    1  0.2458979E-009  0.4778724E+02  0.7816164E-02  0.1312668E+00
        -11   -1    0    0    0    0  0.00000000000E+00  0.00000000000E+00  0.45593999997E+02  0.45594000000E+02  0.51100000000E-03 0.  1.
         11   -1    0    0    0    0 -0.00000000000E+00 -0.00000000000E+00 -0.45593999997E+02  0.45594000000E+02  0.51100000000E-03 0. -1.
    9900012    2    1    2    0    0  0.78827206431E+01  0.18743017437E+02 -0.38343032384E+02  0.47787238258E+02  0.19999850514E+02 0.  0.
        -12    1    1    2    0    0 -0.78827206431E+01 -0.18743017437E+02  0.38343032384E+02  0.43400761742E+02  0.00000000000E+00 0.  1.
         11    1    3    3    0    0  0.84338701463E+01  0.19941783339E+02 -0.37084720082E+02  0.42942768334E+02  0.51100000000E-03 0. -1.
        -11    1    3    3    0    0 -0.10157458910E+01 -0.39703358431E+00  0.15454781800E+01  0.18915280723E+01  0.51100000000E-03 0.  1.
         12    1    3    3    0    0  0.46459638775E+00 -0.80173231761E+00 -0.28037904821E+01  0.29529418518E+01  0.00000000000E+00 0. -1.
</event>
<event>
 7    1  0.2458979E-009  0.4778727E+02  0.7816164E-02  0.1312668E+00
        -11   -1    0    0    0    0  0.00000000000E+00  0.00000000000E+00  0.45593999997E+02  0.45594000000E+02  0.51100000000E-03 0.  1.
         11   -1    0    0    0    0 -0.00000000000E+00 -0.00000000000E+00 -0.45593999997E+02  0.45594000000E+02  0.51100000000E-03 0. -1.
    9900012    2    1    2    0    0  0.81737015441E+01 -0.38591840530E+02 -0.18096510620E+02  0.47787271330E+02  0.20000001304E+02 0.  0.
        -12    1    1    2    0    0 -0.81737015441E+01  0.38591840530E+02  0.18096510620E+02  0.43400728670E+02  0.00000000000E+00 0.  1.
         11    1    3    3    0    0  0.39137271086E+01 -0.16983529831E+02 -0.40544894028E+01  0.17894033363E+02  0.51100000000E-03 0. -1.
        -11    1    3    3    0    0 -0.25584101281E+01 -0.10405260250E+01 -0.63075133273E+01  0.68857012299E+01  0.51100000000E-03 0.  1.
        -12    1    3    3    0    0  0.68183845636E+01 -0.20567784674E+02 -0.77345078901E+01  0.23007536738E+02  0.00000000000E+00 0.  1.
</event>
<event>
 7    1  0.2458979E-009  0.4778728E+02  0.7816164E-02  0.1312668E+00
        -11   -1    0    0    0    0  0.00000000000E+00  0.00000000000E+00  0.45593999997E+02  0.45594000000E+02  0.51100000000E-03 0. -1.
         11   -1    0    0    0    0 -0.00000000000E+00 -0.00000000000E+00 -0.45593999997E+02  0.45594000000E+02  0.51100000000E-03 0.  1.
    9900012    2    1    2    0    0 -0.73904719610E+01  0.37712422468E+02  0.20168713737E+02  0.47787275374E+02  0.20000019741E+02 0.  0.
        -12    1    1    2    0    0  0.73904719610E+01 -0.37712422468E+02 -0.20168713737E+02  0.43400724626E+02  0.00000000000E+00 0.  1.
         11    1    3    3    0    0 -0.11061947092E+02  0.26574953126E+02  0.16585944969E+02  0.33221805759E+02  0.51100000000E-03 0. -1.
        -11    1    3    3    0    0  0.52966109973E+01  0.66429621497E+01 -0.15603880858E+00  0.84974927214E+01  0.51100000000E-03 0.  1.
        -12    1    3    3    0    0 -0.16251358664E+01  0.44945071921E+01  0.37388075770E+01  0.60679768937E+01  0.00000000000E+00 0.  1.
</event>
<event>
 7    1  0.2458979E-009  0.4778727E+02  0.7816164E-02  0.1312668E+00
        -11   -1    0    0    0    0  0.00000000000E+00  0.00000000000E+00  0.45593999997E+02  0.45594000000E+02  0.51100000000E-03 0.  1.
         11   -1    0    0    0    0 -0.00000000000E+00 -0.00000000000E+00 -0.45593999997E+02  0.45594000000E+02  0.51100000000E-03 0. -1.
    9900012    2    1    2    0    0  0.16217821787E+02 -0.61409130065E+01 -0.39785608410E+02  0.47787271980E+02  0.20000004266E+02 0.  0.
        -12    1    1    2    0    0 -0.16217821787E+02  0.61409130065E+01  0.39785608410E+02  0.43400728020E+02  0.00000000000E+00 0.  1.
         11    1    3    3    0    0  0.13168841383E+02  0.16434812108E+01 -0.23771014127E+02  0.27224630884E+02  0.51100000000E-03 0. -1.
        -11    1    3    3    0    0  0.15775904976E+01 -0.99538848758E+01 -0.11099851857E+02  0.14992509043E+02  0.51100000000E-03 0.  1.
        -12    1    3    3    0    0  0.14713899070E+01  0.21694906586E+01 -0.49147424255E+01  0.55701320528E+01  0.00000000000E+00 0.  1.
</event>
<event>
 7    1  0.2458979E-009  0.4778727E+02  0.7816164E-02  0.1312668E+00
        -11   -1    0    0    0    0  0.00000000000E+00  0.00000000000E+00  0.45593999997E+02  0.45594000000E+02  0.51100000000E-03 0.  1.
         11   -1    0    0    0    0 -0.00000000000E+00 -0.00000000000E+00 -0.45593999997E+02  0.45594000000E+02  0.51100000000E-03 0. -1.
    9900012    2    1    2    0    0  0.28275969465E+02 -0.22657428753E+02 -0.23890030716E+02  0.47787273111E+02  0.20000009422E+02 0.  0.
        -12    1    1    2    0    0 -0.28275969465E+02  0.22657428753E+02  0.23890030716E+02  0.43400726889E+02  0.00000000000E+00 0.  1.
         11    1    3    3    0    0  0.18583917613E+02 -0.10561213687E+02 -0.27712423512E+01  0.21554141431E+02  0.51100000000E-03 0. -1.
        -11    1    3    3    0    0  0.33257333157E+01 -0.48903870647E+01 -0.88769034468E+01  0.10666574089E+02  0.51100000000E-03 0.  1.
         12    1    3    3    0    0  0.63663185364E+01 -0.72058280014E+01 -0.12241884918E+02  0.15566557591E+02  0.00000000000E+00 0. -1.
</event>
<event>
 7    1  0.2458979E-009  0.4778727E+02  0.7816164E-02  0.1312668E+00
        -11   -1    0    0    0    0  0.00000000000E+00  0.00000000000E+00  0.45593999997E+02  0.45594000000E+02  0.51100000000E-03 0. -1.
         11   -1    0    0    0    0 -0.00000000000E+00 -0.00000000000E+00 -0.45593999997E+02  0.45594000000E+02  0.51100000000E-03 0.  1.
    9900012    2    1    2    0    0  0.63573570964E+01 -0.30507977272E+02  0.30207135558E+02  0.47787266076E+02  0.19999977347E+02 0.  0.
        -12    1    1    2    0    0 -0.63573570964E+01  0.30507977272E+02 -0.30207135558E+02  0.43400733924E+02  0.00000000000E+00 0.  1.
         11    1    3    3    0    0  0.71039352771E+01 -0.71144979061E+01  0.45229027499E+01  0.11024455833E+02  0.51100000000E-03 0. -1.
        -11    1    3    3    0    0 -0.28220168674E+01 -0.50369721640E+01  0.13364171141E+02  0.14558019726E+02  0.51100000000E-03 0.  1.
        -12    1    3    3    0    0  0.20754386866E+01 -0.18356507202E+02  0.12320061667E+02  0.22204790517E+02  0.00000000000E+00 0.  1.
</event>
<event>
 7    1  0.2458979E-009  0.4778727E+02  0.7816164E-02  0.1312668E+00
        -11   -1    0    0    0    0  0.00000000000E+00  0.00000000000E+00  0.45593999997E+02  0.45594000000E+02  0.51100000000E-03 0.  1.
         11   -1    0    0    0    0 -0.00000000000E+00 -0.00000000000E+00 -0.45593999997E+02  0.45594000000E+02  0.51100000000E-03 0. -1.
    9900012    2    1    2    0    0 -0.20745660352E+02 -0.23277542911E+02 -0.30189347027E+02  0.47787273032E+02  0.20000009062E+02 0.  0.
        -12    1    1    2    0    0  0.20745660352E+02  0.23277542911E+02  0.30189347027E+02  0.43400726968E+02  0.00000000000E+00 0.  1.
         11    1    3    3    0    0 -0.24982947236E+01 -0.24655622518E+01 -0.14805144001E+02  0.15215543463E+02  0.51100000000E-03 0. -1.
        -11    1    3    3    0    0 -0.16696842804E+02 -0.17609481057E+02 -0.15848180407E+02  0.28983498843E+02  0.51100000000E-03 0.  1.
        -12    1    3    3    0    0 -0.15505228247E+01 -0.32024996025E+01  0.46397738027E+00  0.35882307260E+01  0.00000000000E+00 0.  1.
</event>
<event>
 7    1  0.2458979E-009  0.4778727E+02  0.7816164E-02  0.1312668E+00
        -11   -1    0    0    0    0  0.00000000000E+00  0.00000000000E+00  0.45593999997E+02  0.45594000000E+02  0.51100000000E-03 0.  1.
         11   -1    0    0    0    0 -0.00000000000E+00 -0.00000000000E+00 -0.45593999997E+02  0.45594000000E+02  0.51100000000E-03 0. -1.
    9900012    2    1    2    0    0  0.33628516696E+02 -0.19209814958E+02 -0.19589003141E+02  0.47787272242E+02  0.20000005458E+02 0.  0.
        -12    1    1    2    0    0 -0.33628516696E+02  0.19209814958E+02  0.19589003141E+02  0.43400727758E+02  0.00000000000E+00 0.  1.
         11    1    3    3    0    0  0.33632517077E+02 -0.15608330132E+02 -0.14726548022E+02  0.39895330445E+02  0.51100000000E-03 0. -1.
        -11    1    3    3    0    0 -0.14314747829E-01 -0.38755354412E+01 -0.57661497833E+01  0.69475508960E+01  0.51100000000E-03 0.  1.
         12    1    3    3    0    0  0.10314367346E-01  0.27405061541E+00  0.90369466452E+00  0.94439090035E+00  0.00000000000E+00 0. -1.
</event>
<event>
 7    1  0.2458979E-009  0.4778727E+02  0.7816164E-02  0.1312668E+00
        -11   -1    0    0    0    0  0.00000000000E+00  0.00000000000E+00  0.45593999997E+02  0.45594000000E+02  0.51100000000E-03 0. -1.
         11   -1    0    0    0    0 -0.00000000000E+00 -0.00000000000E+00 -0.45593999997E+02  0.45594000000E+02  0.51100000000E-03 0.  1.
    9900012    2    1    2    0    0  0.26905344616E+02 -0.31189044190E+02  0.13673675670E+02  0.47787268984E+02  0.19999990605E+02 0.  0.
        -12    1    1    2    0    0 -0.26905344616E+02  0.31189044190E+02 -0.13673675670E+02  0.43400731016E+02  0.00000000000E+00 0.  1.
         11    1    3    3    0    0  0.10522254817E+02 -0.22996578201E+02  0.11845783362E+02  0.27926386074E+02  0.51100000000E-03 0. -1.
        -11    1    3    3    0    0  0.75096423825E+01 -0.42615216137E+01 -0.28425413984E+01  0.90903980683E+01  0.51100000000E-03 0.  1.
        -12    1    3    3    0    0  0.88734474159E+01 -0.39309443753E+01  0.46704337066E+01  0.10770484842E+02  0.00000000000E+00 0.  1.
</event>
<event>
 7    1  0.2458979E-009  0.4778727E+02  0.7816164E-02  0.1312668E+00
        -11   -1    0    0    0    0  0.00000000000E+00  0.00000000000E+00  0.45593999997E+02  0.45594000000E+02  0.51100000000E-03 0. -1.
         11   -1    0    0    0    0 -0.00000000000E+00 -0.00000000000E+00 -0.45593999997E+02  0.45594000000E+02  0.51100000000E-03 0.  1.
    9900012    2    1    2    0    0 -0.19138581741E+02 -0.33225315269E+02 -0.20332640952E+02  0.47787272196E+02  0.20000005251E+02 0.  0.
        -12    1    1    2    0    0  0.19138581741E+02  0.33225315269E+02  0.20332640952E+02  0.43400727804E+02  0.00000000000E+00 0.  1.
         11    1    3    3    0    0 -0.10237949952E+02 -0.16737427373E+02 -0.42837027725E+01  0.20082509903E+02  0.51100000000E-03 0. -1.
        -11    1    3    3    0    0 -0.69832355635E+00 -0.29937835095E+01 -0.10541355523E+02  0.10980463197E+02  0.51100000000E-03 0.  1.
        -12    1    3    3    0    0 -0.82023082330E+01 -0.13494104387E+02 -0.55075826561E+01  0.16724299096E+02  0.00000000000E+00 0.  1.
</event>
<event>
 7    1  0.2458979E-009  0.4778727E+02  0.7816164E-02  0.1312668E+00
        -11   -1    0    0    0    0  0.00000000000E+00  0.00000000000E+00  0.45593999997E+02  0.45594000000E+02  0.51100000000E-03 0.  1.
         11   -1    0    0    0    0 -0.00000000000E+00 -0.00000000000E+00 -0.45593999997E+02  0.45594000000E+02  0.51100000000E-03 0. -1.
    9900012    2    1    2    0    0  0.29184559733E+02  0.10400356900E+01 -0.32106118788E+02  0.47787273454E+02  0.20000010987E+02 0.  0.
        -12    1    1    2    0    0 -0.29184559733E+02 -0.10400356900E+01  0.32106118788E+02  0.43400726546E+02  0.00000000000E+00 0.  1.
         11    1    3    3    0    0  0.22405587494E+02  0.18352902654E+01 -0.27802760469E+02  0.35754330245E+02  0.51100000000E-03 0. -1.
        -11    1    3    3    0    0  0.22599329858E+01  0.29266723681E+00  0.27588859870E+01  0.35783240997E+01  0.51100000000E-03 0.  1.
        -12    1    3    3    0    0  0.45190392529E+01 -0.10879218122E+01 -0.70622443061E+01  0.84546191090E+01  0.00000000000E+00 0.  1.
</event>
<event>
 7    1  0.2458979E-009  0.4778728E+02  0.7816164E-02  0.1312668E+00
        -11   -1    0    0    0    0  0.00000000000E+00  0.00000000000E+00  0.45593999997E+02  0.45594000000E+02  0.51100000000E-03 0.  1.
         11   -1    0    0    0    0 -0.00000000000E+00 -0.00000000000E+00 -0.45593999997E+02  0.45594000000E+02  0.51100000000E-03 0. -1.
    9900012    2    1    2    0    0  0.17364421156E+02  0.35235551752E+02 -0.18454137817E+02  0.47787280744E+02  0.20000044223E+02 0.  0.
        -12    1    1    2    0    0 -0.17364421156E+02 -0.35235551752E+02  0.18454137817E+02  0.43400719256E+02  0.00000000000E+00 0.  1.
         11    1    3    3    0    0  0.18597483907E+02  0.23311812498E+02 -0.16979143096E+02  0.34316152321E+02  0.51100000000E-03 0. -1.
        -11    1    3    3    0    0  0.38146919501E+00  0.73777381213E+01  0.18455198400E+01  0.76146229240E+01  0.51100000000E-03 0.  1.
         12    1    3    3    0    0 -0.16145319454E+01  0.45460011334E+01 -0.33205145609E+01  0.58565054987E+01  0.00000000000E+00 0. -1.
</event>
<event>
 7    1  0.2458979E-009  0.4778727E+02  0.7816164E-02  0.1312668E+00
        -11   -1    0    0    0    0  0.00000000000E+00  0.00000000000E+00  0.45593999997E+02  0.45594000000E+02  0.51100000000E-03 0.  1.
         11   -1    0    0    0    0 -0.00000000000E+00 -0.00000000000E+00 -0.45593999997E+02  0.45594000000E+02  0.51100000000E-03 0. -1.
    9900012    2    1    2    0    0  0.29103012510E+02  0.23157007069E+02 -0.22369419531E+02  0.47787271392E+02  0.20000001585E+02 0.  0.
        -12    1    1    2    0    0 -0.29103012510E+02 -0.23157007069E+02  0.22369419531E+02  0.43400728608E+02  0.00000000000E+00 0.  1.
         11    1    3    3    0    0  0.16222713957E+02  0.19633115879E+02 -0.21490340570E+02  0.33323721660E+02  0.51100000000E-03 0.  1.
        -11    1    3    3    0    0  0.10585018410E+02  0.77887961531E+00 -0.18085397710E+01  0.10766618994E+02  0.51100000000E-03 0. -1.
         12    1    3    3    0    0  0.22952801426E+01  0.27450115752E+01  0.92946080968E+00  0.36969307375E+01  0.00000000000E+00 0. -1.
</event>
<event>
 7    1  0.2458979E-009  0.4778725E+02  0.7816164E-02  0.1312668E+00
        -11   -1    0    0    0    0  0.00000000000E+00  0.00000000000E+00  0.45593999997E+02  0.45594000000E+02  0.51100000000E-03 0.  1.
         11   -1    0    0    0    0 -0.00000000000E+00 -0.00000000000E+00 -0.45593999997E+02  0.45594000000E+02  0.51100000000E-03 0. -1.
    9900012    2    1    2    0    0  0.19065274225E+02  0.21232236279E+02 -0.32700650777E+02  0.47787250008E+02  0.19999904084E+02 0.  0.
        -12    1    1    2    0    0 -0.19065274225E+02 -0.21232236279E+02  0.32700650777E+02  0.43400749992E+02  0.00000000000E+00 0.  1.
         11    1    3    3    0    0  0.19756948434E+02  0.19137569950E+02 -0.19826913590E+02  0.33907080348E+02  0.51100000000E-03 0. -1.
        -11    1    3    3    0    0  0.25469205654E+00  0.77968824401E+00 -0.12021730913E+02  0.12049680336E+02  0.51100000000E-03 0.  1.
         12    1    3    3    0    0 -0.94636626488E+00  0.13149780846E+01 -0.85200627435E+00  0.18304893230E+01  0.00000000000E+00 0. -1.
</event>
<event>
 7    1  0.2458979E-009  0.4778727E+02  0.7816164E-02  0.1312668E+00
        -11   -1    0    0    0    0  0.00000000000E+00  0.00000000000E+00  0.45593999997E+02  0.45594000000E+02  0.51100000000E-03 0.  1.
         11   -1    0    0    0    0 -0.00000000000E+00 -0.00000000000E+00 -0.45593999997E+02  0.45594000000E+02  0.51100000000E-03 0. -1.
    9900012    2    1    2    0    0 -0.95199658333E+01 -0.18920990221E+02 -0.37881258259E+02  0.47787270194E+02  0.19999996124E+02 0.  0.
        -12    1    1    2    0    0  0.95199658333E+01  0.18920990221E+02  0.37881258259E+02  0.43400729806E+02  0.00000000000E+00 0.  1.
         11    1    3    3    0    0 -0.11517003490E+02 -0.26096708011E+01 -0.15385973718E+02  0.19395358687E+02  0.51100000000E-03 0. -1.
        -11    1    3    3    0    0  0.35902613135E+01 -0.10397241642E+02 -0.12324367831E+02  0.16519160171E+02  0.51100000000E-03 0.  1.
         12    1    3    3    0    0 -0.15932236568E+01 -0.59140777778E+01 -0.10170916709E+02  0.11872751336E+02  0.00000000000E+00 0. -1.
</event>
<event>
 7    1  0.2458979E-009  0.4778727E+02  0.7816164E-02  0.1312668E+00
        -11   -1    0    0    0    0  0.00000000000E+00  0.00000000000E+00  0.45593999997E+02  0.45594000000E+02  0.51100000000E-03 0.  1.
         11   -1    0    0    0    0 -0.00000000000E+00 -0.00000000000E+00 -0.45593999997E+02  0.45594000000E+02  0.51100000000E-03 0. -1.
    9900012    2    1    2    0    0  0.31626463329E+02 -0.27748793558E+02 -0.10648687015E+02  0.47787271184E+02  0.20000000636E+02 0.  0.
        -12    1    1    2    0    0 -0.31626463329E+02  0.27748793558E+02  0.10648687015E+02  0.43400728816E+02  0.00000000000E+00 0.  1.
         11    1    3    3    0    0  0.25710767419E+02 -0.18880146167E+02 -0.12980455987E+02  0.34438288553E+02  0.51100000000E-03 0. -1.
        -11    1    3    3    0    0  0.65484377822E+01 -0.74856749016E+01  0.43219756203E+01  0.10844207654E+02  0.51100000000E-03 0.  1.
        -12    1    3    3    0    0 -0.63274187218E+00 -0.13829724898E+01 -0.19902066484E+01  0.25047749774E+01  0.00000000000E+00 0.  1.
</event>
<event>
 7    1  0.2458979E-009  0.4778727E+02  0.7816164E-02  0.1312668E+00
        -11   -1    0    0    0    0  0.00000000000E+00  0.00000000000E+00  0.45593999997E+02  0.45594000000E+02  0.51100000000E-03 0.  1.
         11   -1    0    0    0    0 -0.00000000000E+00 -0.00000000000E+00 -0.45593999997E+02  0.45594000000E+02  0.51100000000E-03 0. -1.
    9900012    2    1    2    0    0  0.10236352402E+02 -0.39432232731E+02 -0.14964616044E+02  0.47787267034E+02  0.19999981714E+02 0.  0.
        -12    1    1    2    0    0 -0.10236352402E+02  0.39432232731E+02  0.14964616044E+02  0.43400732966E+02  0.00000000000E+00 0.  1.
         11    1    3    3    0    0  0.14365265993E+01 -0.31964583482E+01 -0.89814579209E+01  0.96409305198E+01  0.51100000000E-03 0. -1.
        -11    1    3    3    0    0  0.99838968419E+00 -0.44841373194E+01  0.10268487444E+01  0.47073015695E+01  0.51100000000E-03 0.  1.
         12    1    3    3    0    0  0.78014361188E+01 -0.31751637064E+02 -0.70100068670E+01  0.33439034944E+02  0.00000000000E+00 0. -1.
</event>
<event>
 7    1  0.2458979E-009  0.4778728E+02  0.7816164E-02  0.1312668E+00
        -11   -1    0    0    0    0  0.00000000000E+00  0.00000000000E+00  0.45593999997E+02  0.45594000000E+02  0.51100000000E-03 0.  1.
         11   -1    0    0    0    0 -0.00000000000E+00 -0.00000000000E+00 -0.45593999997E+02  0.45594000000E+02  0.51100000000E-03 0. -1.
    9900012    2    1    2    0    0 -0.33489264276E+01  0.42078404738E+02 -0.10090360320E+02  0.47787276217E+02  0.20000023582E+02 0.  0.
        -12    1    1    2    0    0  0.33489264276E+01 -0.42078404738E+02  0.10090360320E+02  0.43400723783E+02  0.00000000000E+00 0.  1.
         11    1    3    3    0    0  0.36801155647E+01  0.46399502700E+01 -0.10163600930E+01  0.60087750147E+01  0.51100000000E-03 0. -1.
        -11    1    3    3    0    0 -0.94334222485E+01  0.15472977645E+02 -0.75423772286E+01  0.19628804014E+02  0.51100000000E-03 0.  1.
        -12    1    3    3    0    0  0.24043802562E+01  0.21965476823E+02 -0.15316229987E+01  0.22149697188E+02  0.00000000000E+00 0.  1.
</event>
<event>
 7    1  0.2458979E-009  0.4778725E+02  0.7816164E-02  0.1312668E+00
        -11   -1    0    0    0    0  0.00000000000E+00  0.00000000000E+00  0.45593999997E+02  0.45594000000E+02  0.51100000000E-03 0.  1.
         11   -1    0    0    0    0 -0.00000000000E+00 -0.00000000000E+00 -0.45593999997E+02  0.45594000000E+02  0.51100000000E-03 0. -1.
    9900012    2    1    2    0    0  0.17449167056E+02 -0.39737115954E+02  0.33654118354E+00  0.47787250292E+02  0.19999905381E+02 0.  0.
        -12    1    1    2    0    0 -0.17449167056E+02  0.39737115954E+02 -0.33654118354E+00  0.43400749708E+02  0.00000000000E+00 0.  1.
         11    1    3    3    0    0  0.18654535942E+02 -0.27611681488E+02 -0.84519609348E+00  0.33333332005E+02  0.51100000000E-03 0. -1.
        -11    1    3    3    0    0  0.23424935327E+01 -0.47167009849E+01 -0.20159883296E+01  0.56390383345E+01  0.51100000000E-03 0.  1.
         12    1    3    3    0    0 -0.35478624190E+01 -0.74087334804E+01  0.31977256067E+01  0.88148799529E+01  0.00000000000E+00 0. -1.
</event>
<event>
 7    1  0.2458979E-009  0.4778727E+02  0.7816164E-02  0.1312668E+00
        -11   -1    0    0    0    0  0.00000000000E+00  0.00000000000E+00  0.45593999997E+02  0.45594000000E+02  0.51100000000E-03 0.  1.
         11   -1    0    0    0    0 -0.00000000000E+00 -0.00000000000E+00 -0.45593999997E+02  0.45594000000E+02  0.51100000000E-03 0. -1.
    9900012    2    1    2    0    0  0.39753329828E+02 -0.16494891984E+02  0.55870133043E+01  0.47787269457E+02  0.19999992764E+02 0.  0.
        -12    1    1    2    0    0 -0.39753329828E+02  0.16494891984E+02 -0.55870133043E+01  0.43400730543E+02  0.00000000000E+00 0.  1.
         11    1    3    3    0    0  0.72236524697E+01 -0.55037790852E+01 -0.56638076332E+01  0.10702871409E+02  0.51100000000E-03 0. -1.
        -11    1    3    3    0    0  0.21226416557E+02 -0.28938465262E+01  0.64023151066E+01  0.22358996993E+02  0.51100000000E-03 0.  1.
         12    1    3    3    0    0  0.11303260802E+02 -0.80972663726E+01  0.48485058310E+01  0.14725401056E+02  0.00000000000E+00 0. -1.
</event>
<event>
 7    1  0.2458979E-009  0.4778727E+02  0.7816164E-02  0.1312668E+00
        -11   -1    0    0    0    0  0.00000000000E+00  0.00000000000E+00  0.45593999997E+02  0.45594000000E+02  0.51100000000E-03 0.  1.
         11   -1    0    0    0    0 -0.00000000000E+00 -0.00000000000E+00 -0.45593999997E+02  0.45594000000E+02  0.51100000000E-03 0. -1.
    9900012    2    1    2    0    0 -0.28848565932E+02  0.13739970541E+02 -0.29369995287E+02  0.47787272241E+02  0.20000005457E+02 0.  0.
        -12    1    1    2    0    0  0.28848565932E+02 -0.13739970541E+02  0.29369995287E+02  0.43400727759E+02  0.00000000000E+00 0.  1.
         11    1    3    3    0    0 -0.64801954439E+01 -0.18941260572E+01 -0.59967266734E+01  0.90300264434E+01  0.51100000000E-03 0. -1.
        -11    1    3    3    0    0  0.20880297349E+01  0.16006432714E+01 -0.28746127409E+01  0.38968353477E+01  0.51100000000E-03 0.  1.
         12    1    3    3    0    0 -0.24456400223E+02  0.14033453327E+02 -0.20498655873E+02  0.34860410450E+02  0.00000000000E+00 0. -1.
</event>
<event>
 7    1  0.2458979E-009  0.4778728E+02  0.7816164E-02  0.1312668E+00
        -11   -1    0    0    0    0  0.00000000000E+00  0.00000000000E+00  0.45593999997E+02  0.45594000000E+02  0.51100000000E-03 0.  1.
         11   -1    0    0    0    0 -0.00000000000E+00 -0.00000000000E+00 -0.45593999997E+02  0.45594000000E+02  0.51100000000E-03 0. -1.
    9900012    2    1    2    0    0  0.17538825032E+01  0.77139212114E+01 -0.42673662385E+02  0.47787284043E+02  0.20000059264E+02 0.  0.
        -12    1    1    2    0    0 -0.17538825032E+01 -0.77139212114E+01  0.42673662385E+02  0.43400715957E+02  0.00000000000E+00 0.  1.
         11    1    3    3    0    0  0.57271530229E+01 -0.44129323696E+01 -0.19249011521E+02  0.20562069416E+02  0.51100000000E-03 0. -1.
        -11    1    3    3    0    0  0.13495924971E+01  0.23206600765E+01 -0.53089804777E+01  0.59491291020E+01  0.51100000000E-03 0.  1.
         12    1    3    3    0    0 -0.53228630168E+01  0.98061935045E+01 -0.18115670386E+02  0.21276085525E+02  0.00000000000E+00 0. -1.
</event>
<event>
 7    1  0.2458979E-009  0.4778727E+02  0.7816164E-02  0.1312668E+00
        -11   -1    0    0    0    0  0.00000000000E+00  0.00000000000E+00  0.45593999997E+02  0.45594000000E+02  0.51100000000E-03 0. -1.
         11   -1    0    0    0    0 -0.00000000000E+00 -0.00000000000E+00 -0.45593999997E+02  0.45594000000E+02  0.51100000000E-03 0.  1.
    9900012    2    1    2    0    0 -0.34378962167E+02 -0.26367411206E+02 -0.25435704244E+01  0.47787272311E+02  0.20000005776E+02 0.  0.
        -12    1    1    2    0    0  0.34378962167E+02  0.26367411206E+02  0.25435704244E+01  0.43400727689E+02  0.00000000000E+00 0.  1.
         11    1    3    3    0    0 -0.14845453879E+02 -0.44444017755E+01  0.19255485026E+00  0.15497654198E+02  0.51100000000E-03 0. -1.
        -11    1    3    3    0    0 -0.18305482379E+02 -0.22308508912E+02  0.44176576227E+00  0.28860966932E+02  0.51100000000E-03 0.  1.
        -12    1    3    3    0    0 -0.12280259097E+01  0.38549948089E+00 -0.31778910370E+01  0.34286511819E+01  0.00000000000E+00 0.  1.
</event>
<event>
 7    1  0.2458979E-009  0.4778727E+02  0.7816164E-02  0.1312668E+00
        -11   -1    0    0    0    0  0.00000000000E+00  0.00000000000E+00  0.45593999997E+02  0.45594000000E+02  0.51100000000E-03 0. -1.
         11   -1    0    0    0    0 -0.00000000000E+00 -0.00000000000E+00 -0.45593999997E+02  0.45594000000E+02  0.51100000000E-03 0.  1.
    9900012    2    1    2    0    0 -0.97521431757E+01  0.42227866147E+02 -0.23078902562E+01  0.47787270360E+02  0.19999996878E+02 0.  0.
        -12    1    1    2    0    0  0.97521431757E+01 -0.42227866147E+02  0.23078902562E+01  0.43400729640E+02  0.00000000000E+00 0.  1.
         11    1    3    3    0    0  0.35999733832E+01  0.18232110975E+01  0.14826339548E+00  0.40380551458E+01  0.51100000000E-03 0. -1.
        -11    1    3    3    0    0  0.15622639312E+01  0.31826135121E+01 -0.68710420067E+00  0.36113445975E+01  0.51100000000E-03 0.  1.
         12    1    3    3    0    0 -0.14914380490E+02  0.37222041538E+02 -0.17690494510E+01  0.40137870616E+02  0.00000000000E+00 0. -1.
</event>
<event>
 7    1  0.2458979E-009  0.4778727E+02  0.7816164E-02  0.1312668E+00
        -11   -1    0    0    0    0  0.00000000000E+00  0.00000000000E+00  0.45593999997E+02  0.45594000000E+02  0.51100000000E-03 0. -1.
         11   -1    0    0    0    0 -0.00000000000E+00 -0.00000000000E+00 -0.45593999997E+02  0.45594000000E+02  0.51100000000E-03 0.  1.
    9900012    2    1    2    0    0 -0.29724069506E+02  0.19943310748E+02  0.24543172666E+02  0.47787271018E+02  0.19999999882E+02 0.  0.
        -12    1    1    2    0    0  0.29724069506E+02 -0.19943310748E+02 -0.24543172666E+02  0.43400728982E+02  0.00000000000E+00 0.  1.
         11    1    3    3    0    0 -0.22858684308E+02  0.93202680559E+01  0.14133343309E+02  0.28445355302E+02  0.51100000000E-03 0. -1.
        -11    1    3    3    0    0 -0.32364614990E+01  0.11949008075E+02  0.86124830167E+01  0.15080727469E+02  0.51100000000E-03 0.  1.
        -12    1    3    3    0    0 -0.36289236990E+01 -0.13259653829E+01  0.17973463408E+01  0.42611882472E+01  0.00000000000E+00 0.  1.
</event>
<event>
 7    1  0.2458979E-009  0.4778727E+02  0.7816164E-02  0.1312668E+00
        -11   -1    0    0    0    0  0.00000000000E+00  0.00000000000E+00  0.45593999997E+02  0.45594000000E+02  0.51100000000E-03 0. -1.
         11   -1    0    0    0    0 -0.00000000000E+00 -0.00000000000E+00 -0.45593999997E+02  0.45594000000E+02  0.51100000000E-03 0.  1.
    9900012    2    1    2    0    0  0.10386583098E+02  0.23946989049E+02  0.34673965267E+02  0.47787271201E+02  0.20000000713E+02 0.  0.
        -12    1    1    2    0    0 -0.10386583098E+02 -0.23946989049E+02 -0.34673965267E+02  0.43400728799E+02  0.00000000000E+00 0.  1.
         11    1    3    3    0    0  0.71719277622E+01  0.57703141188E+01  0.27184058846E+01  0.95980624956E+01  0.51100000000E-03 0. -1.
        -11    1    3    3    0    0 -0.26635883930E+01  0.99048923684E+01  0.11883126021E+02  0.15697460949E+02  0.51100000000E-03 0.  1.
         12    1    3    3    0    0  0.58782437284E+01  0.82717825621E+01  0.20072433361E+02  0.22491747756E+02  0.00000000000E+00 0. -1.
</event>
<event>
 7    1  0.2458979E-009  0.4778727E+02  0.7816164E-02  0.1312668E+00
        -11   -1    0    0    0    0  0.00000000000E+00  0.00000000000E+00  0.45593999997E+02  0.45594000000E+02  0.51100000000E-03 0. -1.
         11   -1    0    0    0    0 -0.00000000000E+00 -0.00000000000E+00 -0.45593999997E+02  0.45594000000E+02  0.51100000000E-03 0.  1.
    9900012    2    1    2    0    0 -0.29131698442E+02 -0.31535829267E+02  0.63607428605E+01  0.47787269230E+02  0.19999991725E+02 0.  0.
        -12    1    1    2    0    0  0.29131698442E+02  0.31535829267E+02 -0.63607428605E+01  0.43400730770E+02  0.00000000000E+00 0.  1.
         11    1    3    3    0    0 -0.75129384700E+00 -0.75615336513E+00 -0.33689714269E+01  0.35335787939E+01  0.51100000000E-03 0.  1.
        -11    1    3    3    0    0 -0.20331016863E+02 -0.26559211841E+02  0.10690040594E+02  0.35114369544E+02  0.51100000000E-03 0. -1.
        -12    1    3    3    0    0 -0.80493877319E+01 -0.42204640607E+01 -0.96032630665E+00  0.91393208917E+01  0.00000000000E+00 0.  1.
</event>
<event>
 7    1  0.2458979E-009  0.4778727E+02  0.7816164E-02  0.1312668E+00
        -11   -1    0    0    0    0  0.00000000000E+00  0.00000000000E+00  0.45593999997E+02  0.45594000000E+02  0.51100000000E-03 0.  1.
         11   -1    0    0    0    0 -0.00000000000E+00 -0.00000000000E+00 -0.45593999997E+02  0.45594000000E+02  0.51100000000E-03 0. -1.
    9900012    2    1    2    0    0  0.26654877931E+01 -0.41581346885E+02 -0.12145362872E+02  0.47787273356E+02  0.20000010540E+02 0.  0.
        -12    1    1    2    0    0 -0.26654877931E+01  0.41581346885E+02  0.12145362872E+02  0.43400726644E+02  0.00000000000E+00 0.  1.
         11    1    3    3    0    0  0.54296697127E+00 -0.33786508584E+02 -0.10855419031E+02  0.35491732812E+02  0.51100000000E-03 0. -1.
        -11    1    3    3    0    0  0.16704665883E+01 -0.56130340327E+01 -0.51761115746E+01  0.78159286696E+01  0.51100000000E-03 0.  1.
         12    1    3    3    0    0  0.45205423363E+00 -0.21818042683E+01  0.38861677331E+01  0.44796118743E+01  0.00000000000E+00 0. -1.
</event>
<event>
 7    1  0.2458979E-009  0.4778726E+02  0.7816164E-02  0.1312668E+00
        -11   -1    0    0    0    0  0.00000000000E+00  0.00000000000E+00  0.45593999997E+02  0.45594000000E+02  0.51100000000E-03 0. -1.
         11   -1    0    0    0    0 -0.00000000000E+00 -0.00000000000E+00 -0.45593999997E+02  0.45594000000E+02  0.51100000000E-03 0.  1.
    9900012    2    1    2    0    0  0.42863195525E+02 -0.65184699195E+01  0.19699137254E+01  0.47787256449E+02  0.19999933455E+02 0.  0.
        -12    1    1    2    0    0 -0.42863195525E+02  0.65184699195E+01 -0.19699137254E+01  0.43400743551E+02  0.00000000000E+00 0.  1.
         11    1    3    3    0    0  0.18431191305E+02 -0.39514037126E+01 -0.58689725496E+01  0.19742523731E+02  0.51100000000E-03 0. -1.
        -11    1    3    3    0    0  0.68546229796E+01  0.33906204073E+00  0.75821018949E+01  0.10226880691E+02  0.51100000000E-03 0.  1.
        -12    1    3    3    0    0  0.17577381240E+02 -0.29061282477E+01  0.25678438017E+00  0.17817852027E+02  0.00000000000E+00 0.  1.
</event>
<event>
 7    1  0.2458979E-009  0.4778727E+02  0.7816164E-02  0.1312668E+00
        -11   -1    0    0    0    0  0.00000000000E+00  0.00000000000E+00  0.45593999997E+02  0.45594000000E+02  0.51100000000E-03 0.  1.
         11   -1    0    0    0    0 -0.00000000000E+00 -0.00000000000E+00 -0.45593999997E+02  0.45594000000E+02  0.51100000000E-03 0. -1.
    9900012    2    1    2    0    0 -0.22861860299E+02  0.18829683879E+02 -0.31723830033E+02  0.47787273701E+02  0.20000012114E+02 0.  0.
        -12    1    1    2    0    0  0.22861860299E+02 -0.18829683879E+02  0.31723830033E+02  0.43400726299E+02  0.00000000000E+00 0.  1.
         11    1    3    3    0    0 -0.11021754644E+02  0.69961595264E+01 -0.24402473200E+01  0.13280818153E+02  0.51100000000E-03 0. -1.
        -11    1    3    3    0    0  0.91077310999E+00  0.12798110334E+01 -0.15352150794E+01  0.21964310916E+01  0.51100000000E-03 0.  1.
         12    1    3    3    0    0 -0.12750878764E+02  0.10553713319E+02 -0.27748367634E+02  0.32310024457E+02  0.00000000000E+00 0. -1.
</event>
<event>
 7    1  0.2458979E-009  0.4778727E+02  0.7816164E-02  0.1312668E+00
        -11   -1    0    0    0    0  0.00000000000E+00  0.00000000000E+00  0.45593999997E+02  0.45594000000E+02  0.51100000000E-03 0.  1.
         11   -1    0    0    0    0 -0.00000000000E+00 -0.00000000000E+00 -0.45593999997E+02  0.45594000000E+02  0.51100000000E-03 0. -1.
    9900012    2    1    2    0    0 -0.11637621146E+01  0.38276243288E+01 -0.43215945585E+02  0.47787274165E+02  0.20000014227E+02 0.  0.
        -12    1    1    2    0    0  0.11637621146E+01 -0.38276243288E+01  0.43215945585E+02  0.43400725835E+02  0.00000000000E+00 0.  1.
         11    1    3    3    0    0  0.27116118906E+01 -0.30369161913E+01 -0.43257707526E+01  0.59403696740E+01  0.51100000000E-03 0. -1.
        -11    1    3    3    0    0 -0.28873165879E+01  0.10382729958E+02 -0.34450388488E+02  0.36096633439E+02  0.51100000000E-03 0.  1.
        -12    1    3    3    0    0 -0.98805741730E+00 -0.35181894378E+01 -0.44397863444E+01  0.57502710513E+01  0.00000000000E+00 0.  1.
</event>
<event>
 7    1  0.2458979E-009  0.4778727E+02  0.7816164E-02  0.1312668E+00
        -11   -1    0    0    0    0  0.00000000000E+00  0.00000000000E+00  0.45593999997E+02  0.45594000000E+02  0.51100000000E-03 0.  1.
         11   -1    0    0    0    0 -0.00000000000E+00 -0.00000000000E+00 -0.45593999997E+02  0.45594000000E+02  0.51100000000E-03 0. -1.
    9900012    2    1    2    0    0  0.26247332269E+02  0.22742778783E+02 -0.26028196555E+02  0.47787268971E+02  0.19999990545E+02 0.  0.
        -12    1    1    2    0    0 -0.26247332269E+02 -0.22742778783E+02  0.26028196555E+02  0.43400731029E+02  0.00000000000E+00 0.  1.
         11    1    3    3    0    0  0.13475775392E+01  0.96195570460E+01 -0.71236465548E+01  0.12045670736E+02  0.51100000000E-03 0. -1.
        -11    1    3    3    0    0 -0.12203315672E+00 -0.10423182258E+01 -0.23246518966E+01  0.25505540725E+01  0.51100000000E-03 0.  1.
         12    1    3    3    0    0  0.25021787886E+02  0.14165539962E+02 -0.16579898103E+02  0.33191044162E+02  0.00000000000E+00 0. -1.
</event>
<event>
 7    1  0.2626376E-009  0.4778727E+02  0.7816164E-02  0.1312668E+00
        -11   -1    0    0    0    0  0.00000000000E+00  0.00000000000E+00  0.45593999997E+02  0.45594000000E+02  0.51100000000E-03 0. -1.
         11   -1    0    0    0    0 -0.00000000000E+00 -0.00000000000E+00 -0.45593999997E+02  0.45594000000E+02  0.51100000000E-03 0.  1.
    9900012    2    1    2    0    0 -0.25757080155E+01 -0.22123113843E+02  0.37249922438E+02  0.47787272362E+02  0.20000006006E+02 0.  0.
        -12    1    1    2    0    0  0.25757080155E+01  0.22123113843E+02 -0.37249922438E+02  0.43400727638E+02  0.00000000000E+00 0.  1.
         11    1    3    3    0    0 -0.28324756507E+01 -0.20303323890E+02  0.22526457911E+02  0.30457990504E+02  0.51100000000E-03 0. -1.
        -11    1    3    3    0    0 -0.37967417334E+01  0.11727943399E+01  0.50870132162E+01  0.64551063568E+01  0.51100000000E-03 0.  1.
        -12    1    3    3    0    0  0.40535093686E+01 -0.29925842928E+01  0.96364513114E+01  0.10874175501E+02  0.00000000000E+00 0.  1.
</event>
<event>
 7    1  0.2458979E-009  0.4778727E+02  0.7816164E-02  0.1312668E+00
        -11   -1    0    0    0    0  0.00000000000E+00  0.00000000000E+00  0.45593999997E+02  0.45594000000E+02  0.51100000000E-03 0. -1.
         11   -1    0    0    0    0 -0.00000000000E+00 -0.00000000000E+00 -0.45593999997E+02  0.45594000000E+02  0.51100000000E-03 0.  1.
    9900012    2    1    2    0    0 -0.28715230928E+02  0.31268811204E+02 -0.90177677309E+01  0.47787272170E+02  0.20000005131E+02 0.  0.
        -12    1    1    2    0    0  0.28715230928E+02 -0.31268811204E+02  0.90177677309E+01  0.43400727830E+02  0.00000000000E+00 0.  1.
         11    1    3    3    0    0 -0.95307912713E+01  0.16064336606E+02 -0.44087703724E+01  0.19192085591E+02  0.51100000000E-03 0. -1.
        -11    1    3    3    0    0 -0.10644613292E-01  0.18961746859E+01  0.34220899440E+01  0.39123255991E+01  0.51100000000E-03 0.  1.
        -12    1    3    3    0    0 -0.19173795044E+02  0.13308299911E+02 -0.80310873025E+01  0.24682860980E+02  0.00000000000E+00 0.  1.
</event>
<event>
 7    1  0.2458979E-009  0.4778727E+02  0.7816164E-02  0.1312668E+00
        -11   -1    0    0    0    0  0.00000000000E+00  0.00000000000E+00  0.45593999997E+02  0.45594000000E+02  0.51100000000E-03 0.  1.
         11   -1    0    0    0    0 -0.00000000000E+00 -0.00000000000E+00 -0.45593999997E+02  0.45594000000E+02  0.51100000000E-03 0. -1.
    9900012    2    1    2    0    0  0.16314418390E+02  0.34609332880E+02 -0.20485538293E+02  0.47787269027E+02  0.19999990803E+02 0.  0.
        -12    1    1    2    0    0 -0.16314418390E+02 -0.34609332880E+02  0.20485538293E+02  0.43400730973E+02  0.00000000000E+00 0.  1.
         11    1    3    3    0    0  0.16339494929E+01  0.49806975615E+01 -0.33559803445E+01  0.62241259208E+01  0.51100000000E-03 0. -1.
        -11    1    3    3    0    0 -0.22977833590E+01  0.11478420162E+02 -0.61318334907E+00  0.11722198252E+02  0.51100000000E-03 0.  1.
        -12    1    3    3    0    0  0.16978252256E+02  0.18150215157E+02 -0.16516374599E+02  0.29840944855E+02  0.00000000000E+00 0.  1.
</event>
<event>
 7    1  0.2458979E-009  0.4778727E+02  0.7816164E-02  0.1312668E+00
        -11   -1    0    0    0    0  0.00000000000E+00  0.00000000000E+00  0.45593999997E+02  0.45594000000E+02  0.51100000000E-03 0.  1.
         11   -1    0    0    0    0 -0.00000000000E+00 -0.00000000000E+00 -0.45593999997E+02  0.45594000000E+02  0.51100000000E-03 0. -1.
    9900012    2    1    2    0    0 -0.25318618700E+02  0.41782399292E+01 -0.35001899059E+02  0.47787273284E+02  0.20000010211E+02 0.  0.
        -12    1    1    2    0    0  0.25318618700E+02 -0.41782399292E+01  0.35001899059E+02  0.43400726716E+02  0.00000000000E+00 0.  1.
         11    1    3    3    0    0 -0.10613630370E+01  0.57220218231E+01 -0.68711143190E+01  0.90044565348E+01  0.51100000000E-03 0. -1.
        -11    1    3    3    0    0 -0.24787543397E+02 -0.23218583956E+00 -0.24356938378E+02  0.34752505886E+02  0.51100000000E-03 0.  1.
        -12    1    3    3    0    0  0.53028773467E+00 -0.13115960543E+01 -0.37738463621E+01  0.40303108635E+01  0.00000000000E+00 0.  1.
</event>
<event>
 7    1  0.2458979E-009  0.4778727E+02  0.7816164E-02  0.1312668E+00
        -11   -1    0    0    0    0  0.00000000000E+00  0.00000000000E+00  0.45593999997E+02  0.45594000000E+02  0.51100000000E-03 0.  1.
         11   -1    0    0    0    0 -0.00000000000E+00 -0.00000000000E+00 -0.45593999997E+02  0.45594000000E+02  0.51100000000E-03 0. -1.
    9900012    2    1    2    0    0  0.18384377295E+02  0.39117540609E+02  0.39313640568E+01  0.47787274947E+02  0.20000017791E+02 0.  0.
        -12    1    1    2    0    0 -0.18384377295E+02 -0.39117540609E+02 -0.39313640568E+01  0.43400725053E+02  0.00000000000E+00 0.  1.
         11    1    3    3    0    0  0.14254163060E+02  0.23243118469E+02  0.73789580641E+00  0.27275780670E+02  0.51100000000E-03 0. -1.
        -11    1    3    3    0    0 -0.10973245499E+01  0.13537805329E+02  0.50521454205E+01  0.14491392890E+02  0.51100000000E-03 0.  1.
        -12    1    3    3    0    0  0.52275387852E+01  0.23366168111E+01 -0.18586771702E+01  0.60201013858E+01  0.00000000000E+00 0.  1.
</event>
<event>
 7    1  0.2458979E-009  0.4778727E+02  0.7816164E-02  0.1312668E+00
        -11   -1    0    0    0    0  0.00000000000E+00  0.00000000000E+00  0.45593999997E+02  0.45594000000E+02  0.51100000000E-03 0.  1.
         11   -1    0    0    0    0 -0.00000000000E+00 -0.00000000000E+00 -0.45593999997E+02  0.45594000000E+02  0.51100000000E-03 0. -1.
    9900012    2    1    2    0    0  0.20801013931E+02 -0.11442683390E+02 -0.36331886876E+02  0.47787272037E+02  0.20000004527E+02 0.  0.
        -12    1    1    2    0    0 -0.20801013931E+02  0.11442683390E+02  0.36331886876E+02  0.43400727963E+02  0.00000000000E+00 0.  1.
         11    1    3    3    0    0  0.52474805965E+01 -0.10669787999E+02 -0.19925913998E+02  0.23203932371E+02  0.51100000000E-03 0. -1.
        -11    1    3    3    0    0  0.60178545178E-02  0.23877163490E+01 -0.28254958300E+01  0.36992772976E+01  0.51100000000E-03 0.  1.
         12    1    3    3    0    0  0.15547515480E+02 -0.31606117400E+01 -0.13580477048E+02  0.20884062369E+02  0.00000000000E+00 0. -1.
</event>
<event>
 7    1  0.2458979E-009  0.4778728E+02  0.7816164E-02  0.1312668E+00
        -11   -1    0    0    0    0  0.00000000000E+00  0.00000000000E+00  0.45593999997E+02  0.45594000000E+02  0.51100000000E-03 0.  1.
         11   -1    0    0    0    0 -0.00000000000E+00 -0.00000000000E+00 -0.45593999997E+02  0.45594000000E+02  0.51100000000E-03 0. -1.
    9900012    2    1    2    0    0  0.36195833134E+02 -0.21842309086E+02 -0.98182470476E+01  0.47787276762E+02  0.20000026070E+02 0.  0.
        -12    1    1    2    0    0 -0.36195833134E+02  0.21842309086E+02  0.98182470476E+01  0.43400723238E+02  0.00000000000E+00 0.  1.
         11    1    3    3    0    0  0.22036310090E+02 -0.46733840590E+01 -0.53070488491E+01  0.23143125300E+02  0.51100000000E-03 0. -1.
        -11    1    3    3    0    0  0.34324716022E+01 -0.59388388936E+01  0.28866128762E+01  0.74420563598E+01  0.51100000000E-03 0.  1.
         12    1    3    3    0    0  0.10727051442E+02 -0.11230086134E+02 -0.73978110747E+01  0.17202095102E+02  0.00000000000E+00 0. -1.
</event>
<event>
 7    1  0.2458979E-009  0.4778727E+02  0.7816164E-02  0.1312668E+00
        -11   -1    0    0    0    0  0.00000000000E+00  0.00000000000E+00  0.45593999997E+02  0.45594000000E+02  0.51100000000E-03 0. -1.
         11   -1    0    0    0    0 -0.00000000000E+00 -0.00000000000E+00 -0.45593999997E+02  0.45594000000E+02  0.51100000000E-03 0.  1.
    9900012    2    1    2    0    0 -0.33354794759E+02 -0.32489123572E+01  0.27577622376E+02  0.47787273960E+02  0.20000013292E+02 0.  0.
        -12    1    1    2    0    0  0.33354794759E+02  0.32489123572E+01 -0.27577622376E+02  0.43400726040E+02  0.00000000000E+00 0.  1.
         11    1    3    3    0    0 -0.26791874140E+02 -0.68356411648E+00  0.13444421919E+02  0.29983733271E+02  0.51100000000E-03 0. -1.
        -11    1    3    3    0    0 -0.66261258740E+01 -0.47513523169E+01  0.12987208510E+02  0.15334551773E+02  0.51100000000E-03 0.  1.
         12    1    3    3    0    0  0.63205255480E-01  0.21860040762E+01  0.11459919478E+01  0.24689889165E+01  0.00000000000E+00 0. -1.
</event>
<event>
 7    1  0.2458979E-009  0.4778727E+02  0.7816164E-02  0.1312668E+00
        -11   -1    0    0    0    0  0.00000000000E+00  0.00000000000E+00  0.45593999997E+02  0.45594000000E+02  0.51100000000E-03 0.  1.
         11   -1    0    0    0    0 -0.00000000000E+00 -0.00000000000E+00 -0.45593999997E+02  0.45594000000E+02  0.51100000000E-03 0. -1.
    9900012    2    1    2    0    0  0.61537083847E+00  0.68170039433E+01 -0.42857589698E+02  0.47787271680E+02  0.20000002897E+02 0.  0.
        -12    1    1    2    0    0 -0.61537083847E+00 -0.68170039433E+01  0.42857589698E+02  0.43400728320E+02  0.00000000000E+00 0.  1.
         11    1    3    3    0    0 -0.14118125263E+01  0.85887147980E+01 -0.40131004862E+02  0.41064057130E+02  0.51100000000E-03 0. -1.
        -11    1    3    3    0    0  0.32810800102E+01 -0.33731619162E+00 -0.33668930022E+01  0.47133042545E+01  0.51100000000E-03 0.  1.
         12    1    3    3    0    0 -0.12538966455E+01 -0.14343946631E+01  0.64030816637E+00  0.20099102952E+01  0.00000000000E+00 0. -1.
</event>
<event>
 7    1  0.2458979E-009  0.4778727E+02  0.7816164E-02  0.1312668E+00
        -11   -1    0    0    0    0  0.00000000000E+00  0.00000000000E+00  0.45593999997E+02  0.45594000000E+02  0.51100000000E-03 0.  1.
         11   -1    0    0    0    0 -0.00000000000E+00 -0.00000000000E+00 -0.45593999997E+02  0.45594000000E+02  0.51100000000E-03 0. -1.
    9900012    2    1    2    0    0  0.12172159529E+02 -0.16879608744E+02 -0.38085960719E+02  0.47787273476E+02  0.20000011085E+02 0.  0.
        -12    1    1    2    0    0 -0.12172159529E+02  0.16879608744E+02  0.38085960719E+02  0.43400726524E+02  0.00000000000E+00 0.  1.
         11    1    3    3    0    0 -0.43223203976E+01  0.44111785458E+00 -0.86723683770E+01  0.96998459837E+01  0.51100000000E-03 0. -1.
        -11    1    3    3    0    0  0.14333324478E+02 -0.15042398286E+02 -0.23329680609E+02  0.31240869616E+02  0.51100000000E-03 0.  1.
         12    1    3    3    0    0  0.21611554494E+01 -0.22783283126E+01 -0.60839117326E+01  0.68465578758E+01  0.00000000000E+00 0. -1.
</event>
<event>
 7    1  0.2458979E-009  0.4778727E+02  0.7816164E-02  0.1312668E+00
        -11   -1    0    0    0    0  0.00000000000E+00  0.00000000000E+00  0.45593999997E+02  0.45594000000E+02  0.51100000000E-03 0.  1.
         11   -1    0    0    0    0 -0.00000000000E+00 -0.00000000000E+00 -0.45593999997E+02  0.45594000000E+02  0.51100000000E-03 0. -1.
    9900012    2    1    2    0    0  0.30410100809E+01  0.43252475149E+02 -0.18971007280E+01  0.47787270282E+02  0.19999996525E+02 0.  0.
        -12    1    1    2    0    0 -0.30410100809E+01 -0.43252475149E+02  0.18971007280E+01  0.43400729718E+02  0.00000000000E+00 0.  1.
         11    1    3    3    0    0 -0.51312112579E+01  0.10114584763E+02 -0.18898461511E+01  0.11498072562E+02  0.51100000000E-03 0. -1.
        -11    1    3    3    0    0  0.11354582777E+02  0.26031413508E+02 -0.11282901242E+01  0.28422422102E+02  0.51100000000E-03 0.  1.
        -12    1    3    3    0    0 -0.31823614377E+01  0.71064768780E+01  0.11210355473E+01  0.78667756188E+01  0.00000000000E+00 0.  1.
</event>
<event>
 7    1  0.2458979E-009  0.4778727E+02  0.7816164E-02  0.1312668E+00
        -11   -1    0    0    0    0  0.00000000000E+00  0.00000000000E+00  0.45593999997E+02  0.45594000000E+02  0.51100000000E-03 0.  1.
         11   -1    0    0    0    0 -0.00000000000E+00 -0.00000000000E+00 -0.45593999997E+02  0.45594000000E+02  0.51100000000E-03 0. -1.
    9900012    2    1    2    0    0 -0.23656084298E+02  0.33057646117E+02 -0.15205436928E+02  0.47787267249E+02  0.19999982695E+02 0.  0.
        -12    1    1    2    0    0  0.23656084298E+02 -0.33057646117E+02  0.15205436928E+02  0.43400732751E+02  0.00000000000E+00 0.  1.
         11    1    3    3    0    0 -0.10172872572E+02  0.23020299970E+02 -0.13787437981E+02  0.28696950943E+02  0.51100000000E-03 0. -1.
        -11    1    3    3    0    0 -0.14735656991E+02  0.87251965215E+01 -0.69981153191E+00  0.17139380903E+02  0.51100000000E-03 0.  1.
        -12    1    3    3    0    0  0.12524452653E+01  0.13121496257E+01 -0.71818741546E+00  0.19509354030E+01  0.00000000000E+00 0.  1.
</event>
<event>
 7    1  0.2458979E-009  0.4778727E+02  0.7816164E-02  0.1312668E+00
        -11   -1    0    0    0    0  0.00000000000E+00  0.00000000000E+00  0.45593999997E+02  0.45594000000E+02  0.51100000000E-03 0. -1.
         11   -1    0    0    0    0 -0.00000000000E+00 -0.00000000000E+00 -0.45593999997E+02  0.45594000000E+02  0.51100000000E-03 0.  1.
    9900012    2    1    2    0    0  0.28537564379E+01 -0.60068625493E+01  0.42888190768E+02  0.47787271541E+02  0.20000002262E+02 0.  0.
        -12    1    1    2    0    0 -0.28537564379E+01  0.60068625493E+01 -0.42888190768E+02  0.43400728459E+02  0.00000000000E+00 0.  1.
         11    1    3    3    0    0 -0.50549517706E+00 -0.83008755162E+00  0.10844917393E+02  0.10888379321E+02  0.51100000000E-03 0.  1.
        -11    1    3    3    0    0 -0.48788570858E+01 -0.74905603575E+01  0.21737100118E+02  0.23503473418E+02  0.51100000000E-03 0. -1.
        -12    1    3    3    0    0  0.82381087008E+01  0.23137853597E+01  0.10306173257E+02  0.13395418801E+02  0.00000000000E+00 0.  1.
</event>
<event>
 7    1  0.2458979E-009  0.4778727E+02  0.7816164E-02  0.1312668E+00
        -11   -1    0    0    0    0  0.00000000000E+00  0.00000000000E+00  0.45593999997E+02  0.45594000000E+02  0.51100000000E-03 0. -1.
         11   -1    0    0    0    0 -0.00000000000E+00 -0.00000000000E+00 -0.45593999997E+02  0.45594000000E+02  0.51100000000E-03 0.  1.
    9900012    2    1    2    0    0  0.82209704170E+01 -0.35156628403E+02  0.24084235062E+02  0.47787271276E+02  0.20000001057E+02 0.  0.
        -12    1    1    2    0    0 -0.82209704170E+01  0.35156628403E+02 -0.24084235062E+02  0.43400728724E+02  0.00000000000E+00 0.  1.
         11    1    3    3    0    0 -0.37509101017E+01 -0.31425690615E+01  0.31941535497E+01  0.58436019763E+01  0.51100000000E-03 0. -1.
        -11    1    3    3    0    0  0.61829540001E+01 -0.25022028032E+02  0.97111555275E+01  0.27543372142E+02  0.51100000000E-03 0.  1.
         12    1    3    3    0    0  0.57889265186E+01 -0.69920313090E+01  0.11178925985E+02  0.14400297158E+02  0.00000000000E+00 0. -1.
</event>
<event>
 7    1  0.2458979E-009  0.4778725E+02  0.7816164E-02  0.1312668E+00
        -11   -1    0    0    0    0  0.00000000000E+00  0.00000000000E+00  0.45593999997E+02  0.45594000000E+02  0.51100000000E-03 0.  1.
         11   -1    0    0    0    0 -0.00000000000E+00 -0.00000000000E+00 -0.45593999997E+02  0.45594000000E+02  0.51100000000E-03 0. -1.
    9900012    2    1    2    0    0  0.85040026523E+00 -0.34149830875E+02 -0.26771082589E+02  0.47787251246E+02  0.19999909732E+02 0.  0.
        -12    1    1    2    0    0 -0.85040026523E+00  0.34149830875E+02  0.26771082589E+02  0.43400748754E+02  0.00000000000E+00 0.  1.
         11    1    3    3    0    0 -0.35857476891E+01 -0.15537356839E+02 -0.65713536215E+01  0.17246731073E+02  0.51100000000E-03 0. -1.
        -11    1    3    3    0    0  0.63365855376E+01 -0.50018213365E+01 -0.32079201785E+01  0.86868455201E+01  0.51100000000E-03 0.  1.
        -12    1    3    3    0    0 -0.19004375833E+01 -0.13610652699E+02 -0.16991808789E+02  0.21853674653E+02  0.00000000000E+00 0.  1.
</event>
<event>
 7    1  0.2458979E-009  0.4778727E+02  0.7816164E-02  0.1312668E+00
        -11   -1    0    0    0    0  0.00000000000E+00  0.00000000000E+00  0.45593999997E+02  0.45594000000E+02  0.51100000000E-03 0.  1.
         11   -1    0    0    0    0 -0.00000000000E+00 -0.00000000000E+00 -0.45593999997E+02  0.45594000000E+02  0.51100000000E-03 0. -1.
    9900012    2    1    2    0    0 -0.95078929887E+01 -0.26749004391E+02 -0.32828554558E+02  0.47787271211E+02  0.20000000761E+02 0.  0.
        -12    1    1    2    0    0  0.95078929887E+01  0.26749004391E+02  0.32828554558E+02  0.43400728789E+02  0.00000000000E+00 0.  1.
         11    1    3    3    0    0 -0.28533815569E+01 -0.44288608718E+01 -0.15378352213E+02  0.16255777803E+02  0.51100000000E-03 0. -1.
        -11    1    3    3    0    0 -0.11835584520E+00 -0.95339971738E+01 -0.83562591717E+00  0.95712789715E+01  0.51100000000E-03 0.  1.
        -12    1    3    3    0    0 -0.65361555866E+01 -0.12786146346E+02 -0.16614576428E+02  0.21960214437E+02  0.00000000000E+00 0.  1.
</event>
<event>
 7    1  0.2458979E-009  0.4778727E+02  0.7816164E-02  0.1312668E+00
        -11   -1    0    0    0    0  0.00000000000E+00  0.00000000000E+00  0.45593999997E+02  0.45594000000E+02  0.51100000000E-03 0.  1.
         11   -1    0    0    0    0 -0.00000000000E+00 -0.00000000000E+00 -0.45593999997E+02  0.45594000000E+02  0.51100000000E-03 0. -1.
    9900012    2    1    2    0    0 -0.63907868700E+01  0.57962328488E+01 -0.42534511246E+02  0.47787272829E+02  0.20000008138E+02 0.  0.
        -12    1    1    2    0    0  0.63907868700E+01 -0.57962328488E+01  0.42534511246E+02  0.43400727171E+02  0.00000000000E+00 0.  1.
         11    1    3    3    0    0 -0.18167320803E+01  0.74736719654E+01 -0.61697501702E+01  0.98601270540E+01  0.51100000000E-03 0.  1.
        -11    1    3    3    0    0 -0.54928844799E+01  0.22383064973E+01 -0.14016901411E+02  0.15220227374E+02  0.51100000000E-03 0. -1.
         12    1    3    3    0    0  0.91882969021E+00 -0.39157456139E+01 -0.22347859664E+02  0.22706918401E+02  0.00000000000E+00 0. -1.
</event>
<event>
 7    1  0.2458979E-009  0.4778728E+02  0.7816164E-02  0.1312668E+00
        -11   -1    0    0    0    0  0.00000000000E+00  0.00000000000E+00  0.45593999997E+02  0.45594000000E+02  0.51100000000E-03 0. -1.
         11   -1    0    0    0    0 -0.00000000000E+00 -0.00000000000E+00 -0.45593999997E+02  0.45594000000E+02  0.51100000000E-03 0.  1.
    9900012    2    1    2    0    0  0.23140068929E+02  0.29011934582E+02  0.22504838003E+02  0.47787275677E+02  0.20000021120E+02 0.  0.
        -12    1    1    2    0    0 -0.23140068929E+02 -0.29011934582E+02 -0.22504838003E+02  0.43400724323E+02  0.00000000000E+00 0.  1.
         11    1    3    3    0    0  0.42580939181E+00  0.10111393608E+02  0.19073377719E+01  0.10298520863E+02  0.51100000000E-03 0.  1.
        -11    1    3    3    0    0 -0.29771636569E+00 -0.63581380019E+00 -0.31153405816E+00  0.76808069461E+00  0.51100000000E-03 0. -1.
         12    1    3    3    0    0  0.23011975903E+02  0.19536354775E+02  0.20909034290E+02  0.36720674119E+02  0.00000000000E+00 0. -1.
</event>
<event>
 7    1  0.2458979E-009  0.4778727E+02  0.7816164E-02  0.1312668E+00
        -11   -1    0    0    0    0  0.00000000000E+00  0.00000000000E+00  0.45593999997E+02  0.45594000000E+02  0.51100000000E-03 0.  1.
         11   -1    0    0    0    0 -0.00000000000E+00 -0.00000000000E+00 -0.45593999997E+02  0.45594000000E+02  0.51100000000E-03 0. -1.
    9900012    2    1    2    0    0  0.23070970347E+02  0.25954002665E+02 -0.26033506959E+02  0.47787269456E+02  0.19999992759E+02 0.  0.
        -12    1    1    2    0    0 -0.23070970347E+02 -0.25954002665E+02  0.26033506959E+02  0.43400730544E+02  0.00000000000E+00 0.  1.
         11    1    3    3    0    0  0.31063719470E+01  0.57548744020E+01 -0.11925273175E+02  0.13600745076E+02  0.51100000000E-03 0. -1.
        -11    1    3    3    0    0  0.62149721224E+01  0.52847091874E+01  0.18634496121E+01  0.83681822635E+01  0.51100000000E-03 0.  1.
        -12    1    3    3    0    0  0.13749626278E+02  0.14914419076E+02 -0.15971683396E+02  0.25818342117E+02  0.00000000000E+00 0.  1.
</event>
<event>
 7    1  0.2458979E-009  0.4778727E+02  0.7816164E-02  0.1312668E+00
        -11   -1    0    0    0    0  0.00000000000E+00  0.00000000000E+00  0.45593999997E+02  0.45594000000E+02  0.51100000000E-03 0.  1.
         11   -1    0    0    0    0 -0.00000000000E+00 -0.00000000000E+00 -0.45593999997E+02  0.45594000000E+02  0.51100000000E-03 0. -1.
    9900012    2    1    2    0    0 -0.15313993012E+02  0.12280147060E+01 -0.40590598324E+02  0.47787273342E+02  0.20000010476E+02 0.  0.
        -12    1    1    2    0    0  0.15313993012E+02 -0.12280147060E+01  0.40590598324E+02  0.43400726658E+02  0.00000000000E+00 0.  1.
         11    1    3    3    0    0 -0.18798808069E+02 -0.21838290448E+01 -0.36470710604E+02  0.41088648388E+02  0.51100000000E-03 0. -1.
        -11    1    3    3    0    0  0.18485276087E+01  0.28381831062E+01 -0.34640959378E+01  0.48448218328E+01  0.51100000000E-03 0.  1.
         12    1    3    3    0    0  0.16362874487E+01  0.57366064462E+00 -0.65579178217E+00  0.18538031210E+01  0.00000000000E+00 0. -1.
</event>
<event>
 7    1  0.2458979E-009  0.4778727E+02  0.7816164E-02  0.1312668E+00
        -11   -1    0    0    0    0  0.00000000000E+00  0.00000000000E+00  0.45593999997E+02  0.45594000000E+02  0.51100000000E-03 0. -1.
         11   -1    0    0    0    0 -0.00000000000E+00 -0.00000000000E+00 -0.45593999997E+02  0.45594000000E+02  0.51100000000E-03 0.  1.
    9900012    2    1    2    0    0 -0.33334981111E+02  0.11845396089E+02  0.25141377606E+02  0.47787271411E+02  0.20000001671E+02 0.  0.
        -12    1    1    2    0    0  0.33334981111E+02 -0.11845396089E+02 -0.25141377606E+02  0.43400728589E+02  0.00000000000E+00 0.  1.
         11    1    3    3    0    0 -0.44319325470E+01  0.33440606918E+01 -0.25705489508E+01  0.61182097202E+01  0.51100000000E-03 0.  1.
        -11    1    3    3    0    0 -0.28739572199E+02  0.80994613757E+01  0.28161492377E+02  0.41044292391E+02  0.51100000000E-03 0. -1.
         12    1    3    3    0    0 -0.16347636489E+00  0.40187402118E+00 -0.44956582017E+00  0.62476929937E+00  0.00000000000E+00 0. -1.
</event>
<event>
 7    1  0.2458979E-009  0.4778728E+02  0.7816164E-02  0.1312668E+00
        -11   -1    0    0    0    0  0.00000000000E+00  0.00000000000E+00  0.45593999997E+02  0.45594000000E+02  0.51100000000E-03 0.  1.
         11   -1    0    0    0    0 -0.00000000000E+00 -0.00000000000E+00 -0.45593999997E+02  0.45594000000E+02  0.51100000000E-03 0. -1.
    9900012    2    1    2    0    0  0.42347663718E+01  0.27265450186E+02 -0.33500517620E+02  0.47787277646E+02  0.20000030097E+02 0.  0.
        -12    1    1    2    0    0 -0.42347663718E+01 -0.27265450186E+02  0.33500517620E+02  0.43400722354E+02  0.00000000000E+00 0.  1.
         11    1    3    3    0    0 -0.40716878189E+01  0.17000194537E+02 -0.26133985689E+02  0.31441540424E+02  0.51100000000E-03 0. -1.
        -11    1    3    3    0    0  0.84022292303E+01  0.10826350131E+02 -0.61872483645E+01  0.15036268014E+02  0.51100000000E-03 0.  1.
        -12    1    3    3    0    0 -0.95775039531E-01 -0.56109448173E+00 -0.11792835667E+01  0.13094692078E+01  0.00000000000E+00 0.  1.
</event>
<event>
 7    1  0.2458979E-009  0.4778727E+02  0.7816164E-02  0.1312668E+00
        -11   -1    0    0    0    0  0.00000000000E+00  0.00000000000E+00  0.45593999997E+02  0.45594000000E+02  0.51100000000E-03 0. -1.
         11   -1    0    0    0    0 -0.00000000000E+00 -0.00000000000E+00 -0.45593999997E+02  0.45594000000E+02  0.51100000000E-03 0.  1.
    9900012    2    1    2    0    0  0.46966188897E+01 -0.12702080905E+02  0.41233752072E+02  0.47787269612E+02  0.19999993468E+02 0.  0.
        -12    1    1    2    0    0 -0.46966188897E+01  0.12702080905E+02 -0.41233752072E+02  0.43400730388E+02  0.00000000000E+00 0.  1.
         11    1    3    3    0    0  0.16346541450E+01 -0.12258292763E+02  0.19593265075E+02  0.23169675704E+02  0.51100000000E-03 0. -1.
        -11    1    3    3    0    0 -0.34458940680E+01  0.27291781694E+01  0.66695461385E+01  0.79878310801E+01  0.51100000000E-03 0.  1.
         12    1    3    3    0    0  0.65078588127E+01 -0.31729663109E+01  0.14970940858E+02  0.16629762828E+02  0.00000000000E+00 0. -1.
</event>
<event>
 7    1  0.2458979E-009  0.4778727E+02  0.7816164E-02  0.1312668E+00
        -11   -1    0    0    0    0  0.00000000000E+00  0.00000000000E+00  0.45593999997E+02  0.45594000000E+02  0.51100000000E-03 0.  1.
         11   -1    0    0    0    0 -0.00000000000E+00 -0.00000000000E+00 -0.45593999997E+02  0.45594000000E+02  0.51100000000E-03 0. -1.
    9900012    2    1    2    0    0  0.32510141481E+01  0.13739438817E+02 -0.41040005191E+02  0.47787270765E+02  0.19999998728E+02 0.  0.
        -12    1    1    2    0    0 -0.32510141481E+01 -0.13739438817E+02  0.41040005191E+02  0.43400729235E+02  0.00000000000E+00 0.  1.
         11    1    3    3    0    0  0.77303995566E+00  0.10694587999E+02 -0.14727748380E+02  0.18217529356E+02  0.51100000000E-03 0. -1.
        -11    1    3    3    0    0  0.68354938393E+01  0.98977690245E+00 -0.22153722465E+02  0.23205410009E+02  0.51100000000E-03 0.  1.
        -12    1    3    3    0    0 -0.43575196468E+01  0.20550739157E+01 -0.41585343458E+01  0.63643314006E+01  0.00000000000E+00 0.  1.
</event>
<event>
 7    1  0.2458979E-009  0.4778727E+02  0.7816164E-02  0.1312668E+00
        -11   -1    0    0    0    0  0.00000000000E+00  0.00000000000E+00  0.45593999997E+02  0.45594000000E+02  0.51100000000E-03 0.  1.
         11   -1    0    0    0    0 -0.00000000000E+00 -0.00000000000E+00 -0.45593999997E+02  0.45594000000E+02  0.51100000000E-03 0. -1.
    9900012    2    1    2    0    0 -0.64599023194E+01 -0.34049013479E+02 -0.26125805902E+02  0.47787269696E+02  0.19999993852E+02 0.  0.
        -12    1    1    2    0    0  0.64599023194E+01  0.34049013479E+02  0.26125805902E+02  0.43400730304E+02  0.00000000000E+00 0.  1.
         11    1    3    3    0    0 -0.56802978878E+01 -0.10960721571E+02 -0.96319565437E+01  0.15658154060E+02  0.51100000000E-03 0. -1.
        -11    1    3    3    0    0  0.41439885972E+01 -0.64387932174E+00 -0.71302251866E+00  0.42538950913E+01  0.51100000000E-03 0.  1.
        -12    1    3    3    0    0 -0.49235930288E+01 -0.22444412587E+02 -0.15780826840E+02  0.27875220545E+02  0.00000000000E+00 0.  1.
</event>
<event>
 7    1  0.2458979E-009  0.4778726E+02  0.7816164E-02  0.1312668E+00
        -11   -1    0    0    0    0  0.00000000000E+00  0.00000000000E+00  0.45593999997E+02  0.45594000000E+02  0.51100000000E-03 0.  1.
         11   -1    0    0    0    0 -0.00000000000E+00 -0.00000000000E+00 -0.45593999997E+02  0.45594000000E+02  0.51100000000E-03 0. -1.
    9900012    2    1    2    0    0 -0.43006957834E+00  0.41406542942E+02 -0.12997580041E+02  0.47787264463E+02  0.19999969993E+02 0.  0.
        -12    1    1    2    0    0  0.43006957834E+00 -0.41406542942E+02  0.12997580041E+02  0.43400735537E+02  0.00000000000E+00 0.  1.
         11    1    3    3    0    0  0.52131424161E+01  0.24875803219E+02 -0.89362469107E+01  0.26941398419E+02  0.51100000000E-03 0. -1.
        -11    1    3    3    0    0 -0.27667011291E+01 -0.78868604821E+00 -0.83049187891E+00  0.29943910637E+01  0.51100000000E-03 0.  1.
         12    1    3    3    0    0 -0.28765108654E+01  0.17319425771E+02 -0.32308412513E+01  0.17851474981E+02  0.00000000000E+00 0. -1.
</event>
<event>
 7    1  0.2458979E-009  0.4778726E+02  0.7816164E-02  0.1312668E+00
        -11   -1    0    0    0    0  0.00000000000E+00  0.00000000000E+00  0.45593999997E+02  0.45594000000E+02  0.51100000000E-03 0.  1.
         11   -1    0    0    0    0 -0.00000000000E+00 -0.00000000000E+00 -0.45593999997E+02  0.45594000000E+02  0.51100000000E-03 0. -1.
    9900012    2    1    2    0    0  0.24427777968E+02 -0.35511237462E+02 -0.50852378312E+01  0.47787263067E+02  0.19999963627E+02 0.  0.
        -12    1    1    2    0    0 -0.24427777968E+02  0.35511237462E+02  0.50852378312E+01  0.43400736933E+02  0.00000000000E+00 0.  1.
         11    1    3    3    0    0  0.12224906089E+01 -0.15265573839E+02 -0.10142584592E+01  0.15347994932E+02  0.51100000000E-03 0. -1.
        -11    1    3    3    0    0  0.11487496773E+02 -0.13784879663E+02 -0.59989947853E+01  0.18920185732E+02  0.51100000000E-03 0.  1.
         12    1    3    3    0    0  0.11717790586E+02 -0.64607839595E+01  0.19280154133E+01  0.13519082403E+02  0.00000000000E+00 0. -1.
</event>
<event>
 7    1  0.2458979E-009  0.4778727E+02  0.7816164E-02  0.1312668E+00
        -11   -1    0    0    0    0  0.00000000000E+00  0.00000000000E+00  0.45593999997E+02  0.45594000000E+02  0.51100000000E-03 0.  1.
         11   -1    0    0    0    0 -0.00000000000E+00 -0.00000000000E+00 -0.45593999997E+02  0.45594000000E+02  0.51100000000E-03 0. -1.
    9900012    2    1    2    0    0  0.63767358775E+01  0.16253652496E+02 -0.39733853911E+02  0.47787272742E+02  0.20000007739E+02 0.  0.
        -12    1    1    2    0    0 -0.63767358775E+01 -0.16253652496E+02  0.39733853911E+02  0.43400727258E+02  0.00000000000E+00 0.  1.
         11    1    3    3    0    0  0.14532154178E+01  0.11337951734E+02 -0.31085732723E+02  0.33120745217E+02  0.51100000000E-03 0. -1.
        -11    1    3    3    0    0  0.46369005551E+01  0.85644897510E+00  0.41318905010E+00  0.47334001581E+01  0.51100000000E-03 0.  1.
        -12    1    3    3    0    0  0.28661990459E+00  0.40592517874E+01 -0.90613102384E+01  0.99331273665E+01  0.00000000000E+00 0.  1.
</event>
<event>
 7    1  0.2458979E-009  0.4778727E+02  0.7816164E-02  0.1312668E+00
        -11   -1    0    0    0    0  0.00000000000E+00  0.00000000000E+00  0.45593999997E+02  0.45594000000E+02  0.51100000000E-03 0.  1.
         11   -1    0    0    0    0 -0.00000000000E+00 -0.00000000000E+00 -0.45593999997E+02  0.45594000000E+02  0.51100000000E-03 0. -1.
    9900012    2    1    2    0    0  0.38864474691E+02  0.17384709177E+02 -0.84230416834E+01  0.47787272616E+02  0.20000007167E+02 0.  0.
        -12    1    1    2    0    0 -0.38864474691E+02 -0.17384709177E+02  0.84230416834E+01  0.43400727384E+02  0.00000000000E+00 0.  1.
         11    1    3    3    0    0  0.32048694949E+02  0.13207303547E+02  0.15993992898E+01  0.34700285205E+02  0.51100000000E-03 0. -1.
        -11    1    3    3    0    0  0.52825746339E+01  0.37186971018E+01 -0.62481143363E+01  0.89873931659E+01  0.51100000000E-03 0.  1.
         12    1    3    3    0    0  0.15332051081E+01  0.45870852822E+00 -0.37743266369E+01  0.40995942457E+01  0.00000000000E+00 0. -1.
</event>
<event>
 7    1  0.2458979E-009  0.4778728E+02  0.7816164E-02  0.1312668E+00
        -11   -1    0    0    0    0  0.00000000000E+00  0.00000000000E+00  0.45593999997E+02  0.45594000000E+02  0.51100000000E-03 0.  1.
         11   -1    0    0    0    0 -0.00000000000E+00 -0.00000000000E+00 -0.45593999997E+02  0.45594000000E+02  0.51100000000E-03 0. -1.
    9900012    2    1    2    0    0  0.29491075980E+02  0.17724654386E+02 -0.26452522957E+02  0.47787275278E+02  0.20000019305E+02 0.  0.
        -12    1    1    2    0    0 -0.29491075980E+02 -0.17724654386E+02  0.26452522957E+02  0.43400724722E+02  0.00000000000E+00 0.  1.
         11    1    3    3    0    0  0.22967580854E+02  0.10904496901E+02 -0.23405251857E+02  0.34557540967E+02  0.51100000000E-03 0. -1.
        -11    1    3    3    0    0  0.24027634570E+01 -0.19726901174E+01 -0.22297096137E+00  0.31168084382E+01  0.51100000000E-03 0.  1.
         12    1    3    3    0    0  0.41207316692E+01  0.87928476020E+01 -0.28243001388E+01  0.10112925873E+02  0.00000000000E+00 0. -1.
</event>
<event>
 7    1  0.2458979E-009  0.4778727E+02  0.7816164E-02  0.1312668E+00
        -11   -1    0    0    0    0  0.00000000000E+00  0.00000000000E+00  0.45593999997E+02  0.45594000000E+02  0.51100000000E-03 0.  1.
         11   -1    0    0    0    0 -0.00000000000E+00 -0.00000000000E+00 -0.45593999997E+02  0.45594000000E+02  0.51100000000E-03 0. -1.
    9900012    2    1    2    0    0  0.81430194147E+00  0.87790790713E+01 -0.42495741787E+02  0.47787269741E+02  0.19999994056E+02 0.  0.
        -12    1    1    2    0    0 -0.81430194147E+00 -0.87790790713E+01  0.42495741787E+02  0.43400730259E+02  0.00000000000E+00 0.  1.
         11    1    3    3    0    0  0.60211547750E+01  0.25056839432E+01 -0.30269350718E+02  0.30963952429E+02  0.51100000000E-03 0. -1.
        -11    1    3    3    0    0  0.81865244408E+00  0.22121136156E+00  0.85288301396E+00  0.12027202448E+01  0.51100000000E-03 0.  1.
         12    1    3    3    0    0 -0.60255052776E+01  0.60521837665E+01 -0.13079274083E+02  0.15620597067E+02  0.00000000000E+00 0. -1.
</event>
<event>
 7    1  0.2458979E-009  0.4778728E+02  0.7816164E-02  0.1312668E+00
        -11   -1    0    0    0    0  0.00000000000E+00  0.00000000000E+00  0.45593999997E+02  0.45594000000E+02  0.51100000000E-03 0.  1.
         11   -1    0    0    0    0 -0.00000000000E+00 -0.00000000000E+00 -0.45593999997E+02  0.45594000000E+02  0.51100000000E-03 0. -1.
    9900012    2    1    2    0    0  0.12881465137E+02 -0.53895391849E+01 -0.41093105251E+02  0.47787279085E+02  0.20000036662E+02 0.  0.
        -12    1    1    2    0    0 -0.12881465137E+02  0.53895391849E+01  0.41093105251E+02  0.43400720915E+02  0.00000000000E+00 0.  1.
         11    1    3    3    0    0  0.76107417149E+01  0.19983874249E+01 -0.21805967367E+02  0.23182259485E+02  0.51100000000E-03 0. -1.
        -11    1    3    3    0    0  0.40359338048E+01 -0.10397978759E+02 -0.17850018495E+02  0.21048275095E+02  0.51100000000E-03 0.  1.
         12    1    3    3    0    0  0.12347896175E+01  0.30100521491E+01 -0.14371193898E+01  0.35567445059E+01  0.00000000000E+00 0. -1.
</event>
<event>
 7    1  0.2458979E-009  0.4778727E+02  0.7816164E-02  0.1312668E+00
        -11   -1    0    0    0    0  0.00000000000E+00  0.00000000000E+00  0.45593999997E+02  0.45594000000E+02  0.51100000000E-03 0.  1.
         11   -1    0    0    0    0 -0.00000000000E+00 -0.00000000000E+00 -0.45593999997E+02  0.45594000000E+02  0.51100000000E-03 0. -1.
    9900012    2    1    2    0    0  0.39073876275E+02 -0.13129797193E+02  0.13581751464E+02  0.47787270118E+02  0.19999995774E+02 0.  0.
        -12    1    1    2    0    0 -0.39073876275E+02  0.13129797193E+02 -0.13581751464E+02  0.43400729882E+02  0.00000000000E+00 0.  1.
         11    1    3    3    0    0  0.16978175561E+02  0.44789596685E+01  0.54422676530E+01  0.18383084685E+02  0.51100000000E-03 0. -1.
        -11    1    3    3    0    0  0.19083564431E+02 -0.15198091644E+02  0.71196702168E+01  0.25413660210E+02  0.51100000000E-03 0.  1.
         12    1    3    3    0    0  0.30121362832E+01 -0.24106652177E+01  0.10198135938E+01  0.39905252219E+01  0.00000000000E+00 0. -1.
</event>
<event>
 7    1  0.2458979E-009  0.4778727E+02  0.7816164E-02  0.1312668E+00
        -11   -1    0    0    0    0  0.00000000000E+00  0.00000000000E+00  0.45593999997E+02  0.45594000000E+02  0.51100000000E-03 0. -1.
         11   -1    0    0    0    0 -0.00000000000E+00 -0.00000000000E+00 -0.45593999997E+02  0.45594000000E+02  0.51100000000E-03 0.  1.
    9900012    2    1    2    0    0  0.33111208111E+02  0.13778260816E+02  0.24442389053E+02  0.47787274703E+02  0.20000016680E+02 0.  0.
        -12    1    1    2    0    0 -0.33111208111E+02 -0.13778260816E+02 -0.24442389053E+02  0.43400725297E+02  0.00000000000E+00 0.  1.
         11    1    3    3    0    0  0.13144099316E+02 -0.18559039114E+01  0.42879845100E+01  0.13949857977E+02  0.51100000000E-03 0. -1.
        -11    1    3    3    0    0  0.13220193497E+02  0.47866675494E+01  0.78609097778E+01  0.16108370654E+02  0.51100000000E-03 0.  1.
         12    1    3    3    0    0  0.67469152979E+01  0.10847497178E+02  0.12293494765E+02  0.17729046072E+02  0.00000000000E+00 0. -1.
</event>
<event>
 7    1  0.2458979E-009  0.4778727E+02  0.7816164E-02  0.1312668E+00
        -11   -1    0    0    0    0  0.00000000000E+00  0.00000000000E+00  0.45593999997E+02  0.45594000000E+02  0.51100000000E-03 0.  1.
         11   -1    0    0    0    0 -0.00000000000E+00 -0.00000000000E+00 -0.45593999997E+02  0.45594000000E+02  0.51100000000E-03 0. -1.
    9900012    2    1    2    0    0  0.18208154386E+02 -0.13960350938E+02 -0.36840133600E+02  0.47787265811E+02  0.19999976140E+02 0.  0.
        -12    1    1    2    0    0 -0.18208154386E+02  0.13960350938E+02  0.36840133600E+02  0.43400734189E+02  0.00000000000E+00 0.  1.
         11    1    3    3    0    0  0.48347603131E+00 -0.60302340073E+01 -0.76531817232E+01  0.97554426863E+01  0.51100000000E-03 0. -1.
        -11    1    3    3    0    0  0.34633879826E+01 -0.81305010481E+01 -0.55825626759E+01  0.10452995260E+02  0.51100000000E-03 0.  1.
         12    1    3    3    0    0  0.14261290372E+02  0.20038411765E+00 -0.23604389201E+02  0.27578827865E+02  0.00000000000E+00 0. -1.
</event>
<event>
 7    1  0.2458979E-009  0.4778727E+02  0.7816164E-02  0.1312668E+00
        -11   -1    0    0    0    0  0.00000000000E+00  0.00000000000E+00  0.45593999997E+02  0.45594000000E+02  0.51100000000E-03 0. -1.
         11   -1    0    0    0    0 -0.00000000000E+00 -0.00000000000E+00 -0.45593999997E+02  0.45594000000E+02  0.51100000000E-03 0.  1.
    9900012    2    1    2    0    0  0.34931341887E+02  0.99606527294E+00  0.25737767967E+02  0.47787268532E+02  0.19999988545E+02 0.  0.
        -12    1    1    2    0    0 -0.34931341887E+02 -0.99606527294E+00 -0.25737767967E+02  0.43400731468E+02  0.00000000000E+00 0.  1.
         11    1    3    3    0    0  0.36334978659E+02  0.76642789752E+00  0.22479096941E+02  0.42733217588E+02  0.51100000000E-03 0. -1.
        -11    1    3    3    0    0 -0.19564042179E+01  0.43648946549E+00  0.28772729000E+00  0.20250500665E+01  0.51100000000E-03 0.  1.
         12    1    3    3    0    0  0.55276744550E+00 -0.20685209007E+00  0.29709437355E+01  0.30290008774E+01  0.00000000000E+00 0. -1.
</event>
<event>
 7    1  0.2458979E-009  0.4778727E+02  0.7816164E-02  0.1312668E+00
        -11   -1    0    0    0    0  0.00000000000E+00  0.00000000000E+00  0.45593999997E+02  0.45594000000E+02  0.51100000000E-03 0.  1.
         11   -1    0    0    0    0 -0.00000000000E+00 -0.00000000000E+00 -0.45593999997E+02  0.45594000000E+02  0.51100000000E-03 0. -1.
    9900012    2    1    2    0    0 -0.41655311761E+02 -0.10112036375E+02 -0.67974529879E+01  0.47787266773E+02  0.19999980523E+02 0.  0.
        -12    1    1    2    0    0  0.41655311761E+02  0.10112036375E+02  0.67974529879E+01  0.43400733227E+02  0.00000000000E+00 0.  1.
         11    1    3    3    0    0 -0.10795313007E+02 -0.84983520533E+01  0.24032142681E+01  0.13947623799E+02  0.51100000000E-03 0. -1.
        -11    1    3    3    0    0 -0.14065321268E+02  0.30812725960E+01 -0.63985678384E+00  0.14413081564E+02  0.51100000000E-03 0.  1.
         12    1    3    3    0    0 -0.16794677485E+02 -0.46949569173E+01 -0.85608104722E+01  0.19426561410E+02  0.00000000000E+00 0. -1.
</event>
<event>
 7    1  0.2458979E-009  0.4778728E+02  0.7816164E-02  0.1312668E+00
        -11   -1    0    0    0    0  0.00000000000E+00  0.00000000000E+00  0.45593999997E+02  0.45594000000E+02  0.51100000000E-03 0. -1.
         11   -1    0    0    0    0 -0.00000000000E+00 -0.00000000000E+00 -0.45593999997E+02  0.45594000000E+02  0.51100000000E-03 0.  1.
    9900012    2    1    2    0    0  0.30424337459E+02  0.27659778227E+02  0.13889529578E+02  0.47787277963E+02  0.20000031545E+02 0.  0.
        -12    1    1    2    0    0 -0.30424337459E+02 -0.27659778227E+02 -0.13889529578E+02  0.43400722037E+02  0.00000000000E+00 0.  1.
         11    1    3    3    0    0  0.38844371848E+01  0.13846992259E+02  0.27941088719E+01  0.14650429738E+02  0.51100000000E-03 0. -1.
        -11    1    3    3    0    0  0.12987555784E+02  0.18296455994E+01  0.41107258010E+01  0.13744899968E+02  0.51100000000E-03 0.  1.
        -12    1    3    3    0    0  0.13552344491E+02  0.11983140369E+02  0.69846949054E+01  0.19391948258E+02  0.00000000000E+00 0.  1.
</event>
<event>
 7    1  0.2458979E-009  0.4778727E+02  0.7816164E-02  0.1312668E+00
        -11   -1    0    0    0    0  0.00000000000E+00  0.00000000000E+00  0.45593999997E+02  0.45594000000E+02  0.51100000000E-03 0.  1.
         11   -1    0    0    0    0 -0.00000000000E+00 -0.00000000000E+00 -0.45593999997E+02  0.45594000000E+02  0.51100000000E-03 0. -1.
    9900012    2    1    2    0    0 -0.15180681928E+02 -0.35702442388E+02 -0.19455223771E+02  0.47787271570E+02  0.20000002397E+02 0.  0.
        -12    1    1    2    0    0  0.15180681928E+02  0.35702442388E+02  0.19455223771E+02  0.43400728430E+02  0.00000000000E+00 0.  1.
         11    1    3    3    0    0 -0.15296622835E+02 -0.36690877286E+02 -0.16592149731E+02  0.43075591454E+02  0.51100000000E-03 0. -1.
        -11    1    3    3    0    0  0.64976666241E+00  0.38496430633E+00 -0.35643801835E+01  0.36435148671E+01  0.51100000000E-03 0.  1.
         12    1    3    3    0    0 -0.53382575593E+00  0.60347059160E+00  0.70130614337E+00  0.10681652491E+01  0.00000000000E+00 0. -1.
</event>
<event>
 7    1  0.2458979E-009  0.4778727E+02  0.7816164E-02  0.1312668E+00
        -11   -1    0    0    0    0  0.00000000000E+00  0.00000000000E+00  0.45593999997E+02  0.45594000000E+02  0.51100000000E-03 0.  1.
         11   -1    0    0    0    0 -0.00000000000E+00 -0.00000000000E+00 -0.45593999997E+02  0.45594000000E+02  0.51100000000E-03 0. -1.
    9900012    2    1    2    0    0 -0.25000504617E+02 -0.35381021979E+02 -0.26041429162E+01  0.47787268351E+02  0.19999987720E+02 0.  0.
        -12    1    1    2    0    0  0.25000504617E+02  0.35381021979E+02  0.26041429162E+01  0.43400731649E+02  0.00000000000E+00 0.  1.
         11    1    3    3    0    0 -0.11086990738E+02 -0.11289520239E+02 -0.64751163485E+01  0.17096834877E+02  0.51100000000E-03 0. -1.
        -11    1    3    3    0    0 -0.15846276711E+02 -0.20591896130E+02  0.51584581683E+01  0.26490382458E+02  0.51100000000E-03 0.  1.
        -12    1    3    3    0    0  0.19327628322E+01 -0.34996056096E+01 -0.12874847360E+01  0.42000510156E+01  0.00000000000E+00 0.  1.
</event>
<event>
 7    1  0.2458979E-009  0.4778727E+02  0.7816164E-02  0.1312668E+00
        -11   -1    0    0    0    0  0.00000000000E+00  0.00000000000E+00  0.45593999997E+02  0.45594000000E+02  0.51100000000E-03 0.  1.
         11   -1    0    0    0    0 -0.00000000000E+00 -0.00000000000E+00 -0.45593999997E+02  0.45594000000E+02  0.51100000000E-03 0. -1.
    9900012    2    1    2    0    0 -0.24164529284E+02  0.94843990545E+01 -0.34781385721E+02  0.47787273121E+02  0.20000009467E+02 0.  0.
        -12    1    1    2    0    0  0.24164529284E+02 -0.94843990545E+01  0.34781385721E+02  0.43400726879E+02  0.00000000000E+00 0.  1.
         11    1    3    3    0    0 -0.11430343261E+02  0.86678235928E+01 -0.10484378106E+02  0.17768120256E+02  0.51100000000E-03 0. -1.
        -11    1    3    3    0    0 -0.37158816276E+01 -0.14464717201E-01 -0.19342091888E+02  0.19695799155E+02  0.51100000000E-03 0.  1.
         12    1    3    3    0    0 -0.90183043957E+01  0.83104017885E+00 -0.49549157278E+01  0.10323353710E+02  0.00000000000E+00 0. -1.
</event>
<event>
 7    1  0.2458979E-009  0.4778727E+02  0.7816164E-02  0.1312668E+00
        -11   -1    0    0    0    0  0.00000000000E+00  0.00000000000E+00  0.45593999997E+02  0.45594000000E+02  0.51100000000E-03 0.  1.
         11   -1    0    0    0    0 -0.00000000000E+00 -0.00000000000E+00 -0.45593999997E+02  0.45594000000E+02  0.51100000000E-03 0. -1.
    9900012    2    1    2    0    0  0.38592618279E+02  0.15025796355E+02 -0.12979167331E+02  0.47787268136E+02  0.19999986738E+02 0.  0.
        -12    1    1    2    0    0 -0.38592618279E+02 -0.15025796355E+02  0.12979167331E+02  0.43400731864E+02  0.00000000000E+00 0.  1.
         11    1    3    3    0    0  0.25600733819E+02  0.13604908769E+02 -0.71444719251E+00  0.29000026719E+02  0.51100000000E-03 0. -1.
        -11    1    3    3    0    0  0.23851435905E+01 -0.11169038922E+01 -0.38697977047E+00  0.26619800629E+01  0.51100000000E-03 0.  1.
         12    1    3    3    0    0  0.10606740870E+02  0.25377914783E+01 -0.11877740368E+02  0.16125261353E+02  0.00000000000E+00 0. -1.
</event>
<event>
 7    1  0.2458979E-009  0.4778727E+02  0.7816164E-02  0.1312668E+00
        -11   -1    0    0    0    0  0.00000000000E+00  0.00000000000E+00  0.45593999997E+02  0.45594000000E+02  0.51100000000E-03 0.  1.
         11   -1    0    0    0    0 -0.00000000000E+00 -0.00000000000E+00 -0.45593999997E+02  0.45594000000E+02  0.51100000000E-03 0. -1.
    9900012    2    1    2    0    0  0.58912967443E+01 -0.58070931113E+01 -0.42605092023E+02  0.47787267587E+02  0.19999984235E+02 0.  0.
        -12    1    1    2    0    0 -0.58912967443E+01  0.58070931113E+01  0.42605092023E+02  0.43400732413E+02  0.00000000000E+00 0.  1.
         11    1    3    3    0    0  0.33729730816E+01  0.55171921932E+01 -0.22513678182E+02  0.23423963428E+02  0.51100000000E-03 0. -1.
        -11    1    3    3    0    0  0.86729832546E+00 -0.47455693143E+01 -0.23430978139E+01  0.53630907253E+01  0.51100000000E-03 0.  1.
         12    1    3    3    0    0  0.16510253372E+01 -0.65787159903E+01 -0.17748316027E+02  0.19000213434E+02  0.00000000000E+00 0. -1.
</event>
<event>
 7    1  0.2458979E-009  0.4778725E+02  0.7816164E-02  0.1312668E+00
        -11   -1    0    0    0    0  0.00000000000E+00  0.00000000000E+00  0.45593999997E+02  0.45594000000E+02  0.51100000000E-03 0.  1.
         11   -1    0    0    0    0 -0.00000000000E+00 -0.00000000000E+00 -0.45593999997E+02  0.45594000000E+02  0.51100000000E-03 0. -1.
    9900012    2    1    2    0    0 -0.31899328920E+02  0.26716101699E+02 -0.12341293538E+02  0.47787253443E+02  0.19999919748E+02 0.  0.
        -12    1    1    2    0    0  0.31899328920E+02 -0.26716101699E+02  0.12341293538E+02  0.43400746557E+02  0.00000000000E+00 0.  1.
         11    1    3    3    0    0 -0.67469098408E+01  0.45330641085E+01 -0.77464654863E+01  0.11228409968E+02  0.51100000000E-03 0. -1.
        -11    1    3    3    0    0 -0.22402147054E+02  0.21559856981E+02  0.88942548499E-01  0.31091663460E+02  0.51100000000E-03 0.  1.
        -12    1    3    3    0    0 -0.27502720250E+01  0.62318060962E+00 -0.46837706004E+01  0.54671800154E+01  0.00000000000E+00 0.  1.
</event>
<event>
 7    1  0.2458979E-009  0.4778727E+02  0.7816164E-02  0.1312668E+00
        -11   -1    0    0    0    0  0.00000000000E+00  0.00000000000E+00  0.45593999997E+02  0.45594000000E+02  0.51100000000E-03 0. -1.
         11   -1    0    0    0    0 -0.00000000000E+00 -0.00000000000E+00 -0.45593999997E+02  0.45594000000E+02  0.51100000000E-03 0.  1.
    9900012    2    1    2    0    0 -0.17431306880E+02 -0.22405919321E+02  0.32829073859E+02  0.47787265322E+02  0.19999973909E+02 0.  0.
        -12    1    1    2    0    0  0.17431306880E+02  0.22405919321E+02 -0.32829073859E+02  0.43400734678E+02  0.00000000000E+00 0.  1.
         11    1    3    3    0    0  0.27210677488E+01 -0.22958514155E+01  0.11121265669E+02  0.11677229712E+02  0.51100000000E-03 0. -1.
        -11    1    3    3    0    0 -0.10037908817E+02 -0.90560694614E+01  0.74934518184E+01  0.15457161056E+02  0.51100000000E-03 0.  1.
         12    1    3    3    0    0 -0.10114465812E+02 -0.11053998444E+02  0.14214356372E+02  0.20652874554E+02  0.00000000000E+00 0. -1.
</event>
<event>
 7    1  0.2458979E-009  0.4778727E+02  0.7816164E-02  0.1312668E+00
        -11   -1    0    0    0    0  0.00000000000E+00  0.00000000000E+00  0.45593999997E+02  0.45594000000E+02  0.51100000000E-03 0.  1.
         11   -1    0    0    0    0 -0.00000000000E+00 -0.00000000000E+00 -0.45593999997E+02  0.45594000000E+02  0.51100000000E-03 0. -1.
    9900012    2    1    2    0    0 -0.46514279380E+00 -0.41068925440E+02 -0.14026773753E+02  0.47787269862E+02  0.19999994608E+02 0.  0.
        -12    1    1    2    0    0  0.46514279380E+00  0.41068925440E+02  0.14026773753E+02  0.43400730138E+02  0.00000000000E+00 0.  1.
         11    1    3    3    0    0  0.62195733015E+01 -0.54180876113E+01 -0.14106950667E+01  0.83683227859E+01  0.51100000000E-03 0. -1.
        -11    1    3    3    0    0  0.39550068687E+00 -0.20438247514E+02 -0.53280487674E+01  0.21125020382E+02  0.51100000000E-03 0.  1.
         12    1    3    3    0    0 -0.70802167822E+01 -0.15212590315E+02 -0.72880299185E+01  0.18293926694E+02  0.00000000000E+00 0. -1.
</event>
<event>
 7    1  0.2458979E-009  0.4778727E+02  0.7816164E-02  0.1312668E+00
        -11   -1    0    0    0    0  0.00000000000E+00  0.00000000000E+00  0.45593999997E+02  0.45594000000E+02  0.51100000000E-03 0.  1.
         11   -1    0    0    0    0 -0.00000000000E+00 -0.00000000000E+00 -0.45593999997E+02  0.45594000000E+02  0.51100000000E-03 0. -1.
    9900012    2    1    2    0    0 -0.15473815449E+02  0.18893311890E+02 -0.35877948883E+02  0.47787269421E+02  0.19999992598E+02 0.  0.
        -12    1    1    2    0    0  0.15473815449E+02 -0.18893311890E+02  0.35877948883E+02  0.43400730579E+02  0.00000000000E+00 0.  1.
         11    1    3    3    0    0 -0.14209731967E+02  0.11950610473E+02 -0.25208837363E+02  0.31308450212E+02  0.51100000000E-03 0. -1.
        -11    1    3    3    0    0 -0.20043225224E+01  0.33199467642E+00 -0.95124503428E+01  0.97269851971E+01  0.51100000000E-03 0.  1.
         12    1    3    3    0    0  0.74023904005E+00  0.66107067402E+01 -0.11566611780E+01  0.67518340117E+01  0.00000000000E+00 0. -1.
</event>
<event>
 7    1  0.2458979E-009  0.4778727E+02  0.7816164E-02  0.1312668E+00
        -11   -1    0    0    0    0  0.00000000000E+00  0.00000000000E+00  0.45593999997E+02  0.45594000000E+02  0.51100000000E-03 0.  1.
         11   -1    0    0    0    0 -0.00000000000E+00 -0.00000000000E+00 -0.45593999997E+02  0.45594000000E+02  0.51100000000E-03 0. -1.
    9900012    2    1    2    0    0 -0.93918919454E+00  0.22688617884E+02 -0.36986050868E+02  0.47787269399E+02  0.19999992500E+02 0.  0.
        -12    1    1    2    0    0  0.93918919454E+00 -0.22688617884E+02  0.36986050868E+02  0.43400730601E+02  0.00000000000E+00 0.  1.
         11    1    3    3    0    0 -0.78144955050E+00  0.18443835200E+02 -0.22701205382E+02  0.29259706873E+02  0.51100000000E-03 0. -1.
        -11    1    3    3    0    0 -0.42843919247E+01 -0.44348480904E+00 -0.10179857122E+02  0.11053605033E+02  0.51100000000E-03 0.  1.
         12    1    3    3    0    0  0.41266522806E+01  0.46882674932E+01 -0.41049883649E+01  0.74739574932E+01  0.00000000000E+00 0. -1.
</event>
<event>
 7    1  0.2458979E-009  0.4778730E+02  0.7816164E-02  0.1312668E+00
        -11   -1    0    0    0    0  0.00000000000E+00  0.00000000000E+00  0.45593999997E+02  0.45594000000E+02  0.51100000000E-03 0.  1.
         11   -1    0    0    0    0 -0.00000000000E+00 -0.00000000000E+00 -0.45593999997E+02  0.45594000000E+02  0.51100000000E-03 0. -1.
    9900012    2    1    2    0    0 -0.37981272711E+02 -0.20383117837E+02  0.50569272837E+01  0.47787296284E+02  0.20000115077E+02 0.  0.
        -12    1    1    2    0    0  0.37981272711E+02  0.20383117837E+02 -0.50569272837E+01  0.43400703716E+02  0.00000000000E+00 0.  1.
         11    1    3    3    0    0 -0.45421509333E+01 -0.90739605374E+01  0.53554470913E-01  0.10147451073E+02  0.51100000000E-03 0. -1.
        -11    1    3    3    0    0 -0.12756626587E+02 -0.18124925541E+01  0.72265765591E+01  0.14772950286E+02  0.51100000000E-03 0.  1.
        -12    1    3    3    0    0 -0.20682495191E+02 -0.94966647454E+01 -0.22232037463E+01  0.22866894925E+02  0.00000000000E+00 0.  1.
</event>
<event>
 7    1  0.2458979E-009  0.4778727E+02  0.7816164E-02  0.1312668E+00
        -11   -1    0    0    0    0  0.00000000000E+00  0.00000000000E+00  0.45593999997E+02  0.45594000000E+02  0.51100000000E-03 0.  1.
         11   -1    0    0    0    0 -0.00000000000E+00 -0.00000000000E+00 -0.45593999997E+02  0.45594000000E+02  0.51100000000E-03 0. -1.
    9900012    2    1    2    0    0 -0.36261747572E+02 -0.98288910345E+01 -0.21727904799E+02  0.47787270941E+02  0.19999999528E+02 0.  0.
        -12    1    1    2    0    0  0.36261747572E+02  0.98288910345E+01  0.21727904799E+02  0.43400729059E+02  0.00000000000E+00 0.  1.
         11    1    3    3    0    0 -0.14337486295E+02 -0.49820444785E+01 -0.78147758400E+01  0.17072053249E+02  0.51100000000E-03 0. -1.
        -11    1    3    3    0    0 -0.12487582098E+02 -0.28633628596E+01  0.11142757997E+01  0.12860021942E+02  0.51100000000E-03 0.  1.
        -12    1    3    3    0    0 -0.94366791785E+01 -0.19834836964E+01 -0.15027404759E+02  0.17855195750E+02  0.00000000000E+00 0.  1.
</event>
<event>
 7    1  0.2458979E-009  0.4778727E+02  0.7816164E-02  0.1312668E+00
        -11   -1    0    0    0    0  0.00000000000E+00  0.00000000000E+00  0.45593999997E+02  0.45594000000E+02  0.51100000000E-03 0.  1.
         11   -1    0    0    0    0 -0.00000000000E+00 -0.00000000000E+00 -0.45593999997E+02  0.45594000000E+02  0.51100000000E-03 0. -1.
    9900012    2    1    2    0    0  0.22504121208E+02  0.81116808685E+01 -0.36213098908E+02  0.47787269932E+02  0.19999994929E+02 0.  0.
        -12    1    1    2    0    0 -0.22504121208E+02 -0.81116808685E+01  0.36213098908E+02  0.43400730068E+02  0.00000000000E+00 0.  1.
         11    1    3    3    0    0  0.20742959530E+02  0.98095607441E+01 -0.30696463089E+02  0.38324544335E+02  0.51100000000E-03 0. -1.
        -11    1    3    3    0    0 -0.13231433362E+01  0.22686104764E+01 -0.23454617440E+01  0.35211493628E+01  0.51100000000E-03 0.  1.
         12    1    3    3    0    0  0.30843050144E+01 -0.39664903520E+01 -0.31711740757E+01  0.59415762347E+01  0.00000000000E+00 0. -1.
</event>
<event>
 7    1  0.2458979E-009  0.4778727E+02  0.7816164E-02  0.1312668E+00
        -11   -1    0    0    0    0  0.00000000000E+00  0.00000000000E+00  0.45593999997E+02  0.45594000000E+02  0.51100000000E-03 0.  1.
         11   -1    0    0    0    0 -0.00000000000E+00 -0.00000000000E+00 -0.45593999997E+02  0.45594000000E+02  0.51100000000E-03 0. -1.
    9900012    2    1    2    0    0 -0.31301692893E+02  0.24352148118E+02 -0.17629532693E+02  0.47787268221E+02  0.19999987129E+02 0.  0.
        -12    1    1    2    0    0  0.31301692893E+02 -0.24352148118E+02  0.17629532693E+02  0.43400731779E+02  0.00000000000E+00 0.  1.
         11    1    3    3    0    0 -0.11529638273E+02  0.61676259278E+01 -0.17889545602E+01  0.13197443956E+02  0.51100000000E-03 0. -1.
        -11    1    3    3    0    0 -0.14960790439E+02  0.18892552401E+02 -0.80533921416E+01  0.25408874671E+02  0.51100000000E-03 0.  1.
        -12    1    3    3    0    0 -0.48112641811E+01 -0.70803021072E+00 -0.77871859910E+01  0.91809495946E+01  0.00000000000E+00 0.  1.
</event>
<event>
 7    1  0.2458979E-009  0.4778727E+02  0.7816164E-02  0.1312668E+00
        -11   -1    0    0    0    0  0.00000000000E+00  0.00000000000E+00  0.45593999997E+02  0.45594000000E+02  0.51100000000E-03 0. -1.
         11   -1    0    0    0    0 -0.00000000000E+00 -0.00000000000E+00 -0.45593999997E+02  0.45594000000E+02  0.51100000000E-03 0.  1.
    9900012    2    1    2    0    0  0.35936941860E+02 -0.20628535915E+02  0.12908269748E+02  0.47787265995E+02  0.19999976978E+02 0.  0.
        -12    1    1    2    0    0 -0.35936941860E+02  0.20628535915E+02 -0.12908269748E+02  0.43400734005E+02  0.00000000000E+00 0.  1.
         11    1    3    3    0    0  0.19054560008E+01  0.24181206371E+01  0.25338338625E+01  0.39872778045E+01  0.51100000000E-03 0. -1.
        -11    1    3    3    0    0  0.31589067873E+02 -0.24073870864E+02  0.86778604016E+01  0.40653729581E+02  0.51100000000E-03 0.  1.
        -12    1    3    3    0    0  0.24424179871E+01  0.10272143118E+01  0.16965754841E+01  0.31462586097E+01  0.00000000000E+00 0.  1.
</event>
<event>
 7    1  0.2458979E-009  0.4778727E+02  0.7816164E-02  0.1312668E+00
        -11   -1    0    0    0    0  0.00000000000E+00  0.00000000000E+00  0.45593999997E+02  0.45594000000E+02  0.51100000000E-03 0.  1.
         11   -1    0    0    0    0 -0.00000000000E+00 -0.00000000000E+00 -0.45593999997E+02  0.45594000000E+02  0.51100000000E-03 0. -1.
    9900012    2    1    2    0    0  0.40076287473E+02  0.97682283054E+01 -0.13494297365E+02  0.47787272320E+02  0.20000005814E+02 0.  0.
        -12    1    1    2    0    0 -0.40076287473E+02 -0.97682283054E+01  0.13494297365E+02  0.43400727680E+02  0.00000000000E+00 0.  1.
         11    1    3    3    0    0  0.37508591244E+02  0.50951094198E+01 -0.12749600936E+02  0.39942544754E+02  0.51100000000E-03 0. -1.
        -11    1    3    3    0    0  0.33182846092E+01  0.50669773164E+01  0.77339916323E+00  0.61060149360E+01  0.51100000000E-03 0.  1.
         12    1    3    3    0    0 -0.75058838090E+00 -0.39385843079E+00 -0.15180955922E+01  0.17387126295E+01  0.00000000000E+00 0. -1.
</event>
<event>
 7    1  0.2458979E-009  0.4778727E+02  0.7816164E-02  0.1312668E+00
        -11   -1    0    0    0    0  0.00000000000E+00  0.00000000000E+00  0.45593999997E+02  0.45594000000E+02  0.51100000000E-03 0.  1.
         11   -1    0    0    0    0 -0.00000000000E+00 -0.00000000000E+00 -0.45593999997E+02  0.45594000000E+02  0.51100000000E-03 0. -1.
    9900012    2    1    2    0    0 -0.21523215549E+02  0.11906434910E+02 -0.35757680169E+02  0.47787266240E+02  0.19999978095E+02 0.  0.
        -12    1    1    2    0    0  0.21523215549E+02 -0.11906434910E+02  0.35757680169E+02  0.43400733760E+02  0.00000000000E+00 0.  1.
         11    1    3    3    0    0 -0.15922188034E+02  0.56984121154E+01 -0.25918771817E+02  0.30947870770E+02  0.51100000000E-03 0. -1.
        -11    1    3    3    0    0 -0.13079599687E+01  0.81379342757E+01 -0.35260156632E+01  0.89649049228E+01  0.51100000000E-03 0.  1.
        -12    1    3    3    0    0 -0.42930675457E+01 -0.19299114812E+01 -0.63128926895E+01  0.78744905477E+01  0.00000000000E+00 0.  1.
</event>
<event>
 7    1  0.2458979E-009  0.4778727E+02  0.7816164E-02  0.1312668E+00
        -11   -1    0    0    0    0  0.00000000000E+00  0.00000000000E+00  0.45593999997E+02  0.45594000000E+02  0.51100000000E-03 0. -1.
         11   -1    0    0    0    0 -0.00000000000E+00 -0.00000000000E+00 -0.45593999997E+02  0.45594000000E+02  0.51100000000E-03 0.  1.
    9900012    2    1    2    0    0 -0.34594780457E+02 -0.22025456008E+02 -0.14202247096E+02  0.47787269940E+02  0.19999994962E+02 0.  0.
        -12    1    1    2    0    0  0.34594780457E+02  0.22025456008E+02  0.14202247096E+02  0.43400730060E+02  0.00000000000E+00 0.  1.
         11    1    3    3    0    0 -0.22583313152E+02 -0.20709835199E+02 -0.97108013962E+01  0.32143474780E+02  0.51100000000E-03 0. -1.
        -11    1    3    3    0    0 -0.13184157702E+02 -0.18305452037E+00 -0.47046232625E+01  0.13999607265E+02  0.51100000000E-03 0.  1.
         12    1    3    3    0    0  0.11726903963E+01 -0.11325662879E+01  0.21317756284E+00  0.16441878954E+01  0.00000000000E+00 0. -1.
</event>
<event>
 7    1  0.2458979E-009  0.4778727E+02  0.7816164E-02  0.1312668E+00
        -11   -1    0    0    0    0  0.00000000000E+00  0.00000000000E+00  0.45593999997E+02  0.45594000000E+02  0.51100000000E-03 0.  1.
         11   -1    0    0    0    0 -0.00000000000E+00 -0.00000000000E+00 -0.45593999997E+02  0.45594000000E+02  0.51100000000E-03 0. -1.
    9900012    2    1    2    0    0 -0.14327782215E+02  0.37011226595E+02 -0.17564374266E+02  0.47787268663E+02  0.19999989142E+02 0.  0.
        -12    1    1    2    0    0  0.14327782215E+02 -0.37011226595E+02  0.17564374266E+02  0.43400731337E+02  0.00000000000E+00 0.  1.
         11    1    3    3    0    0 -0.15871367147E+02  0.36625894988E+02 -0.13442917781E+02  0.42119692752E+02  0.51100000000E-03 0. -1.
        -11    1    3    3    0    0  0.22184944886E+01  0.12534407849E+01 -0.36944873864E+01  0.44879916340E+01  0.51100000000E-03 0.  1.
        -12    1    3    3    0    0 -0.67490955618E+00 -0.86810917866E+00 -0.42696909854E+00  0.11795842769E+01  0.00000000000E+00 0.  1.
</event>
<event>
 7    1  0.2458979E-009  0.4778731E+02  0.7816164E-02  0.1312668E+00
        -11   -1    0    0    0    0  0.00000000000E+00  0.00000000000E+00  0.45593999997E+02  0.45594000000E+02  0.51100000000E-03 0.  1.
         11   -1    0    0    0    0 -0.00000000000E+00 -0.00000000000E+00 -0.45593999997E+02  0.45594000000E+02  0.51100000000E-03 0. -1.
    9900012    2    1    2    0    0 -0.16255954408E+02  0.36350018820E+02 -0.17263843539E+02  0.47787306277E+02  0.20000160637E+02 0.  0.
        -12    1    1    2    0    0  0.16255954408E+02 -0.36350018820E+02  0.17263843539E+02  0.43400693723E+02  0.00000000000E+00 0.  1.
         11    1    3    3    0    0 -0.86829716171E+01  0.30256429666E+02 -0.16191349192E+02  0.35397815204E+02  0.51100000000E-03 0. -1.
        -11    1    3    3    0    0 -0.18994090932E+01 -0.14113805401E+01  0.12817572758E+01  0.26912175511E+01  0.51100000000E-03 0.  1.
         12    1    3    3    0    0 -0.56735736981E+01  0.75049696934E+01 -0.23542516229E+01  0.96982735221E+01  0.00000000000E+00 0. -1.
</event>
<event>
 7    1  0.2458979E-009  0.4778727E+02  0.7816164E-02  0.1312668E+00
        -11   -1    0    0    0    0  0.00000000000E+00  0.00000000000E+00  0.45593999997E+02  0.45594000000E+02  0.51100000000E-03 0.  1.
         11   -1    0    0    0    0 -0.00000000000E+00 -0.00000000000E+00 -0.45593999997E+02  0.45594000000E+02  0.51100000000E-03 0. -1.
    9900012    2    1    2    0    0 -0.10584703472E+02  0.36803597287E+02 -0.20422591095E+02  0.47787274800E+02  0.20000017122E+02 0.  0.
        -12    1    1    2    0    0  0.10584703472E+02 -0.36803597287E+02  0.20422591095E+02  0.43400725200E+02  0.00000000000E+00 0.  1.
         11    1    3    3    0    0  0.19115332793E+01  0.11709700313E+02 -0.11605619978E+02  0.16597031549E+02  0.51100000000E-03 0. -1.
        -11    1    3    3    0    0 -0.10367838572E+02  0.97984533510E+01 -0.60787254339E+01  0.15506536296E+02  0.51100000000E-03 0.  1.
         12    1    3    3    0    0 -0.21283981798E+01  0.15295443623E+02 -0.27382456829E+01  0.15683706955E+02  0.00000000000E+00 0. -1.
</event>
<event>
 7    1  0.2458979E-009  0.4778727E+02  0.7816164E-02  0.1312668E+00
        -11   -1    0    0    0    0  0.00000000000E+00  0.00000000000E+00  0.45593999997E+02  0.45594000000E+02  0.51100000000E-03 0.  1.
         11   -1    0    0    0    0 -0.00000000000E+00 -0.00000000000E+00 -0.45593999997E+02  0.45594000000E+02  0.51100000000E-03 0. -1.
    9900012    2    1    2    0    0  0.26507619050E+02  0.26769249693E+02 -0.21549401707E+02  0.47787270620E+02  0.19999998063E+02 0.  0.
        -12    1    1    2    0    0 -0.26507619050E+02 -0.26769249693E+02  0.21549401707E+02  0.43400729380E+02  0.00000000000E+00 0.  1.
         11    1    3    3    0    0  0.12638132687E+02  0.74909985474E+01 -0.17147347457E+02  0.22580278610E+02  0.51100000000E-03 0. -1.
        -11    1    3    3    0    0  0.32505201520E+01  0.54842940593E+01  0.19650593408E+01  0.66711933761E+01  0.51100000000E-03 0.  1.
         12    1    3    3    0    0  0.10618966211E+02  0.13793957086E+02 -0.63671135906E+01  0.18535798633E+02  0.00000000000E+00 0. -1.
</event>
<event>
 7    1  0.2458979E-009  0.4778728E+02  0.7816164E-02  0.1312668E+00
        -11   -1    0    0    0    0  0.00000000000E+00  0.00000000000E+00  0.45593999997E+02  0.45594000000E+02  0.51100000000E-03 0. -1.
         11   -1    0    0    0    0 -0.00000000000E+00 -0.00000000000E+00 -0.45593999997E+02  0.45594000000E+02  0.51100000000E-03 0.  1.
    9900012    2    1    2    0    0 -0.42200662106E+02  0.23703892115E+00  0.10132657486E+02  0.47787276304E+02  0.20000023979E+02 0.  0.
        -12    1    1    2    0    0  0.42200662106E+02 -0.23703892115E+00 -0.10132657486E+02  0.43400723696E+02  0.00000000000E+00 0.  1.
         11    1    3    3    0    0 -0.82238899201E+01 -0.15594953440E+01  0.99738304222E+01  0.13020817359E+02  0.51100000000E-03 0. -1.
        -11    1    3    3    0    0 -0.11487820147E+02  0.18406058239E+01 -0.31057740475E+01  0.12041747141E+02  0.51100000000E-03 0.  1.
         12    1    3    3    0    0 -0.22488952039E+02 -0.44071558677E-01  0.32646011113E+01  0.22724711803E+02  0.00000000000E+00 0. -1.
</event>
<event>
 7    1  0.2458979E-009  0.4778727E+02  0.7816164E-02  0.1312668E+00
        -11   -1    0    0    0    0  0.00000000000E+00  0.00000000000E+00  0.45593999997E+02  0.45594000000E+02  0.51100000000E-03 0.  1.
         11   -1    0    0    0    0 -0.00000000000E+00 -0.00000000000E+00 -0.45593999997E+02  0.45594000000E+02  0.51100000000E-03 0. -1.
    9900012    2    1    2    0    0 -0.23477935485E+01 -0.54189796723E+01 -0.42997040421E+02  0.47787274659E+02  0.20000016479E+02 0.  0.
        -12    1    1    2    0    0  0.23477935485E+01  0.54189796723E+01  0.42997040421E+02  0.43400725341E+02  0.00000000000E+00 0.  1.
         11    1    3    3    0    0 -0.70807426963E+01 -0.63543447018E+01 -0.35811317097E+02  0.37053542965E+02  0.51100000000E-03 0. -1.
        -11    1    3    3    0    0  0.19115238980E+01  0.30128404506E+01 -0.60977118367E+01  0.70649289521E+01  0.51100000000E-03 0.  1.
         12    1    3    3    0    0  0.28214252497E+01 -0.20774754210E+01 -0.10880114864E+01  0.36688027419E+01  0.00000000000E+00 0. -1.
</event>
<event>
 7    1  0.2458979E-009  0.4778727E+02  0.7816164E-02  0.1312668E+00
        -11   -1    0    0    0    0  0.00000000000E+00  0.00000000000E+00  0.45593999997E+02  0.45594000000E+02  0.51100000000E-03 0.  1.
         11   -1    0    0    0    0 -0.00000000000E+00 -0.00000000000E+00 -0.45593999997E+02  0.45594000000E+02  0.51100000000E-03 0. -1.
    9900012    2    1    2    0    0  0.17611762902E+02 -0.19417296727E+02 -0.34589271508E+02  0.47787270649E+02  0.19999998196E+02 0.  0.
        -12    1    1    2    0    0 -0.17611762902E+02  0.19417296727E+02  0.34589271508E+02  0.43400729351E+02  0.00000000000E+00 0.  1.
         11    1    3    3    0    0  0.11033162458E+02 -0.19381848675E+02 -0.26568356035E+02  0.34688099898E+02  0.51100000000E-03 0. -1.
        -11    1    3    3    0    0  0.52204286211E+01  0.21535623413E+01 -0.11525716388E+01  0.57636036809E+01  0.51100000000E-03 0.  1.
         12    1    3    3    0    0  0.13581718229E+01 -0.21890103936E+01 -0.68683438345E+01  0.73355670696E+01  0.00000000000E+00 0. -1.
</event>
<event>
 7    1  0.2458979E-009  0.4778728E+02  0.7816164E-02  0.1312668E+00
        -11   -1    0    0    0    0  0.00000000000E+00  0.00000000000E+00  0.45593999997E+02  0.45594000000E+02  0.51100000000E-03 0.  1.
         11   -1    0    0    0    0 -0.00000000000E+00 -0.00000000000E+00 -0.45593999997E+02  0.45594000000E+02  0.51100000000E-03 0. -1.
    9900012    2    1    2    0    0  0.57398819525E+01  0.16047494284E+02 -0.39914330774E+02  0.47787284352E+02  0.20000060673E+02 0.  0.
        -12    1    1    2    0    0 -0.57398819525E+01 -0.16047494284E+02  0.39914330774E+02  0.43400715648E+02  0.00000000000E+00 0.  1.
         11    1    3    3    0    0  0.11296958102E+02  0.14331499224E+02 -0.26720684775E+02  0.32357504964E+02  0.51100000000E-03 0. -1.
        -11    1    3    3    0    0 -0.95426948886E+00 -0.18247712026E+01 -0.48004289162E+01  0.52234603702E+01  0.51100000000E-03 0.  1.
         12    1    3    3    0    0 -0.46028066610E+01  0.35407662630E+01 -0.83932170833E+01  0.10206319018E+02  0.00000000000E+00 0. -1.
</event>
<event>
 7    1  0.2458979E-009  0.4778726E+02  0.7816164E-02  0.1312668E+00
        -11   -1    0    0    0    0  0.00000000000E+00  0.00000000000E+00  0.45593999997E+02  0.45594000000E+02  0.51100000000E-03 0.  1.
         11   -1    0    0    0    0 -0.00000000000E+00 -0.00000000000E+00 -0.45593999997E+02  0.45594000000E+02  0.51100000000E-03 0. -1.
    9900012    2    1    2    0    0  0.12125538643E+02  0.41668759477E+02 -0.55658367787E+00  0.47787262805E+02  0.19999962432E+02 0.  0.
        -12    1    1    2    0    0 -0.12125538643E+02 -0.41668759477E+02  0.55658367787E+00  0.43400737195E+02  0.00000000000E+00 0.  1.
         11    1    3    3    0    0  0.46930784036E+01  0.13242754329E+02  0.45320251251E+01  0.14762614238E+02  0.51100000000E-03 0. -1.
        -11    1    3    3    0    0 -0.23972816979E+01  0.51133319821E+01 -0.52690311705E+01  0.77237175786E+01  0.51100000000E-03 0.  1.
        -12    1    3    3    0    0  0.98297419374E+01  0.23312673165E+02  0.18042236747E+00  0.25300930989E+02  0.00000000000E+00 0.  1.
</event>
<event>
 7    1  0.2458979E-009  0.4778728E+02  0.7816164E-02  0.1312668E+00
        -11   -1    0    0    0    0  0.00000000000E+00  0.00000000000E+00  0.45593999997E+02  0.45594000000E+02  0.51100000000E-03 0. -1.
         11   -1    0    0    0    0 -0.00000000000E+00 -0.00000000000E+00 -0.45593999997E+02  0.45594000000E+02  0.51100000000E-03 0.  1.
    9900012    2    1    2    0    0 -0.33773195835E+02  0.17027802896E+02  0.21284913146E+02  0.47787281619E+02  0.20000048213E+02 0.  0.
        -12    1    1    2    0    0  0.33773195835E+02 -0.17027802896E+02 -0.21284913146E+02  0.43400718381E+02  0.00000000000E+00 0.  1.
         11    1    3    3    0    0 -0.11111160800E+02 -0.14647811042E+01  0.12095234007E+02  0.16489334854E+02  0.51100000000E-03 0. -1.
        -11    1    3    3    0    0 -0.18807489589E+02  0.17996955607E+02  0.79035008244E+01  0.27204363644E+02  0.51100000000E-03 0.  1.
        -12    1    3    3    0    0 -0.38545454467E+01  0.49562839285E+00  0.12861783148E+01  0.40935831202E+01  0.00000000000E+00 0.  1.
</event>
<event>
 7    1  0.2458979E-009  0.4778727E+02  0.7816164E-02  0.1312668E+00
        -11   -1    0    0    0    0  0.00000000000E+00  0.00000000000E+00  0.45593999997E+02  0.45594000000E+02  0.51100000000E-03 0.  1.
         11   -1    0    0    0    0 -0.00000000000E+00 -0.00000000000E+00 -0.45593999997E+02  0.45594000000E+02  0.51100000000E-03 0. -1.
    9900012    2    1    2    0    0  0.17789277755E+02  0.26194996590E+02 -0.29681425736E+02  0.47787270938E+02  0.19999999514E+02 0.  0.
        -12    1    1    2    0    0 -0.17789277755E+02 -0.26194996590E+02  0.29681425736E+02  0.43400729062E+02  0.00000000000E+00 0.  1.
         11    1    3    3    0    0  0.76359154133E+01  0.99468507520E+01 -0.19492448987E+01  0.12690413706E+02  0.51100000000E-03 0. -1.
        -11    1    3    3    0    0 -0.15263653170E+01  0.10547151375E+00 -0.13839198381E+01  0.20630437951E+01  0.51100000000E-03 0.  1.
         12    1    3    3    0    0  0.11679727659E+02  0.16142674324E+02 -0.26348260999E+02  0.33033813437E+02  0.00000000000E+00 0. -1.
</event>
<event>
 7    1  0.2458979E-009  0.4778727E+02  0.7816164E-02  0.1312668E+00
        -11   -1    0    0    0    0  0.00000000000E+00  0.00000000000E+00  0.45593999997E+02  0.45594000000E+02  0.51100000000E-03 0.  1.
         11   -1    0    0    0    0 -0.00000000000E+00 -0.00000000000E+00 -0.45593999997E+02  0.45594000000E+02  0.51100000000E-03 0. -1.
    9900012    2    1    2    0    0  0.37086917067E+02 -0.11016757256E+02 -0.19667611575E+02  0.47787270708E+02  0.19999998468E+02 0.  0.
        -12    1    1    2    0    0 -0.37086917067E+02  0.11016757256E+02  0.19667611575E+02  0.43400729292E+02  0.00000000000E+00 0.  1.
         11    1    3    3    0    0  0.19231403789E+02 -0.64148689482E+00 -0.18746090907E+01  0.19333198303E+02  0.51100000000E-03 0. -1.
        -11    1    3    3    0    0  0.88003989123E+01 -0.71637614130E+01 -0.48639744094E+01  0.12346041710E+02  0.51100000000E-03 0.  1.
         12    1    3    3    0    0  0.90551143661E+01 -0.32115089479E+01 -0.12929028075E+02  0.16108030695E+02  0.00000000000E+00 0. -1.
</event>
<event>
 7    1  0.2458979E-009  0.4778727E+02  0.7816164E-02  0.1312668E+00
        -11   -1    0    0    0    0  0.00000000000E+00  0.00000000000E+00  0.45593999997E+02  0.45594000000E+02  0.51100000000E-03 0. -1.
         11   -1    0    0    0    0 -0.00000000000E+00 -0.00000000000E+00 -0.45593999997E+02  0.45594000000E+02  0.51100000000E-03 0.  1.
    9900012    2    1    2    0    0  0.10157425316E+02 -0.35833963466E+02  0.22279529917E+02  0.47787266365E+02  0.19999978664E+02 0.  0.
        -12    1    1    2    0    0 -0.10157425316E+02  0.35833963466E+02 -0.22279529917E+02  0.43400733635E+02  0.00000000000E+00 0.  1.
         11    1    3    3    0    0 -0.17945499106E+01 -0.19098512678E+02  0.44909233427E+01  0.19701319464E+02  0.51100000000E-03 0. -1.
        -11    1    3    3    0    0  0.76369687198E+01 -0.48027825019E+01  0.80443269040E+01  0.12087233207E+02  0.51100000000E-03 0.  1.
         12    1    3    3    0    0  0.43150065066E+01 -0.11932668286E+02  0.97442796706E+01  0.15998713695E+02  0.00000000000E+00 0. -1.
</event>
<event>
 7    1  0.8821875E-009  0.4778728E+02  0.7816164E-02  0.1312668E+00
        -11   -1    0    0    0    0  0.00000000000E+00  0.00000000000E+00  0.45593999997E+02  0.45594000000E+02  0.51100000000E-03 0. -1.
         11   -1    0    0    0    0 -0.00000000000E+00 -0.00000000000E+00 -0.45593999997E+02  0.45594000000E+02  0.51100000000E-03 0.  1.
    9900012    2    1    2    0    0  0.32670215094E+02  0.26749686873E+02  0.10036618398E+02  0.47787280985E+02  0.20000045324E+02 0.  0.
        -12    1    1    2    0    0 -0.32670215094E+02 -0.26749686873E+02 -0.10036618398E+02  0.43400719015E+02  0.00000000000E+00 0.  1.
         11    1    3    3    0    0  0.29436545123E+01  0.11503494182E+02  0.29093739868E+00  0.11877715483E+02  0.51100000000E-03 0. -1.
        -11    1    3    3    0    0  0.41942175699E+01 -0.60854501134E+00 -0.22559071223E+00  0.42441347157E+01  0.51100000000E-03 0.  1.
         12    1    3    3    0    0  0.25532343012E+02  0.15854737703E+02  0.99712717116E+01  0.31665430786E+02  0.00000000000E+00 0. -1.
</event>
<event>
 7    1  0.2458979E-009  0.4778727E+02  0.7816164E-02  0.1312668E+00
        -11   -1    0    0    0    0  0.00000000000E+00  0.00000000000E+00  0.45593999997E+02  0.45594000000E+02  0.51100000000E-03 0.  1.
         11   -1    0    0    0    0 -0.00000000000E+00 -0.00000000000E+00 -0.45593999997E+02  0.45594000000E+02  0.51100000000E-03 0. -1.
    9900012    2    1    2    0    0  0.13206142719E+02  0.15917807871E+01 -0.41312070113E+02  0.47787272948E+02  0.20000008679E+02 0.  0.
        -12    1    1    2    0    0 -0.13206142719E+02 -0.15917807871E+01  0.41312070113E+02  0.43400727052E+02  0.00000000000E+00 0.  1.
         11    1    3    3    0    0  0.65162872355E+01  0.33256107786E-01 -0.33151019800E+02  0.33785399500E+02  0.51100000000E-03 0. -1.
        -11    1    3    3    0    0  0.81446769998E+00 -0.30383635792E+01 -0.49837091784E+01  0.58934173711E+01  0.51100000000E-03 0.  1.
         12    1    3    3    0    0  0.58753877834E+01  0.45968882585E+01 -0.31773411346E+01  0.81084560770E+01  0.00000000000E+00 0. -1.
</event>
<event>
 7    1  0.2458979E-009  0.4778727E+02  0.7816164E-02  0.1312668E+00
        -11   -1    0    0    0    0  0.00000000000E+00  0.00000000000E+00  0.45593999997E+02  0.45594000000E+02  0.51100000000E-03 0.  1.
         11   -1    0    0    0    0 -0.00000000000E+00 -0.00000000000E+00 -0.45593999997E+02  0.45594000000E+02  0.51100000000E-03 0. -1.
    9900012    2    1    2    0    0  0.26458116180E+02  0.20039681558E+02 -0.27964309346E+02  0.47787270214E+02  0.19999996213E+02 0.  0.
        -12    1    1    2    0    0 -0.26458116180E+02 -0.20039681558E+02  0.27964309346E+02  0.43400729786E+02  0.00000000000E+00 0.  1.
         11    1    3    3    0    0  0.21130026993E+02  0.17615544625E+02 -0.16962349827E+02  0.32318829884E+02  0.51100000000E-03 0. -1.
        -11    1    3    3    0    0  0.23967806176E+00 -0.19490019897E+01  0.61105921033E+00  0.20565621675E+01  0.51100000000E-03 0.  1.
        -12    1    3    3    0    0  0.50884111251E+01  0.43731389230E+01 -0.11613018730E+02  0.13411878162E+02  0.00000000000E+00 0.  1.
</event>
<event>
 7    1  0.2458979E-009  0.4778728E+02  0.7816164E-02  0.1312668E+00
        -11   -1    0    0    0    0  0.00000000000E+00  0.00000000000E+00  0.45593999997E+02  0.45594000000E+02  0.51100000000E-03 0.  1.
         11   -1    0    0    0    0 -0.00000000000E+00 -0.00000000000E+00 -0.45593999997E+02  0.45594000000E+02  0.51100000000E-03 0. -1.
    9900012    2    1    2    0    0 -0.24899563287E+02 -0.38067328176E+01 -0.35343220846E+02  0.47787277352E+02  0.20000028758E+02 0.  0.
        -12    1    1    2    0    0  0.24899563287E+02  0.38067328176E+01  0.35343220846E+02  0.43400722648E+02  0.00000000000E+00 0.  1.
         11    1    3    3    0    0 -0.74153153020E+01  0.23397105700E+00 -0.20087546182E+02  0.21413807587E+02  0.51100000000E-03 0. -1.
        -11    1    3    3    0    0 -0.66574784538E+01 -0.75749928145E+01 -0.63684995410E+01  0.11927293162E+02  0.51100000000E-03 0.  1.
        -12    1    3    3    0    0 -0.10826769531E+02  0.35342889399E+01 -0.88871751228E+01  0.14446176603E+02  0.00000000000E+00 0.  1.
</event>
<event>
 7    1  0.2458979E-009  0.4778726E+02  0.7816164E-02  0.1312668E+00
        -11   -1    0    0    0    0  0.00000000000E+00  0.00000000000E+00  0.45593999997E+02  0.45594000000E+02  0.51100000000E-03 0.  1.
         11   -1    0    0    0    0 -0.00000000000E+00 -0.00000000000E+00 -0.45593999997E+02  0.45594000000E+02  0.51100000000E-03 0. -1.
    9900012    2    1    2    0    0  0.38993239656E+02 -0.14709686188E+00 -0.19055976280E+02  0.47787255671E+02  0.19999929905E+02 0.  0.
        -12    1    1    2    0    0 -0.38993239656E+02  0.14709686188E+00  0.19055976280E+02  0.43400744329E+02  0.00000000000E+00 0.  1.
         11    1    3    3    0    0  0.34588331569E+02  0.17632344620E+01 -0.84548264983E+01  0.35650326337E+02  0.51100000000E-03 0. -1.
        -11    1    3    3    0    0  0.68210365884E+00 -0.18321688008E+01 -0.53783013741E+01  0.57226072596E+01  0.51100000000E-03 0.  1.
         12    1    3    3    0    0  0.37228044276E+01 -0.78162523018E-01 -0.52228484077E+01  0.64143220746E+01  0.00000000000E+00 0. -1.
</event>
<event>
 7    1  0.2458979E-009  0.4778727E+02  0.7816164E-02  0.1312668E+00
        -11   -1    0    0    0    0  0.00000000000E+00  0.00000000000E+00  0.45593999997E+02  0.45594000000E+02  0.51100000000E-03 0.  1.
         11   -1    0    0    0    0 -0.00000000000E+00 -0.00000000000E+00 -0.45593999997E+02  0.45594000000E+02  0.51100000000E-03 0. -1.
    9900012    2    1    2    0    0  0.13646871825E+02  0.13855756080E+02 -0.38799535664E+02  0.47787273567E+02  0.20000011503E+02 0.  0.
        -12    1    1    2    0    0 -0.13646871825E+02 -0.13855756080E+02  0.38799535664E+02  0.43400726433E+02  0.00000000000E+00 0.  1.
         11    1    3    3    0    0  0.16686428614E+02  0.93476427826E+01 -0.32901348750E+02  0.38056721815E+02  0.51100000000E-03 0. -1.
        -11    1    3    3    0    0 -0.82116925487E+00 -0.30795141756E+00  0.80038211106E+00  0.11873351698E+01  0.51100000000E-03 0.  1.
         12    1    3    3    0    0 -0.22183875345E+01  0.48160647149E+01 -0.66985690254E+01  0.85432165828E+01  0.00000000000E+00 0. -1.
</event>
<event>
 7    1  0.2458979E-009  0.4778726E+02  0.7816164E-02  0.1312668E+00
        -11   -1    0    0    0    0  0.00000000000E+00  0.00000000000E+00  0.45593999997E+02  0.45594000000E+02  0.51100000000E-03 0. -1.
         11   -1    0    0    0    0 -0.00000000000E+00 -0.00000000000E+00 -0.45593999997E+02  0.45594000000E+02  0.51100000000E-03 0.  1.
    9900012    2    1    2    0    0 -0.16655921416E+02 -0.39062481327E+02  0.89625131311E+01  0.47787264900E+02  0.19999971986E+02 0.  0.
        -12    1    1    2    0    0  0.16655921416E+02  0.39062481327E+02 -0.89625131311E+01  0.43400735100E+02  0.00000000000E+00 0.  1.
         11    1    3    3    0    0  0.70025086497E+00 -0.17381795722E+02  0.71202992684E+01  0.18796697469E+02  0.51100000000E-03 0. -1.
        -11    1    3    3    0    0 -0.11634314686E+02 -0.10763750388E+02 -0.22384740860E+01  0.16007072409E+02  0.51100000000E-03 0.  1.
        -12    1    3    3    0    0 -0.57218575948E+01 -0.10916935216E+02  0.40806879487E+01  0.12983495022E+02  0.00000000000E+00 0.  1.
</event>
<event>
 7    1  0.2458979E-009  0.4778727E+02  0.7816164E-02  0.1312668E+00
        -11   -1    0    0    0    0  0.00000000000E+00  0.00000000000E+00  0.45593999997E+02  0.45594000000E+02  0.51100000000E-03 0. -1.
         11   -1    0    0    0    0 -0.00000000000E+00 -0.00000000000E+00 -0.45593999997E+02  0.45594000000E+02  0.51100000000E-03 0.  1.
    9900012    2    1    2    0    0 -0.36151899386E+02  0.22951225365E+02 -0.70643331128E+01  0.47787269853E+02  0.19999994568E+02 0.  0.
        -12    1    1    2    0    0  0.36151899386E+02 -0.22951225365E+02  0.70643331128E+01  0.43400730147E+02  0.00000000000E+00 0.  1.
         11    1    3    3    0    0 -0.53346357660E+01  0.78861950504E+01 -0.59231718710E+01  0.11213134103E+02  0.51100000000E-03 0. -1.
        -11    1    3    3    0    0 -0.30060733244E+02  0.14525358580E+02 -0.39467902169E+01  0.33618609108E+02  0.51100000000E-03 0.  1.
        -12    1    3    3    0    0 -0.75653037578E+00  0.53967173410E+00  0.28056289751E+01  0.29555266427E+01  0.00000000000E+00 0.  1.
</event>
<event>
 7    1  0.2458979E-009  0.4778727E+02  0.7816164E-02  0.1312668E+00
        -11   -1    0    0    0    0  0.00000000000E+00  0.00000000000E+00  0.45593999997E+02  0.45594000000E+02  0.51100000000E-03 0.  1.
         11   -1    0    0    0    0 -0.00000000000E+00 -0.00000000000E+00 -0.45593999997E+02  0.45594000000E+02  0.51100000000E-03 0. -1.
    9900012    2    1    2    0    0  0.25310116073E+01  0.32471593705E+02 -0.28684716117E+02  0.47787270096E+02  0.19999995674E+02 0.  0.
        -12    1    1    2    0    0 -0.25310116073E+01 -0.32471593705E+02  0.28684716117E+02  0.43400729904E+02  0.00000000000E+00 0.  1.
         11    1    3    3    0    0  0.73324260480E+00  0.26986883681E+02 -0.17313888493E+02  0.32071798679E+02  0.51100000000E-03 0. -1.
        -11    1    3    3    0    0  0.54979100093E+01  0.25967803042E+01 -0.54984406287E+01  0.81977516447E+01  0.51100000000E-03 0.  1.
        -12    1    3    3    0    0 -0.37001410069E+01  0.28879297197E+01 -0.58723869957E+01  0.75177197716E+01  0.00000000000E+00 0.  1.
</event>
<event>
 7    1  0.2458979E-009  0.4778727E+02  0.7816164E-02  0.1312668E+00
        -11   -1    0    0    0    0  0.00000000000E+00  0.00000000000E+00  0.45593999997E+02  0.45594000000E+02  0.51100000000E-03 0.  1.
         11   -1    0    0    0    0 -0.00000000000E+00 -0.00000000000E+00 -0.45593999997E+02  0.45594000000E+02  0.51100000000E-03 0. -1.
    9900012    2    1    2    0    0 -0.10084348586E+01 -0.37631102929E+02 -0.21598758532E+02  0.47787271681E+02  0.20000002900E+02 0.  0.
        -12    1    1    2    0    0  0.10084348586E+01  0.37631102929E+02  0.21598758532E+02  0.43400728319E+02  0.00000000000E+00 0.  1.
         11    1    3    3    0    0 -0.18392145209E+00 -0.24962202421E+00 -0.20087174497E+01  0.20325069027E+01  0.51100000000E-03 0. -1.
        -11    1    3    3    0    0  0.64958564130E+01 -0.26885523666E+02 -0.17652882485E+02  0.32812372569E+02  0.51100000000E-03 0.  1.
        -12    1    3    3    0    0 -0.73203698195E+01 -0.10495957239E+02 -0.19371585978E+01  0.12942392209E+02  0.00000000000E+00 0.  1.
</event>
<event>
 7    1  0.2458979E-009  0.4778727E+02  0.7816164E-02  0.1312668E+00
        -11   -1    0    0    0    0  0.00000000000E+00  0.00000000000E+00  0.45593999997E+02  0.45594000000E+02  0.51100000000E-03 0.  1.
         11   -1    0    0    0    0 -0.00000000000E+00 -0.00000000000E+00 -0.45593999997E+02  0.45594000000E+02  0.51100000000E-03 0. -1.
    9900012    2    1    2    0    0 -0.23430011041E+02  0.11915972492E+02 -0.34535018201E+02  0.47787270744E+02  0.19999998629E+02 0.  0.
        -12    1    1    2    0    0  0.23430011041E+02 -0.11915972492E+02  0.34535018201E+02  0.43400729256E+02  0.00000000000E+00 0.  1.
         11    1    3    3    0    0 -0.17002251322E+02  0.40357687347E+01 -0.11286836078E+02  0.20802803855E+02  0.51100000000E-03 0. -1.
        -11    1    3    3    0    0 -0.14011406014E+01 -0.92978002570E+00 -0.10785629744E+02  0.10915928505E+02  0.51100000000E-03 0.  1.
         12    1    3    3    0    0 -0.50266191174E+01  0.88099837830E+01 -0.12462552379E+02  0.16068538384E+02  0.00000000000E+00 0. -1.
</event>
<event>
 7    1  0.2458979E-009  0.4778727E+02  0.7816164E-02  0.1312668E+00
        -11   -1    0    0    0    0  0.00000000000E+00  0.00000000000E+00  0.45593999997E+02  0.45594000000E+02  0.51100000000E-03 0. -1.
         11   -1    0    0    0    0 -0.00000000000E+00 -0.00000000000E+00 -0.45593999997E+02  0.45594000000E+02  0.51100000000E-03 0.  1.
    9900012    2    1    2    0    0  0.27749038805E+02 -0.12657169603E+02  0.30877336192E+02  0.47787274346E+02  0.20000015054E+02 0.  0.
        -12    1    1    2    0    0 -0.27749038805E+02  0.12657169603E+02 -0.30877336192E+02  0.43400725654E+02  0.00000000000E+00 0.  1.
         11    1    3    3    0    0  0.24991366466E+02 -0.98047044850E+01  0.30453428912E+02  0.40596945213E+02  0.51100000000E-03 0. -1.
        -11    1    3    3    0    0 -0.56810314731E+00 -0.37011191822E+01  0.16088648839E+00  0.37479206382E+01  0.51100000000E-03 0.  1.
        -12    1    3    3    0    0  0.33257754864E+01  0.84865406440E+00  0.26302079112E+00  0.34424084946E+01  0.00000000000E+00 0.  1.
</event>
<event>
 7    1  0.2458979E-009  0.4778728E+02  0.7816164E-02  0.1312668E+00
        -11   -1    0    0    0    0  0.00000000000E+00  0.00000000000E+00  0.45593999997E+02  0.45594000000E+02  0.51100000000E-03 0. -1.
         11   -1    0    0    0    0 -0.00000000000E+00 -0.00000000000E+00 -0.45593999997E+02  0.45594000000E+02  0.51100000000E-03 0.  1.
    9900012    2    1    2    0    0  0.27894702138E+02 -0.28711234596E+02  0.16768226419E+02  0.47787276312E+02  0.20000024018E+02 0.  0.
        -12    1    1    2    0    0 -0.27894702138E+02  0.28711234596E+02 -0.16768226419E+02  0.43400723688E+02  0.00000000000E+00 0.  1.
         11    1    3    3    0    0  0.10380604579E+02 -0.15181917262E+02  0.57472406832E+01  0.19268584247E+02  0.51100000000E-03 0. -1.
        -11    1    3    3    0    0  0.47482030286E+01 -0.74502182414E+01  0.11340552710E+02  0.14375650242E+02  0.51100000000E-03 0.  1.
        -12    1    3    3    0    0  0.12765894531E+02 -0.60790990929E+01 -0.31956697453E+00  0.14143041823E+02  0.00000000000E+00 0.  1.
</event>
<event>
 7    1  0.2458979E-009  0.4778727E+02  0.7816164E-02  0.1312668E+00
        -11   -1    0    0    0    0  0.00000000000E+00  0.00000000000E+00  0.45593999997E+02  0.45594000000E+02  0.51100000000E-03 0.  1.
         11   -1    0    0    0    0 -0.00000000000E+00 -0.00000000000E+00 -0.45593999997E+02  0.45594000000E+02  0.51100000000E-03 0. -1.
    9900012    2    1    2    0    0 -0.28940331554E+02  0.14128739490E+02 -0.29093971593E+02  0.47787271284E+02  0.20000001092E+02 0.  0.
        -12    1    1    2    0    0  0.28940331554E+02 -0.14128739490E+02  0.29093971593E+02  0.43400728716E+02  0.00000000000E+00 0.  1.
         11    1    3    3    0    0 -0.19950928365E+01 -0.28988450744E+01 -0.45573078999E+00  0.35484347261E+01  0.51100000000E-03 0. -1.
        -11    1    3    3    0    0 -0.10577080262E+02  0.12134334877E+02 -0.99753719913E+01  0.18937390433E+02  0.51100000000E-03 0.  1.
         12    1    3    3    0    0 -0.16368158456E+02  0.48932496872E+01 -0.18662868811E+02  0.25301446125E+02  0.00000000000E+00 0. -1.
</event>
<event>
 7    1  0.2458979E-009  0.4778727E+02  0.7816164E-02  0.1312668E+00
        -11   -1    0    0    0    0  0.00000000000E+00  0.00000000000E+00  0.45593999997E+02  0.45594000000E+02  0.51100000000E-03 0. -1.
         11   -1    0    0    0    0 -0.00000000000E+00 -0.00000000000E+00 -0.45593999997E+02  0.45594000000E+02  0.51100000000E-03 0.  1.
    9900012    2    1    2    0    0 -0.30104436797E+02  0.29657162306E+02  0.98893236192E+01  0.47787272903E+02  0.20000008472E+02 0.  0.
        -12    1    1    2    0    0  0.30104436797E+02 -0.29657162306E+02 -0.98893236192E+01  0.43400727097E+02  0.00000000000E+00 0.  1.
         11    1    3    3    0    0 -0.15767267835E+02  0.21153911867E+02 -0.14114172502E+00  0.26383984602E+02  0.51100000000E-03 0. -1.
        -11    1    3    3    0    0 -0.61179649259E+00 -0.15529000103E+01  0.19506898675E+01  0.25672912983E+01  0.51100000000E-03 0.  1.
        -12    1    3    3    0    0 -0.13725372470E+02  0.10056150450E+02  0.80797754767E+01  0.18835997002E+02  0.00000000000E+00 0.  1.
</event>
<event>
 7    1  0.2458979E-009  0.4778727E+02  0.7816164E-02  0.1312668E+00
        -11   -1    0    0    0    0  0.00000000000E+00  0.00000000000E+00  0.45593999997E+02  0.45594000000E+02  0.51100000000E-03 0.  1.
         11   -1    0    0    0    0 -0.00000000000E+00 -0.00000000000E+00 -0.45593999997E+02  0.45594000000E+02  0.51100000000E-03 0. -1.
    9900012    2    1    2    0    0  0.58975186203E+01  0.65579558815E+01 -0.42495125673E+02  0.47787271697E+02  0.20000002977E+02 0.  0.
        -12    1    1    2    0    0 -0.58975186203E+01 -0.65579558815E+01  0.42495125673E+02  0.43400728303E+02  0.00000000000E+00 0.  1.
         11    1    3    3    0    0 -0.16308048723E+01  0.12867611821E+01 -0.82323393971E+01  0.84903881585E+01  0.51100000000E-03 0. -1.
        -11    1    3    3    0    0  0.91315504659E+01  0.83229705609E+01 -0.33582332150E+02  0.35783097767E+02  0.51100000000E-03 0.  1.
        -12    1    3    3    0    0 -0.16032269733E+01 -0.30517758614E+01 -0.68045412587E+00  0.35137857723E+01  0.00000000000E+00 0.  1.
</event>
<event>
 7    1  0.2458979E-009  0.4778727E+02  0.7816164E-02  0.1312668E+00
        -11   -1    0    0    0    0  0.00000000000E+00  0.00000000000E+00  0.45593999997E+02  0.45594000000E+02  0.51100000000E-03 0.  1.
         11   -1    0    0    0    0 -0.00000000000E+00 -0.00000000000E+00 -0.45593999997E+02  0.45594000000E+02  0.51100000000E-03 0. -1.
    9900012    2    1    2    0    0 -0.40298666203E+02 -0.14607252470E+02  0.68021248367E+01  0.47787271611E+02  0.20000002581E+02 0.  0.
        -12    1    1    2    0    0  0.40298666203E+02  0.14607252470E+02 -0.68021248367E+01  0.43400728389E+02  0.00000000000E+00 0.  1.
         11    1    3    3    0    0 -0.19942470283E+02 -0.84766710279E+01  0.80823775530E+01  0.23127492295E+02  0.51100000000E-03 0. -1.
        -11    1    3    3    0    0 -0.12694259843E+02  0.15897063000E+01 -0.40800516080E+01  0.13428262005E+02  0.51100000000E-03 0.  1.
        -12    1    3    3    0    0 -0.76619360768E+01 -0.77202877420E+01  0.27997988916E+01  0.11231517311E+02  0.00000000000E+00 0.  1.
</event>
<event>
 7    1  0.2458979E-009  0.4778727E+02  0.7816164E-02  0.1312668E+00
        -11   -1    0    0    0    0  0.00000000000E+00  0.00000000000E+00  0.45593999997E+02  0.45594000000E+02  0.51100000000E-03 0.  1.
         11   -1    0    0    0    0 -0.00000000000E+00 -0.00000000000E+00 -0.45593999997E+02  0.45594000000E+02  0.51100000000E-03 0. -1.
    9900012    2    1    2    0    0  0.30587270182E+02  0.42413739178E+01 -0.30496768911E+02  0.47787271159E+02  0.20000000523E+02 0.  0.
        -12    1    1    2    0    0 -0.30587270182E+02 -0.42413739178E+01  0.30496768911E+02  0.43400728841E+02  0.00000000000E+00 0.  1.
         11    1    3    3    0    0  0.10131567172E+02 -0.55100782766E+01 -0.11769174593E+02  0.16477957605E+02  0.51100000000E-03 0. -1.
        -11    1    3    3    0    0  0.20652293268E+02  0.92218613191E+01 -0.14111649897E+02  0.26658931083E+02  0.51100000000E-03 0.  1.
        -12    1    3    3    0    0 -0.19659025813E+00  0.52959087531E+00 -0.46159444212E+01  0.46503824708E+01  0.00000000000E+00 0.  1.
</event>
<event>
 7    1  0.2458979E-009  0.4778727E+02  0.7816164E-02  0.1312668E+00
        -11   -1    0    0    0    0  0.00000000000E+00  0.00000000000E+00  0.45593999997E+02  0.45594000000E+02  0.51100000000E-03 0.  1.
         11   -1    0    0    0    0 -0.00000000000E+00 -0.00000000000E+00 -0.45593999997E+02  0.45594000000E+02  0.51100000000E-03 0. -1.
    9900012    2    1    2    0    0  0.16243605343E+02  0.26312738323E+02 -0.30453378063E+02  0.47787272494E+02  0.20000006607E+02 0.  0.
        -12    1    1    2    0    0 -0.16243605343E+02 -0.26312738323E+02  0.30453378063E+02  0.43400727506E+02  0.00000000000E+00 0.  1.
         11    1    3    3    0    0  0.67483735115E+00 -0.18941056296E+01  0.11230898572E+01  0.23031223752E+01  0.51100000000E-03 0.  1.
        -11    1    3    3    0    0  0.14527695924E+02  0.21520604898E+02 -0.25379398039E+02  0.36308459470E+02  0.51100000000E-03 0. -1.
        -12    1    3    3    0    0  0.10410720686E+01  0.66862390550E+01 -0.61970698813E+01  0.91756906479E+01  0.00000000000E+00 0.  1.
</event>
<event>
 7    1  0.2458979E-009  0.4778728E+02  0.7816164E-02  0.1312668E+00
        -11   -1    0    0    0    0  0.00000000000E+00  0.00000000000E+00  0.45593999997E+02  0.45594000000E+02  0.51100000000E-03 0.  1.
         11   -1    0    0    0    0 -0.00000000000E+00 -0.00000000000E+00 -0.45593999997E+02  0.45594000000E+02  0.51100000000E-03 0. -1.
    9900012    2    1    2    0    0 -0.28997227539E+01  0.20009074563E+02 -0.38403788775E+02  0.47787280546E+02  0.20000043319E+02 0.  0.
        -12    1    1    2    0    0  0.28997227539E+01 -0.20009074563E+02  0.38403788775E+02  0.43400719454E+02  0.00000000000E+00 0.  1.
         11    1    3    3    0    0 -0.55389179835E+01  0.61115776863E+01 -0.26426582864E+02  0.27683845043E+02  0.51100000000E-03 0. -1.
        -11    1    3    3    0    0  0.52231299270E+01  0.11072988006E+02 -0.82700706035E+01  0.14774512434E+02  0.51100000000E-03 0.  1.
         12    1    3    3    0    0 -0.25839346974E+01  0.28245088700E+01 -0.37071353068E+01  0.53289230676E+01  0.00000000000E+00 0. -1.
</event>
<event>
 7    1  0.2458979E-009  0.4778727E+02  0.7816164E-02  0.1312668E+00
        -11   -1    0    0    0    0  0.00000000000E+00  0.00000000000E+00  0.45593999997E+02  0.45594000000E+02  0.51100000000E-03 0.  1.
         11   -1    0    0    0    0 -0.00000000000E+00 -0.00000000000E+00 -0.45593999997E+02  0.45594000000E+02  0.51100000000E-03 0. -1.
    9900012    2    1    2    0    0 -0.27764809374E+02  0.33145575212E+02  0.37562463913E+01  0.47787272095E+02  0.20000004790E+02 0.  0.
        -12    1    1    2    0    0  0.27764809374E+02 -0.33145575212E+02 -0.37562463913E+01  0.43400727905E+02  0.00000000000E+00 0.  1.
         11    1    3    3    0    0 -0.13520973637E+01  0.35580809554E+01  0.55737469635E+01  0.67494268527E+01  0.51100000000E-03 0.  1.
        -11    1    3    3    0    0 -0.23626665612E+02  0.23716977613E+02  0.19370548576E+01  0.33533066320E+02  0.51100000000E-03 0. -1.
         12    1    3    3    0    0 -0.27860463988E+01  0.58705166438E+01 -0.37545554298E+01  0.75047789226E+01  0.00000000000E+00 0. -1.
</event>
<event>
 7    1  0.2458979E-009  0.4778724E+02  0.7816164E-02  0.1312668E+00
        -11   -1    0    0    0    0  0.00000000000E+00  0.00000000000E+00  0.45593999997E+02  0.45594000000E+02  0.51100000000E-03 0.  1.
         11   -1    0    0    0    0 -0.00000000000E+00 -0.00000000000E+00 -0.45593999997E+02  0.45594000000E+02  0.51100000000E-03 0. -1.
    9900012    2    1    2    0    0  0.10811449435E+01 -0.42395536864E+02 -0.92236564102E+01  0.47787236666E+02  0.19999843254E+02 0.  0.
        -12    1    1    2    0    0 -0.10811449435E+01  0.42395536864E+02  0.92236564102E+01  0.43400763334E+02  0.00000000000E+00 0.  1.
         11    1    3    3    0    0  0.17092253550E+01 -0.10194245031E+02 -0.11457314911E+01  0.10399845383E+02  0.51100000000E-03 0. -1.
        -11    1    3    3    0    0  0.81899147016E+01 -0.18162763367E+02 -0.42041439045E+01  0.20362600575E+02  0.51100000000E-03 0.  1.
        -12    1    3    3    0    0 -0.88179951130E+01 -0.14038528466E+02 -0.38737810146E+01  0.17024790708E+02  0.00000000000E+00 0.  1.
</event>
<event>
 7    1  0.2458979E-009  0.4778723E+02  0.7816164E-02  0.1312668E+00
        -11   -1    0    0    0    0  0.00000000000E+00  0.00000000000E+00  0.45593999997E+02  0.45594000000E+02  0.51100000000E-03 0. -1.
         11   -1    0    0    0    0 -0.00000000000E+00 -0.00000000000E+00 -0.45593999997E+02  0.45594000000E+02  0.51100000000E-03 0.  1.
    9900012    2    1    2    0    0 -0.29339032690E+02 -0.31719301328E+02 -0.40907061932E+01  0.47787230501E+02  0.19999815147E+02 0.  0.
        -12    1    1    2    0    0  0.29339032690E+02  0.31719301328E+02  0.40907061932E+01  0.43400769499E+02  0.00000000000E+00 0.  1.
         11    1    3    3    0    0 -0.12520600989E+02 -0.10739361673E+02 -0.84294858140E+00  0.16516957978E+02  0.51100000000E-03 0. -1.
        -11    1    3    3    0    0 -0.29155117256E+01  0.26146206574E+00 -0.50313553393E+01  0.58209198453E+01  0.51100000000E-03 0.  1.
        -12    1    3    3    0    0 -0.13902919976E+02 -0.21241401721E+02  0.17835977275E+01  0.25449352679E+02  0.00000000000E+00 0.  1.
</event>
<event>
 7    1  0.2458979E-009  0.4778727E+02  0.7816164E-02  0.1312668E+00
        -11   -1    0    0    0    0  0.00000000000E+00  0.00000000000E+00  0.45593999997E+02  0.45594000000E+02  0.51100000000E-03 0.  1.
         11   -1    0    0    0    0 -0.00000000000E+00 -0.00000000000E+00 -0.45593999997E+02  0.45594000000E+02  0.51100000000E-03 0. -1.
    9900012    2    1    2    0    0 -0.11652760448E+02  0.24945523354E+02 -0.33549329859E+02  0.47787268492E+02  0.19999988361E+02 0.  0.
        -12    1    1    2    0    0  0.11652760448E+02 -0.24945523354E+02  0.33549329859E+02  0.43400731508E+02  0.00000000000E+00 0.  1.
         11    1    3    3    0    0 -0.12291790425E+02  0.13744991641E+02 -0.23629325890E+02  0.29972619995E+02  0.51100000000E-03 0. -1.
        -11    1    3    3    0    0  0.43979603147E+01  0.64612695223E+01 -0.86041991004E+01  0.11624211852E+02  0.51100000000E-03 0.  1.
        -12    1    3    3    0    0 -0.37589303384E+01  0.47392621905E+01 -0.13158048686E+01  0.61904366447E+01  0.00000000000E+00 0.  1.
</event>
<event>
 7    1  0.2458979E-009  0.4778727E+02  0.7816164E-02  0.1312668E+00
        -11   -1    0    0    0    0  0.00000000000E+00  0.00000000000E+00  0.45593999997E+02  0.45594000000E+02  0.51100000000E-03 0. -1.
         11   -1    0    0    0    0 -0.00000000000E+00 -0.00000000000E+00 -0.45593999997E+02  0.45594000000E+02  0.51100000000E-03 0.  1.
    9900012    2    1    2    0    0  0.63959248394E+01  0.41747608056E+02 -0.99926148095E+01  0.47787274387E+02  0.20000015242E+02 0.  0.
        -12    1    1    2    0    0 -0.63959248394E+01 -0.41747608056E+02  0.99926148095E+01  0.43400725613E+02  0.00000000000E+00 0.  1.
         11    1    3    3    0    0 -0.46638720560E+01  0.23747404681E+02 -0.38271823153E+01  0.24501801084E+02  0.51100000000E-03 0. -1.
        -11    1    3    3    0    0  0.99054834944E+01  0.12503293314E+02 -0.73205763438E+01  0.17551119201E+02  0.51100000000E-03 0.  1.
        -12    1    3    3    0    0  0.11543134010E+01  0.54969100616E+01  0.11551438497E+01  0.57343541020E+01  0.00000000000E+00 0.  1.
</event>
<event>
 7    1  0.2458979E-009  0.4778727E+02  0.7816164E-02  0.1312668E+00
        -11   -1    0    0    0    0  0.00000000000E+00  0.00000000000E+00  0.45593999997E+02  0.45594000000E+02  0.51100000000E-03 0.  1.
         11   -1    0    0    0    0 -0.00000000000E+00 -0.00000000000E+00 -0.45593999997E+02  0.45594000000E+02  0.51100000000E-03 0. -1.
    9900012    2    1    2    0    0 -0.29751718597E+02  0.15641368376E+02 -0.27455530913E+02  0.47787270261E+02  0.19999996426E+02 0.  0.
        -12    1    1    2    0    0  0.29751718597E+02 -0.15641368376E+02  0.27455530913E+02  0.43400729739E+02  0.00000000000E+00 0.  1.
         11    1    3    3    0    0 -0.15646991566E+02  0.11570256073E+02 -0.74863725435E+01  0.20850538237E+02  0.51100000000E-03 0. -1.
        -11    1    3    3    0    0 -0.36306829287E+01  0.61727318093E+01 -0.59460332715E+01  0.93080496585E+01  0.51100000000E-03 0.  1.
         12    1    3    3    0    0 -0.10474044103E+02 -0.21016195056E+01 -0.14023125098E+02  0.17628682365E+02  0.00000000000E+00 0. -1.
</event>
<event>
 7    1  0.2458979E-009  0.4778730E+02  0.7816164E-02  0.1312668E+00
        -11   -1    0    0    0    0  0.00000000000E+00  0.00000000000E+00  0.45593999997E+02  0.45594000000E+02  0.51100000000E-03 0.  1.
         11   -1    0    0    0    0 -0.00000000000E+00 -0.00000000000E+00 -0.45593999997E+02  0.45594000000E+02  0.51100000000E-03 0. -1.
    9900012    2    1    2    0    0  0.14860199539E+02  0.21217769377E+02 -0.34822426671E+02  0.47787301078E+02  0.20000136935E+02 0.  0.
        -12    1    1    2    0    0 -0.14860199539E+02 -0.21217769377E+02  0.34822426671E+02  0.43400698922E+02  0.00000000000E+00 0.  1.
         11    1    3    3    0    0  0.24591301936E+01  0.14980974275E+02 -0.11445859146E+02  0.19012748444E+02  0.51100000000E-03 0. -1.
        -11    1    3    3    0    0  0.11960789267E+02  0.75997034668E+01 -0.23383416227E+02  0.27342277289E+02  0.51100000000E-03 0.  1.
         12    1    3    3    0    0  0.44028007833E+00 -0.13629083651E+01  0.68487016976E-02  0.14322753449E+01  0.00000000000E+00 0. -1.
</event>
<event>
 7    1  0.2458979E-009  0.4778726E+02  0.7816164E-02  0.1312668E+00
        -11   -1    0    0    0    0  0.00000000000E+00  0.00000000000E+00  0.45593999997E+02  0.45594000000E+02  0.51100000000E-03 0.  1.
         11   -1    0    0    0    0 -0.00000000000E+00 -0.00000000000E+00 -0.45593999997E+02  0.45594000000E+02  0.51100000000E-03 0. -1.
    9900012    2    1    2    0    0  0.40662206908E+02  0.49063697917E+01 -0.14357446448E+02  0.47787264941E+02  0.19999972173E+02 0.  0.
        -12    1    1    2    0    0 -0.40662206908E+02 -0.49063697917E+01  0.14357446448E+02  0.43400735059E+02  0.00000000000E+00 0.  1.
         11    1    3    3    0    0  0.30652751033E+02 -0.31492606146E+01 -0.95909391339E+01  0.32272203241E+02  0.51100000000E-03 0. -1.
        -11    1    3    3    0    0  0.96311836997E+01  0.37681473055E+01 -0.24548618590E+01  0.10629439335E+02  0.51100000000E-03 0.  1.
         12    1    3    3    0    0  0.37827217475E+00  0.42874831009E+01 -0.23116454555E+01  0.48856223647E+01  0.00000000000E+00 0. -1.
</event>
<event>
 7    1  0.2458979E-009  0.4778728E+02  0.7816164E-02  0.1312668E+00
        -11   -1    0    0    0    0  0.00000000000E+00  0.00000000000E+00  0.45593999997E+02  0.45594000000E+02  0.51100000000E-03 0. -1.
         11   -1    0    0    0    0 -0.00000000000E+00 -0.00000000000E+00 -0.45593999997E+02  0.45594000000E+02  0.51100000000E-03 0.  1.
    9900012    2    1    2    0    0  0.38819583300E+02 -0.17518364450E+02  0.83528289747E+01  0.47787275438E+02  0.20000020032E+02 0.  0.
        -12    1    1    2    0    0 -0.38819583300E+02  0.17518364450E+02 -0.83528289747E+01  0.43400724562E+02  0.00000000000E+00 0.  1.
         11    1    3    3    0    0  0.49767038144E+01 -0.55060725859E+00  0.68013029669E+01  0.84456184805E+01  0.51100000000E-03 0. -1.
        -11    1    3    3    0    0  0.72422210968E+01 -0.36514902250E+01  0.47880739048E+01  0.94185348785E+01  0.51100000000E-03 0.  1.
         12    1    3    3    0    0  0.26600658389E+02 -0.13316266967E+02 -0.32365478969E+01  0.29923122079E+02  0.00000000000E+00 0. -1.
</event>
<event>
 7    1  0.2458979E-009  0.4778727E+02  0.7816164E-02  0.1312668E+00
        -11   -1    0    0    0    0  0.00000000000E+00  0.00000000000E+00  0.45593999997E+02  0.45594000000E+02  0.51100000000E-03 0.  1.
         11   -1    0    0    0    0 -0.00000000000E+00 -0.00000000000E+00 -0.45593999997E+02  0.45594000000E+02  0.51100000000E-03 0. -1.
    9900012    2    1    2    0    0 -0.38373179180E+02  0.18240891288E+02 -0.88539511660E+01  0.47787269054E+02  0.19999990925E+02 0.  0.
        -12    1    1    2    0    0  0.38373179180E+02 -0.18240891288E+02  0.88539511660E+01  0.43400730946E+02  0.00000000000E+00 0.  1.
         11    1    3    3    0    0 -0.16497093741E+02 -0.54328222281E+00 -0.91802482074E+00  0.16531546428E+02  0.51100000000E-03 0. -1.
        -11    1    3    3    0    0 -0.40660487492E+01  0.74672953751E+01 -0.52280845934E+01  0.99812885654E+01  0.51100000000E-03 0.  1.
         12    1    3    3    0    0 -0.17810036690E+02  0.11316878136E+02 -0.27078417519E+01  0.21274434060E+02  0.00000000000E+00 0. -1.
</event>
<event>
 7    1  0.2458979E-009  0.4778727E+02  0.7816164E-02  0.1312668E+00
        -11   -1    0    0    0    0  0.00000000000E+00  0.00000000000E+00  0.45593999997E+02  0.45594000000E+02  0.51100000000E-03 0.  1.
         11   -1    0    0    0    0 -0.00000000000E+00 -0.00000000000E+00 -0.45593999997E+02  0.45594000000E+02  0.51100000000E-03 0. -1.
    9900012    2    1    2    0    0  0.31171461893E+01  0.27278829616E+02 -0.33612083311E+02  0.47787270857E+02  0.19999999148E+02 0.  0.
        -12    1    1    2    0    0 -0.31171461893E+01 -0.27278829616E+02  0.33612083311E+02  0.43400729143E+02  0.00000000000E+00 0.  1.
         11    1    3    3    0    0  0.29073290248E+01  0.32932847040E+01 -0.45061783091E+01  0.62931652937E+01  0.51100000000E-03 0. -1.
        -11    1    3    3    0    0  0.29896023473E+01 -0.16375442972E+01 -0.14914003278E+01  0.37206919677E+01  0.51100000000E-03 0.  1.
        -12    1    3    3    0    0 -0.27797851828E+01  0.25623089209E+02 -0.27614504674E+02  0.37773413596E+02  0.00000000000E+00 0.  1.
</event>
<event>
 7    1  0.2458979E-009  0.4778727E+02  0.7816164E-02  0.1312668E+00
        -11   -1    0    0    0    0  0.00000000000E+00  0.00000000000E+00  0.45593999997E+02  0.45594000000E+02  0.51100000000E-03 0.  1.
         11   -1    0    0    0    0 -0.00000000000E+00 -0.00000000000E+00 -0.45593999997E+02  0.45594000000E+02  0.51100000000E-03 0. -1.
    9900012    2    1    2    0    0 -0.30031566408E+02 -0.66019618583E+01 -0.30629106639E+02  0.47787273568E+02  0.20000011507E+02 0.  0.
        -12    1    1    2    0    0  0.30031566408E+02  0.66019618583E+01  0.30629106639E+02  0.43400726432E+02  0.00000000000E+00 0.  1.
         11    1    3    3    0    0 -0.15881808089E+02  0.45296656209E+01 -0.17355769575E+02  0.23957721858E+02  0.51100000000E-03 0. -1.
        -11    1    3    3    0    0 -0.13549666957E+02 -0.11638388628E+02 -0.14049596408E+02  0.22725244201E+02  0.51100000000E-03 0.  1.
        -12    1    3    3    0    0 -0.60009136214E+00  0.50676114879E+00  0.77625934453E+00  0.11043075092E+01  0.00000000000E+00 0.  1.
</event>
<event>
 7    1  0.2458979E-009  0.4778727E+02  0.7816164E-02  0.1312668E+00
        -11   -1    0    0    0    0  0.00000000000E+00  0.00000000000E+00  0.45593999997E+02  0.45594000000E+02  0.51100000000E-03 0.  1.
         11   -1    0    0    0    0 -0.00000000000E+00 -0.00000000000E+00 -0.45593999997E+02  0.45594000000E+02  0.51100000000E-03 0. -1.
    9900012    2    1    2    0    0 -0.80790193796E+01 -0.66820518735E+00 -0.42636908213E+02  0.47787274266E+02  0.20000014688E+02 0.  0.
        -12    1    1    2    0    0  0.80790193796E+01  0.66820518735E+00  0.42636908213E+02  0.43400725734E+02  0.00000000000E+00 0.  1.
         11    1    3    3    0    0 -0.94721419969E+01  0.97912943983E+00 -0.42008161135E+02  0.43073956989E+02  0.51100000000E-03 0. -1.
        -11    1    3    3    0    0  0.40164238971E+00  0.12468161401E+01  0.56871024180E+00  0.14280401594E+01  0.51100000000E-03 0.  1.
         12    1    3    3    0    0  0.99148022764E+00 -0.28941507673E+01 -0.11974573192E+01  0.32852771172E+01  0.00000000000E+00 0. -1.
</event>
<event>
 7    1  0.2458979E-009  0.4778727E+02  0.7816164E-02  0.1312668E+00
        -11   -1    0    0    0    0  0.00000000000E+00  0.00000000000E+00  0.45593999997E+02  0.45594000000E+02  0.51100000000E-03 0. -1.
         11   -1    0    0    0    0 -0.00000000000E+00 -0.00000000000E+00 -0.45593999997E+02  0.45594000000E+02  0.51100000000E-03 0.  1.
    9900012    2    1    2    0    0  0.90967050322E+01  0.44572367481E+01  0.42201969847E+02  0.47787271195E+02  0.20000000686E+02 0.  0.
        -12    1    1    2    0    0 -0.90967050322E+01 -0.44572367481E+01 -0.42201969847E+02  0.43400728805E+02  0.00000000000E+00 0.  1.
         11    1    3    3    0    0  0.45835839898E+01  0.77603161137E+01  0.55365425002E+01  0.10577573044E+02  0.51100000000E-03 0. -1.
        -11    1    3    3    0    0  0.37185374322E+01 -0.96425963390E+00  0.24024956570E+02  0.24330142945E+02  0.51100000000E-03 0.  1.
        -12    1    3    3    0    0  0.79458361016E+00 -0.23388197317E+01  0.12640470776E+02  0.12879555206E+02  0.00000000000E+00 0.  1.
</event>
<event>
 7    1  0.2458979E-009  0.4778726E+02  0.7816164E-02  0.1312668E+00
        -11   -1    0    0    0    0  0.00000000000E+00  0.00000000000E+00  0.45593999997E+02  0.45594000000E+02  0.51100000000E-03 0. -1.
         11   -1    0    0    0    0 -0.00000000000E+00 -0.00000000000E+00 -0.45593999997E+02  0.45594000000E+02  0.51100000000E-03 0.  1.
    9900012    2    1    2    0    0  0.15650779642E+02 -0.38661898990E+02  0.11997300045E+02  0.47787256397E+02  0.19999933216E+02 0.  0.
        -12    1    1    2    0    0 -0.15650779642E+02  0.38661898990E+02 -0.11997300045E+02  0.43400743603E+02  0.00000000000E+00 0.  1.
         11    1    3    3    0    0  0.16354355413E+02 -0.26059045945E+02  0.34865193424E+01  0.30962794350E+02  0.51100000000E-03 0. -1.
        -11    1    3    3    0    0 -0.20196136874E+01 -0.21653053803E+01  0.48559342705E+01  0.56874849218E+01  0.51100000000E-03 0.  1.
        -12    1    3    3    0    0  0.13160379168E+01 -0.10437547664E+02  0.36548464322E+01  0.11136977125E+02  0.00000000000E+00 0.  1.
</event>
<event>
 7    1  0.2458979E-009  0.4778727E+02  0.7816164E-02  0.1312668E+00
        -11   -1    0    0    0    0  0.00000000000E+00  0.00000000000E+00  0.45593999997E+02  0.45594000000E+02  0.51100000000E-03 0.  1.
         11   -1    0    0    0    0 -0.00000000000E+00 -0.00000000000E+00 -0.45593999997E+02  0.45594000000E+02  0.51100000000E-03 0. -1.
    9900012    2    1    2    0    0  0.34397379698E+02  0.22598563567E+02  0.13774918090E+02  0.47787272198E+02  0.20000005260E+02 0.  0.
        -12    1    1    2    0    0 -0.34397379698E+02 -0.22598563567E+02 -0.13774918090E+02  0.43400727802E+02  0.00000000000E+00 0.  1.
         11    1    3    3    0    0  0.28553788669E+02  0.19431779460E+02  0.17203719127E+02  0.38586018871E+02  0.51100000000E-03 0. -1.
        -11    1    3    3    0    0  0.78607484202E+00  0.10917642030E+00 -0.31891924914E+01  0.32864543442E+01  0.51100000000E-03 0.  1.
         12    1    3    3    0    0  0.50575161870E+01  0.30576076868E+01 -0.23960854538E+00  0.59147989825E+01  0.00000000000E+00 0. -1.
</event>
<event>
 7    1  0.2458979E-009  0.4778727E+02  0.7816164E-02  0.1312668E+00
        -11   -1    0    0    0    0  0.00000000000E+00  0.00000000000E+00  0.45593999997E+02  0.45594000000E+02  0.51100000000E-03 0. -1.
         11   -1    0    0    0    0 -0.00000000000E+00 -0.00000000000E+00 -0.45593999997E+02  0.45594000000E+02  0.51100000000E-03 0.  1.
    9900012    2    1    2    0    0 -0.17915783720E+01  0.41853165365E+02  0.11345765965E+02  0.47787267179E+02  0.19999982374E+02 0.  0.
        -12    1    1    2    0    0  0.17915783720E+01 -0.41853165365E+02 -0.11345765965E+02  0.43400732821E+02  0.00000000000E+00 0.  1.
         11    1    3    3    0    0 -0.42775089195E+01  0.33069990858E+02  0.87222163422E+01  0.34467353192E+02  0.51100000000E-03 0. -1.
        -11    1    3    3    0    0  0.47705976976E+01  0.77354700718E+01 -0.74304376902E+00  0.91185642471E+01  0.51100000000E-03 0.  1.
         12    1    3    3    0    0 -0.22846671501E+01  0.10477044352E+01  0.33665933913E+01  0.42013497394E+01  0.00000000000E+00 0. -1.
</event>
<event>
 7    1  0.2458979E-009  0.4778727E+02  0.7816164E-02  0.1312668E+00
        -11   -1    0    0    0    0  0.00000000000E+00  0.00000000000E+00  0.45593999997E+02  0.45594000000E+02  0.51100000000E-03 0. -1.
         11   -1    0    0    0    0 -0.00000000000E+00 -0.00000000000E+00 -0.45593999997E+02  0.45594000000E+02  0.51100000000E-03 0.  1.
    9900012    2    1    2    0    0 -0.40448465880E+02 -0.82030471965E+01  0.13425896062E+02  0.47787273504E+02  0.20000011214E+02 0.  0.
        -12    1    1    2    0    0  0.40448465880E+02  0.82030471965E+01 -0.13425896062E+02  0.43400726496E+02  0.00000000000E+00 0.  1.
         11    1    3    3    0    0 -0.21353428796E+02  0.17431157699E+00  0.14872778599E+02  0.26023044584E+02  0.51100000000E-03 0. -1.
        -11    1    3    3    0    0 -0.18458685872E+01 -0.27260719373E+01 -0.14879477575E+01  0.36128503759E+01  0.51100000000E-03 0.  1.
         12    1    3    3    0    0 -0.17249168496E+02 -0.56512868362E+01  0.41065220497E-01  0.18151378544E+02  0.00000000000E+00 0. -1.
</event>
<event>
 7    1  0.2458979E-009  0.4778727E+02  0.7816164E-02  0.1312668E+00
        -11   -1    0    0    0    0  0.00000000000E+00  0.00000000000E+00  0.45593999997E+02  0.45594000000E+02  0.51100000000E-03 0.  1.
         11   -1    0    0    0    0 -0.00000000000E+00 -0.00000000000E+00 -0.45593999997E+02  0.45594000000E+02  0.51100000000E-03 0. -1.
    9900012    2    1    2    0    0 -0.97145613749E+01 -0.36980839976E+02 -0.20534565070E+02  0.47787267395E+02  0.19999983362E+02 0.  0.
        -12    1    1    2    0    0  0.97145613749E+01  0.36980839976E+02  0.20534565070E+02  0.43400732605E+02  0.00000000000E+00 0.  1.
         11    1    3    3    0    0 -0.45763024477E+01 -0.10602935849E+02 -0.93216069625E+01  0.14841062945E+02  0.51100000000E-03 0. -1.
        -11    1    3    3    0    0 -0.69144626948E+00 -0.72616107319E+01  0.38103369488E+01  0.82296874965E+01  0.51100000000E-03 0.  1.
        -12    1    3    3    0    0 -0.44468126576E+01 -0.19116293395E+02 -0.15023295057E+02  0.24716516954E+02  0.00000000000E+00 0.  1.
</event>
<event>
 7    1  0.2458979E-009  0.4778727E+02  0.7816164E-02  0.1312668E+00
        -11   -1    0    0    0    0  0.00000000000E+00  0.00000000000E+00  0.45593999997E+02  0.45594000000E+02  0.51100000000E-03 0.  1.
         11   -1    0    0    0    0 -0.00000000000E+00 -0.00000000000E+00 -0.45593999997E+02  0.45594000000E+02  0.51100000000E-03 0. -1.
    9900012    2    1    2    0    0  0.19288166113E+02 -0.37070721015E+02 -0.11719716901E+02  0.47787268753E+02  0.19999989550E+02 0.  0.
        -12    1    1    2    0    0 -0.19288166113E+02  0.37070721015E+02  0.11719716901E+02  0.43400731247E+02  0.00000000000E+00 0.  1.
         11    1    3    3    0    0  0.50001147233E+01 -0.68929582747E+01 -0.39835652069E+01  0.94012133814E+01  0.51100000000E-03 0. -1.
        -11    1    3    3    0    0 -0.24509410078E+01 -0.97639086396E+01 -0.64492162484E+01  0.11955476328E+02  0.51100000000E-03 0.  1.
        -12    1    3    3    0    0  0.16738992397E+02 -0.20413854101E+02 -0.12869354453E+01  0.26430579043E+02  0.00000000000E+00 0.  1.
</event>
<event>
 7    1  0.2458979E-009  0.4778726E+02  0.7816164E-02  0.1312668E+00
        -11   -1    0    0    0    0  0.00000000000E+00  0.00000000000E+00  0.45593999997E+02  0.45594000000E+02  0.51100000000E-03 0.  1.
         11   -1    0    0    0    0 -0.00000000000E+00 -0.00000000000E+00 -0.45593999997E+02  0.45594000000E+02  0.51100000000E-03 0. -1.
    9900012    2    1    2    0    0 -0.42109874111E+02 -0.25427040845E+01 -0.10193991242E+02  0.47787259233E+02  0.19999946146E+02 0.  0.
        -12    1    1    2    0    0  0.42109874111E+02  0.25427040845E+01  0.10193991242E+02  0.43400740767E+02  0.00000000000E+00 0.  1.
         11    1    3    3    0    0 -0.24241902465E+02 -0.65265068529E+01 -0.63552188415E+01  0.25896986960E+02  0.51100000000E-03 0. -1.
        -11    1    3    3    0    0 -0.33167773407E+01  0.33731812981E+00  0.38008757422E+01  0.50558334741E+01  0.51100000000E-03 0.  1.
         12    1    3    3    0    0 -0.14551194305E+02  0.36464846386E+01 -0.76396481425E+01  0.16834438799E+02  0.00000000000E+00 0. -1.
</event>
<event>
 7    1  0.2458979E-009  0.4778728E+02  0.7816164E-02  0.1312668E+00
        -11   -1    0    0    0    0  0.00000000000E+00  0.00000000000E+00  0.45593999997E+02  0.45594000000E+02  0.51100000000E-03 0.  1.
         11   -1    0    0    0    0 -0.00000000000E+00 -0.00000000000E+00 -0.45593999997E+02  0.45594000000E+02  0.51100000000E-03 0. -1.
    9900012    2    1    2    0    0  0.57986456574E+01  0.23061746663E+02 -0.36306392814E+02  0.47787278695E+02  0.20000034882E+02 0.  0.
        -12    1    1    2    0    0 -0.57986456574E+01 -0.23061746663E+02  0.36306392814E+02  0.43400721305E+02  0.00000000000E+00 0.  1.
         11    1    3    3    0    0  0.13219653010E+01  0.46693415163E+01 -0.70667401544E+01  0.85725818237E+01  0.51100000000E-03 0. -1.
        -11    1    3    3    0    0  0.83137027277E+01  0.20210707683E+02 -0.23751259512E+02  0.32275574151E+02  0.51100000000E-03 0.  1.
        -12    1    3    3    0    0 -0.38370223713E+01 -0.18183025359E+01 -0.54883931477E+01  0.69391227207E+01  0.00000000000E+00 0.  1.
</event>
<event>
 7    1  0.2458979E-009  0.4778727E+02  0.7816164E-02  0.1312668E+00
        -11   -1    0    0    0    0  0.00000000000E+00  0.00000000000E+00  0.45593999997E+02  0.45594000000E+02  0.51100000000E-03 0. -1.
         11   -1    0    0    0    0 -0.00000000000E+00 -0.00000000000E+00 -0.45593999997E+02  0.45594000000E+02  0.51100000000E-03 0.  1.
    9900012    2    1    2    0    0 -0.26075092340E+02 -0.18238154599E+02  0.29514109741E+02  0.47787269620E+02  0.19999993504E+02 0.  0.
        -12    1    1    2    0    0  0.26075092340E+02  0.18238154599E+02 -0.29514109741E+02  0.43400730380E+02  0.00000000000E+00 0.  1.
         11    1    3    3    0    0 -0.14932944098E+02 -0.14817936461E+02  0.82811021385E+01  0.22608421291E+02  0.51100000000E-03 0. -1.
        -11    1    3    3    0    0 -0.90036548651E+01 -0.54508391785E+01  0.15564437224E+02  0.18789070095E+02  0.51100000000E-03 0.  1.
         12    1    3    3    0    0 -0.21384933773E+01  0.20306210405E+01  0.56685703786E+01  0.63897782334E+01  0.00000000000E+00 0. -1.
</event>
<event>
 7    1  0.2458979E-009  0.4778727E+02  0.7816164E-02  0.1312668E+00
        -11   -1    0    0    0    0  0.00000000000E+00  0.00000000000E+00  0.45593999997E+02  0.45594000000E+02  0.51100000000E-03 0. -1.
         11   -1    0    0    0    0 -0.00000000000E+00 -0.00000000000E+00 -0.45593999997E+02  0.45594000000E+02  0.51100000000E-03 0.  1.
    9900012    2    1    2    0    0  0.12192836290E+01  0.75344162210E+00  0.43377057919E+02  0.47787268664E+02  0.19999989146E+02 0.  0.
        -12    1    1    2    0    0 -0.12192836290E+01 -0.75344162210E+00 -0.43377057919E+02  0.43400731336E+02  0.00000000000E+00 0.  1.
         11    1    3    3    0    0  0.49934199806E+00 -0.84118108154E+00  0.31311045825E+01  0.32803573297E+01  0.51100000000E-03 0. -1.
        -11    1    3    3    0    0 -0.13099557911E+01 -0.33550631805E+01  0.38797794608E+02  0.38964615998E+02  0.51100000000E-03 0.  1.
        -12    1    3    3    0    0  0.20298974221E+01  0.49496858842E+01  0.14481587279E+01  0.55422953365E+01  0.00000000000E+00 0.  1.
</event>
<event>
 7    1  0.2458979E-009  0.4778727E+02  0.7816164E-02  0.1312668E+00
        -11   -1    0    0    0    0  0.00000000000E+00  0.00000000000E+00  0.45593999997E+02  0.45594000000E+02  0.51100000000E-03 0.  1.
         11   -1    0    0    0    0 -0.00000000000E+00 -0.00000000000E+00 -0.45593999997E+02  0.45594000000E+02  0.51100000000E-03 0. -1.
    9900012    2    1    2    0    0  0.10361892198E+02 -0.24571174714E+01 -0.42073946610E+02  0.47787271670E+02  0.20000002853E+02 0.  0.
        -12    1    1    2    0    0 -0.10361892198E+02  0.24571174714E+01  0.42073946610E+02  0.43400728330E+02  0.00000000000E+00 0.  1.
         11    1    3    3    0    0  0.74719408392E+01 -0.78145247676E+01 -0.14710384598E+02  0.18256289671E+02  0.51100000000E-03 0. -1.
        -11    1    3    3    0    0 -0.24583003039E+01 -0.10512208658E+01 -0.51866492391E+01  0.58352066187E+01  0.51100000000E-03 0.  1.
         12    1    3    3    0    0  0.53482516629E+01  0.64086281620E+01 -0.22176912773E+02  0.23695775381E+02  0.00000000000E+00 0. -1.
</event>
<event>
 7    1  0.2458979E-009  0.4778727E+02  0.7816164E-02  0.1312668E+00
        -11   -1    0    0    0    0  0.00000000000E+00  0.00000000000E+00  0.45593999997E+02  0.45594000000E+02  0.51100000000E-03 0. -1.
         11   -1    0    0    0    0 -0.00000000000E+00 -0.00000000000E+00 -0.45593999997E+02  0.45594000000E+02  0.51100000000E-03 0.  1.
    9900012    2    1    2    0    0  0.35602702434E+02 -0.24677348253E+02 -0.26644907900E+01  0.47787269032E+02  0.19999990822E+02 0.  0.
        -12    1    1    2    0    0 -0.35602702434E+02  0.24677348253E+02  0.26644907900E+01  0.43400730968E+02  0.00000000000E+00 0.  1.
         11    1    3    3    0    0  0.15907812894E+01 -0.46973983903E+01 -0.51154609095E+01  0.71248913904E+01  0.51100000000E-03 0. -1.
        -11    1    3    3    0    0  0.55757253610E+01  0.40069518627E+00 -0.13823847774E-01  0.55901217602E+01  0.51100000000E-03 0.  1.
         12    1    3    3    0    0  0.28436195784E+02 -0.20380645049E+02  0.24647939672E+01  0.35072255881E+02  0.00000000000E+00 0. -1.
</event>
<event>
 7    1  0.2458979E-009  0.4778729E+02  0.7816164E-02  0.1312668E+00
        -11   -1    0    0    0    0  0.00000000000E+00  0.00000000000E+00  0.45593999997E+02  0.45594000000E+02  0.51100000000E-03 0.  1.
         11   -1    0    0    0    0 -0.00000000000E+00 -0.00000000000E+00 -0.45593999997E+02  0.45594000000E+02  0.51100000000E-03 0. -1.
    9900012    2    1    2    0    0  0.10697152041E+02 -0.39972307330E+02 -0.13092261269E+02  0.47787288944E+02  0.20000081611E+02 0.  0.
        -12    1    1    2    0    0 -0.10697152041E+02  0.39972307330E+02  0.13092261269E+02  0.43400711056E+02  0.00000000000E+00 0.  1.
         11    1    3    3    0    0  0.11992655662E+02 -0.26758619079E+02 -0.12026260389E+02  0.31693507601E+02  0.51100000000E-03 0. -1.
        -11    1    3    3    0    0 -0.12326594123E+01 -0.62618692420E+01  0.39639362388E+01  0.75128720472E+01  0.51100000000E-03 0.  1.
         12    1    3    3    0    0 -0.62844209043E-01 -0.69518190086E+01 -0.50299371189E+01  0.85809092958E+01  0.00000000000E+00 0. -1.
</event>
<event>
 7    1  0.2458979E-009  0.4778725E+02  0.7816164E-02  0.1312668E+00
        -11   -1    0    0    0    0  0.00000000000E+00  0.00000000000E+00  0.45593999997E+02  0.45594000000E+02  0.51100000000E-03 0.  1.
         11   -1    0    0    0    0 -0.00000000000E+00 -0.00000000000E+00 -0.45593999997E+02  0.45594000000E+02  0.51100000000E-03 0. -1.
    9900012    2    1    2    0    0 -0.39073343402E+02  0.14507920902E+02 -0.12100364098E+02  0.47787254099E+02  0.19999922737E+02 0.  0.
        -12    1    1    2    0    0  0.39073343402E+02 -0.14507920902E+02  0.12100364098E+02  0.43400745901E+02  0.00000000000E+00 0.  1.
         11    1    3    3    0    0 -0.30368290418E+02  0.68499124044E+01 -0.15244129785E+02  0.34663206084E+02  0.51100000000E-03 0. -1.
        -11    1    3    3    0    0 -0.75575081213E+01  0.84294541554E+01  0.24777207562E+01  0.11589250484E+02  0.51100000000E-03 0.  1.
         12    1    3    3    0    0 -0.11475448624E+01 -0.77144565740E+00  0.66604493003E+00  0.15347975314E+01  0.00000000000E+00 0. -1.
</event>
<event>
 7    1  0.2458979E-009  0.4778727E+02  0.7816164E-02  0.1312668E+00
        -11   -1    0    0    0    0  0.00000000000E+00  0.00000000000E+00  0.45593999997E+02  0.45594000000E+02  0.51100000000E-03 0.  1.
         11   -1    0    0    0    0 -0.00000000000E+00 -0.00000000000E+00 -0.45593999997E+02  0.45594000000E+02  0.51100000000E-03 0. -1.
    9900012    2    1    2    0    0  0.30964203824E+02 -0.16947352223E+02 -0.25251305486E+02  0.47787273110E+02  0.20000009420E+02 0.  0.
        -12    1    1    2    0    0 -0.30964203824E+02  0.16947352223E+02  0.25251305486E+02  0.43400726890E+02  0.00000000000E+00 0.  1.
         11    1    3    3    0    0  0.74174114736E+01  0.10755465334E+01 -0.71976729309E+01  0.10391404582E+02  0.51100000000E-03 0. -1.
        -11    1    3    3    0    0  0.24188810798E+02 -0.13048250446E+02 -0.13495899499E+02  0.30618535416E+02  0.51100000000E-03 0.  1.
        -12    1    3    3    0    0 -0.64201844714E+00 -0.49746483107E+01 -0.45577330554E+01  0.67773331116E+01  0.00000000000E+00 0.  1.
</event>
<event>
 7    1  0.2458979E-009  0.4778727E+02  0.7816164E-02  0.1312668E+00
        -11   -1    0    0    0    0  0.00000000000E+00  0.00000000000E+00  0.45593999997E+02  0.45594000000E+02  0.51100000000E-03 0.  1.
         11   -1    0    0    0    0 -0.00000000000E+00 -0.00000000000E+00 -0.45593999997E+02  0.45594000000E+02  0.51100000000E-03 0. -1.
    9900012    2    1    2    0    0 -0.20585976730E+02  0.24221445814E+02 -0.29549317235E+02  0.47787273920E+02  0.20000013111E+02 0.  0.
        -12    1    1    2    0    0  0.20585976730E+02 -0.24221445814E+02  0.29549317235E+02  0.43400726080E+02  0.00000000000E+00 0.  1.
         11    1    3    3    0    0 -0.17719709711E+02  0.16569777738E+02 -0.16576306464E+02  0.29382300502E+02  0.51100000000E-03 0. -1.
        -11    1    3    3    0    0  0.37163888567E+01  0.38105785296E+01 -0.41740590099E+01  0.67642312012E+01  0.51100000000E-03 0.  1.
         12    1    3    3    0    0 -0.65826558755E+01  0.38410895460E+01 -0.87989517606E+01  0.11640742217E+02  0.00000000000E+00 0. -1.
</event>
<event>
 7    1  0.2458979E-009  0.4778727E+02  0.7816164E-02  0.1312668E+00
        -11   -1    0    0    0    0  0.00000000000E+00  0.00000000000E+00  0.45593999997E+02  0.45594000000E+02  0.51100000000E-03 0.  1.
         11   -1    0    0    0    0 -0.00000000000E+00 -0.00000000000E+00 -0.45593999997E+02  0.45594000000E+02  0.51100000000E-03 0. -1.
    9900012    2    1    2    0    0 -0.29949942371E+02  0.29618432907E+02  0.10458144038E+02  0.47787269677E+02  0.19999993764E+02 0.  0.
        -12    1    1    2    0    0  0.29949942371E+02 -0.29618432907E+02 -0.10458144038E+02  0.43400730323E+02  0.00000000000E+00 0.  1.
         11    1    3    3    0    0 -0.18226242261E+02  0.29209140622E+02  0.70662040317E+01  0.35146849681E+02  0.51100000000E-03 0. -1.
        -11    1    3    3    0    0 -0.86284332784E+01  0.17194610138E+01  0.27560386257E+01  0.92196613921E+01  0.51100000000E-03 0.  1.
         12    1    3    3    0    0 -0.30952668317E+01 -0.13101687291E+01  0.63590138027E+00  0.34207586035E+01  0.00000000000E+00 0. -1.
</event>
<event>
 7    1  0.2458979E-009  0.4778728E+02  0.7816164E-02  0.1312668E+00
        -11   -1    0    0    0    0  0.00000000000E+00  0.00000000000E+00  0.45593999997E+02  0.45594000000E+02  0.51100000000E-03 0. -1.
         11   -1    0    0    0    0 -0.00000000000E+00 -0.00000000000E+00 -0.45593999997E+02  0.45594000000E+02  0.51100000000E-03 0.  1.
    9900012    2    1    2    0    0  0.33567964345E+02 -0.74563743590E+00  0.27500147773E+02  0.47787281884E+02  0.20000049422E+02 0.  0.
        -12    1    1    2    0    0 -0.33567964345E+02  0.74563743590E+00 -0.27500147773E+02  0.43400718116E+02  0.00000000000E+00 0.  1.
         11    1    3    3    0    0 -0.17875365330E+01  0.22991769767E+01  0.30407767512E+01  0.42104423923E+01  0.51100000000E-03 0. -1.
        -11    1    3    3    0    0  0.25850084397E+01 -0.44922236461E+00  0.42311109277E+01  0.49785910969E+01  0.51100000000E-03 0.  1.
         12    1    3    3    0    0  0.32770492438E+02 -0.25955920480E+01  0.20228260094E+02  0.38598248395E+02  0.00000000000E+00 0. -1.
</event>
<event>
 7    1  0.2458979E-009  0.4778728E+02  0.7816164E-02  0.1312668E+00
        -11   -1    0    0    0    0  0.00000000000E+00  0.00000000000E+00  0.45593999997E+02  0.45594000000E+02  0.51100000000E-03 0.  1.
         11   -1    0    0    0    0 -0.00000000000E+00 -0.00000000000E+00 -0.45593999997E+02  0.45594000000E+02  0.51100000000E-03 0. -1.
    9900012    2    1    2    0    0 -0.16518597330E+02  0.13112076466E+02 -0.37931940775E+02  0.47787277219E+02  0.20000028150E+02 0.  0.
        -12    1    1    2    0    0  0.16518597330E+02 -0.13112076466E+02  0.37931940775E+02  0.43400722781E+02  0.00000000000E+00 0.  1.
         11    1    3    3    0    0 -0.95293543096E+01  0.91293142682E+01 -0.69219320590E+01  0.14901882977E+02  0.51100000000E-03 0. -1.
        -11    1    3    3    0    0 -0.15492091412E+01  0.35846849231E+01 -0.22069427054E+02  0.22412265074E+02  0.51100000000E-03 0.  1.
        -12    1    3    3    0    0 -0.54400338790E+01  0.39807727439E+00 -0.89405816618E+01  0.10473129168E+02  0.00000000000E+00 0.  1.
</event>
<event>
 7    1  0.2458979E-009  0.4778727E+02  0.7816164E-02  0.1312668E+00
        -11   -1    0    0    0    0  0.00000000000E+00  0.00000000000E+00  0.45593999997E+02  0.45594000000E+02  0.51100000000E-03 0.  1.
         11   -1    0    0    0    0 -0.00000000000E+00 -0.00000000000E+00 -0.45593999997E+02  0.45594000000E+02  0.51100000000E-03 0. -1.
    9900012    2    1    2    0    0  0.27074354504E+01 -0.20978164782E+02 -0.37897355113E+02  0.47787272714E+02  0.20000007612E+02 0.  0.
        -12    1    1    2    0    0 -0.27074354504E+01  0.20978164782E+02  0.37897355113E+02  0.43400727286E+02  0.00000000000E+00 0.  1.
         11    1    3    3    0    0  0.16870873468E+01 -0.13730103912E+02 -0.37478235409E+02  0.39949720234E+02  0.51100000000E-03 0. -1.
        -11    1    3    3    0    0  0.16094356194E+01 -0.26914415271E+01  0.42974992675E+00  0.31652528757E+01  0.51100000000E-03 0.  1.
         12    1    3    3    0    0 -0.58908751578E+00 -0.45566193432E+01 -0.84886963114E+00  0.46722996041E+01  0.00000000000E+00 0. -1.
</event>
<event>
 7    1  0.2458979E-009  0.4778727E+02  0.7816164E-02  0.1312668E+00
        -11   -1    0    0    0    0  0.00000000000E+00  0.00000000000E+00  0.45593999997E+02  0.45594000000E+02  0.51100000000E-03 0. -1.
         11   -1    0    0    0    0 -0.00000000000E+00 -0.00000000000E+00 -0.45593999997E+02  0.45594000000E+02  0.51100000000E-03 0.  1.
    9900012    2    1    2    0    0 -0.22273116997E+01  0.42452282407E+01  0.43135144297E+02  0.47787267820E+02  0.19999985297E+02 0.  0.
        -12    1    1    2    0    0  0.22273116997E+01 -0.42452282407E+01 -0.43135144297E+02  0.43400732180E+02  0.00000000000E+00 0.  1.
         11    1    3    3    0    0  0.52864589503E-01  0.88306496870E+01  0.16091847638E+02  0.18355672944E+02  0.51100000000E-03 0. -1.
        -11    1    3    3    0    0 -0.26200610442E+01  0.10238133614E+01  0.13302937440E+01  0.31116869027E+01  0.51100000000E-03 0.  1.
         12    1    3    3    0    0  0.33988475495E+00 -0.56092348077E+01  0.25713002915E+02  0.26319907973E+02  0.00000000000E+00 0. -1.
</event>
<event>
 7    1  0.2458979E-009  0.4778725E+02  0.7816164E-02  0.1312668E+00
        -11   -1    0    0    0    0  0.00000000000E+00  0.00000000000E+00  0.45593999997E+02  0.45594000000E+02  0.51100000000E-03 0.  1.
         11   -1    0    0    0    0 -0.00000000000E+00 -0.00000000000E+00 -0.45593999997E+02  0.45594000000E+02  0.51100000000E-03 0. -1.
    9900012    2    1    2    0    0  0.15924648257E+02 -0.22641676203E+02 -0.33427312152E+02  0.47787249764E+02  0.19999902973E+02 0.  0.
        -12    1    1    2    0    0 -0.15924648257E+02  0.22641676203E+02  0.33427312152E+02  0.43400750236E+02  0.00000000000E+00 0.  1.
         11    1    3    3    0    0  0.21062381903E+01 -0.20770468203E+01 -0.15555172613E+02  0.15833943226E+02  0.51100000000E-03 0. -1.
        -11    1    3    3    0    0 -0.33603635451E-01 -0.43739077248E+01 -0.64046746302E+01  0.77557756136E+01  0.51100000000E-03 0.  1.
         12    1    3    3    0    0  0.13852013702E+02 -0.16190721658E+02 -0.11467464908E+02  0.24197530924E+02  0.00000000000E+00 0. -1.
</event>
<event>
 7    1  0.2458979E-009  0.4778727E+02  0.7816164E-02  0.1312668E+00
        -11   -1    0    0    0    0  0.00000000000E+00  0.00000000000E+00  0.45593999997E+02  0.45594000000E+02  0.51100000000E-03 0.  1.
         11   -1    0    0    0    0 -0.00000000000E+00 -0.00000000000E+00 -0.45593999997E+02  0.45594000000E+02  0.51100000000E-03 0. -1.
    9900012    2    1    2    0    0 -0.20753520659E+02  0.30703313550E+02 -0.22588079096E+02  0.47787269592E+02  0.19999993378E+02 0.  0.
        -12    1    1    2    0    0  0.20753520659E+02 -0.30703313550E+02  0.22588079096E+02  0.43400730408E+02  0.00000000000E+00 0.  1.
         11    1    3    3    0    0 -0.12083053731E+02  0.40596444200E+01 -0.25330975179E+01  0.12996056463E+02  0.51100000000E-03 0. -1.
        -11    1    3    3    0    0 -0.60124206414E+01  0.19259959304E+02 -0.11677332103E+02  0.23312128167E+02  0.51100000000E-03 0.  1.
         12    1    3    3    0    0 -0.26580462862E+01  0.73837098264E+01 -0.83776494745E+01  0.11479084963E+02  0.00000000000E+00 0. -1.
</event>
<event>
 7    1  0.2458979E-009  0.4778727E+02  0.7816164E-02  0.1312668E+00
        -11   -1    0    0    0    0  0.00000000000E+00  0.00000000000E+00  0.45593999997E+02  0.45594000000E+02  0.51100000000E-03 0.  1.
         11   -1    0    0    0    0 -0.00000000000E+00 -0.00000000000E+00 -0.45593999997E+02  0.45594000000E+02  0.51100000000E-03 0. -1.
    9900012    2    1    2    0    0  0.32018249870E+02  0.18786892754E+02 -0.22483494117E+02  0.47787272220E+02  0.20000005360E+02 0.  0.
        -12    1    1    2    0    0 -0.32018249870E+02 -0.18786892754E+02  0.22483494117E+02  0.43400727780E+02  0.00000000000E+00 0.  1.
         11    1    3    3    0    0  0.35267006648E+01  0.23122439582E+01 -0.59254104601E+00  0.42585437480E+01  0.51100000000E-03 0. -1.
        -11    1    3    3    0    0  0.36400668089E+01 -0.22024145863E+01  0.16193818958E+01  0.45522647516E+01  0.51100000000E-03 0.  1.
        -12    1    3    3    0    0  0.24851482397E+02  0.18677063383E+02 -0.23510334967E+02  0.38976463720E+02  0.00000000000E+00 0.  1.
</event>
<event>
 7    1  0.2458979E-009  0.4778727E+02  0.7816164E-02  0.1312668E+00
        -11   -1    0    0    0    0  0.00000000000E+00  0.00000000000E+00  0.45593999997E+02  0.45594000000E+02  0.51100000000E-03 0.  1.
         11   -1    0    0    0    0 -0.00000000000E+00 -0.00000000000E+00 -0.45593999997E+02  0.45594000000E+02  0.51100000000E-03 0. -1.
    9900012    2    1    2    0    0  0.46550355757E+01 -0.50029669182E+01 -0.42859355411E+02  0.47787269817E+02  0.19999994402E+02 0.  0.
        -12    1    1    2    0    0 -0.46550355757E+01  0.50029669182E+01  0.42859355411E+02  0.43400730183E+02  0.00000000000E+00 0.  1.
         11    1    3    3    0    0  0.80149281789E+01 -0.53300362511E+01 -0.16360628162E+02  0.18982057693E+02  0.51100000000E-03 0. -1.
        -11    1    3    3    0    0 -0.53684156701E+01  0.38870914403E+01 -0.11642366298E+02  0.13396792898E+02  0.51100000000E-03 0.  1.
        -12    1    3    3    0    0  0.20085230669E+01 -0.35600221074E+01 -0.14856360951E+02  0.15408419226E+02  0.00000000000E+00 0.  1.
</event>
<event>
 7    1  0.2458979E-009  0.4778728E+02  0.7816164E-02  0.1312668E+00
        -11   -1    0    0    0    0  0.00000000000E+00  0.00000000000E+00  0.45593999997E+02  0.45594000000E+02  0.51100000000E-03 0.  1.
         11   -1    0    0    0    0 -0.00000000000E+00 -0.00000000000E+00 -0.45593999997E+02  0.45594000000E+02  0.51100000000E-03 0. -1.
    9900012    2    1    2    0    0 -0.20372705106E+02  0.31000454800E+00 -0.38320740723E+02  0.47787281277E+02  0.20000046654E+02 0.  0.
        -12    1    1    2    0    0  0.20372705106E+02 -0.31000454800E+00  0.38320740723E+02  0.43400718723E+02  0.00000000000E+00 0.  1.
         11    1    3    3    0    0 -0.10621138469E+01 -0.27978850725E+01 -0.13834935974E+02  0.14154917886E+02  0.51100000000E-03 0. -1.
        -11    1    3    3    0    0 -0.11338841556E+02  0.68906557608E+01 -0.97831029092E+01  0.16485131708E+02  0.51100000000E-03 0.  1.
         12    1    3    3    0    0 -0.79717497032E+01 -0.37827661403E+01 -0.14702701840E+02  0.17147231683E+02  0.00000000000E+00 0. -1.
</event>
<event>
 7    1  0.2458979E-009  0.4778727E+02  0.7816164E-02  0.1312668E+00
        -11   -1    0    0    0    0  0.00000000000E+00  0.00000000000E+00  0.45593999997E+02  0.45594000000E+02  0.51100000000E-03 0.  1.
         11   -1    0    0    0    0 -0.00000000000E+00 -0.00000000000E+00 -0.45593999997E+02  0.45594000000E+02  0.51100000000E-03 0. -1.
    9900012    2    1    2    0    0  0.35967489767E+02  0.14456379764E+01 -0.24246097015E+02  0.47787269479E+02  0.19999992862E+02 0.  0.
        -12    1    1    2    0    0 -0.35967489767E+02 -0.14456379764E+01  0.24246097015E+02  0.43400730521E+02  0.00000000000E+00 0.  1.
         11    1    3    3    0    0  0.23315615903E+02 -0.16196124241E+01 -0.17057851761E+02  0.28934605515E+02  0.51100000000E-03 0. -1.
        -11    1    3    3    0    0  0.25837021265E+01 -0.32622474832E+01  0.11639372935E+01  0.43211717861E+01  0.51100000000E-03 0.  1.
        -12    1    3    3    0    0  0.10068171738E+02  0.63274978837E+01 -0.83521825477E+01  0.14531492178E+02  0.00000000000E+00 0.  1.
</event>
<event>
 7    1  0.2458979E-009  0.4778727E+02  0.7816164E-02  0.1312668E+00
        -11   -1    0    0    0    0  0.00000000000E+00  0.00000000000E+00  0.45593999997E+02  0.45594000000E+02  0.51100000000E-03 0.  1.
         11   -1    0    0    0    0 -0.00000000000E+00 -0.00000000000E+00 -0.45593999997E+02  0.45594000000E+02  0.51100000000E-03 0. -1.
    9900012    2    1    2    0    0 -0.13470182213E+02  0.36014077146E+02 -0.20128679560E+02  0.47787270716E+02  0.19999998504E+02 0.  0.
        -12    1    1    2    0    0  0.13470182213E+02 -0.36014077146E+02  0.20128679560E+02  0.43400729284E+02  0.00000000000E+00 0.  1.
         11    1    3    3    0    0 -0.29576651847E+01  0.23743929076E+02 -0.14280736725E+02  0.27865056845E+02  0.51100000000E-03 0. -1.
        -11    1    3    3    0    0 -0.11617786492E+02  0.12364959481E+02 -0.34977693538E+01  0.17323382368E+02  0.51100000000E-03 0.  1.
        -12    1    3    3    0    0  0.11052694632E+01 -0.94811411316E-01 -0.23501734820E+01  0.25988315039E+01  0.00000000000E+00 0.  1.
</event>
<event>
 7    1  0.2458979E-009  0.4778727E+02  0.7816164E-02  0.1312668E+00
        -11   -1    0    0    0    0  0.00000000000E+00  0.00000000000E+00  0.45593999997E+02  0.45594000000E+02  0.51100000000E-03 0.  1.
         11   -1    0    0    0    0 -0.00000000000E+00 -0.00000000000E+00 -0.45593999997E+02  0.45594000000E+02  0.51100000000E-03 0. -1.
    9900012    2    1    2    0    0  0.11247335262E+02 -0.39527830789E+02 -0.13952459472E+02  0.47787273247E+02  0.20000010042E+02 0.  0.
        -12    1    1    2    0    0 -0.11247335262E+02  0.39527830789E+02  0.13952459472E+02  0.43400726753E+02  0.00000000000E+00 0.  1.
         11    1    3    3    0    0 -0.74738402934E+00 -0.45882870632E+01 -0.29822544566E+01  0.55231153317E+01  0.51100000000E-03 0. -1.
        -11    1    3    3    0    0  0.19707034300E+01  0.14285946472E+01 -0.27165907795E+01  0.36475225016E+01  0.51100000000E-03 0.  1.
        -12    1    3    3    0    0  0.10024015861E+02 -0.36368138373E+02 -0.82536142357E+01  0.38616635414E+02  0.00000000000E+00 0.  1.
</event>
<event>
 7    1  0.2458979E-009  0.4778727E+02  0.7816164E-02  0.1312668E+00
        -11   -1    0    0    0    0  0.00000000000E+00  0.00000000000E+00  0.45593999997E+02  0.45594000000E+02  0.51100000000E-03 0. -1.
         11   -1    0    0    0    0 -0.00000000000E+00 -0.00000000000E+00 -0.45593999997E+02  0.45594000000E+02  0.51100000000E-03 0.  1.
    9900012    2    1    2    0    0  0.37448643955E+02  0.21721561710E+02  0.30652646667E+01  0.47787273916E+02  0.20000013092E+02 0.  0.
        -12    1    1    2    0    0 -0.37448643955E+02 -0.21721561710E+02 -0.30652646667E+01  0.43400726084E+02  0.00000000000E+00 0.  1.
         11    1    3    3    0    0  0.35339827219E+02  0.16263223268E+02  0.58425507191E+01  0.39338673314E+02  0.51100000000E-03 0. -1.
        -11    1    3    3    0    0 -0.31807723127E-01  0.14042166026E+01  0.15867230629E+01  0.21190862035E+01  0.51100000000E-03 0.  1.
         12    1    3    3    0    0  0.21406244589E+01  0.40541218390E+01 -0.43640091153E+01  0.63295143983E+01  0.00000000000E+00 0. -1.
</event>
<event>
 7    1  0.2458979E-009  0.4778727E+02  0.7816164E-02  0.1312668E+00
        -11   -1    0    0    0    0  0.00000000000E+00  0.00000000000E+00  0.45593999997E+02  0.45594000000E+02  0.51100000000E-03 0.  1.
         11   -1    0    0    0    0 -0.00000000000E+00 -0.00000000000E+00 -0.45593999997E+02  0.45594000000E+02  0.51100000000E-03 0. -1.
    9900012    2    1    2    0    0 -0.32008957787E+02  0.27784031577E+02 -0.93326085666E+01  0.47787269915E+02  0.19999994849E+02 0.  0.
        -12    1    1    2    0    0  0.32008957787E+02 -0.27784031577E+02  0.93326085666E+01  0.43400730085E+02  0.00000000000E+00 0.  1.
         11    1    3    3    0    0  0.33587129700E+00 -0.81202473364E+00 -0.24743167656E+01  0.26257260737E+01  0.51100000000E-03 0.  1.
        -11    1    3    3    0    0 -0.25107914579E+02  0.23663211830E+02 -0.98940277455E+01  0.35892154490E+02  0.51100000000E-03 0. -1.
        -12    1    3    3    0    0 -0.72369145050E+01  0.49328444803E+01  0.30357359445E+01  0.92693893512E+01  0.00000000000E+00 0.  1.
</event>
<event>
 7    1  0.2458979E-009  0.4778727E+02  0.7816164E-02  0.1312668E+00
        -11   -1    0    0    0    0  0.00000000000E+00  0.00000000000E+00  0.45593999997E+02  0.45594000000E+02  0.51100000000E-03 0.  1.
         11   -1    0    0    0    0 -0.00000000000E+00 -0.00000000000E+00 -0.45593999997E+02  0.45594000000E+02  0.51100000000E-03 0. -1.
    9900012    2    1    2    0    0  0.14316170192E+02 -0.34396557188E+02  0.22260892986E+02  0.47787271528E+02  0.20000002207E+02 0.  0.
        -12    1    1    2    0    0 -0.14316170192E+02  0.34396557188E+02 -0.22260892986E+02  0.43400728472E+02  0.00000000000E+00 0.  1.
         11    1    3    3    0    0  0.97649608518E+01 -0.33117211978E+02  0.23083372283E+02  0.41532472426E+02  0.51100000000E-03 0. -1.
        -11    1    3    3    0    0  0.14385470216E+01 -0.19148953279E+01 -0.17257190150E+01  0.29520074576E+01  0.51100000000E-03 0.  1.
         12    1    3    3    0    0  0.31126623183E+01  0.63555011795E+00  0.90323971845E+00  0.33027916448E+01  0.00000000000E+00 0. -1.
</event>
<event>
 7    1  0.2458979E-009  0.4778722E+02  0.7816164E-02  0.1312668E+00
        -11   -1    0    0    0    0  0.00000000000E+00  0.00000000000E+00  0.45593999997E+02  0.45594000000E+02  0.51100000000E-03 0. -1.
         11   -1    0    0    0    0 -0.00000000000E+00 -0.00000000000E+00 -0.45593999997E+02  0.45594000000E+02  0.51100000000E-03 0.  1.
    9900012    2    1    2    0    0 -0.41704380602E+02 -0.11935501009E+02 -0.13841361042E+01  0.47787223757E+02  0.19999784398E+02 0.  0.
        -12    1    1    2    0    0  0.41704380602E+02  0.11935501009E+02  0.13841361042E+01  0.43400776243E+02  0.00000000000E+00 0.  1.
         11    1    3    3    0    0 -0.28624407994E+02 -0.29434135787E+01  0.13703758070E+00  0.28775670211E+02  0.51100000000E-03 0. -1.
        -11    1    3    3    0    0 -0.98032546402E+01 -0.88981555844E+01  0.28550674449E+01  0.13543721229E+02  0.51100000000E-03 0.  1.
         12    1    3    3    0    0 -0.32767179675E+01 -0.93931845480E-01 -0.43762411297E+01  0.54678323178E+01  0.00000000000E+00 0. -1.
</event>
<event>
 7    1  0.2458979E-009  0.4778727E+02  0.7816164E-02  0.1312668E+00
        -11   -1    0    0    0    0  0.00000000000E+00  0.00000000000E+00  0.45593999997E+02  0.45594000000E+02  0.51100000000E-03 0.  1.
         11   -1    0    0    0    0 -0.00000000000E+00 -0.00000000000E+00 -0.45593999997E+02  0.45594000000E+02  0.51100000000E-03 0. -1.
    9900012    2    1    2    0    0 -0.32864998575E+02  0.13193978039E+02 -0.25088527134E+02  0.47787269804E+02  0.19999994344E+02 0.  0.
        -12    1    1    2    0    0  0.32864998575E+02 -0.13193978039E+02  0.25088527134E+02  0.43400730196E+02  0.00000000000E+00 0.  1.
         11    1    3    3    0    0 -0.21736167284E+02  0.96510318974E+01 -0.15107008053E+02  0.28174901552E+02  0.51100000000E-03 0. -1.
        -11    1    3    3    0    0 -0.19823917253E+01 -0.31106656598E+00  0.27905898770E+01  0.34371545621E+01  0.51100000000E-03 0.  1.
        -12    1    3    3    0    0 -0.91464395650E+01  0.38540127073E+01 -0.12772108958E+02  0.16175213689E+02  0.00000000000E+00 0.  1.
</event>
<event>
 7    1  0.2458979E-009  0.4778727E+02  0.7816164E-02  0.1312668E+00
        -11   -1    0    0    0    0  0.00000000000E+00  0.00000000000E+00  0.45593999997E+02  0.45594000000E+02  0.51100000000E-03 0. -1.
         11   -1    0    0    0    0 -0.00000000000E+00 -0.00000000000E+00 -0.45593999997E+02  0.45594000000E+02  0.51100000000E-03 0.  1.
    9900012    2    1    2    0    0  0.96963292292E+01 -0.42077019264E+02  0.43736563453E+01  0.47787271659E+02  0.20000002804E+02 0.  0.
        -12    1    1    2    0    0 -0.96963292292E+01  0.42077019264E+02 -0.43736563453E+01  0.43400728341E+02  0.00000000000E+00 0.  1.
         11    1    3    3    0    0  0.77282180618E+01 -0.31647917198E+02  0.19628036522E+01  0.32636921053E+02  0.51100000000E-03 0. -1.
        -11    1    3    3    0    0  0.59297264852E+01 -0.77512081512E+01  0.32689506014E+01  0.10292177723E+02  0.51100000000E-03 0.  1.
         12    1    3    3    0    0 -0.39616153177E+01 -0.26778939152E+01 -0.85809790837E+00  0.48581728836E+01  0.00000000000E+00 0. -1.
</event>
<event>
 7    1  0.2458979E-009  0.4778727E+02  0.7816164E-02  0.1312668E+00
        -11   -1    0    0    0    0  0.00000000000E+00  0.00000000000E+00  0.45593999997E+02  0.45594000000E+02  0.51100000000E-03 0.  1.
         11   -1    0    0    0    0 -0.00000000000E+00 -0.00000000000E+00 -0.45593999997E+02  0.45594000000E+02  0.51100000000E-03 0. -1.
    9900012    2    1    2    0    0  0.24610668728E+01  0.18035673514E+02 -0.39398998601E+02  0.47787268900E+02  0.19999990224E+02 0.  0.
        -12    1    1    2    0    0 -0.24610668728E+01 -0.18035673514E+02  0.39398998601E+02  0.43400731100E+02  0.00000000000E+00 0.  1.
         11    1    3    3    0    0 -0.75559783242E+01  0.12618003639E+02 -0.25959634488E+02  0.29836377918E+02  0.51100000000E-03 0. -1.
        -11    1    3    3    0    0  0.80134845217E+01  0.27637778847E+01 -0.10642629123E+02  0.13605879512E+02  0.51100000000E-03 0.  1.
         12    1    3    3    0    0  0.20035606754E+01  0.26538919902E+01 -0.27967349893E+01  0.43450114702E+01  0.00000000000E+00 0. -1.
</event>
<event>
 7    1  0.2458979E-009  0.4778725E+02  0.7816164E-02  0.1312668E+00
        -11   -1    0    0    0    0  0.00000000000E+00  0.00000000000E+00  0.45593999997E+02  0.45594000000E+02  0.51100000000E-03 0. -1.
         11   -1    0    0    0    0 -0.00000000000E+00 -0.00000000000E+00 -0.45593999997E+02  0.45594000000E+02  0.51100000000E-03 0.  1.
    9900012    2    1    2    0    0 -0.42568132987E+02  0.83539115826E+01 -0.13384311738E+01  0.47787249053E+02  0.19999899734E+02 0.  0.
        -12    1    1    2    0    0  0.42568132987E+02 -0.83539115826E+01  0.13384311738E+01  0.43400750947E+02  0.00000000000E+00 0.  1.
         11    1    3    3    0    0 -0.21668328013E+02  0.57805010999E+01 -0.75504653060E+01  0.23663054715E+02  0.51100000000E-03 0.  1.
        -11    1    3    3    0    0 -0.70548965031E+01  0.29733083190E+01  0.68300749327E+01  0.10259729571E+02  0.51100000000E-03 0. -1.
        -12    1    3    3    0    0 -0.13844908471E+02 -0.39989783636E+00 -0.61804080049E+00  0.13864464767E+02  0.00000000000E+00 0.  1.
</event>
<event>
 7    1  0.2458979E-009  0.4778727E+02  0.7816164E-02  0.1312668E+00
        -11   -1    0    0    0    0  0.00000000000E+00  0.00000000000E+00  0.45593999997E+02  0.45594000000E+02  0.51100000000E-03 0. -1.
         11   -1    0    0    0    0 -0.00000000000E+00 -0.00000000000E+00 -0.45593999997E+02  0.45594000000E+02  0.51100000000E-03 0.  1.
    9900012    2    1    2    0    0  0.13700509448E+02 -0.35276071859E+02  0.21248955221E+02  0.47787270710E+02  0.19999998474E+02 0.  0.
        -12    1    1    2    0    0 -0.13700509448E+02  0.35276071859E+02 -0.21248955221E+02  0.43400729290E+02  0.00000000000E+00 0.  1.
         11    1    3    3    0    0  0.13424491774E+01 -0.60109745080E+01  0.19976666870E+01  0.64749252338E+01  0.51100000000E-03 0. -1.
        -11    1    3    3    0    0  0.14409418243E+02 -0.30696209702E+02  0.18793290797E+02  0.38769529317E+02  0.51100000000E-03 0.  1.
        -12    1    3    3    0    0 -0.20513579723E+01  0.14311123514E+01  0.45799773679E+00  0.25428161593E+01  0.00000000000E+00 0.  1.
</event>
<event>
 7    1  0.2458979E-009  0.4778727E+02  0.7816164E-02  0.1312668E+00
        -11   -1    0    0    0    0  0.00000000000E+00  0.00000000000E+00  0.45593999997E+02  0.45594000000E+02  0.51100000000E-03 0. -1.
         11   -1    0    0    0    0 -0.00000000000E+00 -0.00000000000E+00 -0.45593999997E+02  0.45594000000E+02  0.51100000000E-03 0.  1.
    9900012    2    1    2    0    0  0.34281323500E+02  0.26249346858E+02 -0.44029776956E+01  0.47787267702E+02  0.19999984762E+02 0.  0.
        -12    1    1    2    0    0 -0.34281323500E+02 -0.26249346858E+02  0.44029776956E+01  0.43400732298E+02  0.00000000000E+00 0.  1.
         11    1    3    3    0    0  0.95015576658E+01  0.85318388412E+01  0.84227780883E+00  0.12797706992E+02  0.51100000000E-03 0. -1.
        -11    1    3    3    0    0  0.23171433404E+02  0.16738220645E+02 -0.96738582319E+01  0.30177257823E+02  0.51100000000E-03 0.  1.
        -12    1    3    3    0    0  0.16083324300E+01  0.97928737217E+00  0.44286027275E+01  0.48123028874E+01  0.00000000000E+00 0.  1.
</event>
<event>
 7    1  0.2458979E-009  0.4778727E+02  0.7816164E-02  0.1312668E+00
        -11   -1    0    0    0    0  0.00000000000E+00  0.00000000000E+00  0.45593999997E+02  0.45594000000E+02  0.51100000000E-03 0.  1.
         11   -1    0    0    0    0 -0.00000000000E+00 -0.00000000000E+00 -0.45593999997E+02  0.45594000000E+02  0.51100000000E-03 0. -1.
    9900012    2    1    2    0    0  0.12051338758E+02  0.39645745702E+02 -0.12907492146E+02  0.47787271070E+02  0.20000000116E+02 0.  0.
        -12    1    1    2    0    0 -0.12051338758E+02 -0.39645745702E+02  0.12907492146E+02  0.43400728930E+02  0.00000000000E+00 0.  1.
         11    1    3    3    0    0  0.75586669812E+01  0.13993085678E+02 -0.11769407384E+02  0.19785318895E+02  0.51100000000E-03 0. -1.
        -11    1    3    3    0    0 -0.28807066157E+01  0.39959765427E+01  0.99392004620E+00  0.50253533662E+01  0.51100000000E-03 0.  1.
         12    1    3    3    0    0  0.73733783925E+01  0.21656683481E+02 -0.21320048081E+01  0.22976598809E+02  0.00000000000E+00 0. -1.
</event>
<event>
 7    1  0.2458979E-009  0.4778727E+02  0.7816164E-02  0.1312668E+00
        -11   -1    0    0    0    0  0.00000000000E+00  0.00000000000E+00  0.45593999997E+02  0.45594000000E+02  0.51100000000E-03 0.  1.
         11   -1    0    0    0    0 -0.00000000000E+00 -0.00000000000E+00 -0.45593999997E+02  0.45594000000E+02  0.51100000000E-03 0. -1.
    9900012    2    1    2    0    0  0.19802411430E+02  0.30014168107E+02 -0.24303038875E+02  0.47787268622E+02  0.19999988956E+02 0.  0.
        -12    1    1    2    0    0 -0.19802411430E+02 -0.30014168107E+02  0.24303038875E+02  0.43400731378E+02  0.00000000000E+00 0.  1.
         11    1    3    3    0    0 -0.21459205390E+01  0.66365228138E+01 -0.63431799573E+01  0.94278492908E+01  0.51100000000E-03 0. -1.
        -11    1    3    3    0    0  0.13505324230E+02  0.67696387313E+01 -0.98866143996E+01  0.18054554430E+02  0.51100000000E-03 0.  1.
         12    1    3    3    0    0  0.84430077383E+01  0.16608006562E+02 -0.80732445178E+01  0.20304864901E+02  0.00000000000E+00 0. -1.
</event>
<event>
 7    1  0.2458979E-009  0.4778727E+02  0.7816164E-02  0.1312668E+00
        -11   -1    0    0    0    0  0.00000000000E+00  0.00000000000E+00  0.45593999997E+02  0.45594000000E+02  0.51100000000E-03 0.  1.
         11   -1    0    0    0    0 -0.00000000000E+00 -0.00000000000E+00 -0.45593999997E+02  0.45594000000E+02  0.51100000000E-03 0. -1.
    9900012    2    1    2    0    0  0.19015086936E+02 -0.10769427213E+02 -0.37497589526E+02  0.47787270583E+02  0.19999997894E+02 0.  0.
        -12    1    1    2    0    0 -0.19015086936E+02  0.10769427213E+02  0.37497589526E+02  0.43400729417E+02  0.00000000000E+00 0.  1.
         11    1    3    3    0    0  0.67208540419E+01 -0.79144903085E+01 -0.17711588687E+02  0.20530694337E+02  0.51100000000E-03 0. -1.
        -11    1    3    3    0    0 -0.18377443774E+01  0.17839242453E+01 -0.76262189981E+01  0.80448061864E+01  0.51100000000E-03 0.  1.
        -12    1    3    3    0    0  0.14131977272E+02 -0.46388611502E+01 -0.12159781841E+02  0.19211770059E+02  0.00000000000E+00 0.  1.
</event>
<event>
 7    1  0.2458979E-009  0.4778728E+02  0.7816164E-02  0.1312668E+00
        -11   -1    0    0    0    0  0.00000000000E+00  0.00000000000E+00  0.45593999997E+02  0.45594000000E+02  0.51100000000E-03 0. -1.
         11   -1    0    0    0    0 -0.00000000000E+00 -0.00000000000E+00 -0.45593999997E+02  0.45594000000E+02  0.51100000000E-03 0.  1.
    9900012    2    1    2    0    0 -0.10132404944E+02  0.17968522379E+02  0.38184928074E+02  0.47787283895E+02  0.20000058591E+02 0.  0.
        -12    1    1    2    0    0  0.10132404944E+02 -0.17968522379E+02 -0.38184928074E+02  0.43400716105E+02  0.00000000000E+00 0.  1.
         11    1    3    3    0    0  0.46906721922E+01  0.62293796885E+01  0.14105869294E+02  0.16117789108E+02  0.51100000000E-03 0. -1.
        -11    1    3    3    0    0 -0.53498405863E+01  0.31667168973E+01  0.27305853957E+01  0.67900653216E+01  0.51100000000E-03 0.  1.
         12    1    3    3    0    0 -0.94732365499E+01  0.85724257930E+01  0.21348473384E+02  0.24879429465E+02  0.00000000000E+00 0. -1.
</event>
<event>
 7    1  0.2458979E-009  0.4778727E+02  0.7816164E-02  0.1312668E+00
        -11   -1    0    0    0    0  0.00000000000E+00  0.00000000000E+00  0.45593999997E+02  0.45594000000E+02  0.51100000000E-03 0.  1.
         11   -1    0    0    0    0 -0.00000000000E+00 -0.00000000000E+00 -0.45593999997E+02  0.45594000000E+02  0.51100000000E-03 0. -1.
    9900012    2    1    2    0    0  0.26062468665E+02  0.32388431533E+02 -0.12464364313E+02  0.47787272497E+02  0.20000006622E+02 0.  0.
        -12    1    1    2    0    0 -0.26062468665E+02 -0.32388431533E+02  0.12464364313E+02  0.43400727503E+02  0.00000000000E+00 0.  1.
         11    1    3    3    0    0  0.13353058141E+02  0.77905465865E+01  0.12483379284E+01  0.15509839641E+02  0.51100000000E-03 0.  1.
        -11    1    3    3    0    0  0.43946056156E+00 -0.80818615539E+00 -0.91249328431E+00  0.12957371269E+01  0.51100000000E-03 0. -1.
         12    1    3    3    0    0  0.12269949962E+02  0.25406071102E+02 -0.12800208957E+02  0.30981695729E+02  0.00000000000E+00 0. -1.
</event>
<event>
 7    1  0.2458979E-009  0.4778727E+02  0.7816164E-02  0.1312668E+00
        -11   -1    0    0    0    0  0.00000000000E+00  0.00000000000E+00  0.45593999997E+02  0.45594000000E+02  0.51100000000E-03 0. -1.
         11   -1    0    0    0    0 -0.00000000000E+00 -0.00000000000E+00 -0.45593999997E+02  0.45594000000E+02  0.51100000000E-03 0.  1.
    9900012    2    1    2    0    0  0.33166076771E+02 -0.23268269533E+02 -0.15563493138E+02  0.47787270351E+02  0.19999996836E+02 0.  0.
        -12    1    1    2    0    0 -0.33166076771E+02  0.23268269533E+02  0.15563493138E+02  0.43400729649E+02  0.00000000000E+00 0.  1.
         11    1    3    3    0    0  0.16687709260E+02 -0.16503168982E+02 -0.79366770209E+01  0.24775493319E+02  0.51100000000E-03 0. -1.
        -11    1    3    3    0    0  0.39730907689E+01  0.36710487522E+01 -0.15487481513E+01  0.56267815219E+01  0.51100000000E-03 0.  1.
        -12    1    3    3    0    0  0.12505276743E+02 -0.10436149303E+02 -0.60780679655E+01  0.17384995510E+02  0.00000000000E+00 0.  1.
</event>
<event>
 7    1  0.2458979E-009  0.4778727E+02  0.7816164E-02  0.1312668E+00
        -11   -1    0    0    0    0  0.00000000000E+00  0.00000000000E+00  0.45593999997E+02  0.45594000000E+02  0.51100000000E-03 0. -1.
         11   -1    0    0    0    0 -0.00000000000E+00 -0.00000000000E+00 -0.45593999997E+02  0.45594000000E+02  0.51100000000E-03 0.  1.
    9900012    2    1    2    0    0  0.57076535738E+01 -0.19027877888E+02  0.38587376372E+02  0.47787273491E+02  0.20000011155E+02 0.  0.
        -12    1    1    2    0    0 -0.57076535738E+01  0.19027877888E+02 -0.38587376372E+02  0.43400726509E+02  0.00000000000E+00 0.  1.
         11    1    3    3    0    0  0.13745919125E+01 -0.96664716979E+00  0.17045191876E+02  0.17127827534E+02  0.51100000000E-03 0. -1.
        -11    1    3    3    0    0 -0.32236176858E+01 -0.58394609017E+01  0.10898020217E+02  0.12777239902E+02  0.51100000000E-03 0.  1.
         12    1    3    3    0    0  0.75566793471E+01 -0.12221769816E+02  0.10644164279E+02  0.17882206055E+02  0.00000000000E+00 0. -1.
</event>
<event>
 7    1  0.2458979E-009  0.4778727E+02  0.7816164E-02  0.1312668E+00
        -11   -1    0    0    0    0  0.00000000000E+00  0.00000000000E+00  0.45593999997E+02  0.45594000000E+02  0.51100000000E-03 0. -1.
         11   -1    0    0    0    0 -0.00000000000E+00 -0.00000000000E+00 -0.45593999997E+02  0.45594000000E+02  0.51100000000E-03 0.  1.
    9900012    2    1    2    0    0  0.20093761099E+02 -0.30768047481E+02  0.23090938647E+02  0.47787269263E+02  0.19999991880E+02 0.  0.
        -12    1    1    2    0    0 -0.20093761099E+02  0.30768047481E+02 -0.23090938647E+02  0.43400730737E+02  0.00000000000E+00 0.  1.
         11    1    3    3    0    0  0.15220862043E+02 -0.11338463010E+02  0.13194763136E+02  0.23115734019E+02  0.51100000000E-03 0. -1.
        -11    1    3    3    0    0 -0.76895456581E+00 -0.27961180803E+01 -0.19421539028E+01  0.34902047915E+01  0.51100000000E-03 0.  1.
         12    1    3    3    0    0  0.56418536215E+01 -0.16633466391E+02  0.11838329413E+02  0.21181330453E+02  0.00000000000E+00 0. -1.
</event>
<event>
 7    1  0.2458979E-009  0.4778728E+02  0.7816164E-02  0.1312668E+00
        -11   -1    0    0    0    0  0.00000000000E+00  0.00000000000E+00  0.45593999997E+02  0.45594000000E+02  0.51100000000E-03 0.  1.
         11   -1    0    0    0    0 -0.00000000000E+00 -0.00000000000E+00 -0.45593999997E+02  0.45594000000E+02  0.51100000000E-03 0. -1.
    9900012    2    1    2    0    0 -0.16183128755E+02 -0.26585439125E+02 -0.30248025284E+02  0.47787282686E+02  0.20000053079E+02 0.  0.
        -12    1    1    2    0    0  0.16183128755E+02  0.26585439125E+02  0.30248025284E+02  0.43400717314E+02  0.00000000000E+00 0.  1.
         11    1    3    3    0    0 -0.20087644112E+01 -0.11689939987E+02 -0.17788390016E+02  0.21380286504E+02  0.51100000000E-03 0. -1.
        -11    1    3    3    0    0 -0.62022944932E+01 -0.67208573452E+01  0.46970951594E+00  0.91574564004E+01  0.51100000000E-03 0.  1.
        -12    1    3    3    0    0 -0.79720698507E+01 -0.81746417928E+01 -0.12929344784E+02  0.17249539782E+02  0.00000000000E+00 0.  1.
</event>
<event>
 7    1  0.2458979E-009  0.4778727E+02  0.7816164E-02  0.1312668E+00
        -11   -1    0    0    0    0  0.00000000000E+00  0.00000000000E+00  0.45593999997E+02  0.45594000000E+02  0.51100000000E-03 0.  1.
         11   -1    0    0    0    0 -0.00000000000E+00 -0.00000000000E+00 -0.45593999997E+02  0.45594000000E+02  0.51100000000E-03 0. -1.
    9900012    2    1    2    0    0 -0.21258104164E+02  0.26207364627E+02 -0.27292678704E+02  0.47787271156E+02  0.20000000509E+02 0.  0.
        -12    1    1    2    0    0  0.21258104164E+02 -0.26207364627E+02  0.27292678704E+02  0.43400728844E+02  0.00000000000E+00 0.  1.
         11    1    3    3    0    0 -0.18745551213E+02  0.11601801796E+02 -0.20622552285E+02  0.30187533159E+02  0.51100000000E-03 0. -1.
        -11    1    3    3    0    0  0.17191947445E+01  0.20356990140E+01  0.18291012480E+00  0.26707971507E+01  0.51100000000E-03 0.  1.
         12    1    3    3    0    0 -0.42317476954E+01  0.12569863817E+02 -0.68530365442E+01  0.14928940847E+02  0.00000000000E+00 0. -1.
</event>
<event>
 7    1  0.2458979E-009  0.4778731E+02  0.7816164E-02  0.1312668E+00
        -11   -1    0    0    0    0  0.00000000000E+00  0.00000000000E+00  0.45593999997E+02  0.45594000000E+02  0.51100000000E-03 0. -1.
         11   -1    0    0    0    0 -0.00000000000E+00 -0.00000000000E+00 -0.45593999997E+02  0.45594000000E+02  0.51100000000E-03 0.  1.
    9900012    2    1    2    0    0 -0.25460353977E+02 -0.12914259144E+02  0.32689634499E+02  0.47787309711E+02  0.20000176295E+02 0.  0.
        -12    1    1    2    0    0  0.25460353977E+02  0.12914259144E+02 -0.32689634499E+02  0.43400690289E+02  0.00000000000E+00 0.  1.
         11    1    3    3    0    0 -0.29839159176E+01  0.42082886273E+01  0.78081376757E+01  0.93584433319E+01  0.51100000000E-03 0. -1.
        -11    1    3    3    0    0 -0.55554505470E+01 -0.85874160594E+01  0.10313705261E+02  0.14525125191E+02  0.51100000000E-03 0.  1.
         12    1    3    3    0    0 -0.16920987512E+02 -0.85351317122E+01  0.14567791563E+02  0.23903741187E+02  0.00000000000E+00 0. -1.
</event>
<event>
 7    1  0.2458979E-009  0.4778727E+02  0.7816164E-02  0.1312668E+00
        -11   -1    0    0    0    0  0.00000000000E+00  0.00000000000E+00  0.45593999997E+02  0.45594000000E+02  0.51100000000E-03 0. -1.
         11   -1    0    0    0    0 -0.00000000000E+00 -0.00000000000E+00 -0.45593999997E+02  0.45594000000E+02  0.51100000000E-03 0.  1.
    9900012    2    1    2    0    0 -0.21462445987E+02 -0.37708974634E+02 -0.10097556093E+01  0.47787274637E+02  0.20000016380E+02 0.  0.
        -12    1    1    2    0    0  0.21462445987E+02  0.37708974634E+02  0.10097556093E+01  0.43400725363E+02  0.00000000000E+00 0.  1.
         11    1    3    3    0    0 -0.12703590731E+01 -0.89557949743E+01 -0.62193702249E+01  0.10977278445E+02  0.51100000000E-03 0. -1.
        -11    1    3    3    0    0 -0.19327470954E+02 -0.27407068197E+02  0.24572451458E+01  0.33626426729E+02  0.51100000000E-03 0.  1.
         12    1    3    3    0    0 -0.86461595987E+00 -0.13461114626E+01  0.27523694698E+01  0.31835694631E+01  0.00000000000E+00 0. -1.
</event>
<event>
 7    1  0.2458979E-009  0.4778727E+02  0.7816164E-02  0.1312668E+00
        -11   -1    0    0    0    0  0.00000000000E+00  0.00000000000E+00  0.45593999997E+02  0.45594000000E+02  0.51100000000E-03 0. -1.
         11   -1    0    0    0    0 -0.00000000000E+00 -0.00000000000E+00 -0.45593999997E+02  0.45594000000E+02  0.51100000000E-03 0.  1.
    9900012    2    1    2    0    0 -0.44734852976E+01  0.42799556301E+02 -0.56399361046E+01  0.47787274550E+02  0.20000015985E+02 0.  0.
        -12    1    1    2    0    0  0.44734852976E+01 -0.42799556301E+02  0.56399361046E+01  0.43400725450E+02  0.00000000000E+00 0.  1.
         11    1    3    3    0    0 -0.29912271291E+01  0.72006993889E+01 -0.16893815512E+00  0.77991058326E+01  0.51100000000E-03 0. -1.
        -11    1    3    3    0    0 -0.87805802489E+01  0.14408105432E+02  0.18234554920E+00  0.16873806382E+02  0.51100000000E-03 0.  1.
        -12    1    3    3    0    0  0.72983220803E+01  0.21190751480E+02 -0.56533434987E+01  0.23114362336E+02  0.00000000000E+00 0.  1.
</event>
<event>
 7    1  0.2458979E-009  0.4778727E+02  0.7816164E-02  0.1312668E+00
        -11   -1    0    0    0    0  0.00000000000E+00  0.00000000000E+00  0.45593999997E+02  0.45594000000E+02  0.51100000000E-03 0.  1.
         11   -1    0    0    0    0 -0.00000000000E+00 -0.00000000000E+00 -0.45593999997E+02  0.45594000000E+02  0.51100000000E-03 0. -1.
    9900012    2    1    2    0    0  0.22589438988E+02  0.36201033374E+02 -0.79262740060E+01  0.47787269698E+02  0.19999993863E+02 0.  0.
        -12    1    1    2    0    0 -0.22589438988E+02 -0.36201033374E+02  0.79262740060E+01  0.43400730302E+02  0.00000000000E+00 0.  1.
         11    1    3    3    0    0  0.71029277495E+01  0.95266959989E+01  0.45378291180E+01  0.12720118421E+02  0.51100000000E-03 0.  1.
        -11    1    3    3    0    0  0.13554788202E+02  0.21828048073E+02 -0.14457194082E+02  0.29482307014E+02  0.51100000000E-03 0. -1.
         12    1    3    3    0    0  0.19317230357E+01  0.48462893016E+01  0.19930909582E+01  0.55848442637E+01  0.00000000000E+00 0. -1.
</event>
<event>
 7    1  0.2458979E-009  0.4778727E+02  0.7816164E-02  0.1312668E+00
        -11   -1    0    0    0    0  0.00000000000E+00  0.00000000000E+00  0.45593999997E+02  0.45594000000E+02  0.51100000000E-03 0.  1.
         11   -1    0    0    0    0 -0.00000000000E+00 -0.00000000000E+00 -0.45593999997E+02  0.45594000000E+02  0.51100000000E-03 0. -1.
    9900012    2    1    2    0    0  0.15599256929E+02 -0.40229852744E+02  0.46739188042E+01  0.47787269758E+02  0.19999994135E+02 0.  0.
        -12    1    1    2    0    0 -0.15599256929E+02  0.40229852744E+02 -0.46739188042E+01  0.43400730242E+02  0.00000000000E+00 0.  1.
         11    1    3    3    0    0  0.14026828041E+02 -0.15749386562E+02  0.46516620242E+01  0.21597060953E+02  0.51100000000E-03 0. -1.
        -11    1    3    3    0    0 -0.12891192456E+01 -0.70095770126E+01 -0.38025345172E+01  0.80780732443E+01  0.51100000000E-03 0.  1.
        -12    1    3    3    0    0  0.28615481332E+01 -0.17470889170E+02  0.38247912971E+01  0.18112135560E+02  0.00000000000E+00 0.  1.
</event>
<event>
 7    1  0.2458979E-009  0.4778727E+02  0.7816164E-02  0.1312668E+00
        -11   -1    0    0    0    0  0.00000000000E+00  0.00000000000E+00  0.45593999997E+02  0.45594000000E+02  0.51100000000E-03 0.  1.
         11   -1    0    0    0    0 -0.00000000000E+00 -0.00000000000E+00 -0.45593999997E+02  0.45594000000E+02  0.51100000000E-03 0. -1.
    9900012    2    1    2    0    0 -0.35553056465E+02  0.23740499388E+02 -0.74827923992E+01  0.47787270544E+02  0.19999997718E+02 0.  0.
        -12    1    1    2    0    0  0.35553056465E+02 -0.23740499388E+02  0.74827923992E+01  0.43400729456E+02  0.00000000000E+00 0.  1.
         11    1    3    3    0    0 -0.11519300778E+02  0.13193558496E+02 -0.85055030810E+01  0.19470692312E+02  0.51100000000E-03 0. -1.
        -11    1    3    3    0    0 -0.12239400473E+00  0.28697638128E+01 -0.11827155541E+01  0.31063388380E+01  0.51100000000E-03 0.  1.
         12    1    3    3    0    0 -0.23911361682E+02  0.76771770800E+01  0.22054262359E+01  0.25210239394E+02  0.00000000000E+00 0. -1.
</event>
<event>
 7    1  0.2458979E-009  0.4778728E+02  0.7816164E-02  0.1312668E+00
        -11   -1    0    0    0    0  0.00000000000E+00  0.00000000000E+00  0.45593999997E+02  0.45594000000E+02  0.51100000000E-03 0.  1.
         11   -1    0    0    0    0 -0.00000000000E+00 -0.00000000000E+00 -0.45593999997E+02  0.45594000000E+02  0.51100000000E-03 0. -1.
    9900012    2    1    2    0    0 -0.36330404546E+01  0.43129170258E+02 -0.32091308101E+01  0.47787276151E+02  0.20000023282E+02 0.  0.
        -12    1    1    2    0    0  0.36330404546E+01 -0.43129170258E+02  0.32091308101E+01  0.43400723849E+02  0.00000000000E+00 0.  1.
         11    1    3    3    0    0 -0.10594865339E+01  0.22748819215E+02 -0.49966628456E+01  0.23315186623E+02  0.51100000000E-03 0. -1.
        -11    1    3    3    0    0 -0.17446846005E+01 -0.12790507966E+01  0.17726689056E+01  0.27968286693E+01  0.51100000000E-03 0.  1.
        -12    1    3    3    0    0 -0.82886932027E+00  0.21659401839E+02  0.14863129947E-01  0.21675260859E+02  0.00000000000E+00 0.  1.
</event>
<event>
 7    1  0.2458979E-009  0.4778728E+02  0.7816164E-02  0.1312668E+00
        -11   -1    0    0    0    0  0.00000000000E+00  0.00000000000E+00  0.45593999997E+02  0.45594000000E+02  0.51100000000E-03 0.  1.
         11   -1    0    0    0    0 -0.00000000000E+00 -0.00000000000E+00 -0.45593999997E+02  0.45594000000E+02  0.51100000000E-03 0. -1.
    9900012    2    1    2    0    0 -0.11063158813E+02  0.35157607343E+02 -0.22916629875E+02  0.47787276943E+02  0.20000026896E+02 0.  0.
        -12    1    1    2    0    0  0.11063158813E+02 -0.35157607343E+02  0.22916629875E+02  0.43400723057E+02  0.00000000000E+00 0.  1.
         11    1    3    3    0    0 -0.31439999860E+01  0.11935584664E+02  0.69952965786E+00  0.12362534497E+02  0.51100000000E-03 0. -1.
        -11    1    3    3    0    0 -0.11833633245E+01 -0.80753819194E+00 -0.10154381267E+01  0.17560129668E+01  0.51100000000E-03 0.  1.
         12    1    3    3    0    0 -0.67357955027E+01  0.24029560871E+02 -0.22600721406E+02  0.33668729480E+02  0.00000000000E+00 0. -1.
</event>
<event>
 7    1  0.2458979E-009  0.4778727E+02  0.7816164E-02  0.1312668E+00
        -11   -1    0    0    0    0  0.00000000000E+00  0.00000000000E+00  0.45593999997E+02  0.45594000000E+02  0.51100000000E-03 0.  1.
         11   -1    0    0    0    0 -0.00000000000E+00 -0.00000000000E+00 -0.45593999997E+02  0.45594000000E+02  0.51100000000E-03 0. -1.
    9900012    2    1    2    0    0 -0.40017519442E+02  0.65382323687E+00 -0.16786720971E+02  0.47787270190E+02  0.19999996104E+02 0.  0.
        -12    1    1    2    0    0  0.40017519442E+02 -0.65382323687E+00  0.16786720971E+02  0.43400729810E+02  0.00000000000E+00 0.  1.
         11    1    3    3    0    0 -0.33195458402E+02 -0.24295963483E+01 -0.19513165714E+02  0.38582444626E+02  0.51100000000E-03 0. -1.
        -11    1    3    3    0    0 -0.59304256880E+01  0.49392288010E+00  0.25065767972E+01  0.64573087392E+01  0.51100000000E-03 0.  1.
         12    1    3    3    0    0 -0.89163535186E+00  0.25894967050E+01  0.21986794574E+00  0.27475168243E+01  0.00000000000E+00 0. -1.
</event>
<event>
 7    1  0.2458979E-009  0.4778728E+02  0.7816164E-02  0.1312668E+00
        -11   -1    0    0    0    0  0.00000000000E+00  0.00000000000E+00  0.45593999997E+02  0.45594000000E+02  0.51100000000E-03 0. -1.
         11   -1    0    0    0    0 -0.00000000000E+00 -0.00000000000E+00 -0.45593999997E+02  0.45594000000E+02  0.51100000000E-03 0.  1.
    9900012    2    1    2    0    0 -0.97805607442E+01  0.16034697310E+02  0.39126097649E+02  0.47787281071E+02  0.20000045717E+02 0.  0.
        -12    1    1    2    0    0  0.97805607442E+01 -0.16034697310E+02 -0.39126097649E+02  0.43400718929E+02  0.00000000000E+00 0.  1.
         11    1    3    3    0    0 -0.77102900264E+01  0.11482741097E+02  0.20735531000E+02  0.24925171243E+02  0.51100000000E-03 0. -1.
        -11    1    3    3    0    0  0.23186743963E+01 -0.26406561253E+01  0.11926916327E+01  0.37110415411E+01  0.51100000000E-03 0.  1.
        -12    1    3    3    0    0 -0.43889451141E+01  0.71926123384E+01  0.17197875016E+02  0.19151068287E+02  0.00000000000E+00 0.  1.
</event>
<event>
 7    1  0.2458979E-009  0.4778729E+02  0.7816164E-02  0.1312668E+00
        -11   -1    0    0    0    0  0.00000000000E+00  0.00000000000E+00  0.45593999997E+02  0.45594000000E+02  0.51100000000E-03 0.  1.
         11   -1    0    0    0    0 -0.00000000000E+00 -0.00000000000E+00 -0.45593999997E+02  0.45594000000E+02  0.51100000000E-03 0. -1.
    9900012    2    1    2    0    0 -0.27033116687E+02  0.31962303539E+02 -0.11456134483E+02  0.47787294215E+02  0.20000105644E+02 0.  0.
        -12    1    1    2    0    0  0.27033116687E+02 -0.31962303539E+02  0.11456134483E+02  0.43400705785E+02  0.00000000000E+00 0.  1.
         11    1    3    3    0    0 -0.22180721573E+02  0.23190294066E+02 -0.39053829906E+01  0.32326864446E+02  0.51100000000E-03 0. -1.
        -11    1    3    3    0    0 -0.13736245632E+01 -0.36107104724E+00 -0.52246380645E+01  0.54142460147E+01  0.51100000000E-03 0.  1.
         12    1    3    3    0    0 -0.34787705507E+01  0.91330805211E+01 -0.23261134279E+01  0.10046183755E+02  0.00000000000E+00 0. -1.
</event>
<event>
 7    1  0.2458979E-009  0.4778729E+02  0.7816164E-02  0.1312668E+00
        -11   -1    0    0    0    0  0.00000000000E+00  0.00000000000E+00  0.45593999997E+02  0.45594000000E+02  0.51100000000E-03 0. -1.
         11   -1    0    0    0    0 -0.00000000000E+00 -0.00000000000E+00 -0.45593999997E+02  0.45594000000E+02  0.51100000000E-03 0.  1.
    9900012    2    1    2    0    0  0.34037167649E+02 -0.22428136227E+02  0.14902054334E+02  0.47787293790E+02  0.20000103706E+02 0.  0.
        -12    1    1    2    0    0 -0.34037167649E+02  0.22428136227E+02 -0.14902054334E+02  0.43400706210E+02  0.00000000000E+00 0.  1.
         11    1    3    3    0    0  0.93710221283E+01 -0.99222782771E+01  0.11069153717E+02  0.17572530444E+02  0.51100000000E-03 0. -1.
        -11    1    3    3    0    0  0.11829499751E+02 -0.10755672929E+02 -0.17972293418E+01  0.16088865655E+02  0.51100000000E-03 0.  1.
         12    1    3    3    0    0  0.12836645769E+02 -0.17501850210E+01  0.56301299590E+01  0.14125897691E+02  0.00000000000E+00 0. -1.
</event>
<event>
 7    1  0.2458979E-009  0.4778727E+02  0.7816164E-02  0.1312668E+00
        -11   -1    0    0    0    0  0.00000000000E+00  0.00000000000E+00  0.45593999997E+02  0.45594000000E+02  0.51100000000E-03 0.  1.
         11   -1    0    0    0    0 -0.00000000000E+00 -0.00000000000E+00 -0.45593999997E+02  0.45594000000E+02  0.51100000000E-03 0. -1.
    9900012    2    1    2    0    0  0.12674939974E+01  0.34485940458E+01 -0.43244925691E+02  0.47787274892E+02  0.20000017541E+02 0.  0.
        -12    1    1    2    0    0 -0.12674939974E+01 -0.34485940458E+01  0.43244925691E+02  0.43400725108E+02  0.00000000000E+00 0.  1.
         11    1    3    3    0    0  0.70086168452E+01  0.43080597877E+01 -0.32171520298E+02  0.33206728351E+02  0.51100000000E-03 0. -1.
        -11    1    3    3    0    0 -0.48219063378E+01  0.26025408827E+01 -0.44830757561E+01  0.70796870180E+01  0.51100000000E-03 0.  1.
        -12    1    3    3    0    0 -0.91921650989E+00 -0.34620066245E+01 -0.65903296364E+01  0.75008595225E+01  0.00000000000E+00 0.  1.
</event>
<event>
 7    1  0.2458979E-009  0.4778729E+02  0.7816164E-02  0.1312668E+00
        -11   -1    0    0    0    0  0.00000000000E+00  0.00000000000E+00  0.45593999997E+02  0.45594000000E+02  0.51100000000E-03 0. -1.
         11   -1    0    0    0    0 -0.00000000000E+00 -0.00000000000E+00 -0.45593999997E+02  0.45594000000E+02  0.51100000000E-03 0.  1.
    9900012    2    1    2    0    0  0.40744775076E+02 -0.14580260319E+02 -0.33016911647E+01  0.47787287430E+02  0.20000074710E+02 0.  0.
        -12    1    1    2    0    0 -0.40744775076E+02  0.14580260319E+02  0.33016911647E+01  0.43400712570E+02  0.00000000000E+00 0.  1.
         11    1    3    3    0    0  0.11418631869E+02 -0.73369043927E+01 -0.42832232874E+01  0.14232403937E+02  0.51100000000E-03 0.  1.
        -11    1    3    3    0    0  0.24595235067E+02 -0.13491434054E+01  0.47867981083E+01  0.25093011225E+02  0.51100000000E-03 0. -1.
        -12    1    3    3    0    0  0.47309081400E+01 -0.58942125208E+01 -0.38052659856E+01  0.84618722686E+01  0.00000000000E+00 0.  1.
</event>
<event>
 7    1  0.2458979E-009  0.4778727E+02  0.7816164E-02  0.1312668E+00
        -11   -1    0    0    0    0  0.00000000000E+00  0.00000000000E+00  0.45593999997E+02  0.45594000000E+02  0.51100000000E-03 0. -1.
         11   -1    0    0    0    0 -0.00000000000E+00 -0.00000000000E+00 -0.45593999997E+02  0.45594000000E+02  0.51100000000E-03 0.  1.
    9900012    2    1    2    0    0  0.16938177580E+02  0.22295309561E+02  0.33160826232E+02  0.47787273226E+02  0.20000009945E+02 0.  0.
        -12    1    1    2    0    0 -0.16938177580E+02 -0.22295309561E+02 -0.33160826232E+02  0.43400726774E+02  0.00000000000E+00 0.  1.
         11    1    3    3    0    0  0.14683093358E+02  0.10241283703E+02  0.13337205836E+02  0.22323937426E+02  0.51100000000E-03 0. -1.
        -11    1    3    3    0    0 -0.40065548279E+01  0.32954915189E+01  0.71514110011E+01  0.88348981605E+01  0.51100000000E-03 0.  1.
        -12    1    3    3    0    0  0.62616390498E+01  0.87585343396E+01  0.12672209395E+02  0.16628437639E+02  0.00000000000E+00 0.  1.
</event>
<event>
 7    1  0.2458979E-009  0.4778729E+02  0.7816164E-02  0.1312668E+00
        -11   -1    0    0    0    0  0.00000000000E+00  0.00000000000E+00  0.45593999997E+02  0.45594000000E+02  0.51100000000E-03 0.  1.
         11   -1    0    0    0    0 -0.00000000000E+00 -0.00000000000E+00 -0.45593999997E+02  0.45594000000E+02  0.51100000000E-03 0. -1.
    9900012    2    1    2    0    0 -0.36521059123E+02 -0.23444037580E+02 -0.45952978409E+00  0.47787287735E+02  0.20000076097E+02 0.  0.
        -12    1    1    2    0    0  0.36521059123E+02  0.23444037580E+02  0.45952978409E+00  0.43400712265E+02  0.00000000000E+00 0.  1.
         11    1    3    3    0    0 -0.21784091500E+02 -0.81318481894E+01  0.62044136169E+01  0.24065916688E+02  0.51100000000E-03 0. -1.
        -11    1    3    3    0    0 -0.13828795431E+02 -0.16198821322E+02 -0.54957290944E+01  0.21996373197E+02  0.51100000000E-03 0.  1.
        -12    1    3    3    0    0 -0.90817219216E+00  0.88663193166E+00 -0.11682143065E+01  0.17249978489E+01  0.00000000000E+00 0.  1.
</event>
<event>
 7    1  0.2458979E-009  0.4778727E+02  0.7816164E-02  0.1312668E+00
        -11   -1    0    0    0    0  0.00000000000E+00  0.00000000000E+00  0.45593999997E+02  0.45594000000E+02  0.51100000000E-03 0.  1.
         11   -1    0    0    0    0 -0.00000000000E+00 -0.00000000000E+00 -0.45593999997E+02  0.45594000000E+02  0.51100000000E-03 0. -1.
    9900012    2    1    2    0    0 -0.38817447044E+00 -0.31321385447E+02 -0.30040695595E+02  0.47787271232E+02  0.20000000856E+02 0.  0.
        -12    1    1    2    0    0  0.38817447044E+00  0.31321385447E+02  0.30040695595E+02  0.43400728768E+02  0.00000000000E+00 0.  1.
         11    1    3    3    0    0 -0.11718486071E+01  0.12129114241E+01  0.76021834600E+00  0.18499501279E+01  0.51100000000E-03 0. -1.
        -11    1    3    3    0    0 -0.17213125044E+01 -0.95125621859E+01 -0.38542070695E+01  0.10407048980E+02  0.51100000000E-03 0.  1.
         12    1    3    3    0    0  0.25049866411E+01 -0.23021734686E+02 -0.26946706871E+02  0.35530272124E+02  0.00000000000E+00 0. -1.
</event>
<event>
 7    1  0.2458979E-009  0.4778727E+02  0.7816164E-02  0.1312668E+00
        -11   -1    0    0    0    0  0.00000000000E+00  0.00000000000E+00  0.45593999997E+02  0.45594000000E+02  0.51100000000E-03 0. -1.
         11   -1    0    0    0    0 -0.00000000000E+00 -0.00000000000E+00 -0.45593999997E+02  0.45594000000E+02  0.51100000000E-03 0.  1.
    9900012    2    1    2    0    0 -0.32801196698E+02 -0.26466365860E+02  0.10355499340E+02  0.47787269669E+02  0.19999993731E+02 0.  0.
        -12    1    1    2    0    0  0.32801196698E+02  0.26466365860E+02 -0.10355499340E+02  0.43400730331E+02  0.00000000000E+00 0.  1.
         11    1    3    3    0    0 -0.20476251211E+02 -0.17162138959E+02  0.85642664006E+01  0.28056417029E+02  0.51100000000E-03 0. -1.
        -11    1    3    3    0    0  0.24341680011E+00  0.89362797663E+00  0.33453858839E+01  0.34712288418E+01  0.51100000000E-03 0.  1.
        -12    1    3    3    0    0 -0.12568362287E+02 -0.10197854878E+02 -0.15541529440E+01  0.16259623798E+02  0.00000000000E+00 0.  1.
</event>
<event>
 7    1  0.2458979E-009  0.4778727E+02  0.7816164E-02  0.1312668E+00
        -11   -1    0    0    0    0  0.00000000000E+00  0.00000000000E+00  0.45593999997E+02  0.45594000000E+02  0.51100000000E-03 0.  1.
         11   -1    0    0    0    0 -0.00000000000E+00 -0.00000000000E+00 -0.45593999997E+02  0.45594000000E+02  0.51100000000E-03 0. -1.
    9900012    2    1    2    0    0 -0.11215459865E+02  0.38373109662E+02 -0.16892037364E+02  0.47787274068E+02  0.20000013786E+02 0.  0.
        -12    1    1    2    0    0  0.11215459865E+02 -0.38373109662E+02  0.16892037364E+02  0.43400725932E+02  0.00000000000E+00 0.  1.
         11    1    3    3    0    0 -0.99699269472E+01  0.34393138392E+02 -0.14932337054E+02  0.38797707431E+02  0.51100000000E-03 0. -1.
        -11    1    3    3    0    0 -0.28872986835E+01  0.33539834566E+01 -0.42278305064E+01  0.61204779035E+01  0.51100000000E-03 0.  1.
         12    1    3    3    0    0  0.16417657657E+01  0.62598781347E+00  0.22681301962E+01  0.28690887332E+01  0.00000000000E+00 0. -1.
</event>
<event>
 7    1  0.2458979E-009  0.4778727E+02  0.7816164E-02  0.1312668E+00
        -11   -1    0    0    0    0  0.00000000000E+00  0.00000000000E+00  0.45593999997E+02  0.45594000000E+02  0.51100000000E-03 0.  1.
         11   -1    0    0    0    0 -0.00000000000E+00 -0.00000000000E+00 -0.45593999997E+02  0.45594000000E+02  0.51100000000E-03 0. -1.
    9900012    2    1    2    0    0  0.21170915650E+02  0.26492685652E+02 -0.27084182371E+02  0.47787274231E+02  0.20000014531E+02 0.  0.
        -12    1    1    2    0    0 -0.21170915650E+02 -0.26492685652E+02  0.27084182371E+02  0.43400725769E+02  0.00000000000E+00 0.  1.
         11    1    3    3    0    0  0.80048218600E+01  0.17352886189E+02 -0.25035256839E+02  0.31495458678E+02  0.51100000000E-03 0. -1.
        -11    1    3    3    0    0  0.44383144630E+01  0.30119384450E+01  0.29932249557E+00  0.53721506575E+01  0.51100000000E-03 0.  1.
         12    1    3    3    0    0  0.87277793268E+01  0.61278610183E+01 -0.23482480279E+01  0.10919664896E+02  0.00000000000E+00 0. -1.
</event>
<event>
 7    1  0.2458979E-009  0.4778728E+02  0.7816164E-02  0.1312668E+00
        -11   -1    0    0    0    0  0.00000000000E+00  0.00000000000E+00  0.45593999997E+02  0.45594000000E+02  0.51100000000E-03 0. -1.
         11   -1    0    0    0    0 -0.00000000000E+00 -0.00000000000E+00 -0.45593999997E+02  0.45594000000E+02  0.51100000000E-03 0.  1.
    9900012    2    1    2    0    0  0.27439563808E+02  0.29909902205E+02  0.15365250680E+02  0.47787276039E+02  0.20000022772E+02 0.  0.
        -12    1    1    2    0    0 -0.27439563808E+02 -0.29909902205E+02 -0.15365250680E+02  0.43400723961E+02  0.00000000000E+00 0.  1.
         11    1    3    3    0    0  0.41354989982E+01  0.10595182896E+02  0.14548588201E+01  0.11466336250E+02  0.51100000000E-03 0. -1.
        -11    1    3    3    0    0  0.21560038467E+02  0.94694966803E+01  0.94721602174E+01  0.25381655689E+02  0.51100000000E-03 0.  1.
        -12    1    3    3    0    0  0.17440263429E+01  0.98452226290E+01  0.44382316428E+01  0.10939284100E+02  0.00000000000E+00 0.  1.
</event>
<event>
 7    1  0.2458979E-009  0.4778727E+02  0.7816164E-02  0.1312668E+00
        -11   -1    0    0    0    0  0.00000000000E+00  0.00000000000E+00  0.45593999997E+02  0.45594000000E+02  0.51100000000E-03 0.  1.
         11   -1    0    0    0    0 -0.00000000000E+00 -0.00000000000E+00 -0.45593999997E+02  0.45594000000E+02  0.51100000000E-03 0. -1.
    9900012    2    1    2    0    0 -0.97417409538E+01  0.31090971931E+02 -0.28671815106E+02  0.47787273809E+02  0.20000012607E+02 0.  0.
        -12    1    1    2    0    0  0.97417409538E+01 -0.31090971931E+02  0.28671815106E+02  0.43400726191E+02  0.00000000000E+00 0.  1.
         11    1    3    3    0    0 -0.12639802443E+02  0.23467454032E+02 -0.23141886174E+02  0.35299191216E+02  0.51100000000E-03 0. -1.
        -11    1    3    3    0    0  0.39719300754E+01  0.66710906916E+01 -0.11124964339E+01  0.78432982932E+01  0.51100000000E-03 0.  1.
        -12    1    3    3    0    0 -0.10738685865E+01  0.95242720727E+00 -0.44174324976E+01  0.46447843004E+01  0.00000000000E+00 0.  1.
</event>
<event>
 7    1  0.2458979E-009  0.4778727E+02  0.7816164E-02  0.1312668E+00
        -11   -1    0    0    0    0  0.00000000000E+00  0.00000000000E+00  0.45593999997E+02  0.45594000000E+02  0.51100000000E-03 0. -1.
         11   -1    0    0    0    0 -0.00000000000E+00 -0.00000000000E+00 -0.45593999997E+02  0.45594000000E+02  0.51100000000E-03 0.  1.
    9900012    2    1    2    0    0  0.17276668441E+02  0.70921794916E+01  0.39177048525E+02  0.47787269436E+02  0.19999992665E+02 0.  0.
        -12    1    1    2    0    0 -0.17276668441E+02 -0.70921794916E+01 -0.39177048525E+02  0.43400730564E+02  0.00000000000E+00 0.  1.
         11    1    3    3    0    0  0.17054992759E+02  0.84714702852E+01  0.17480368124E+02  0.25849600709E+02  0.51100000000E-03 0. -1.
        -11    1    3    3    0    0  0.12731369573E+01 -0.16598470776E+01  0.16180829083E+02  0.16315489577E+02  0.51100000000E-03 0.  1.
         12    1    3    3    0    0 -0.10514612747E+01  0.28055628394E+00  0.55158513172E+01  0.56221791499E+01  0.00000000000E+00 0. -1.
</event>
<event>
 7    1  0.2458979E-009  0.4778727E+02  0.7816164E-02  0.1312668E+00
        -11   -1    0    0    0    0  0.00000000000E+00  0.00000000000E+00  0.45593999997E+02  0.45594000000E+02  0.51100000000E-03 0. -1.
         11   -1    0    0    0    0 -0.00000000000E+00 -0.00000000000E+00 -0.45593999997E+02  0.45594000000E+02  0.51100000000E-03 0.  1.
    9900012    2    1    2    0    0 -0.25980184079E+02  0.32857999536E+01  0.34610066956E+02  0.47787272117E+02  0.20000004890E+02 0.  0.
        -12    1    1    2    0    0  0.25980184079E+02 -0.32857999536E+01 -0.34610066956E+02  0.43400727883E+02  0.00000000000E+00 0.  1.
         11    1    3    3    0    0 -0.64360858312E+01  0.27110240472E+01  0.11842366600E+02  0.13748254404E+02  0.51100000000E-03 0. -1.
        -11    1    3    3    0    0 -0.20768797842E+02 -0.10696367222E+01  0.23912580909E+02  0.31690670748E+02  0.51100000000E-03 0.  1.
        -12    1    3    3    0    0  0.12246995939E+01  0.16444126286E+01 -0.11448805524E+01  0.23483469649E+01  0.00000000000E+00 0.  1.
</event>
<event>
 7    1  0.2458979E-009  0.4778727E+02  0.7816164E-02  0.1312668E+00
        -11   -1    0    0    0    0  0.00000000000E+00  0.00000000000E+00  0.45593999997E+02  0.45594000000E+02  0.51100000000E-03 0.  1.
         11   -1    0    0    0    0 -0.00000000000E+00 -0.00000000000E+00 -0.45593999997E+02  0.45594000000E+02  0.51100000000E-03 0. -1.
    9900012    2    1    2    0    0  0.38605573893E+01 -0.27063596432E+02 -0.33708770088E+02  0.47787270328E+02  0.19999996736E+02 0.  0.
        -12    1    1    2    0    0 -0.38605573893E+01  0.27063596432E+02  0.33708770088E+02  0.43400729672E+02  0.00000000000E+00 0.  1.
         11    1    3    3    0    0  0.88474968469E+01 -0.15627928145E+02 -0.92149879440E+01  0.20184804721E+02  0.51100000000E-03 0. -1.
        -11    1    3    3    0    0 -0.32800633308E+01 -0.48955430036E+01 -0.99353374449E+01  0.11551453898E+02  0.51100000000E-03 0.  1.
         12    1    3    3    0    0 -0.17068761269E+01 -0.65401252830E+01 -0.14558444699E+02  0.16051011709E+02  0.00000000000E+00 0. -1.
</event>
<event>
 7    1  0.2458979E-009  0.4778727E+02  0.7816164E-02  0.1312668E+00
        -11   -1    0    0    0    0  0.00000000000E+00  0.00000000000E+00  0.45593999997E+02  0.45594000000E+02  0.51100000000E-03 0.  1.
         11   -1    0    0    0    0 -0.00000000000E+00 -0.00000000000E+00 -0.45593999997E+02  0.45594000000E+02  0.51100000000E-03 0. -1.
    9900012    2    1    2    0    0  0.75741525766E+01 -0.40929507502E+02 -0.12289457918E+02  0.47787272500E+02  0.20000006638E+02 0.  0.
        -12    1    1    2    0    0 -0.75741525766E+01  0.40929507502E+02  0.12289457918E+02  0.43400727500E+02  0.00000000000E+00 0.  1.
         11    1    3    3    0    0 -0.45176193269E+01 -0.22699685503E+02 -0.67170687784E+01  0.24099867625E+02  0.51100000000E-03 0. -1.
        -11    1    3    3    0    0  0.83012127004E+01 -0.85652666536E+01 -0.58865369934E+01  0.13301324866E+02  0.51100000000E-03 0.  1.
        -12    1    3    3    0    0  0.37905592031E+01 -0.96645553453E+01  0.31414785405E+00  0.10386080010E+02  0.00000000000E+00 0.  1.
</event>
<event>
 7    1  0.2458979E-009  0.4778727E+02  0.7816164E-02  0.1312668E+00
        -11   -1    0    0    0    0  0.00000000000E+00  0.00000000000E+00  0.45593999997E+02  0.45594000000E+02  0.51100000000E-03 0.  1.
         11   -1    0    0    0    0 -0.00000000000E+00 -0.00000000000E+00 -0.45593999997E+02  0.45594000000E+02  0.51100000000E-03 0. -1.
    9900012    2    1    2    0    0 -0.33938272351E+02  0.15384952845E+02 -0.22251292420E+02  0.47787272833E+02  0.20000008155E+02 0.  0.
        -12    1    1    2    0    0  0.33938272351E+02 -0.15384952845E+02  0.22251292420E+02  0.43400727167E+02  0.00000000000E+00 0.  1.
         11    1    3    3    0    0 -0.15832268262E+02  0.12891658431E+02 -0.48867019077E+01  0.20993699799E+02  0.51100000000E-03 0. -1.
        -11    1    3    3    0    0 -0.81295515925E+01  0.41727459290E+01 -0.12718682382E+02  0.15660980157E+02  0.51100000000E-03 0.  1.
         12    1    3    3    0    0 -0.99764524965E+01 -0.16794515153E+01 -0.46459081305E+01  0.11132592877E+02  0.00000000000E+00 0. -1.
</event>
<event>
 7    1  0.2458979E-009  0.4778727E+02  0.7816164E-02  0.1312668E+00
        -11   -1    0    0    0    0  0.00000000000E+00  0.00000000000E+00  0.45593999997E+02  0.45594000000E+02  0.51100000000E-03 0. -1.
         11   -1    0    0    0    0 -0.00000000000E+00 -0.00000000000E+00 -0.45593999997E+02  0.45594000000E+02  0.51100000000E-03 0.  1.
    9900012    2    1    2    0    0  0.53448541602E+01 -0.16949024867E+02  0.39595280067E+02  0.47787272892E+02  0.20000008422E+02 0.  0.
        -12    1    1    2    0    0 -0.53448541602E+01  0.16949024867E+02 -0.39595280067E+02  0.43400727108E+02  0.00000000000E+00 0.  1.
         11    1    3    3    0    0  0.13862421565E+01 -0.39316010759E+01  0.22379061784E+02  0.22764040962E+02  0.51100000000E-03 0. -1.
        -11    1    3    3    0    0  0.41255068581E+01 -0.29270732203E+01 -0.10228361600E-01  0.50584255805E+01  0.51100000000E-03 0.  1.
        -12    1    3    3    0    0 -0.16689485441E+00 -0.10090350570E+02  0.17226446645E+02  0.19964806349E+02  0.00000000000E+00 0.  1.
</event>
<event>
 7    1  0.2458979E-009  0.4778727E+02  0.7816164E-02  0.1312668E+00
        -11   -1    0    0    0    0  0.00000000000E+00  0.00000000000E+00  0.45593999997E+02  0.45594000000E+02  0.51100000000E-03 0. -1.
         11   -1    0    0    0    0 -0.00000000000E+00 -0.00000000000E+00 -0.45593999997E+02  0.45594000000E+02  0.51100000000E-03 0.  1.
    9900012    2    1    2    0    0  0.25808163515E+02  0.34872681730E+02  0.12076980773E+01  0.47787265332E+02  0.19999973955E+02 0.  0.
        -12    1    1    2    0    0 -0.25808163515E+02 -0.34872681730E+02 -0.12076980773E+01  0.43400734668E+02  0.00000000000E+00 0.  1.
         11    1    3    3    0    0  0.66521142732E+01  0.14411969884E+02  0.49962149124E+01  0.16640843247E+02  0.51100000000E-03 0. -1.
        -11    1    3    3    0    0  0.18904681578E+02  0.20012370632E+02 -0.65823991474E+01  0.28305652133E+02  0.51100000000E-03 0.  1.
        -12    1    3    3    0    0  0.25136766401E+00  0.44834121383E+00  0.27938823123E+01  0.28407699522E+01  0.00000000000E+00 0.  1.
</event>
<event>
 7    1  0.2458979E-009  0.4778727E+02  0.7816164E-02  0.1312668E+00
        -11   -1    0    0    0    0  0.00000000000E+00  0.00000000000E+00  0.45593999997E+02  0.45594000000E+02  0.51100000000E-03 0. -1.
         11   -1    0    0    0    0 -0.00000000000E+00 -0.00000000000E+00 -0.45593999997E+02  0.45594000000E+02  0.51100000000E-03 0.  1.
    9900012    2    1    2    0    0 -0.22419698901E+02 -0.65050195025E+01  0.36587773563E+02  0.47787270146E+02  0.19999995905E+02 0.  0.
        -12    1    1    2    0    0  0.22419698901E+02  0.65050195025E+01 -0.36587773563E+02  0.43400729854E+02  0.00000000000E+00 0.  1.
         11    1    3    3    0    0 -0.15771656515E+02 -0.52932661489E+01  0.11783927938E+02  0.20386877487E+02  0.51100000000E-03 0. -1.
        -11    1    3    3    0    0 -0.39996452875E+01  0.40732798034E+01  0.13037310507E+02  0.14232365801E+02  0.51100000000E-03 0.  1.
         12    1    3    3    0    0 -0.26483970989E+01 -0.52850331570E+01  0.11766535117E+02  0.13168026858E+02  0.00000000000E+00 0. -1.
</event>
<event>
 7    1  0.2458979E-009  0.4778728E+02  0.7816164E-02  0.1312668E+00
        -11   -1    0    0    0    0  0.00000000000E+00  0.00000000000E+00  0.45593999997E+02  0.45594000000E+02  0.51100000000E-03 0. -1.
         11   -1    0    0    0    0 -0.00000000000E+00 -0.00000000000E+00 -0.45593999997E+02  0.45594000000E+02  0.51100000000E-03 0.  1.
    9900012    2    1    2    0    0 -0.32830684868E+02 -0.28096940568E+02 -0.40411256408E+01  0.47787278409E+02  0.20000033576E+02 0.  0.
        -12    1    1    2    0    0  0.32830684868E+02  0.28096940568E+02  0.40411256408E+01  0.43400721591E+02  0.00000000000E+00 0.  1.
         11    1    3    3    0    0 -0.42501488455E+01 -0.84164216220E+01 -0.50889935599E+00  0.94423988977E+01  0.51100000000E-03 0. -1.
        -11    1    3    3    0    0 -0.15042989436E+02 -0.15069596331E+02 -0.88883847003E+01  0.23073526987E+02  0.51100000000E-03 0.  1.
        -12    1    3    3    0    0 -0.13537546587E+02 -0.46109226153E+01  0.53561584155E+01  0.15271352524E+02  0.00000000000E+00 0.  1.
</event>
<event>
 7    1  0.2458979E-009  0.4778727E+02  0.7816164E-02  0.1312668E+00
        -11   -1    0    0    0    0  0.00000000000E+00  0.00000000000E+00  0.45593999997E+02  0.45594000000E+02  0.51100000000E-03 0. -1.
         11   -1    0    0    0    0 -0.00000000000E+00 -0.00000000000E+00 -0.45593999997E+02  0.45594000000E+02  0.51100000000E-03 0.  1.
    9900012    2    1    2    0    0  0.31217423322E+02 -0.30087449139E+02 -0.19598332902E+01  0.47787273496E+02  0.20000011178E+02 0.  0.
        -12    1    1    2    0    0 -0.31217423322E+02  0.30087449139E+02  0.19598332902E+01  0.43400726504E+02  0.00000000000E+00 0.  1.
         11    1    3    3    0    0  0.33141269028E+01 -0.11324086999E+02  0.53986093601E+01  0.12975491003E+02  0.51100000000E-03 0. -1.
        -11    1    3    3    0    0  0.17502276021E+02 -0.10031395828E+02 -0.65394200210E+01  0.21206663638E+02  0.51100000000E-03 0.  1.
         12    1    3    3    0    0  0.10401020398E+02 -0.87319663121E+01 -0.81902262926E+00  0.13605118855E+02  0.00000000000E+00 0. -1.
</event>
<event>
 7    1  0.2458979E-009  0.4778727E+02  0.7816164E-02  0.1312668E+00
        -11   -1    0    0    0    0  0.00000000000E+00  0.00000000000E+00  0.45593999997E+02  0.45594000000E+02  0.51100000000E-03 0. -1.
         11   -1    0    0    0    0 -0.00000000000E+00 -0.00000000000E+00 -0.45593999997E+02  0.45594000000E+02  0.51100000000E-03 0.  1.
    9900012    2    1    2    0    0 -0.86439309968E+01  0.10265225044E+02  0.41273853281E+02  0.47787270133E+02  0.19999995846E+02 0.  0.
        -12    1    1    2    0    0  0.86439309968E+01 -0.10265225044E+02 -0.41273853281E+02  0.43400729867E+02  0.00000000000E+00 0.  1.
         11    1    3    3    0    0  0.68007099892E+00  0.65231233315E+01  0.28206299915E+02  0.28958746342E+02  0.51100000000E-03 0. -1.
        -11    1    3    3    0    0 -0.87462380876E+01 -0.49803332279E+00  0.11039126869E+02  0.14092801005E+02  0.51100000000E-03 0.  1.
         12    1    3    3    0    0 -0.57776390815E+00  0.42401350355E+01  0.20284264973E+01  0.47357227862E+01  0.00000000000E+00 0. -1.
</event>
<event>
 7    1  0.2458979E-009  0.4778721E+02  0.7816164E-02  0.1312668E+00
        -11   -1    0    0    0    0  0.00000000000E+00  0.00000000000E+00  0.45593999997E+02  0.45594000000E+02  0.51100000000E-03 0. -1.
         11   -1    0    0    0    0 -0.00000000000E+00 -0.00000000000E+00 -0.45593999997E+02  0.45594000000E+02  0.51100000000E-03 0.  1.
    9900012    2    1    2    0    0  0.20588880427E+02 -0.10740546585E+02  0.36665610164E+02  0.47787213061E+02  0.19999735631E+02 0.  0.
        -12    1    1    2    0    0 -0.20588880427E+02  0.10740546585E+02 -0.36665610164E+02  0.43400786939E+02  0.00000000000E+00 0.  1.
         11    1    3    3    0    0  0.98766448819E+01 -0.11301413948E+02  0.24431327915E+02  0.28673330036E+02  0.51100000000E-03 0. -1.
        -11    1    3    3    0    0  0.12234697143E+02  0.14121388534E+01  0.84181904990E+01  0.14918038807E+02  0.51100000000E-03 0.  1.
         12    1    3    3    0    0 -0.15224615976E+01 -0.85127149041E+00  0.38160917496E+01  0.41958442187E+01  0.00000000000E+00 0. -1.
</event>
<event>
 7    1  0.2458979E-009  0.4778727E+02  0.7816164E-02  0.1312668E+00
        -11   -1    0    0    0    0  0.00000000000E+00  0.00000000000E+00  0.45593999997E+02  0.45594000000E+02  0.51100000000E-03 0.  1.
         11   -1    0    0    0    0 -0.00000000000E+00 -0.00000000000E+00 -0.45593999997E+02  0.45594000000E+02  0.51100000000E-03 0. -1.
    9900012    2    1    2    0    0  0.40190840826E+02  0.50222385067E+00 -0.16372763830E+02  0.47787270622E+02  0.19999998072E+02 0.  0.
        -12    1    1    2    0    0 -0.40190840826E+02 -0.50222385067E+00  0.16372763830E+02  0.43400729378E+02  0.00000000000E+00 0.  1.
         11    1    3    3    0    0  0.71917585228E+01 -0.46895831308E+01 -0.55796792059E+01  0.10239453154E+02  0.51100000000E-03 0. -1.
        -11    1    3    3    0    0  0.27457443288E+02  0.32044422503E+01 -0.30365189930E+01  0.27810071735E+02  0.51100000000E-03 0.  1.
        -12    1    3    3    0    0  0.55416390151E+01  0.19873647312E+01 -0.77565656315E+01  0.97377457321E+01  0.00000000000E+00 0.  1.
</event>
<event>
 7    1  0.2458979E-009  0.4778727E+02  0.7816164E-02  0.1312668E+00
        -11   -1    0    0    0    0  0.00000000000E+00  0.00000000000E+00  0.45593999997E+02  0.45594000000E+02  0.51100000000E-03 0.  1.
         11   -1    0    0    0    0 -0.00000000000E+00 -0.00000000000E+00 -0.45593999997E+02  0.45594000000E+02  0.51100000000E-03 0. -1.
    9900012    2    1    2    0    0  0.14528891769E+02 -0.26157573898E+02 -0.31437496839E+02  0.47787267566E+02  0.19999984140E+02 0.  0.
        -12    1    1    2    0    0 -0.14528891769E+02  0.26157573898E+02  0.31437496839E+02  0.43400732434E+02  0.00000000000E+00 0.  1.
         11    1    3    3    0    0  0.94192698943E+01 -0.12236901763E+01 -0.12216829692E+02  0.15474850273E+02  0.51100000000E-03 0. -1.
        -11    1    3    3    0    0  0.31749791856E+01 -0.18191733673E+02 -0.16579765217E+02  0.24817499507E+02  0.51100000000E-03 0.  1.
        -12    1    3    3    0    0  0.19346426894E+01 -0.67421500485E+01 -0.26409019308E+01  0.74949177861E+01  0.00000000000E+00 0.  1.
</event>
<event>
 7    1  0.2458979E-009  0.4778727E+02  0.7816164E-02  0.1312668E+00
        -11   -1    0    0    0    0  0.00000000000E+00  0.00000000000E+00  0.45593999997E+02  0.45594000000E+02  0.51100000000E-03 0.  1.
         11   -1    0    0    0    0 -0.00000000000E+00 -0.00000000000E+00 -0.45593999997E+02  0.45594000000E+02  0.51100000000E-03 0. -1.
    9900012    2    1    2    0    0  0.22426474509E+02  0.17963429863E+02 -0.32526779879E+02  0.47787274423E+02  0.20000015403E+02 0.  0.
        -12    1    1    2    0    0 -0.22426474509E+02 -0.17963429863E+02  0.32526779879E+02  0.43400725577E+02  0.00000000000E+00 0.  1.
         11    1    3    3    0    0 -0.39459209429E+00 -0.18952256456E+01  0.53390360094E+00  0.20081425460E+01  0.51100000000E-03 0. -1.
        -11    1    3    3    0    0  0.94978891955E+01  0.11703224736E+02 -0.10624842443E+02  0.18440787553E+02  0.51100000000E-03 0.  1.
         12    1    3    3    0    0  0.13323177408E+02  0.81554307728E+01 -0.22435841037E+02  0.27338344324E+02  0.00000000000E+00 0. -1.
</event>
<event>
 7    1  0.2458979E-009  0.4778723E+02  0.7816164E-02  0.1312668E+00
        -11   -1    0    0    0    0  0.00000000000E+00  0.00000000000E+00  0.45593999997E+02  0.45594000000E+02  0.51100000000E-03 0.  1.
         11   -1    0    0    0    0 -0.00000000000E+00 -0.00000000000E+00 -0.45593999997E+02  0.45594000000E+02  0.51100000000E-03 0. -1.
    9900012    2    1    2    0    0  0.29703833412E+02 -0.31593653239E+02  0.17748701630E+01  0.47787230324E+02  0.19999814339E+02 0.  0.
        -12    1    1    2    0    0 -0.29703833412E+02  0.31593653239E+02 -0.17748701630E+01  0.43400769676E+02  0.00000000000E+00 0.  1.
         11    1    3    3    0    0  0.13025316193E+02 -0.60726388072E+01  0.80161892305E+01  0.16455852881E+02  0.51100000000E-03 0. -1.
        -11    1    3    3    0    0  0.75508099115E+01 -0.14182938903E+02 -0.21444477914E+01  0.16210155547E+02  0.51100000000E-03 0.  1.
         12    1    3    3    0    0  0.91277073079E+01 -0.11338075529E+02 -0.40968712761E+01  0.15121221897E+02  0.00000000000E+00 0. -1.
</event>
<event>
 7    1  0.2458979E-009  0.4778727E+02  0.7816164E-02  0.1312668E+00
        -11   -1    0    0    0    0  0.00000000000E+00  0.00000000000E+00  0.45593999997E+02  0.45594000000E+02  0.51100000000E-03 0. -1.
         11   -1    0    0    0    0 -0.00000000000E+00 -0.00000000000E+00 -0.45593999997E+02  0.45594000000E+02  0.51100000000E-03 0.  1.
    9900012    2    1    2    0    0  0.34282939585E+02  0.22444447661E+02  0.14302101600E+02  0.47787270887E+02  0.19999999283E+02 0.  0.
        -12    1    1    2    0    0 -0.34282939585E+02 -0.22444447661E+02 -0.14302101600E+02  0.43400729113E+02  0.00000000000E+00 0.  1.
         11    1    3    3    0    0  0.20321004191E+02  0.13867065826E+02  0.38215318330E+01  0.24896642982E+02  0.51100000000E-03 0. -1.
        -11    1    3    3    0    0  0.12705765932E+02  0.44587594760E+01  0.12279811419E+02  0.18223907175E+02  0.51100000000E-03 0.  1.
        -12    1    3    3    0    0  0.12561694621E+01  0.41186223584E+01 -0.17992416528E+01  0.46667207302E+01  0.00000000000E+00 0.  1.
</event>
<event>
 7    1  0.2458979E-009  0.4778727E+02  0.7816164E-02  0.1312668E+00
        -11   -1    0    0    0    0  0.00000000000E+00  0.00000000000E+00  0.45593999997E+02  0.45594000000E+02  0.51100000000E-03 0.  1.
         11   -1    0    0    0    0 -0.00000000000E+00 -0.00000000000E+00 -0.45593999997E+02  0.45594000000E+02  0.51100000000E-03 0. -1.
    9900012    2    1    2    0    0  0.67927462923E+01  0.40597001728E+02  0.13761015626E+02  0.47787268410E+02  0.19999987989E+02 0.  0.
        -12    1    1    2    0    0 -0.67927462923E+01 -0.40597001728E+02 -0.13761015626E+02  0.43400731590E+02  0.00000000000E+00 0.  1.
         11    1    3    3    0    0  0.76458581005E+01  0.18481974475E+02 -0.27277002224E+01  0.20186205075E+02  0.51100000000E-03 0. -1.
        -11    1    3    3    0    0 -0.72826999694E+00  0.17130699974E+02  0.12598219770E+02  0.21276898280E+02  0.51100000000E-03 0.  1.
         12    1    3    3    0    0 -0.12484181121E+00  0.49843272790E+01  0.38904960788E+01  0.63241650548E+01  0.00000000000E+00 0. -1.
</event>
<event>
 7    1  0.2458979E-009  0.4778727E+02  0.7816164E-02  0.1312668E+00
        -11   -1    0    0    0    0  0.00000000000E+00  0.00000000000E+00  0.45593999997E+02  0.45594000000E+02  0.51100000000E-03 0. -1.
         11   -1    0    0    0    0 -0.00000000000E+00 -0.00000000000E+00 -0.45593999997E+02  0.45594000000E+02  0.51100000000E-03 0.  1.
    9900012    2    1    2    0    0 -0.35883494064E+02 -0.22336314422E+02  0.98532904435E+01  0.47787269352E+02  0.19999992283E+02 0.  0.
        -12    1    1    2    0    0  0.35883494064E+02  0.22336314422E+02 -0.98532904435E+01  0.43400730648E+02  0.00000000000E+00 0.  1.
         11    1    3    3    0    0 -0.57610097360E+01 -0.83924248305E+01 -0.14994513942E+01  0.10289333431E+02  0.51100000000E-03 0. -1.
        -11    1    3    3    0    0 -0.30991510722E+01 -0.15709160516E+01 -0.29094995506E+01  0.45318542017E+01  0.51100000000E-03 0.  1.
         12    1    3    3    0    0 -0.27023333256E+02 -0.12372973540E+02  0.14262241388E+02  0.32966081719E+02  0.00000000000E+00 0. -1.
</event>
<event>
 7    1  0.2458979E-009  0.4778726E+02  0.7816164E-02  0.1312668E+00
        -11   -1    0    0    0    0  0.00000000000E+00  0.00000000000E+00  0.45593999997E+02  0.45594000000E+02  0.51100000000E-03 0.  1.
         11   -1    0    0    0    0 -0.00000000000E+00 -0.00000000000E+00 -0.45593999997E+02  0.45594000000E+02  0.51100000000E-03 0. -1.
    9900012    2    1    2    0    0  0.19346673126E+02  0.36009232733E+02 -0.14583059676E+02  0.47787260000E+02  0.19999949643E+02 0.  0.
        -12    1    1    2    0    0 -0.19346673126E+02 -0.36009232733E+02  0.14583059676E+02  0.43400740000E+02  0.00000000000E+00 0.  1.
         11    1    3    3    0    0 -0.14149027461E+01  0.14872607856E+02 -0.71719743564E+01  0.16572073818E+02  0.51100000000E-03 0. -1.
        -11    1    3    3    0    0  0.16686640634E+02  0.19918231803E+02 -0.55380391361E+01  0.26567834152E+02  0.51100000000E-03 0.  1.
         12    1    3    3    0    0  0.40749352376E+01  0.12183930743E+01 -0.18730461840E+01  0.46473520290E+01  0.00000000000E+00 0. -1.
</event>
<event>
 7    1  0.2458979E-009  0.4778727E+02  0.7816164E-02  0.1312668E+00
        -11   -1    0    0    0    0  0.00000000000E+00  0.00000000000E+00  0.45593999997E+02  0.45594000000E+02  0.51100000000E-03 0. -1.
         11   -1    0    0    0    0 -0.00000000000E+00 -0.00000000000E+00 -0.45593999997E+02  0.45594000000E+02  0.51100000000E-03 0.  1.
    9900012    2    1    2    0    0 -0.43011397963E+02  0.45209006123E+01  0.36337898911E+01  0.47787270444E+02  0.19999997260E+02 0.  0.
        -12    1    1    2    0    0  0.43011397963E+02 -0.45209006123E+01 -0.36337898911E+01  0.43400729556E+02  0.00000000000E+00 0.  1.
         11    1    3    3    0    0 -0.29344446878E+02  0.35564706060E+01  0.68966047283E+01  0.30353059200E+02  0.51100000000E-03 0. -1.
        -11    1    3    3    0    0 -0.98058549616E+01  0.28966587671E+01 -0.64309086727E+01  0.12078990445E+02  0.51100000000E-03 0.  1.
         12    1    3    3    0    0 -0.38610961230E+01 -0.19322287607E+01  0.31680938355E+01  0.53552207989E+01  0.00000000000E+00 0. -1.
</event>
<event>
 7    1  0.2458979E-009  0.4778727E+02  0.7816164E-02  0.1312668E+00
        -11   -1    0    0    0    0  0.00000000000E+00  0.00000000000E+00  0.45593999997E+02  0.45594000000E+02  0.51100000000E-03 0.  1.
         11   -1    0    0    0    0 -0.00000000000E+00 -0.00000000000E+00 -0.45593999997E+02  0.45594000000E+02  0.51100000000E-03 0. -1.
    9900012    2    1    2    0    0 -0.24779200384E+02 -0.20001751153E+02 -0.29488047583E+02  0.47787265316E+02  0.19999973880E+02 0.  0.
        -12    1    1    2    0    0  0.24779200384E+02  0.20001751153E+02  0.29488047583E+02  0.43400734684E+02  0.00000000000E+00 0.  1.
         11    1    3    3    0    0 -0.35823529133E+01 -0.14582553055E+00 -0.34620069273E+00  0.36019956499E+01  0.51100000000E-03 0. -1.
        -11    1    3    3    0    0 -0.15624789272E+02 -0.18032785704E+02 -0.13351941127E+02  0.27342087195E+02  0.51100000000E-03 0.  1.
        -12    1    3    3    0    0 -0.55720581988E+01 -0.18231399188E+01 -0.15789905763E+02  0.16843182471E+02  0.00000000000E+00 0.  1.
</event>
<event>
 7    1  0.2458979E-009  0.4778727E+02  0.7816164E-02  0.1312668E+00
        -11   -1    0    0    0    0  0.00000000000E+00  0.00000000000E+00  0.45593999997E+02  0.45594000000E+02  0.51100000000E-03 0. -1.
         11   -1    0    0    0    0 -0.00000000000E+00 -0.00000000000E+00 -0.45593999997E+02  0.45594000000E+02  0.51100000000E-03 0.  1.
    9900012    2    1    2    0    0  0.10880495766E+02 -0.20928325054E+02  0.36431353201E+02  0.47787268742E+02  0.19999989504E+02 0.  0.
        -12    1    1    2    0    0 -0.10880495766E+02  0.20928325054E+02 -0.36431353201E+02  0.43400731258E+02  0.00000000000E+00 0.  1.
         11    1    3    3    0    0  0.15001444219E+02 -0.14281351352E+02  0.23499982540E+02  0.31324902310E+02  0.51100000000E-03 0. -1.
        -11    1    3    3    0    0 -0.43145703637E+01 -0.26171374638E+01  0.10750995677E+02  0.11876398201E+02  0.51100000000E-03 0.  1.
         12    1    3    3    0    0  0.19362191085E+00 -0.40298362375E+01  0.21803749842E+01  0.45859682311E+01  0.00000000000E+00 0. -1.
</event>
<event>
 7    1  0.2458979E-009  0.4778727E+02  0.7816164E-02  0.1312668E+00
        -11   -1    0    0    0    0  0.00000000000E+00  0.00000000000E+00  0.45593999997E+02  0.45594000000E+02  0.51100000000E-03 0. -1.
         11   -1    0    0    0    0 -0.00000000000E+00 -0.00000000000E+00 -0.45593999997E+02  0.45594000000E+02  0.51100000000E-03 0.  1.
    9900012    2    1    2    0    0  0.13980270973E+01  0.39839081292E+02 -0.17161476191E+02  0.47787272552E+02  0.20000006872E+02 0.  0.
        -12    1    1    2    0    0 -0.13980270973E+01 -0.39839081292E+02  0.17161476191E+02  0.43400727448E+02  0.00000000000E+00 0.  1.
         11    1    3    3    0    0  0.22331178747E+01  0.34043526608E+02 -0.16560193803E+02  0.37923456309E+02  0.51100000000E-03 0. -1.
        -11    1    3    3    0    0 -0.15232986568E+01 -0.50237726298E+00 -0.27418327102E+01  0.31765497925E+01  0.51100000000E-03 0.  1.
         12    1    3    3    0    0  0.68820787938E+00  0.62979319474E+01  0.21405503217E+01  0.66872664504E+01  0.00000000000E+00 0. -1.
</event>
<event>
 7    1  0.2992167E-009  0.4778727E+02  0.7816164E-02  0.1312668E+00
        -11   -1    0    0    0    0  0.00000000000E+00  0.00000000000E+00  0.45593999997E+02  0.45594000000E+02  0.51100000000E-03 0. -1.
         11   -1    0    0    0    0 -0.00000000000E+00 -0.00000000000E+00 -0.45593999997E+02  0.45594000000E+02  0.51100000000E-03 0.  1.
    9900012    2    1    2    0    0  0.58112083819E+01 -0.51126634417E+01  0.42704960730E+02  0.47787272572E+02  0.20000006966E+02 0.  0.
        -12    1    1    2    0    0 -0.58112083819E+01  0.51126634417E+01 -0.42704960730E+02  0.43400727428E+02  0.00000000000E+00 0.  1.
         11    1    3    3    0    0 -0.89349271813E+00 -0.91088250832E+00  0.11586937888E+02  0.11656979285E+02  0.51100000000E-03 0. -1.
        -11    1    3    3    0    0  0.46416276124E+01  0.60446993607E+01  0.16335765750E+02  0.18026101635E+02  0.51100000000E-03 0.  1.
        -12    1    3    3    0    0  0.20630734876E+01 -0.10246480294E+02  0.14782257092E+02  0.18104191652E+02  0.00000000000E+00 0.  1.
</event>
<event>
 7    1  0.2458979E-009  0.4778726E+02  0.7816164E-02  0.1312668E+00
        -11   -1    0    0    0    0  0.00000000000E+00  0.00000000000E+00  0.45593999997E+02  0.45594000000E+02  0.51100000000E-03 0. -1.
         11   -1    0    0    0    0 -0.00000000000E+00 -0.00000000000E+00 -0.45593999997E+02  0.45594000000E+02  0.51100000000E-03 0.  1.
    9900012    2    1    2    0    0 -0.64284560301E+01  0.37889187271E+02  0.20167015699E+02  0.47787261743E+02  0.19999957593E+02 0.  0.
        -12    1    1    2    0    0  0.64284560301E+01 -0.37889187271E+02 -0.20167015699E+02  0.43400738257E+02  0.00000000000E+00 0.  1.
         11    1    3    3    0    0 -0.45857329804E+01  0.32990461438E+02  0.12188557502E+02  0.35467737835E+02  0.51100000000E-03 0. -1.
        -11    1    3    3    0    0  0.18416183174E+01 -0.93715171337E+00  0.46626601556E+00  0.21183048929E+01  0.51100000000E-03 0.  1.
         12    1    3    3    0    0 -0.36843413670E+01  0.58358775468E+01  0.75121921809E+01  0.10201219016E+02  0.00000000000E+00 0. -1.
</event>
<event>
 7    1  0.2458979E-009  0.4778726E+02  0.7816164E-02  0.1312668E+00
        -11   -1    0    0    0    0  0.00000000000E+00  0.00000000000E+00  0.45593999997E+02  0.45594000000E+02  0.51100000000E-03 0.  1.
         11   -1    0    0    0    0 -0.00000000000E+00 -0.00000000000E+00 -0.45593999997E+02  0.45594000000E+02  0.51100000000E-03 0. -1.
    9900012    2    1    2    0    0 -0.53926136252E+01  0.39703074223E+02 -0.16679632103E+02  0.47787256786E+02  0.19999934990E+02 0.  0.
        -12    1    1    2    0    0  0.53926136252E+01 -0.39703074223E+02  0.16679632103E+02  0.43400743214E+02  0.00000000000E+00 0.  1.
         11    1    3    3    0    0 -0.29608959477E+00  0.52025662786E+01 -0.74379953727E+01  0.90817476488E+01  0.51100000000E-03 0. -1.
        -11    1    3    3    0    0 -0.51648499436E+01  0.35846551410E+02 -0.86607248247E+01  0.37237871551E+02  0.51100000000E-03 0.  1.
        -12    1    3    3    0    0  0.68325913088E-01 -0.13460434656E+01 -0.58091190511E+00  0.14676375858E+01  0.00000000000E+00 0.  1.
</event>
<event>
 7    1  0.2458979E-009  0.4778727E+02  0.7816164E-02  0.1312668E+00
        -11   -1    0    0    0    0  0.00000000000E+00  0.00000000000E+00  0.45593999997E+02  0.45594000000E+02  0.51100000000E-03 0. -1.
         11   -1    0    0    0    0 -0.00000000000E+00 -0.00000000000E+00 -0.45593999997E+02  0.45594000000E+02  0.51100000000E-03 0.  1.
    9900012    2    1    2    0    0 -0.14608664724E+02  0.32007775750E+02  0.25410873397E+02  0.47787270971E+02  0.19999999664E+02 0.  0.
        -12    1    1    2    0    0  0.14608664724E+02 -0.32007775750E+02 -0.25410873397E+02  0.43400729029E+02  0.00000000000E+00 0.  1.
         11    1    3    3    0    0 -0.60569910348E+01  0.25136000122E+02  0.15397728431E+02  0.30093116881E+02  0.51100000000E-03 0. -1.
        -11    1    3    3    0    0 -0.19866565010E+01  0.47725849389E+00  0.80716003033E+01  0.83261822848E+01  0.51100000000E-03 0.  1.
        -12    1    3    3    0    0 -0.65650171880E+01  0.63945171340E+01  0.19415446631E+01  0.93679718048E+01  0.00000000000E+00 0.  1.
</event>
<event>
 7    1  0.2458979E-009  0.4778727E+02  0.7816164E-02  0.1312668E+00
        -11   -1    0    0    0    0  0.00000000000E+00  0.00000000000E+00  0.45593999997E+02  0.45594000000E+02  0.51100000000E-03 0.  1.
         11   -1    0    0    0    0 -0.00000000000E+00 -0.00000000000E+00 -0.45593999997E+02  0.45594000000E+02  0.51100000000E-03 0. -1.
    9900012    2    1    2    0    0  0.42069441374E+01  0.48692461490E+01 -0.42921037568E+02  0.47787269557E+02  0.19999993219E+02 0.  0.
        -12    1    1    2    0    0 -0.42069441374E+01 -0.48692461490E+01  0.42921037568E+02  0.43400730443E+02  0.00000000000E+00 0.  1.
         11    1    3    3    0    0  0.29886743126E+01 -0.31856595866E+01 -0.19028579288E+02  0.19523509703E+02  0.51100000000E-03 0. -1.
        -11    1    3    3    0    0  0.10280584678E+00  0.11255817031E+02 -0.20916868013E+02  0.23753301956E+02  0.51100000000E-03 0.  1.
        -12    1    3    3    0    0  0.11154639780E+01 -0.32009112958E+01 -0.29755902677E+01  0.45104578982E+01  0.00000000000E+00 0.  1.
</event>
<event>
 7    1  0.2458979E-009  0.4778727E+02  0.7816164E-02  0.1312668E+00
        -11   -1    0    0    0    0  0.00000000000E+00  0.00000000000E+00  0.45593999997E+02  0.45594000000E+02  0.51100000000E-03 0.  1.
         11   -1    0    0    0    0 -0.00000000000E+00 -0.00000000000E+00 -0.45593999997E+02  0.45594000000E+02  0.51100000000E-03 0. -1.
    9900012    2    1    2    0    0  0.89238811738E+01  0.23479025718E+02 -0.35393827240E+02  0.47787270622E+02  0.19999998072E+02 0.  0.
        -12    1    1    2    0    0 -0.89238811738E+01 -0.23479025718E+02  0.35393827240E+02  0.43400729378E+02  0.00000000000E+00 0.  1.
         11    1    3    3    0    0  0.10916684764E+02  0.49052046368E+01 -0.19085307451E+02  0.22527405521E+02  0.51100000000E-03 0. -1.
        -11    1    3    3    0    0 -0.59717764065E+00  0.14738808314E+02 -0.10279057882E+02  0.17979102393E+02  0.51100000000E-03 0.  1.
         12    1    3    3    0    0 -0.13956259491E+01  0.38350127672E+01 -0.60294619079E+01  0.72807627082E+01  0.00000000000E+00 0. -1.
</event>
<event>
 7    1  0.2458979E-009  0.4778727E+02  0.7816164E-02  0.1312668E+00
        -11   -1    0    0    0    0  0.00000000000E+00  0.00000000000E+00  0.45593999997E+02  0.45594000000E+02  0.51100000000E-03 0.  1.
         11   -1    0    0    0    0 -0.00000000000E+00 -0.00000000000E+00 -0.45593999997E+02  0.45594000000E+02  0.51100000000E-03 0. -1.
    9900012    2    1    2    0    0 -0.19672381713E+02 -0.28878553070E+02 -0.25741985880E+02  0.47787271127E+02  0.20000000375E+02 0.  0.
        -12    1    1    2    0    0  0.19672381713E+02  0.28878553070E+02  0.25741985880E+02  0.43400728873E+02  0.00000000000E+00 0.  1.
         11    1    3    3    0    0 -0.47887314884E+01 -0.13321763151E+02 -0.15961244732E+02  0.21334541391E+02  0.51100000000E-03 0. -1.
        -11    1    3    3    0    0 -0.83515358746E+01 -0.21717226126E+01  0.93822004994E-02  0.86292884329E+01  0.51100000000E-03 0.  1.
        -12    1    3    3    0    0 -0.65321143495E+01 -0.13385067307E+02 -0.97901233494E+01  0.17823441303E+02  0.00000000000E+00 0.  1.
</event>
<event>
 7    1  0.2458979E-009  0.4778724E+02  0.7816164E-02  0.1312668E+00
        -11   -1    0    0    0    0  0.00000000000E+00  0.00000000000E+00  0.45593999997E+02  0.45594000000E+02  0.51100000000E-03 0.  1.
         11   -1    0    0    0    0 -0.00000000000E+00 -0.00000000000E+00 -0.45593999997E+02  0.45594000000E+02  0.51100000000E-03 0. -1.
    9900012    2    1    2    0    0  0.19338953841E+02 -0.33944260488E+02 -0.18905492570E+02  0.47787244188E+02  0.19999877550E+02 0.  0.
        -12    1    1    2    0    0 -0.19338953841E+02  0.33944260488E+02  0.18905492570E+02  0.43400755812E+02  0.00000000000E+00 0.  1.
         11    1    3    3    0    0  0.61813066046E+01 -0.18682662563E+02 -0.11366562605E+02  0.22725518201E+02  0.51100000000E-03 0. -1.
        -11    1    3    3    0    0 -0.94533570529E-01  0.17481984978E+01 -0.22660801833E+01  0.28636086049E+01  0.51100000000E-03 0.  1.
        -12    1    3    3    0    0  0.13252180806E+02 -0.17009796424E+02 -0.52728497812E+01  0.22198117382E+02  0.00000000000E+00 0.  1.
</event>
<event>
 7    1  0.2458979E-009  0.4778728E+02  0.7816164E-02  0.1312668E+00
        -11   -1    0    0    0    0  0.00000000000E+00  0.00000000000E+00  0.45593999997E+02  0.45594000000E+02  0.51100000000E-03 0.  1.
         11   -1    0    0    0    0 -0.00000000000E+00 -0.00000000000E+00 -0.45593999997E+02  0.45594000000E+02  0.51100000000E-03 0. -1.
    9900012    2    1    2    0    0 -0.29926517007E+02 -0.31152111946E+02  0.41919319884E+01  0.47787276589E+02  0.20000025278E+02 0.  0.
        -12    1    1    2    0    0  0.29926517007E+02  0.31152111946E+02 -0.41919319884E+01  0.43400723411E+02  0.00000000000E+00 0.  1.
         11    1    3    3    0    0 -0.57817794357E+01 -0.17648551765E+02  0.51830293651E+00  0.18578724150E+02  0.51100000000E-03 0. -1.
        -11    1    3    3    0    0 -0.52111395421E+01 -0.39225132377E+01  0.45793684696E+01  0.79694856338E+01  0.51100000000E-03 0.  1.
         12    1    3    3    0    0 -0.18933598029E+02 -0.95810469431E+01 -0.90573941770E+00  0.21239066805E+02  0.00000000000E+00 0. -1.
</event>
<event>
 7    1  0.2458979E-009  0.4778727E+02  0.7816164E-02  0.1312668E+00
        -11   -1    0    0    0    0  0.00000000000E+00  0.00000000000E+00  0.45593999997E+02  0.45594000000E+02  0.51100000000E-03 0.  1.
         11   -1    0    0    0    0 -0.00000000000E+00 -0.00000000000E+00 -0.45593999997E+02  0.45594000000E+02  0.51100000000E-03 0. -1.
    9900012    2    1    2    0    0 -0.85553636429E+01 -0.23614514003E+02 -0.35394687900E+02  0.47787269013E+02  0.19999990739E+02 0.  0.
        -12    1    1    2    0    0  0.85553636429E+01  0.23614514003E+02  0.35394687900E+02  0.43400730987E+02  0.00000000000E+00 0.  1.
         11    1    3    3    0    0 -0.21489582403E+01 -0.22490128370E+02 -0.21254456740E+02  0.31018959157E+02  0.51100000000E-03 0. -1.
        -11    1    3    3    0    0 -0.26898012112E+01  0.27726727787E-01 -0.70476707910E+00  0.27807366333E+01  0.51100000000E-03 0.  1.
         12    1    3    3    0    0 -0.37166041914E+01 -0.11521123611E+01 -0.13435464080E+02  0.13987573223E+02  0.00000000000E+00 0. -1.
</event>
<event>
 7    1  0.2458979E-009  0.4778728E+02  0.7816164E-02  0.1312668E+00
        -11   -1    0    0    0    0  0.00000000000E+00  0.00000000000E+00  0.45593999997E+02  0.45594000000E+02  0.51100000000E-03 0.  1.
         11   -1    0    0    0    0 -0.00000000000E+00 -0.00000000000E+00 -0.45593999997E+02  0.45594000000E+02  0.51100000000E-03 0. -1.
    9900012    2    1    2    0    0 -0.27031432667E+02  0.15501265487E+02 -0.30209855080E+02  0.47787275033E+02  0.20000018186E+02 0.  0.
        -12    1    1    2    0    0  0.27031432667E+02 -0.15501265487E+02  0.30209855080E+02  0.43400724967E+02  0.00000000000E+00 0.  1.
         11    1    3    3    0    0 -0.20457241733E+02  0.12082912533E+02 -0.21829973085E+02  0.32265201684E+02  0.51100000000E-03 0. -1.
        -11    1    3    3    0    0  0.23286296623E+01  0.23571789411E+01 -0.48773329223E+01  0.58963705244E+01  0.51100000000E-03 0.  1.
        -12    1    3    3    0    0 -0.89028205960E+01  0.10611740120E+01 -0.35025490733E+01  0.96257028242E+01  0.00000000000E+00 0.  1.
</event>
<event>
 7    1  0.2458979E-009  0.4778727E+02  0.7816164E-02  0.1312668E+00
        -11   -1    0    0    0    0  0.00000000000E+00  0.00000000000E+00  0.45593999997E+02  0.45594000000E+02  0.51100000000E-03 0.  1.
         11   -1    0    0    0    0 -0.00000000000E+00 -0.00000000000E+00 -0.45593999997E+02  0.45594000000E+02  0.51100000000E-03 0. -1.
    9900012    2    1    2    0    0  0.65350260333E+01  0.40232465037E+02 -0.14908573600E+02  0.47787269880E+02  0.19999994691E+02 0.  0.
        -12    1    1    2    0    0 -0.65350260333E+01 -0.40232465037E+02  0.14908573600E+02  0.43400730120E+02  0.00000000000E+00 0.  1.
         11    1    3    3    0    0  0.84660793148E+00  0.76307650441E+01 -0.10401486105E+02  0.12928117945E+02  0.51100000000E-03 0.  1.
        -11    1    3    3    0    0  0.39026950272E+01  0.30723413872E+02 -0.64315982549E+01  0.31631070877E+02  0.51100000000E-03 0. -1.
         12    1    3    3    0    0  0.17857230746E+01  0.18782861204E+01  0.19245107605E+01  0.32280810579E+01  0.00000000000E+00 0. -1.
</event>
<event>
 7    1  0.2458979E-009  0.4778727E+02  0.7816164E-02  0.1312668E+00
        -11   -1    0    0    0    0  0.00000000000E+00  0.00000000000E+00  0.45593999997E+02  0.45594000000E+02  0.51100000000E-03 0.  1.
         11   -1    0    0    0    0 -0.00000000000E+00 -0.00000000000E+00 -0.45593999997E+02  0.45594000000E+02  0.51100000000E-03 0. -1.
    9900012    2    1    2    0    0  0.10873237043E+02 -0.33089700394E+02 -0.25893392303E+02  0.47787270502E+02  0.19999997528E+02 0.  0.
        -12    1    1    2    0    0 -0.10873237043E+02  0.33089700394E+02  0.25893392303E+02  0.43400729498E+02  0.00000000000E+00 0.  1.
         11    1    3    3    0    0 -0.89053467365E+00 -0.75040905727E+01 -0.50611417133E+01  0.90950306779E+01  0.51100000000E-03 0. -1.
        -11    1    3    3    0    0  0.10246341359E+02 -0.26751467470E+02 -0.22281505728E+02  0.36291789991E+02  0.51100000000E-03 0.  1.
        -12    1    3    3    0    0  0.15174303575E+01  0.11658576479E+01  0.14492551381E+01  0.24004498329E+01  0.00000000000E+00 0.  1.
</event>
<event>
 7    1  0.2458979E-009  0.4778727E+02  0.7816164E-02  0.1312668E+00
        -11   -1    0    0    0    0  0.00000000000E+00  0.00000000000E+00  0.45593999997E+02  0.45594000000E+02  0.51100000000E-03 0.  1.
         11   -1    0    0    0    0 -0.00000000000E+00 -0.00000000000E+00 -0.45593999997E+02  0.45594000000E+02  0.51100000000E-03 0. -1.
    9900012    2    1    2    0    0 -0.42035822317E+02  0.13467611779E+01  0.10714444905E+02  0.47787268979E+02  0.19999990582E+02 0.  0.
        -12    1    1    2    0    0  0.42035822317E+02 -0.13467611779E+01 -0.10714444905E+02  0.43400731021E+02  0.00000000000E+00 0.  1.
         11    1    3    3    0    0 -0.21292051229E+02  0.45615218398E+01  0.71216766589E+01  0.22910198728E+02  0.51100000000E-03 0. -1.
        -11    1    3    3    0    0  0.72183184992E+00 -0.11043468207E+01 -0.21806083038E+01  0.25486616008E+01  0.51100000000E-03 0.  1.
         12    1    3    3    0    0 -0.21465602938E+02 -0.21104138413E+01  0.57733765495E+01  0.22328408650E+02  0.00000000000E+00 0. -1.
</event>
<event>
 7    1  0.2458979E-009  0.4778727E+02  0.7816164E-02  0.1312668E+00
        -11   -1    0    0    0    0  0.00000000000E+00  0.00000000000E+00  0.45593999997E+02  0.45594000000E+02  0.51100000000E-03 0.  1.
         11   -1    0    0    0    0 -0.00000000000E+00 -0.00000000000E+00 -0.45593999997E+02  0.45594000000E+02  0.51100000000E-03 0. -1.
    9900012    2    1    2    0    0  0.37960704935E+02 -0.86191896534E+01 -0.19191603283E+02  0.47787272056E+02  0.20000004614E+02 0.  0.
        -12    1    1    2    0    0 -0.37960704935E+02  0.86191896534E+01  0.19191603283E+02  0.43400727944E+02  0.00000000000E+00 0.  1.
         11    1    3    3    0    0  0.54229754361E+01 -0.66048122378E+01 -0.38745108336E+01  0.93831786585E+01  0.51100000000E-03 0. -1.
        -11    1    3    3    0    0  0.11038835998E+02  0.56243768469E+01 -0.58829487403E+01  0.13714904347E+02  0.51100000000E-03 0.  1.
        -12    1    3    3    0    0  0.21498893502E+02 -0.76387542626E+01 -0.94341437090E+01  0.24689189051E+02  0.00000000000E+00 0.  1.
</event>
<event>
 7    1  0.2458979E-009  0.4778727E+02  0.7816164E-02  0.1312668E+00
        -11   -1    0    0    0    0  0.00000000000E+00  0.00000000000E+00  0.45593999997E+02  0.45594000000E+02  0.51100000000E-03 0.  1.
         11   -1    0    0    0    0 -0.00000000000E+00 -0.00000000000E+00 -0.45593999997E+02  0.45594000000E+02  0.51100000000E-03 0. -1.
    9900012    2    1    2    0    0  0.69530021522E+01  0.26860722978E+02 -0.33373351843E+02  0.47787270846E+02  0.19999999097E+02 0.  0.
        -12    1    1    2    0    0 -0.69530021522E+01 -0.26860722978E+02  0.33373351843E+02  0.43400729154E+02  0.00000000000E+00 0.  1.
         11    1    3    3    0    0  0.20586124385E+01  0.64068140412E+01 -0.43604226045E+01  0.80186306114E+01  0.51100000000E-03 0. -1.
        -11    1    3    3    0    0  0.89740304567E+01  0.21227586034E+02 -0.24520992397E+02  0.33651488821E+02  0.51100000000E-03 0.  1.
        -12    1    3    3    0    0 -0.40796407429E+01 -0.77367709660E+00 -0.44919368407E+01  0.61171514140E+01  0.00000000000E+00 0.  1.
</event>
<event>
 7    1  0.2458979E-009  0.4778727E+02  0.7816164E-02  0.1312668E+00
        -11   -1    0    0    0    0  0.00000000000E+00  0.00000000000E+00  0.45593999997E+02  0.45594000000E+02  0.51100000000E-03 0.  1.
         11   -1    0    0    0    0 -0.00000000000E+00 -0.00000000000E+00 -0.45593999997E+02  0.45594000000E+02  0.51100000000E-03 0. -1.
    9900012    2    1    2    0    0  0.11332622905E+02  0.23629889244E+02 -0.34595140536E+02  0.47787265486E+02  0.19999974658E+02 0.  0.
        -12    1    1    2    0    0 -0.11332622905E+02 -0.23629889244E+02  0.34595140536E+02  0.43400734514E+02  0.00000000000E+00 0.  1.
         11    1    3    3    0    0  0.99393432277E+01  0.21018315102E+02 -0.20225977809E+02  0.30816396481E+02  0.51100000000E-03 0. -1.
        -11    1    3    3    0    0 -0.19768615378E+01  0.25807442287E+01 -0.12884113349E+02  0.13287911776E+02  0.51100000000E-03 0.  1.
         12    1    3    3    0    0  0.33701412154E+01  0.30829913826E-01 -0.14850493787E+01  0.36829572292E+01  0.00000000000E+00 0. -1.
</event>
<event>
 7    1  0.2458979E-009  0.4778727E+02  0.7816164E-02  0.1312668E+00
        -11   -1    0    0    0    0  0.00000000000E+00  0.00000000000E+00  0.45593999997E+02  0.45594000000E+02  0.51100000000E-03 0.  1.
         11   -1    0    0    0    0 -0.00000000000E+00 -0.00000000000E+00 -0.45593999997E+02  0.45594000000E+02  0.51100000000E-03 0. -1.
    9900012    2    1    2    0    0  0.41895695347E+02 -0.34608519145E+01 -0.10788704829E+02  0.47787274931E+02  0.20000017723E+02 0.  0.
        -12    1    1    2    0    0 -0.41895695347E+02  0.34608519145E+01  0.10788704829E+02  0.43400725069E+02  0.00000000000E+00 0.  1.
         11    1    3    3    0    0  0.26697126795E+02 -0.25923889520E+01 -0.13416259572E+02  0.29990883294E+02  0.51100000000E-03 0. -1.
        -11    1    3    3    0    0  0.14808007190E+02 -0.15909000072E+01 -0.15618204892E+00  0.14894040179E+02  0.51100000000E-03 0.  1.
         12    1    3    3    0    0  0.39056136217E+00  0.72243704467E+00  0.27837367918E+01  0.29023514582E+01  0.00000000000E+00 0. -1.
</event>
<event>
 7    1  0.2458979E-009  0.4778726E+02  0.7816164E-02  0.1312668E+00
        -11   -1    0    0    0    0  0.00000000000E+00  0.00000000000E+00  0.45593999997E+02  0.45594000000E+02  0.51100000000E-03 0.  1.
         11   -1    0    0    0    0 -0.00000000000E+00 -0.00000000000E+00 -0.45593999997E+02  0.45594000000E+02  0.51100000000E-03 0. -1.
    9900012    2    1    2    0    0  0.40680914617E+01  0.41755266325E+02  0.11116320248E+02  0.47787260261E+02  0.19999950834E+02 0.  0.
        -12    1    1    2    0    0 -0.40680914617E+01 -0.41755266325E+02 -0.11116320248E+02  0.43400739739E+02  0.00000000000E+00 0.  1.
         11    1    3    3    0    0  0.90430935899E+00  0.30690156467E+02  0.14882776091E+01  0.30739525857E+02  0.51100000000E-03 0. -1.
        -11    1    3    3    0    0  0.14836993618E+00  0.65511346992E+00  0.53564298577E+01  0.53983820148E+01  0.51100000000E-03 0.  1.
         12    1    3    3    0    0  0.30154121665E+01  0.10409996388E+02  0.42716127812E+01  0.11649352389E+02  0.00000000000E+00 0. -1.
</event>
<event>
 7    1  0.2458979E-009  0.4778727E+02  0.7816164E-02  0.1312668E+00
        -11   -1    0    0    0    0  0.00000000000E+00  0.00000000000E+00  0.45593999997E+02  0.45594000000E+02  0.51100000000E-03 0. -1.
         11   -1    0    0    0    0 -0.00000000000E+00 -0.00000000000E+00 -0.45593999997E+02  0.45594000000E+02  0.51100000000E-03 0.  1.
    9900012    2    1    2    0    0  0.21565356420E+02  0.15625423234E+02  0.34269589243E+02  0.47787271946E+02  0.20000004109E+02 0.  0.
        -12    1    1    2    0    0 -0.21565356420E+02 -0.15625423234E+02 -0.34269589243E+02  0.43400728054E+02  0.00000000000E+00 0.  1.
         11    1    3    3    0    0  0.17790486075E+02  0.83111816631E+01  0.20250583899E+02  0.28207504036E+02  0.51100000000E-03 0. -1.
        -11    1    3    3    0    0 -0.13292130603E+01 -0.12074561663E+01 -0.61043821235E+00  0.18966794209E+01  0.51100000000E-03 0.  1.
         12    1    3    3    0    0  0.51040834050E+01  0.85216977368E+01  0.14629443556E+02  0.17683088488E+02  0.00000000000E+00 0. -1.
</event>
<event>
 7    1  0.2458979E-009  0.4778728E+02  0.7816164E-02  0.1312668E+00
        -11   -1    0    0    0    0  0.00000000000E+00  0.00000000000E+00  0.45593999997E+02  0.45594000000E+02  0.51100000000E-03 0.  1.
         11   -1    0    0    0    0 -0.00000000000E+00 -0.00000000000E+00 -0.45593999997E+02  0.45594000000E+02  0.51100000000E-03 0. -1.
    9900012    2    1    2    0    0  0.18179110461E+02  0.10810112107E+02 -0.37898342072E+02  0.47787275205E+02  0.20000018969E+02 0.  0.
        -12    1    1    2    0    0 -0.18179110461E+02 -0.10810112107E+02  0.37898342072E+02  0.43400724795E+02  0.00000000000E+00 0.  1.
         11    1    3    3    0    0  0.18007312147E+02  0.82535501474E+01 -0.19083276846E+02  0.27505560097E+02  0.51100000000E-03 0. -1.
        -11    1    3    3    0    0 -0.28978367873E+01  0.19734598927E+01 -0.14714384340E+02  0.15126305192E+02  0.51100000000E-03 0.  1.
        -12    1    3    3    0    0  0.30696351008E+01  0.58310206645E+00 -0.41006808867E+01  0.51554099164E+01  0.00000000000E+00 0.  1.
</event>
<event>
 7    1  0.2458979E-009  0.4778733E+02  0.7816164E-02  0.1312668E+00
        -11   -1    0    0    0    0  0.00000000000E+00  0.00000000000E+00  0.45593999997E+02  0.45594000000E+02  0.51100000000E-03 0. -1.
         11   -1    0    0    0    0 -0.00000000000E+00 -0.00000000000E+00 -0.45593999997E+02  0.45594000000E+02  0.51100000000E-03 0.  1.
    9900012    2    1    2    0    0 -0.35285455950E+02 -0.39754135979E+01  0.24954980093E+02  0.47787327813E+02  0.20000258828E+02 0.  0.
        -12    1    1    2    0    0  0.35285455950E+02  0.39754135979E+01 -0.24954980093E+02  0.43400672187E+02  0.00000000000E+00 0.  1.
         11    1    3    3    0    0 -0.76568824198E+01  0.25149582988E+00  0.55714442356E+01  0.94727023428E+01  0.51100000000E-03 0. -1.
        -11    1    3    3    0    0 -0.21150036120E+02  0.28363751960E+00  0.47365252596E+01  0.21675773341E+02  0.51100000000E-03 0.  1.
        -12    1    3    3    0    0 -0.64785374101E+01 -0.45105469473E+01  0.14647010597E+02  0.16638852129E+02  0.00000000000E+00 0.  1.
</event>
<event>
 7    1  0.2458979E-009  0.4778727E+02  0.7816164E-02  0.1312668E+00
        -11   -1    0    0    0    0  0.00000000000E+00  0.00000000000E+00  0.45593999997E+02  0.45594000000E+02  0.51100000000E-03 0.  1.
         11   -1    0    0    0    0 -0.00000000000E+00 -0.00000000000E+00 -0.45593999997E+02  0.45594000000E+02  0.51100000000E-03 0. -1.
    9900012    2    1    2    0    0  0.43682262496E+01  0.37603810706E+02 -0.21224873744E+02  0.47787271370E+02  0.20000001485E+02 0.  0.
        -12    1    1    2    0    0 -0.43682262496E+01 -0.37603810706E+02  0.21224873744E+02  0.43400728630E+02  0.00000000000E+00 0.  1.
         11    1    3    3    0    0  0.56383371979E+01  0.33999277543E+01 -0.43013138921E+01  0.78645824142E+01  0.51100000000E-03 0. -1.
        -11    1    3    3    0    0 -0.46855798136E+01  0.23503944241E+02 -0.70866294604E+01  0.24992206194E+02  0.51100000000E-03 0.  1.
         12    1    3    3    0    0  0.34154688653E+01  0.10699938710E+02 -0.98369303914E+01  0.14930482762E+02  0.00000000000E+00 0. -1.
</event>
<event>
 7    1  0.2458979E-009  0.4778727E+02  0.7816164E-02  0.1312668E+00
        -11   -1    0    0    0    0  0.00000000000E+00  0.00000000000E+00  0.45593999997E+02  0.45594000000E+02  0.51100000000E-03 0. -1.
         11   -1    0    0    0    0 -0.00000000000E+00 -0.00000000000E+00 -0.45593999997E+02  0.45594000000E+02  0.51100000000E-03 0.  1.
    9900012    2    1    2    0    0 -0.35066832198E+01  0.34423241471E+02  0.26198607442E+02  0.47787269447E+02  0.19999992717E+02 0.  0.
        -12    1    1    2    0    0  0.35066832198E+01 -0.34423241471E+02 -0.26198607442E+02  0.43400730553E+02  0.00000000000E+00 0.  1.
         11    1    3    3    0    0  0.34823825660E+01  0.29258096842E+02  0.21983082638E+02  0.36761653141E+02  0.51100000000E-03 0. -1.
        -11    1    3    3    0    0 -0.18892611444E+01  0.46830022944E+01  0.17874476847E+01  0.53567515947E+01  0.51100000000E-03 0.  1.
         12    1    3    3    0    0 -0.50998046413E+01  0.48214233457E+00  0.24280771201E+01  0.56688647110E+01  0.00000000000E+00 0. -1.
</event>
<event>
 7    1  0.2458979E-009  0.4778727E+02  0.7816164E-02  0.1312668E+00
        -11   -1    0    0    0    0  0.00000000000E+00  0.00000000000E+00  0.45593999997E+02  0.45594000000E+02  0.51100000000E-03 0. -1.
         11   -1    0    0    0    0 -0.00000000000E+00 -0.00000000000E+00 -0.45593999997E+02  0.45594000000E+02  0.51100000000E-03 0.  1.
    9900012    2    1    2    0    0  0.74158754139E+01  0.20353370074E+02  0.37608088157E+02  0.47787272168E+02  0.20000005123E+02 0.  0.
        -12    1    1    2    0    0 -0.74158754139E+01 -0.20353370074E+02 -0.37608088157E+02  0.43400727832E+02  0.00000000000E+00 0.  1.
         11    1    3    3    0    0  0.15692119586E+01  0.26572117168E+01  0.85015942923E+01  0.90443521631E+01  0.51100000000E-03 0. -1.
        -11    1    3    3    0    0  0.58134733584E+00  0.19774252619E+02  0.20945801764E+02  0.28811206902E+02  0.51100000000E-03 0.  1.
        -12    1    3    3    0    0  0.52653161195E+01 -0.20780942616E+01  0.81606921005E+01  0.99317131028E+01  0.00000000000E+00 0.  1.
</event>
<event>
 7    1  0.2458979E-009  0.4778723E+02  0.7816164E-02  0.1312668E+00
        -11   -1    0    0    0    0  0.00000000000E+00  0.00000000000E+00  0.45593999997E+02  0.45594000000E+02  0.51100000000E-03 0. -1.
         11   -1    0    0    0    0 -0.00000000000E+00 -0.00000000000E+00 -0.45593999997E+02  0.45594000000E+02  0.51100000000E-03 0.  1.
    9900012    2    1    2    0    0 -0.35209603183E+02  0.25374558201E+02  0.20645041018E+00  0.47787228326E+02  0.19999805227E+02 0.  0.
        -12    1    1    2    0    0  0.35209603183E+02 -0.25374558201E+02 -0.20645041018E+00  0.43400771674E+02  0.00000000000E+00 0.  1.
         11    1    3    3    0    0 -0.32766183591E+02  0.20563836513E+02  0.46284854822E+01  0.38960454789E+02  0.51100000000E-03 0. -1.
        -11    1    3    3    0    0  0.16318306617E+00 -0.73344625137E+00  0.55452305820E+00  0.93384591873E+00  0.51100000000E-03 0.  1.
         12    1    3    3    0    0 -0.26066026575E+01  0.55441679391E+01 -0.49765581302E+01  0.78929276174E+01  0.00000000000E+00 0. -1.
</event>
<event>
 7    1  0.2458979E-009  0.4778727E+02  0.7816164E-02  0.1312668E+00
        -11   -1    0    0    0    0  0.00000000000E+00  0.00000000000E+00  0.45593999997E+02  0.45594000000E+02  0.51100000000E-03 0. -1.
         11   -1    0    0    0    0 -0.00000000000E+00 -0.00000000000E+00 -0.45593999997E+02  0.45594000000E+02  0.51100000000E-03 0.  1.
    9900012    2    1    2    0    0  0.42730691177E+02  0.53696731634E+00  0.75777991097E+01  0.47787270263E+02  0.19999996436E+02 0.  0.
        -12    1    1    2    0    0 -0.42730691177E+02 -0.53696731634E+00 -0.75777991097E+01  0.43400729737E+02  0.00000000000E+00 0.  1.
         11    1    3    3    0    0  0.22208282137E+02 -0.13043868808E+01  0.82571304574E+01  0.23729505352E+02  0.51100000000E-03 0. -1.
        -11    1    3    3    0    0  0.99432583059E+01  0.50136865085E+01 -0.49888488330E+01  0.12202215007E+02  0.51100000000E-03 0.  1.
        -12    1    3    3    0    0  0.10579150734E+02 -0.31723323113E+01  0.43095174853E+01  0.11855549903E+02  0.00000000000E+00 0.  1.
</event>
<event>
 7    1  0.2458979E-009  0.4778727E+02  0.7816164E-02  0.1312668E+00
        -11   -1    0    0    0    0  0.00000000000E+00  0.00000000000E+00  0.45593999997E+02  0.45594000000E+02  0.51100000000E-03 0. -1.
         11   -1    0    0    0    0 -0.00000000000E+00 -0.00000000000E+00 -0.45593999997E+02  0.45594000000E+02  0.51100000000E-03 0.  1.
    9900012    2    1    2    0    0  0.19102185035E+01 -0.39656666675E+02 -0.17530634782E+02  0.47787270716E+02  0.19999998504E+02 0.  0.
        -12    1    1    2    0    0 -0.19102185035E+01  0.39656666675E+02  0.17530634782E+02  0.43400729284E+02  0.00000000000E+00 0.  1.
         11    1    3    3    0    0  0.15647107604E+01 -0.78260157619E+01 -0.47150387788E+01  0.92696512025E+01  0.51100000000E-03 0. -1.
        -11    1    3    3    0    0 -0.97606037468E+00 -0.24350423509E+02 -0.17124082200E+02  0.29784727804E+02  0.51100000000E-03 0.  1.
        -12    1    3    3    0    0  0.13215681178E+01 -0.74802274042E+01  0.43084861965E+01  0.87328917097E+01  0.00000000000E+00 0.  1.
</event>
<event>
 7    1  0.2458979E-009  0.4778728E+02  0.7816164E-02  0.1312668E+00
        -11   -1    0    0    0    0  0.00000000000E+00  0.00000000000E+00  0.45593999997E+02  0.45594000000E+02  0.51100000000E-03 0.  1.
         11   -1    0    0    0    0 -0.00000000000E+00 -0.00000000000E+00 -0.45593999997E+02  0.45594000000E+02  0.51100000000E-03 0. -1.
    9900012    2    1    2    0    0  0.45036550679E+01 -0.17670435281E+02 -0.39383947650E+02  0.47787279678E+02  0.20000039365E+02 0.  0.
        -12    1    1    2    0    0 -0.45036550679E+01  0.17670435281E+02  0.39383947650E+02  0.43400720322E+02  0.00000000000E+00 0.  1.
         11    1    3    3    0    0  0.48631419849E+01 -0.13339378491E+02 -0.26815358313E+02  0.30342257830E+02  0.51100000000E-03 0. -1.
        -11    1    3    3    0    0 -0.55906453660E+01 -0.10143737621E+01 -0.43613526346E+01  0.71627974146E+01  0.51100000000E-03 0.  1.
        -12    1    3    3    0    0  0.52311584490E+01 -0.33166830272E+01 -0.82072367020E+01  0.10282224434E+02  0.00000000000E+00 0.  1.
</event>
<event>
 7    1  0.2458979E-009  0.4778726E+02  0.7816164E-02  0.1312668E+00
        -11   -1    0    0    0    0  0.00000000000E+00  0.00000000000E+00  0.45593999997E+02  0.45594000000E+02  0.51100000000E-03 0.  1.
         11   -1    0    0    0    0 -0.00000000000E+00 -0.00000000000E+00 -0.45593999997E+02  0.45594000000E+02  0.51100000000E-03 0. -1.
    9900012    2    1    2    0    0  0.30773900177E+02  0.29481877869E+02 -0.82103530009E+01  0.47787263242E+02  0.19999964423E+02 0.  0.
        -12    1    1    2    0    0 -0.30773900177E+02 -0.29481877869E+02  0.82103530009E+01  0.43400736758E+02  0.00000000000E+00 0.  1.
         11    1    3    3    0    0  0.14213750440E+02  0.16734891301E+02 -0.20914669881E+01  0.22055872752E+02  0.51100000000E-03 0. -1.
        -11    1    3    3    0    0  0.92524705753E+01 -0.10870736711E+01 -0.16598975913E+01  0.94628326197E+01  0.51100000000E-03 0.  1.
        -12    1    3    3    0    0  0.73076791619E+01  0.13834060239E+02 -0.44589884214E+01  0.16268557870E+02  0.00000000000E+00 0.  1.
</event>
<event>
 7    1  0.2458979E-009  0.4778727E+02  0.7816164E-02  0.1312668E+00
        -11   -1    0    0    0    0  0.00000000000E+00  0.00000000000E+00  0.45593999997E+02  0.45594000000E+02  0.51100000000E-03 0.  1.
         11   -1    0    0    0    0 -0.00000000000E+00 -0.00000000000E+00 -0.45593999997E+02  0.45594000000E+02  0.51100000000E-03 0. -1.
    9900012    2    1    2    0    0 -0.17166498854E+02 -0.31475735400E+02 -0.24458387093E+02  0.47787270732E+02  0.19999998574E+02 0.  0.
        -12    1    1    2    0    0  0.17166498854E+02  0.31475735400E+02  0.24458387093E+02  0.43400729268E+02  0.00000000000E+00 0.  1.
         11    1    3    3    0    0 -0.41252235990E+01 -0.10440347207E+02 -0.12429744415E+02  0.16748637737E+02  0.51100000000E-03 0. -1.
        -11    1    3    3    0    0 -0.15360221614E+02 -0.17110499031E+02 -0.65438401236E+01  0.23906639851E+02  0.51100000000E-03 0.  1.
        -12    1    3    3    0    0  0.23189463599E+01 -0.39248891617E+01 -0.54848025538E+01  0.71319931440E+01  0.00000000000E+00 0.  1.
</event>
<event>
 7    1  0.2458979E-009  0.4778727E+02  0.7816164E-02  0.1312668E+00
        -11   -1    0    0    0    0  0.00000000000E+00  0.00000000000E+00  0.45593999997E+02  0.45594000000E+02  0.51100000000E-03 0.  1.
         11   -1    0    0    0    0 -0.00000000000E+00 -0.00000000000E+00 -0.45593999997E+02  0.45594000000E+02  0.51100000000E-03 0. -1.
    9900012    2    1    2    0    0 -0.17501949273E+02  0.33701526741E+02 -0.21012199863E+02  0.47787266411E+02  0.19999978873E+02 0.  0.
        -12    1    1    2    0    0  0.17501949273E+02 -0.33701526741E+02  0.21012199863E+02  0.43400733589E+02  0.00000000000E+00 0.  1.
         11    1    3    3    0    0 -0.11668281213E+02  0.14351189649E+02 -0.39240986317E+01  0.18907775680E+02  0.51100000000E-03 0.  1.
        -11    1    3    3    0    0 -0.21776189368E+01  0.82928595082E+01 -0.14659458538E+02  0.16982734407E+02  0.51100000000E-03 0. -1.
         12    1    3    3    0    0 -0.36560491225E+01  0.11057477584E+02 -0.24286426932E+01  0.11896756324E+02  0.00000000000E+00 0. -1.
</event>
<event>
 7    1  0.2458979E-009  0.4778727E+02  0.7816164E-02  0.1312668E+00
        -11   -1    0    0    0    0  0.00000000000E+00  0.00000000000E+00  0.45593999997E+02  0.45594000000E+02  0.51100000000E-03 0.  1.
         11   -1    0    0    0    0 -0.00000000000E+00 -0.00000000000E+00 -0.45593999997E+02  0.45594000000E+02  0.51100000000E-03 0. -1.
    9900012    2    1    2    0    0  0.73420907010E+01  0.16630496506E+02 -0.39409938418E+02  0.47787274707E+02  0.20000016697E+02 0.  0.
        -12    1    1    2    0    0 -0.73420907010E+01 -0.16630496506E+02  0.39409938418E+02  0.43400725293E+02  0.00000000000E+00 0.  1.
         11    1    3    3    0    0 -0.43085081976E+01  0.22046095492E+01 -0.14045993270E+02  0.14856428688E+02  0.51100000000E-03 0. -1.
        -11    1    3    3    0    0  0.12357597496E+02  0.98934018504E+01 -0.22541950518E+02  0.27545038563E+02  0.51100000000E-03 0.  1.
         12    1    3    3    0    0 -0.70699859767E+00  0.45324851061E+01 -0.28219946302E+01  0.53858074554E+01  0.00000000000E+00 0. -1.
</event>
<event>
 7    1  0.2458979E-009  0.4778727E+02  0.7816164E-02  0.1312668E+00
        -11   -1    0    0    0    0  0.00000000000E+00  0.00000000000E+00  0.45593999997E+02  0.45594000000E+02  0.51100000000E-03 0. -1.
         11   -1    0    0    0    0 -0.00000000000E+00 -0.00000000000E+00 -0.45593999997E+02  0.45594000000E+02  0.51100000000E-03 0.  1.
    9900012    2    1    2    0    0 -0.38498001019E+02  0.13383776397E+02 -0.14913143008E+02  0.47787269735E+02  0.19999994030E+02 0.  0.
        -12    1    1    2    0    0  0.38498001019E+02 -0.13383776397E+02  0.14913143008E+02  0.43400730265E+02  0.00000000000E+00 0.  1.
         11    1    3    3    0    0 -0.37310265200E+02  0.63757336515E+01 -0.13285345224E+02  0.40114913272E+02  0.51100000000E-03 0. -1.
        -11    1    3    3    0    0  0.58265135327E+00  0.21488604510E+01 -0.10715222240E+01  0.24708791907E+01  0.51100000000E-03 0.  1.
         12    1    3    3    0    0 -0.17703871729E+01  0.48591822945E+01 -0.55627556080E+00  0.52014772721E+01  0.00000000000E+00 0. -1.
</event>
<event>
 7    1  0.2458979E-009  0.4778727E+02  0.7816164E-02  0.1312668E+00
        -11   -1    0    0    0    0  0.00000000000E+00  0.00000000000E+00  0.45593999997E+02  0.45594000000E+02  0.51100000000E-03 0.  1.
         11   -1    0    0    0    0 -0.00000000000E+00 -0.00000000000E+00 -0.45593999997E+02  0.45594000000E+02  0.51100000000E-03 0. -1.
    9900012    2    1    2    0    0 -0.34462205017E+01 -0.18013529026E+01 -0.43226169736E+02  0.47787273531E+02  0.20000011335E+02 0.  0.
        -12    1    1    2    0    0  0.34462205017E+01  0.18013529026E+01  0.43226169736E+02  0.43400726469E+02  0.00000000000E+00 0.  1.
         11    1    3    3    0    0 -0.41092994024E+01  0.44496968958E+01 -0.16312957588E+02  0.17401112883E+02  0.51100000000E-03 0. -1.
        -11    1    3    3    0    0  0.47164209094E+00 -0.10152593182E+02 -0.20393903591E+02  0.22786155852E+02  0.51100000000E-03 0.  1.
        -12    1    3    3    0    0  0.19143680976E+00  0.39015433835E+01 -0.65193085578E+01  0.76000047959E+01  0.00000000000E+00 0.  1.
</event>
<event>
 7    1  0.2458979E-009  0.4778726E+02  0.7816164E-02  0.1312668E+00
        -11   -1    0    0    0    0  0.00000000000E+00  0.00000000000E+00  0.45593999997E+02  0.45594000000E+02  0.51100000000E-03 0.  1.
         11   -1    0    0    0    0 -0.00000000000E+00 -0.00000000000E+00 -0.45593999997E+02  0.45594000000E+02  0.51100000000E-03 0. -1.
    9900012    2    1    2    0    0  0.32099737981E+02 -0.16662173474E+02 -0.23991733828E+02  0.47787256972E+02  0.19999935838E+02 0.  0.
        -12    1    1    2    0    0 -0.32099737981E+02  0.16662173474E+02  0.23991733828E+02  0.43400743028E+02  0.00000000000E+00 0.  1.
         11    1    3    3    0    0  0.84019532573E+01 -0.14605763834E+01 -0.37860809980E+01  0.93306222458E+01  0.51100000000E-03 0. -1.
        -11    1    3    3    0    0  0.24901319839E+02 -0.16991492626E+02 -0.17048070666E+02  0.34632690699E+02  0.51100000000E-03 0.  1.
        -12    1    3    3    0    0 -0.12035351154E+01  0.17898955353E+01 -0.31575821636E+01  0.38239440270E+01  0.00000000000E+00 0.  1.
</event>
<event>
 7    1  0.2458979E-009  0.4778727E+02  0.7816164E-02  0.1312668E+00
        -11   -1    0    0    0    0  0.00000000000E+00  0.00000000000E+00  0.45593999997E+02  0.45594000000E+02  0.51100000000E-03 0.  1.
         11   -1    0    0    0    0 -0.00000000000E+00 -0.00000000000E+00 -0.45593999997E+02  0.45594000000E+02  0.51100000000E-03 0. -1.
    9900012    2    1    2    0    0 -0.16378091595E+02  0.32362259480E+02  0.23834123568E+02  0.47787272250E+02  0.20000005498E+02 0.  0.
        -12    1    1    2    0    0  0.16378091595E+02 -0.32362259480E+02 -0.23834123568E+02  0.43400727750E+02  0.00000000000E+00 0.  1.
         11    1    3    3    0    0 -0.18405568884E+01  0.14703464717E+02  0.49883714897E+01  0.15635324580E+02  0.51100000000E-03 0. -1.
        -11    1    3    3    0    0 -0.12509097693E+02  0.15002487729E+02  0.20590511594E+02  0.28381707685E+02  0.51100000000E-03 0.  1.
        -12    1    3    3    0    0 -0.20284370141E+01  0.26563070349E+01 -0.17447595157E+01  0.37702399860E+01  0.00000000000E+00 0.  1.
</event>
<event>
 7    1  0.2458979E-009  0.4778728E+02  0.7816164E-02  0.1312668E+00
        -11   -1    0    0    0    0  0.00000000000E+00  0.00000000000E+00  0.45593999997E+02  0.45594000000E+02  0.51100000000E-03 0.  1.
         11   -1    0    0    0    0 -0.00000000000E+00 -0.00000000000E+00 -0.45593999997E+02  0.45594000000E+02  0.51100000000E-03 0. -1.
    9900012    2    1    2    0    0 -0.24150593220E+02  0.35821937754E+02  0.41425267051E+01  0.47787275296E+02  0.20000019385E+02 0.  0.
        -12    1    1    2    0    0  0.24150593220E+02 -0.35821937754E+02 -0.41425267051E+01  0.43400724704E+02  0.00000000000E+00 0.  1.
         11    1    3    3    0    0 -0.21480859008E+01  0.16288435646E+01  0.16990003165E+01  0.31865352237E+01  0.51100000000E-03 0. -1.
        -11    1    3    3    0    0 -0.59804446411E+01 -0.80489876881E+00  0.37221319704E-01  0.60344814044E+01  0.51100000000E-03 0.  1.
        -12    1    3    3    0    0 -0.16022062678E+02  0.34997992958E+02  0.24063050689E+01  0.38566258668E+02  0.00000000000E+00 0.  1.
</event>
<event>
 7    1  0.2458979E-009  0.4778727E+02  0.7816164E-02  0.1312668E+00
        -11   -1    0    0    0    0  0.00000000000E+00  0.00000000000E+00  0.45593999997E+02  0.45594000000E+02  0.51100000000E-03 0.  1.
         11   -1    0    0    0    0 -0.00000000000E+00 -0.00000000000E+00 -0.45593999997E+02  0.45594000000E+02  0.51100000000E-03 0. -1.
    9900012    2    1    2    0    0  0.27701736410E+02 -0.74081271643E+01 -0.32578469443E+02  0.47787271672E+02  0.20000002860E+02 0.  0.
        -12    1    1    2    0    0 -0.27701736410E+02  0.74081271643E+01  0.32578469443E+02  0.43400728328E+02  0.00000000000E+00 0.  1.
         11    1    3    3    0    0  0.65097306304E+01 -0.12517274947E+01 -0.73343694049E+01  0.98861716266E+01  0.51100000000E-03 0. -1.
        -11    1    3    3    0    0  0.23789465266E+02 -0.38293304482E+01 -0.24442880017E+02  0.34322832242E+02  0.51100000000E-03 0.  1.
        -12    1    3    3    0    0 -0.25974594870E+01 -0.23270692214E+01 -0.80122002130E+00  0.35782678031E+01  0.00000000000E+00 0.  1.
</event>
<event>
 7    1  0.2458979E-009  0.4778726E+02  0.7816164E-02  0.1312668E+00
        -11   -1    0    0    0    0  0.00000000000E+00  0.00000000000E+00  0.45593999997E+02  0.45594000000E+02  0.51100000000E-03 0.  1.
         11   -1    0    0    0    0 -0.00000000000E+00 -0.00000000000E+00 -0.45593999997E+02  0.45594000000E+02  0.51100000000E-03 0. -1.
    9900012    2    1    2    0    0  0.13522648863E+01 -0.30479577891E+02 -0.30867308865E+02  0.47787262157E+02  0.19999959479E+02 0.  0.
        -12    1    1    2    0    0 -0.13522648863E+01  0.30479577891E+02  0.30867308865E+02  0.43400737843E+02  0.00000000000E+00 0.  1.
         11    1    3    3    0    0  0.47924963424E+01 -0.56151354277E+01 -0.16496979727E+02  0.18073408849E+02  0.51100000000E-03 0.  1.
        -11    1    3    3    0    0 -0.28700025649E+01 -0.97282543811E+01 -0.24384814586E+01  0.10431780294E+02  0.51100000000E-03 0. -1.
         12    1    3    3    0    0 -0.57022889111E+00 -0.15136188082E+02 -0.11931847680E+02  0.19282073013E+02  0.00000000000E+00 0. -1.
</event>
<event>
 7    1  0.2458979E-009  0.4778727E+02  0.7816164E-02  0.1312668E+00
        -11   -1    0    0    0    0  0.00000000000E+00  0.00000000000E+00  0.45593999997E+02  0.45594000000E+02  0.51100000000E-03 0. -1.
         11   -1    0    0    0    0 -0.00000000000E+00 -0.00000000000E+00 -0.45593999997E+02  0.45594000000E+02  0.51100000000E-03 0.  1.
    9900012    2    1    2    0    0  0.14186984473E+02  0.39857267441E+02  0.96825006626E+01  0.47787272871E+02  0.20000008327E+02 0.  0.
        -12    1    1    2    0    0 -0.14186984473E+02 -0.39857267441E+02 -0.96825006626E+01  0.43400727129E+02  0.00000000000E+00 0.  1.
         11    1    3    3    0    0  0.33363513845E+01  0.97702211960E+01 -0.14847353654E+01  0.10430383605E+02  0.51100000000E-03 0. -1.
        -11    1    3    3    0    0  0.95466693579E+01  0.25286069963E+02  0.15149556304E+02  0.30984403923E+02  0.51100000000E-03 0.  1.
        -12    1    3    3    0    0  0.13039637305E+01  0.48009762815E+01 -0.39823202756E+01  0.63724853427E+01  0.00000000000E+00 0.  1.
</event>
<event>
 7    1  0.2458979E-009  0.4778727E+02  0.7816164E-02  0.1312668E+00
        -11   -1    0    0    0    0  0.00000000000E+00  0.00000000000E+00  0.45593999997E+02  0.45594000000E+02  0.51100000000E-03 0. -1.
         11   -1    0    0    0    0 -0.00000000000E+00 -0.00000000000E+00 -0.45593999997E+02  0.45594000000E+02  0.51100000000E-03 0.  1.
    9900012    2    1    2    0    0 -0.37454966430E+02 -0.82369521536E+01 -0.20319974218E+02  0.47787271397E+02  0.20000001607E+02 0.  0.
        -12    1    1    2    0    0  0.37454966430E+02  0.82369521536E+01  0.20319974218E+02  0.43400728603E+02  0.00000000000E+00 0.  1.
         11    1    3    3    0    0 -0.21027035978E+02  0.10453947402E+01 -0.12151554643E+02  0.24308216156E+02  0.51100000000E-03 0. -1.
        -11    1    3    3    0    0 -0.12734066438E+02 -0.11068210055E+02 -0.34405885820E+01  0.17219157120E+02  0.51100000000E-03 0.  1.
         12    1    3    3    0    0 -0.36938640141E+01  0.17858631611E+01 -0.47278309935E+01  0.62598981212E+01  0.00000000000E+00 0. -1.
</event>
<event>
 7    1  0.2458979E-009  0.4778729E+02  0.7816164E-02  0.1312668E+00
        -11   -1    0    0    0    0  0.00000000000E+00  0.00000000000E+00  0.45593999997E+02  0.45594000000E+02  0.51100000000E-03 0.  1.
         11   -1    0    0    0    0 -0.00000000000E+00 -0.00000000000E+00 -0.45593999997E+02  0.45594000000E+02  0.51100000000E-03 0. -1.
    9900012    2    1    2    0    0 -0.24359331549E+02  0.29520416862E+02  0.20464350089E+02  0.47787289524E+02  0.20000084257E+02 0.  0.
        -12    1    1    2    0    0  0.24359331549E+02 -0.29520416862E+02 -0.20464350089E+02  0.43400710476E+02  0.00000000000E+00 0.  1.
         11    1    3    3    0    0 -0.77618068375E+01  0.93343959761E+01 -0.26949673020E+01  0.12435410835E+02  0.51100000000E-03 0. -1.
        -11    1    3    3    0    0 -0.15999052628E+02  0.20089757439E+02  0.21202620173E+02  0.33303440384E+02  0.51100000000E-03 0.  1.
         12    1    3    3    0    0 -0.59847208309E+00  0.96263447058E-01  0.19566972183E+01  0.20484383050E+01  0.00000000000E+00 0. -1.
</event>
<event>
 7    1  0.2458979E-009  0.4778727E+02  0.7816164E-02  0.1312668E+00
        -11   -1    0    0    0    0  0.00000000000E+00  0.00000000000E+00  0.45593999997E+02  0.45594000000E+02  0.51100000000E-03 0.  1.
         11   -1    0    0    0    0 -0.00000000000E+00 -0.00000000000E+00 -0.45593999997E+02  0.45594000000E+02  0.51100000000E-03 0. -1.
    9900012    2    1    2    0    0 -0.38302377876E+02 -0.12480082646E+02 -0.16149269225E+02  0.47787268321E+02  0.19999987581E+02 0.  0.
        -12    1    1    2    0    0  0.38302377876E+02  0.12480082646E+02  0.16149269225E+02  0.43400731679E+02  0.00000000000E+00 0.  1.
         11    1    3    3    0    0 -0.14085604456E+02 -0.12812785348E+01 -0.13322050396E+02  0.19429949938E+02  0.51100000000E-03 0. -1.
        -11    1    3    3    0    0 -0.24750552822E+01  0.50909140894E+00  0.19674374823E+01  0.32024807916E+01  0.51100000000E-03 0.  1.
         12    1    3    3    0    0 -0.21741718138E+02 -0.11707895520E+02 -0.47946563113E+01  0.25154837591E+02  0.00000000000E+00 0. -1.
</event>
<event>
 7    1  0.2458979E-009  0.4778725E+02  0.7816164E-02  0.1312668E+00
        -11   -1    0    0    0    0  0.00000000000E+00  0.00000000000E+00  0.45593999997E+02  0.45594000000E+02  0.51100000000E-03 0. -1.
         11   -1    0    0    0    0 -0.00000000000E+00 -0.00000000000E+00 -0.45593999997E+02  0.45594000000E+02  0.51100000000E-03 0.  1.
    9900012    2    1    2    0    0  0.19723422311E+02  0.17187206469E+02  0.34629640944E+02  0.47787245562E+02  0.19999883816E+02 0.  0.
        -12    1    1    2    0    0 -0.19723422311E+02 -0.17187206469E+02 -0.34629640944E+02  0.43400754438E+02  0.00000000000E+00 0.  1.
         11    1    3    3    0    0  0.84369493862E+01  0.14606609254E+02  0.29710443708E+02  0.34164976429E+02  0.51100000000E-03 0. -1.
        -11    1    3    3    0    0  0.11151871342E+02  0.10923559414E+01  0.44424070081E+01  0.12053732045E+02  0.51100000000E-03 0.  1.
         12    1    3    3    0    0  0.13460158345E+00  0.14882412734E+01  0.47679022792E+00  0.15685370877E+01  0.00000000000E+00 0. -1.
</event>
<event>
 7    1  0.2458979E-009  0.4778726E+02  0.7816164E-02  0.1312668E+00
        -11   -1    0    0    0    0  0.00000000000E+00  0.00000000000E+00  0.45593999997E+02  0.45594000000E+02  0.51100000000E-03 0.  1.
         11   -1    0    0    0    0 -0.00000000000E+00 -0.00000000000E+00 -0.45593999997E+02  0.45594000000E+02  0.51100000000E-03 0. -1.
    9900012    2    1    2    0    0  0.36694111795E+02  0.31068163048E+01 -0.22967668960E+02  0.47787263077E+02  0.19999963672E+02 0.  0.
        -12    1    1    2    0    0 -0.36694111795E+02 -0.31068163048E+01  0.22967668960E+02  0.43400736923E+02  0.00000000000E+00 0.  1.
         11    1    3    3    0    0  0.13814598041E+02  0.69171638155E+01 -0.45129169110E+01  0.16095238228E+02  0.51100000000E-03 0. -1.
        -11    1    3    3    0    0  0.12981917429E+01 -0.39421061169E+01 -0.35769118364E+01  0.54790328512E+01  0.51100000000E-03 0.  1.
        -12    1    3    3    0    0  0.21581322011E+02  0.13175860622E+00 -0.14877840213E+02  0.26212991998E+02  0.00000000000E+00 0.  1.
</event>
<event>
 7    1  0.2458979E-009  0.4778726E+02  0.7816164E-02  0.1312668E+00
        -11   -1    0    0    0    0  0.00000000000E+00  0.00000000000E+00  0.45593999997E+02  0.45594000000E+02  0.51100000000E-03 0.  1.
         11   -1    0    0    0    0 -0.00000000000E+00 -0.00000000000E+00 -0.45593999997E+02  0.45594000000E+02  0.51100000000E-03 0. -1.
    9900012    2    1    2    0    0  0.15437399225E+02 -0.40309361085E+02  0.45239449482E+01  0.47787263096E+02  0.19999963760E+02 0.  0.
        -12    1    1    2    0    0 -0.15437399225E+02  0.40309361085E+02 -0.45239449482E+01  0.43400736904E+02  0.00000000000E+00 0.  1.
         11    1    3    3    0    0  0.16023533077E+02 -0.29049843424E+02  0.83647178141E+01  0.34214259010E+02  0.51100000000E-03 0.  1.
        -11    1    3    3    0    0 -0.19440818398E+01 -0.11475637810E+02 -0.35383777733E+01  0.12165107269E+02  0.51100000000E-03 0. -1.
        -12    1    3    3    0    0  0.13579479873E+01  0.21612014881E+00 -0.30239509257E+00  0.14078968168E+01  0.00000000000E+00 0.  1.
</event>
<event>
 7    1  0.2458979E-009  0.4778730E+02  0.7816164E-02  0.1312668E+00
        -11   -1    0    0    0    0  0.00000000000E+00  0.00000000000E+00  0.45593999997E+02  0.45594000000E+02  0.51100000000E-03 0.  1.
         11   -1    0    0    0    0 -0.00000000000E+00 -0.00000000000E+00 -0.45593999997E+02  0.45594000000E+02  0.51100000000E-03 0. -1.
    9900012    2    1    2    0    0 -0.91320423935E+01  0.29138284283E+02 -0.30841323792E+02  0.47787296521E+02  0.20000116157E+02 0.  0.
        -12    1    1    2    0    0  0.91320423935E+01 -0.29138284283E+02  0.30841323792E+02  0.43400703479E+02  0.00000000000E+00 0.  1.
         11    1    3    3    0    0 -0.13089068156E+02  0.16285667543E+02 -0.17796630101E+02  0.27445704869E+02  0.51100000000E-03 0. -1.
        -11    1    3    3    0    0  0.52966833816E+01  0.12009291154E+02 -0.87767390996E+01  0.15789524323E+02  0.51100000000E-03 0.  1.
        -12    1    3    3    0    0 -0.13396576189E+01  0.84332558636E+00 -0.42679545907E+01  0.45520673291E+01  0.00000000000E+00 0.  1.
</event>
<event>
 7    1  0.2458979E-009  0.4778727E+02  0.7816164E-02  0.1312668E+00
        -11   -1    0    0    0    0  0.00000000000E+00  0.00000000000E+00  0.45593999997E+02  0.45594000000E+02  0.51100000000E-03 0.  1.
         11   -1    0    0    0    0 -0.00000000000E+00 -0.00000000000E+00 -0.45593999997E+02  0.45594000000E+02  0.51100000000E-03 0. -1.
    9900012    2    1    2    0    0 -0.58662172441E+01  0.92396605816E+01 -0.41998084952E+02  0.47787274522E+02  0.20000015855E+02 0.  0.
        -12    1    1    2    0    0  0.58662172441E+01 -0.92396605816E+01  0.41998084952E+02  0.43400725478E+02  0.00000000000E+00 0.  1.
         11    1    3    3    0    0 -0.18993489060E+01  0.98353436713E+01 -0.17879081904E+02  0.20493976710E+02  0.51100000000E-03 0. -1.
        -11    1    3    3    0    0 -0.72249605816E+01 -0.46165497461E+00 -0.22532483534E+02  0.23666981117E+02  0.51100000000E-03 0.  1.
        -12    1    3    3    0    0  0.32580922435E+01 -0.13402811509E+00 -0.15865195135E+01  0.36263166946E+01  0.00000000000E+00 0.  1.
</event>
<event>
 7    1  0.2458979E-009  0.4778727E+02  0.7816164E-02  0.1312668E+00
        -11   -1    0    0    0    0  0.00000000000E+00  0.00000000000E+00  0.45593999997E+02  0.45594000000E+02  0.51100000000E-03 0.  1.
         11   -1    0    0    0    0 -0.00000000000E+00 -0.00000000000E+00 -0.45593999997E+02  0.45594000000E+02  0.51100000000E-03 0. -1.
    9900012    2    1    2    0    0  0.59576248553E+01  0.13357525975E+01 -0.42969125296E+02  0.47787271232E+02  0.20000000855E+02 0.  0.
        -12    1    1    2    0    0 -0.59576248553E+01 -0.13357525975E+01  0.42969125296E+02  0.43400728768E+02  0.00000000000E+00 0.  1.
         11    1    3    3    0    0  0.11454556093E+02 -0.32183532082E+00 -0.37073015211E+02  0.38803593781E+02  0.51100000000E-03 0. -1.
        -11    1    3    3    0    0 -0.51975839921E+01  0.95204300300E+00 -0.31926470301E+01  0.61736748015E+01  0.51100000000E-03 0.  1.
        -12    1    3    3    0    0 -0.29934724538E+00  0.70554491534E+00 -0.27034630546E+01  0.28100026492E+01  0.00000000000E+00 0.  1.
</event>
<event>
 7    1  0.2458979E-009  0.4778728E+02  0.7816164E-02  0.1312668E+00
        -11   -1    0    0    0    0  0.00000000000E+00  0.00000000000E+00  0.45593999997E+02  0.45594000000E+02  0.51100000000E-03 0.  1.
         11   -1    0    0    0    0 -0.00000000000E+00 -0.00000000000E+00 -0.45593999997E+02  0.45594000000E+02  0.51100000000E-03 0. -1.
    9900012    2    1    2    0    0 -0.16649501551E+02 -0.39982516846E+02 -0.27955928442E+01  0.47787275414E+02  0.20000019923E+02 0.  0.
        -12    1    1    2    0    0  0.16649501551E+02  0.39982516846E+02  0.27955928442E+01  0.43400724586E+02  0.00000000000E+00 0.  1.
         11    1    3    3    0    0 -0.88690101106E+01 -0.19803399774E+02 -0.85569645220E+01  0.23325000001E+02  0.51100000000E-03 0. -1.
        -11    1    3    3    0    0  0.29343038838E+00 -0.89449089621E+01  0.57314651388E+01  0.10627661579E+02  0.51100000000E-03 0.  1.
         12    1    3    3    0    0 -0.80739218286E+01 -0.11234208110E+02  0.29906539049E-01  0.13834613835E+02  0.00000000000E+00 0. -1.
</event>
<event>
 7    1  0.2458979E-009  0.4778727E+02  0.7816164E-02  0.1312668E+00
        -11   -1    0    0    0    0  0.00000000000E+00  0.00000000000E+00  0.45593999997E+02  0.45594000000E+02  0.51100000000E-03 0. -1.
         11   -1    0    0    0    0 -0.00000000000E+00 -0.00000000000E+00 -0.45593999997E+02  0.45594000000E+02  0.51100000000E-03 0.  1.
    9900012    2    1    2    0    0  0.27516920383E+02 -0.31315024281E+01  0.33416104020E+02  0.47787271634E+02  0.20000002689E+02 0.  0.
        -12    1    1    2    0    0 -0.27516920383E+02  0.31315024281E+01 -0.33416104020E+02  0.43400728366E+02  0.00000000000E+00 0.  1.
         11    1    3    3    0    0  0.20020081740E+02  0.45472746541E+01  0.27984464552E+02  0.34707515558E+02  0.51100000000E-03 0. -1.
        -11    1    3    3    0    0  0.20786176350E+01 -0.58041084517E+01  0.28492692482E+01  0.67916611886E+01  0.51100000000E-03 0.  1.
        -12    1    3    3    0    0  0.54182210086E+01 -0.18746686305E+01  0.25823702191E+01  0.62880948880E+01  0.00000000000E+00 0.  1.
</event>
<event>
 7    1  0.2458979E-009  0.4778727E+02  0.7816164E-02  0.1312668E+00
        -11   -1    0    0    0    0  0.00000000000E+00  0.00000000000E+00  0.45593999997E+02  0.45594000000E+02  0.51100000000E-03 0. -1.
         11   -1    0    0    0    0 -0.00000000000E+00 -0.00000000000E+00 -0.45593999997E+02  0.45594000000E+02  0.51100000000E-03 0.  1.
    9900012    2    1    2    0    0 -0.18563306652E+01  0.37853980385E+02  0.21148376706E+02  0.47787266920E+02  0.19999981196E+02 0.  0.
        -12    1    1    2    0    0  0.18563306652E+01 -0.37853980385E+02 -0.21148376706E+02  0.43400733080E+02  0.00000000000E+00 0.  1.
         11    1    3    3    0    0 -0.31967270119E+01  0.30951022194E+02  0.12205545443E+02  0.33423946180E+02  0.51100000000E-03 0. -1.
        -11    1    3    3    0    0  0.40964534171E+01  0.68800276775E+01  0.83007821377E+01  0.11533373132E+02  0.51100000000E-03 0.  1.
         12    1    3    3    0    0 -0.27560570704E+01  0.22930513578E-01  0.64204912614E+00  0.28299476080E+01  0.00000000000E+00 0. -1.
</event>
<event>
 7    1  0.2458979E-009  0.4778727E+02  0.7816164E-02  0.1312668E+00
        -11   -1    0    0    0    0  0.00000000000E+00  0.00000000000E+00  0.45593999997E+02  0.45594000000E+02  0.51100000000E-03 0.  1.
         11   -1    0    0    0    0 -0.00000000000E+00 -0.00000000000E+00 -0.45593999997E+02  0.45594000000E+02  0.51100000000E-03 0. -1.
    9900012    2    1    2    0    0  0.22075488830E+02 -0.22724821513E+02 -0.29662745810E+02  0.47787271794E+02  0.20000003416E+02 0.  0.
        -12    1    1    2    0    0 -0.22075488830E+02  0.22724821513E+02  0.29662745810E+02  0.43400728206E+02  0.00000000000E+00 0.  1.
         11    1    3    3    0    0  0.15903558382E+02 -0.18242144801E+02 -0.26602686476E+02  0.35963897789E+02  0.51100000000E-03 0. -1.
        -11    1    3    3    0    0 -0.20377579474E+01 -0.85510657020E-01 -0.10574501735E+01  0.22973834367E+01  0.51100000000E-03 0.  1.
         12    1    3    3    0    0  0.82096883947E+01 -0.43971660549E+01 -0.20026091604E+01  0.95259905680E+01  0.00000000000E+00 0. -1.
</event>
<event>
 7    1  0.2458979E-009  0.4778725E+02  0.7816164E-02  0.1312668E+00
        -11   -1    0    0    0    0  0.00000000000E+00  0.00000000000E+00  0.45593999997E+02  0.45594000000E+02  0.51100000000E-03 0. -1.
         11   -1    0    0    0    0 -0.00000000000E+00 -0.00000000000E+00 -0.45593999997E+02  0.45594000000E+02  0.51100000000E-03 0.  1.
    9900012    2    1    2    0    0 -0.20986340901E+02  0.37723639547E+02 -0.44861539055E+01  0.47787250445E+02  0.19999906077E+02 0.  0.
        -12    1    1    2    0    0  0.20986340901E+02 -0.37723639547E+02  0.44861539055E+01  0.43400749555E+02  0.00000000000E+00 0.  1.
         11    1    3    3    0    0  0.60601327678E-01 -0.11648641068E+01  0.19384271470E+01  0.22623176111E+01  0.51100000000E-03 0. -1.
        -11    1    3    3    0    0 -0.63673638656E+00  0.78747219978E+01 -0.38610912290E+00  0.79098521026E+01  0.51100000000E-03 0.  1.
         12    1    3    3    0    0 -0.20410205842E+02  0.31013781656E+02 -0.60384719296E+01  0.37615080731E+02  0.00000000000E+00 0. -1.
</event>
<event>
 7    1  0.2458979E-009  0.4778727E+02  0.7816164E-02  0.1312668E+00
        -11   -1    0    0    0    0  0.00000000000E+00  0.00000000000E+00  0.45593999997E+02  0.45594000000E+02  0.51100000000E-03 0.  1.
         11   -1    0    0    0    0 -0.00000000000E+00 -0.00000000000E+00 -0.45593999997E+02  0.45594000000E+02  0.51100000000E-03 0. -1.
    9900012    2    1    2    0    0 -0.14041935917E+02 -0.13015266109E+01 -0.41045745635E+02  0.47787272235E+02  0.20000005430E+02 0.  0.
        -12    1    1    2    0    0  0.14041935917E+02  0.13015266109E+01  0.41045745635E+02  0.43400727765E+02  0.00000000000E+00 0.  1.
         11    1    3    3    0    0 -0.10882880599E+02 -0.64673180125E+00 -0.32045690816E+02  0.33849396631E+02  0.51100000000E-03 0. -1.
        -11    1    3    3    0    0  0.35496107251E+01 -0.13540016796E+00 -0.49215507346E+01  0.60695742355E+01  0.51100000000E-03 0.  1.
         12    1    3    3    0    0 -0.67086660432E+01 -0.51939464168E+00 -0.40785040844E+01  0.78683013693E+01  0.00000000000E+00 0. -1.
</event>
<event>
 7    1  0.2458979E-009  0.4778727E+02  0.7816164E-02  0.1312668E+00
        -11   -1    0    0    0    0  0.00000000000E+00  0.00000000000E+00  0.45593999997E+02  0.45594000000E+02  0.51100000000E-03 0. -1.
         11   -1    0    0    0    0 -0.00000000000E+00 -0.00000000000E+00 -0.45593999997E+02  0.45594000000E+02  0.51100000000E-03 0.  1.
    9900012    2    1    2    0    0  0.25144903729E+02  0.34589444474E+02 -0.74112970066E+01  0.47787272174E+02  0.20000005148E+02 0.  0.
        -12    1    1    2    0    0 -0.25144903729E+02 -0.34589444474E+02  0.74112970066E+01  0.43400727826E+02  0.00000000000E+00 0.  1.
         11    1    3    3    0    0  0.64540483862E+01  0.98516994329E+01 -0.12812182699E-01  0.11777558605E+02  0.51100000000E-03 0. -1.
        -11    1    3    3    0    0  0.13648880085E+02  0.86737652890E+01  0.26721996388E+01  0.16391058020E+02  0.51100000000E-03 0.  1.
        -12    1    3    3    0    0  0.50419752583E+01  0.16063979752E+02 -0.10070684463E+02  0.19618655548E+02  0.00000000000E+00 0.  1.
</event>
<event>
 7    1  0.2458979E-009  0.4778727E+02  0.7816164E-02  0.1312668E+00
        -11   -1    0    0    0    0  0.00000000000E+00  0.00000000000E+00  0.45593999997E+02  0.45594000000E+02  0.51100000000E-03 0.  1.
         11   -1    0    0    0    0 -0.00000000000E+00 -0.00000000000E+00 -0.45593999997E+02  0.45594000000E+02  0.51100000000E-03 0. -1.
    9900012    2    1    2    0    0  0.30435783881E+02 -0.52216230611E+01 -0.30496243189E+02  0.47787272627E+02  0.20000007217E+02 0.  0.
        -12    1    1    2    0    0 -0.30435783881E+02  0.52216230611E+01  0.30496243189E+02  0.43400727373E+02  0.00000000000E+00 0.  1.
         11    1    3    3    0    0  0.96007905685E+00  0.99082688654E+00 -0.62720261626E+00  0.15155438290E+01  0.51100000000E-03 0. -1.
        -11    1    3    3    0    0  0.20995406170E+01  0.46831500454E+01 -0.82903880614E+01  0.97504102283E+01  0.51100000000E-03 0.  1.
        -12    1    3    3    0    0  0.27376164207E+02 -0.10895599993E+02 -0.21578652511E+02  0.36521318570E+02  0.00000000000E+00 0.  1.
</event>
<event>
 7    1  0.2458979E-009  0.4778727E+02  0.7816164E-02  0.1312668E+00
        -11   -1    0    0    0    0  0.00000000000E+00  0.00000000000E+00  0.45593999997E+02  0.45594000000E+02  0.51100000000E-03 0.  1.
         11   -1    0    0    0    0 -0.00000000000E+00 -0.00000000000E+00 -0.45593999997E+02  0.45594000000E+02  0.51100000000E-03 0. -1.
    9900012    2    1    2    0    0  0.36615799978E+02 -0.16687711020E+02 -0.16261204158E+02  0.47787271114E+02  0.20000000319E+02 0.  0.
        -12    1    1    2    0    0 -0.36615799978E+02  0.16687711020E+02  0.16261204158E+02  0.43400728886E+02  0.00000000000E+00 0.  1.
         11    1    3    3    0    0  0.87820428668E+01 -0.16795367643E+01 -0.11720816027E+02  0.14741867224E+02  0.51100000000E-03 0. -1.
        -11    1    3    3    0    0  0.20083342367E+02 -0.11369374410E+02 -0.70361330907E+01  0.24126965914E+02  0.51100000000E-03 0.  1.
         12    1    3    3    0    0  0.77504147446E+01 -0.36387998457E+01  0.24957449594E+01  0.89184379761E+01  0.00000000000E+00 0. -1.
</event>
<event>
 7    1  0.2458979E-009  0.4778726E+02  0.7816164E-02  0.1312668E+00
        -11   -1    0    0    0    0  0.00000000000E+00  0.00000000000E+00  0.45593999997E+02  0.45594000000E+02  0.51100000000E-03 0.  1.
         11   -1    0    0    0    0 -0.00000000000E+00 -0.00000000000E+00 -0.45593999997E+02  0.45594000000E+02  0.51100000000E-03 0. -1.
    9900012    2    1    2    0    0 -0.37843134354E+02 -0.19421601270E+02 -0.86210445750E+01  0.47787264716E+02  0.19999971145E+02 0.  0.
        -12    1    1    2    0    0  0.37843134354E+02  0.19421601270E+02  0.86210445750E+01  0.43400735284E+02  0.00000000000E+00 0.  1.
         11    1    3    3    0    0 -0.11722410062E+02 -0.59671549149E-01  0.32969735498E+01  0.12177376286E+02  0.51100000000E-03 0. -1.
        -11    1    3    3    0    0 -0.17334350102E+02 -0.16463437552E+02 -0.60721458078E+01  0.24665672999E+02  0.51100000000E-03 0.  1.
         12    1    3    3    0    0 -0.87863741896E+01 -0.28984921686E+01 -0.58458723170E+01  0.10944215431E+02  0.00000000000E+00 0. -1.
</event>
<event>
 7    1  0.2458979E-009  0.4778727E+02  0.7816164E-02  0.1312668E+00
        -11   -1    0    0    0    0  0.00000000000E+00  0.00000000000E+00  0.45593999997E+02  0.45594000000E+02  0.51100000000E-03 0.  1.
         11   -1    0    0    0    0 -0.00000000000E+00 -0.00000000000E+00 -0.45593999997E+02  0.45594000000E+02  0.51100000000E-03 0. -1.
    9900012    2    1    2    0    0  0.40905093250E+02  0.12136643420E+02 -0.79434587677E+01  0.47787270691E+02  0.19999998390E+02 0.  0.
        -12    1    1    2    0    0 -0.40905093250E+02 -0.12136643420E+02  0.79434587677E+01  0.43400729309E+02  0.00000000000E+00 0.  1.
         11    1    3    3    0    0  0.15191127181E+02  0.29943248008E+01 -0.10510293898E+02  0.18713700974E+02  0.51100000000E-03 0.  1.
        -11    1    3    3    0    0  0.25785397727E+02  0.10151555192E+02  0.31750911633E+01  0.27893045960E+02  0.51100000000E-03 0. -1.
        -12    1    3    3    0    0 -0.71431658239E-01 -0.10092365724E+01 -0.60825603262E+00  0.11805237575E+01  0.00000000000E+00 0.  1.
</event>
<event>
 7    1  0.2458979E-009  0.4778727E+02  0.7816164E-02  0.1312668E+00
        -11   -1    0    0    0    0  0.00000000000E+00  0.00000000000E+00  0.45593999997E+02  0.45594000000E+02  0.51100000000E-03 0. -1.
         11   -1    0    0    0    0 -0.00000000000E+00 -0.00000000000E+00 -0.45593999997E+02  0.45594000000E+02  0.51100000000E-03 0.  1.
    9900012    2    1    2    0    0 -0.31022092686E+02  0.17010923776E+02  0.25137248671E+02  0.47787273818E+02  0.20000012647E+02 0.  0.
        -12    1    1    2    0    0  0.31022092686E+02 -0.17010923776E+02 -0.25137248671E+02  0.43400726182E+02  0.00000000000E+00 0.  1.
         11    1    3    3    0    0 -0.10033704944E+02  0.43851796350E+01  0.11984495630E+02  0.16233704786E+02  0.51100000000E-03 0. -1.
        -11    1    3    3    0    0 -0.18901096566E+02  0.93829327771E+01  0.38059114146E+01  0.21442384215E+02  0.51100000000E-03 0.  1.
        -12    1    3    3    0    0 -0.20872911767E+01  0.32428113639E+01  0.93468416270E+01  0.10111184817E+02  0.00000000000E+00 0.  1.
</event>
<event>
 7    1  0.2458979E-009  0.4778727E+02  0.7816164E-02  0.1312668E+00
        -11   -1    0    0    0    0  0.00000000000E+00  0.00000000000E+00  0.45593999997E+02  0.45594000000E+02  0.51100000000E-03 0.  1.
         11   -1    0    0    0    0 -0.00000000000E+00 -0.00000000000E+00 -0.45593999997E+02  0.45594000000E+02  0.51100000000E-03 0. -1.
    9900012    2    1    2    0    0 -0.89685693681E+01  0.90604382063E+01 -0.41486096345E+02  0.47787274580E+02  0.20000016122E+02 0.  0.
        -12    1    1    2    0    0  0.89685693681E+01 -0.90604382063E+01  0.41486096345E+02  0.43400725420E+02  0.00000000000E+00 0.  1.
         11    1    3    3    0    0 -0.79536814872E+01  0.64259181730E+01 -0.34638202289E+02  0.36115904137E+02  0.51100000000E-03 0. -1.
        -11    1    3    3    0    0  0.18761695734E+01 -0.27309237652E+01 -0.18880197566E+01  0.38134729239E+01  0.51100000000E-03 0.  1.
         12    1    3    3    0    0 -0.28910574543E+01  0.53654437984E+01 -0.49598742993E+01  0.78578975192E+01  0.00000000000E+00 0. -1.
</event>
<event>
 7    1  0.2458979E-009  0.4778727E+02  0.7816164E-02  0.1312668E+00
        -11   -1    0    0    0    0  0.00000000000E+00  0.00000000000E+00  0.45593999997E+02  0.45594000000E+02  0.51100000000E-03 0.  1.
         11   -1    0    0    0    0 -0.00000000000E+00 -0.00000000000E+00 -0.45593999997E+02  0.45594000000E+02  0.51100000000E-03 0. -1.
    9900012    2    1    2    0    0  0.38864705517E+02  0.18807257441E+02  0.44097008537E+01  0.47787265801E+02  0.19999976095E+02 0.  0.
        -12    1    1    2    0    0 -0.38864705517E+02 -0.18807257441E+02 -0.44097008537E+01  0.43400734199E+02  0.00000000000E+00 0.  1.
         11    1    3    3    0    0  0.20541878686E+02  0.15671573314E+02  0.83470225961E+01  0.27152159704E+02  0.51100000000E-03 0. -1.
        -11    1    3    3    0    0  0.10099117269E+01 -0.53368485809E-01  0.18463557806E+01  0.21051840350E+01  0.51100000000E-03 0.  1.
         12    1    3    3    0    0  0.17312915104E+02  0.31890526124E+01 -0.57836775229E+01  0.18529922062E+02  0.00000000000E+00 0. -1.
</event>
<event>
 7    1  0.2458979E-009  0.4778727E+02  0.7816164E-02  0.1312668E+00
        -11   -1    0    0    0    0  0.00000000000E+00  0.00000000000E+00  0.45593999997E+02  0.45594000000E+02  0.51100000000E-03 0.  1.
         11   -1    0    0    0    0 -0.00000000000E+00 -0.00000000000E+00 -0.45593999997E+02  0.45594000000E+02  0.51100000000E-03 0. -1.
    9900012    2    1    2    0    0 -0.42260516748E+02  0.18351994559E+01 -0.97110248315E+01  0.47787271479E+02  0.20000001982E+02 0.  0.
        -12    1    1    2    0    0  0.42260516748E+02 -0.18351994559E+01  0.97110248315E+01  0.43400728521E+02  0.00000000000E+00 0.  1.
         11    1    3    3    0    0 -0.31290991816E+02  0.72278762311E+01 -0.88753493099E+01  0.33318766323E+02  0.51100000000E-03 0. -1.
        -11    1    3    3    0    0 -0.59138145299E+01 -0.56694370503E+01  0.23046934377E+01  0.85104248346E+01  0.51100000000E-03 0.  1.
        -12    1    3    3    0    0 -0.50557104025E+01  0.27676027509E+00 -0.31403689593E+01  0.59580803221E+01  0.00000000000E+00 0.  1.
</event>
<event>
 7    1  0.2458979E-009  0.4778727E+02  0.7816164E-02  0.1312668E+00
        -11   -1    0    0    0    0  0.00000000000E+00  0.00000000000E+00  0.45593999997E+02  0.45594000000E+02  0.51100000000E-03 0. -1.
         11   -1    0    0    0    0 -0.00000000000E+00 -0.00000000000E+00 -0.45593999997E+02  0.45594000000E+02  0.51100000000E-03 0.  1.
    9900012    2    1    2    0    0 -0.40945206144E+02  0.14140924522E+02  0.26735095838E+01  0.47787270675E+02  0.19999998314E+02 0.  0.
        -12    1    1    2    0    0  0.40945206144E+02 -0.14140924522E+02 -0.26735095838E+01  0.43400729325E+02  0.00000000000E+00 0.  1.
         11    1    3    3    0    0 -0.29535725318E+02  0.82088386478E+01  0.46058052373E+01  0.30999315221E+02  0.51100000000E-03 0. -1.
        -11    1    3    3    0    0 -0.15251318766E+01 -0.28458167902E+01  0.71296425388E+00  0.33065115655E+01  0.51100000000E-03 0.  1.
        -12    1    3    3    0    0 -0.98843489488E+01  0.87779026649E+01 -0.26452599074E+01  0.13481443888E+02  0.00000000000E+00 0.  1.
</event>
<event>
 7    1  0.2458979E-009  0.4778727E+02  0.7816164E-02  0.1312668E+00
        -11   -1    0    0    0    0  0.00000000000E+00  0.00000000000E+00  0.45593999997E+02  0.45594000000E+02  0.51100000000E-03 0. -1.
         11   -1    0    0    0    0 -0.00000000000E+00 -0.00000000000E+00 -0.45593999997E+02  0.45594000000E+02  0.51100000000E-03 0.  1.
    9900012    2    1    2    0    0  0.35627583828E+02  0.16686323299E+02 -0.18326619584E+02  0.47787273047E+02  0.20000009128E+02 0.  0.
        -12    1    1    2    0    0 -0.35627583828E+02 -0.16686323299E+02  0.18326619584E+02  0.43400726953E+02  0.00000000000E+00 0.  1.
         11    1    3    3    0    0  0.11146552470E+02  0.84860836105E+01 -0.56145219372E+01  0.15092451883E+02  0.51100000000E-03 0. -1.
        -11    1    3    3    0    0  0.19950487224E+02  0.81632714810E+01 -0.16210121835E+02  0.26970891567E+02  0.51100000000E-03 0.  1.
        -12    1    3    3    0    0  0.45305441347E+01  0.36968207832E-01  0.34980241879E+01  0.57239295964E+01  0.00000000000E+00 0.  1.
</event>
<event>
 7    1  0.2458979E-009  0.4778727E+02  0.7816164E-02  0.1312668E+00
        -11   -1    0    0    0    0  0.00000000000E+00  0.00000000000E+00  0.45593999997E+02  0.45594000000E+02  0.51100000000E-03 0. -1.
         11   -1    0    0    0    0 -0.00000000000E+00 -0.00000000000E+00 -0.45593999997E+02  0.45594000000E+02  0.51100000000E-03 0.  1.
    9900012    2    1    2    0    0 -0.19387603773E+02  0.16609065033E+02  0.35098190315E+02  0.47787272071E+02  0.20000004682E+02 0.  0.
        -12    1    1    2    0    0  0.19387603773E+02 -0.16609065033E+02 -0.35098190315E+02  0.43400727929E+02  0.00000000000E+00 0.  1.
         11    1    3    3    0    0 -0.13689715844E+02  0.11226567981E+02  0.20252812231E+02  0.26900196134E+02  0.51100000000E-03 0. -1.
        -11    1    3    3    0    0  0.39736364760E+01  0.15763504704E+01  0.48861805575E+01  0.64922591099E+01  0.51100000000E-03 0.  1.
        -12    1    3    3    0    0 -0.96715244049E+01  0.38061465823E+01  0.99591975264E+01  0.14394816827E+02  0.00000000000E+00 0.  1.
</event>
<event>
 7    1  0.2458979E-009  0.4778727E+02  0.7816164E-02  0.1312668E+00
        -11   -1    0    0    0    0  0.00000000000E+00  0.00000000000E+00  0.45593999997E+02  0.45594000000E+02  0.51100000000E-03 0.  1.
         11   -1    0    0    0    0 -0.00000000000E+00 -0.00000000000E+00 -0.45593999997E+02  0.45594000000E+02  0.51100000000E-03 0. -1.
    9900012    2    1    2    0    0  0.20964327499E+02 -0.38472051044E+01 -0.37806335588E+02  0.47787273909E+02  0.20000013061E+02 0.  0.
        -12    1    1    2    0    0 -0.20964327499E+02  0.38472051044E+01  0.37806335588E+02  0.43400726091E+02  0.00000000000E+00 0.  1.
         11    1    3    3    0    0  0.49772767140E+01  0.43359154850E+01 -0.17364735902E+02  0.18577069193E+02  0.51100000000E-03 0. -1.
        -11    1    3    3    0    0  0.75767467593E+01 -0.89654898007E+00 -0.23734099752E+01  0.79902419676E+01  0.51100000000E-03 0.  1.
         12    1    3    3    0    0  0.84103040260E+01 -0.72865716094E+01 -0.18068189711E+02  0.21219962749E+02  0.00000000000E+00 0. -1.
</event>
<event>
 7    1  0.2458979E-009  0.4778728E+02  0.7816164E-02  0.1312668E+00
        -11   -1    0    0    0    0  0.00000000000E+00  0.00000000000E+00  0.45593999997E+02  0.45594000000E+02  0.51100000000E-03 0.  1.
         11   -1    0    0    0    0 -0.00000000000E+00 -0.00000000000E+00 -0.45593999997E+02  0.45594000000E+02  0.51100000000E-03 0. -1.
    9900012    2    1    2    0    0 -0.29239196826E+02  0.31600641441E+02 -0.54855702974E+01  0.47787278209E+02  0.20000032664E+02 0.  0.
        -12    1    1    2    0    0  0.29239196826E+02 -0.31600641441E+02  0.54855702974E+01  0.43400721791E+02  0.00000000000E+00 0.  1.
         11    1    3    3    0    0 -0.11184991748E+02  0.25126858027E+02 -0.16377234710E+01  0.27552589228E+02  0.51100000000E-03 0. -1.
        -11    1    3    3    0    0 -0.70472950757E+01 -0.36930896369E-01 -0.18985491993E+01  0.72986451550E+01  0.51100000000E-03 0.  1.
         12    1    3    3    0    0 -0.11006910002E+02  0.65107143107E+01 -0.19492976270E+01  0.12936043826E+02  0.00000000000E+00 0. -1.
</event>
<event>
 7    1  0.2458979E-009  0.4778728E+02  0.7816164E-02  0.1312668E+00
        -11   -1    0    0    0    0  0.00000000000E+00  0.00000000000E+00  0.45593999997E+02  0.45594000000E+02  0.51100000000E-03 0.  1.
         11   -1    0    0    0    0 -0.00000000000E+00 -0.00000000000E+00 -0.45593999997E+02  0.45594000000E+02  0.51100000000E-03 0. -1.
    9900012    2    1    2    0    0 -0.26536638238E+02 -0.34231385169E+02  0.27642730918E+01  0.47787284508E+02  0.20000061383E+02 0.  0.
        -12    1    1    2    0    0  0.26536638238E+02  0.34231385169E+02 -0.27642730918E+01  0.43400715492E+02  0.00000000000E+00 0.  1.
         11    1    3    3    0    0 -0.96414357633E+00 -0.59209390557E+01 -0.34042662165E+01  0.68975445537E+01  0.51100000000E-03 0. -1.
        -11    1    3    3    0    0 -0.93144396163E+01 -0.74356042159E+01 -0.39589475614E+01  0.12558672759E+02  0.51100000000E-03 0.  1.
         12    1    3    3    0    0 -0.16258055045E+02 -0.20874841897E+02  0.10127486870E+02  0.28331067194E+02  0.00000000000E+00 0. -1.
</event>
<event>
 7    1  0.2458979E-009  0.4778727E+02  0.7816164E-02  0.1312668E+00
        -11   -1    0    0    0    0  0.00000000000E+00  0.00000000000E+00  0.45593999997E+02  0.45594000000E+02  0.51100000000E-03 0.  1.
         11   -1    0    0    0    0 -0.00000000000E+00 -0.00000000000E+00 -0.45593999997E+02  0.45594000000E+02  0.51100000000E-03 0. -1.
    9900012    2    1    2    0    0  0.28727990388E+02  0.31488152604E+02 -0.81744784066E+01  0.47787270935E+02  0.19999999500E+02 0.  0.
        -12    1    1    2    0    0 -0.28727990388E+02 -0.31488152604E+02  0.81744784066E+01  0.43400729065E+02  0.00000000000E+00 0.  1.
         11    1    3    3    0    0  0.48789286723E+01  0.82670860452E+01 -0.63574247378E+01  0.11513709490E+02  0.51100000000E-03 0. -1.
        -11    1    3    3    0    0 -0.11242557871E+01 -0.25064356746E+00 -0.16360081372E+01  0.20008238701E+01  0.51100000000E-03 0.  1.
        -12    1    3    3    0    0  0.24973317503E+02  0.23471710127E+02 -0.18104553152E+00  0.34272737574E+02  0.00000000000E+00 0.  1.
</event>
<event>
 7    1  0.2458979E-009  0.4778727E+02  0.7816164E-02  0.1312668E+00
        -11   -1    0    0    0    0  0.00000000000E+00  0.00000000000E+00  0.45593999997E+02  0.45594000000E+02  0.51100000000E-03 0.  1.
         11   -1    0    0    0    0 -0.00000000000E+00 -0.00000000000E+00 -0.45593999997E+02  0.45594000000E+02  0.51100000000E-03 0. -1.
    9900012    2    1    2    0    0  0.40845841953E+02 -0.58571106638E+01 -0.13451202446E+02  0.47787269621E+02  0.19999993511E+02 0.  0.
        -12    1    1    2    0    0 -0.40845841953E+02  0.58571106638E+01  0.13451202446E+02  0.43400730379E+02  0.00000000000E+00 0.  1.
         11    1    3    3    0    0  0.10344975805E+02 -0.32148028611E+01  0.32446955711E+01  0.11308471668E+02  0.51100000000E-03 0. -1.
        -11    1    3    3    0    0  0.29528799488E+02 -0.29116159684E+01 -0.12558526097E+02  0.32220243400E+02  0.51100000000E-03 0.  1.
        -12    1    3    3    0    0  0.97206665976E+00  0.26930816578E+00 -0.41373719207E+01  0.42585545540E+01  0.00000000000E+00 0.  1.
</event>
<event>
 7    1  0.2458979E-009  0.4778727E+02  0.7816164E-02  0.1312668E+00
        -11   -1    0    0    0    0  0.00000000000E+00  0.00000000000E+00  0.45593999997E+02  0.45594000000E+02  0.51100000000E-03 0. -1.
         11   -1    0    0    0    0 -0.00000000000E+00 -0.00000000000E+00 -0.45593999997E+02  0.45594000000E+02  0.51100000000E-03 0.  1.
    9900012    2    1    2    0    0  0.33514102791E+02  0.21447939214E+02  0.17332456781E+02  0.47787271429E+02  0.20000001753E+02 0.  0.
        -12    1    1    2    0    0 -0.33514102791E+02 -0.21447939214E+02 -0.17332456781E+02  0.43400728571E+02  0.00000000000E+00 0.  1.
         11    1    3    3    0    0  0.19836900425E+02  0.21485071799E+02  0.98373180977E+01  0.30852613443E+02  0.51100000000E-03 0. -1.
        -11    1    3    3    0    0  0.39760274156E+01 -0.29435484485E+01  0.34411794980E+01  0.60261918387E+01  0.51100000000E-03 0.  1.
         12    1    3    3    0    0  0.97011749511E+01  0.29064158641E+01  0.40539591852E+01  0.10908466147E+02  0.00000000000E+00 0. -1.
</event>
<event>
 7    1  0.2458979E-009  0.4778727E+02  0.7816164E-02  0.1312668E+00
        -11   -1    0    0    0    0  0.00000000000E+00  0.00000000000E+00  0.45593999997E+02  0.45594000000E+02  0.51100000000E-03 0. -1.
         11   -1    0    0    0    0 -0.00000000000E+00 -0.00000000000E+00 -0.45593999997E+02  0.45594000000E+02  0.51100000000E-03 0.  1.
    9900012    2    1    2    0    0 -0.35736292766E+02  0.24120880043E+02 -0.49722933506E+01  0.47787272173E+02  0.20000005146E+02 0.  0.
        -12    1    1    2    0    0  0.35736292766E+02 -0.24120880043E+02  0.49722933506E+01  0.43400727827E+02  0.00000000000E+00 0.  1.
         11    1    3    3    0    0  0.15599510767E+01  0.27074178763E+01  0.30894805120E+00  0.31399057435E+01  0.51100000000E-03 0. -1.
        -11    1    3    3    0    0 -0.64398853207E+01 -0.52100932669E+00 -0.36280311482E+00  0.64711050080E+01  0.51100000000E-03 0.  1.
         12    1    3    3    0    0 -0.30856358522E+02  0.21934471493E+02 -0.49184382869E+01  0.38176261422E+02  0.00000000000E+00 0. -1.
</event>
<event>
 7    1  0.2458979E-009  0.4778727E+02  0.7816164E-02  0.1312668E+00
        -11   -1    0    0    0    0  0.00000000000E+00  0.00000000000E+00  0.45593999997E+02  0.45594000000E+02  0.51100000000E-03 0.  1.
         11   -1    0    0    0    0 -0.00000000000E+00 -0.00000000000E+00 -0.45593999997E+02  0.45594000000E+02  0.51100000000E-03 0. -1.
    9900012    2    1    2    0    0 -0.31525396351E+02  0.12903204694E+02 -0.26893863850E+02  0.47787271674E+02  0.20000002870E+02 0.  0.
        -12    1    1    2    0    0  0.31525396351E+02 -0.12903204694E+02  0.26893863850E+02  0.43400728326E+02  0.00000000000E+00 0.  1.
         11    1    3    3    0    0 -0.18252581897E+01  0.80605728368E+01 -0.65196356606E+01  0.10526635328E+02  0.51100000000E-03 0. -1.
        -11    1    3    3    0    0 -0.29340702078E+02  0.42456527576E+01 -0.17768415509E+02  0.34563260201E+02  0.51100000000E-03 0.  1.
         12    1    3    3    0    0 -0.35943608300E+00  0.59697909982E+00 -0.26058126800E+01  0.26973761448E+01  0.00000000000E+00 0. -1.
</event>
<event>
 7    1  0.2458979E-009  0.4778726E+02  0.7816164E-02  0.1312668E+00
        -11   -1    0    0    0    0  0.00000000000E+00  0.00000000000E+00  0.45593999997E+02  0.45594000000E+02  0.51100000000E-03 0.  1.
         11   -1    0    0    0    0 -0.00000000000E+00 -0.00000000000E+00 -0.45593999997E+02  0.45594000000E+02  0.51100000000E-03 0. -1.
    9900012    2    1    2    0    0 -0.21073435088E+02  0.31124475268E+02 -0.21697961078E+02  0.47787261043E+02  0.19999954400E+02 0.  0.
        -12    1    1    2    0    0  0.21073435088E+02 -0.31124475268E+02  0.21697961078E+02  0.43400738957E+02  0.00000000000E+00 0.  1.
         11    1    3    3    0    0 -0.16189895812E+02  0.18847355414E+02 -0.76302754228E+01  0.25991472367E+02  0.51100000000E-03 0. -1.
        -11    1    3    3    0    0 -0.12740585258E+01  0.10015310277E+01 -0.86064134930E+01  0.87576619597E+01  0.51100000000E-03 0.  1.
        -12    1    3    3    0    0 -0.36094807499E+01  0.11275588826E+02 -0.54612721621E+01  0.13038126717E+02  0.00000000000E+00 0.  1.
</event>
<event>
 7    1  0.2458979E-009  0.4778727E+02  0.7816164E-02  0.1312668E+00
        -11   -1    0    0    0    0  0.00000000000E+00  0.00000000000E+00  0.45593999997E+02  0.45594000000E+02  0.51100000000E-03 0. -1.
         11   -1    0    0    0    0 -0.00000000000E+00 -0.00000000000E+00 -0.45593999997E+02  0.45594000000E+02  0.51100000000E-03 0.  1.
    9900012    2    1    2    0    0  0.23517076010E+01 -0.21049953139E+02  0.37881290251E+02  0.47787271816E+02  0.20000003519E+02 0.  0.
        -12    1    1    2    0    0 -0.23517076010E+01  0.21049953139E+02 -0.37881290251E+02  0.43400728184E+02  0.00000000000E+00 0.  1.
         11    1    3    3    0    0 -0.10913149957E+01 -0.27728697270E+01  0.52962278235E+01  0.60769897451E+01  0.51100000000E-03 0. -1.
        -11    1    3    3    0    0  0.85280735903E+01 -0.16555751601E+02  0.16959482730E+02  0.25188191777E+02  0.51100000000E-03 0.  1.
        -12    1    3    3    0    0 -0.50850509936E+01 -0.17213318106E+01  0.15625579698E+02  0.16522090295E+02  0.00000000000E+00 0.  1.
</event>
<event>
 7    1  0.2458979E-009  0.4778727E+02  0.7816164E-02  0.1312668E+00
        -11   -1    0    0    0    0  0.00000000000E+00  0.00000000000E+00  0.45593999997E+02  0.45594000000E+02  0.51100000000E-03 0.  1.
         11   -1    0    0    0    0 -0.00000000000E+00 -0.00000000000E+00 -0.45593999997E+02  0.45594000000E+02  0.51100000000E-03 0. -1.
    9900012    2    1    2    0    0  0.20956285540E+02 -0.37991325811E+02  0.10566358848E+01  0.47787271666E+02  0.20000002835E+02 0.  0.
        -12    1    1    2    0    0 -0.20956285540E+02  0.37991325811E+02 -0.10566358848E+01  0.43400728334E+02  0.00000000000E+00 0.  1.
         11    1    3    3    0    0  0.16841706822E+02 -0.18699563175E+02  0.46265251698E+01  0.25587526004E+02  0.51100000000E-03 0. -1.
        -11    1    3    3    0    0 -0.35706352282E+00 -0.11927148603E+02 -0.58470237487E+01  0.13288041809E+02  0.51100000000E-03 0.  1.
        -12    1    3    3    0    0  0.44716422402E+01 -0.73646140338E+01  0.22771344637E+01  0.89117038526E+01  0.00000000000E+00 0.  1.
</event>
<event>
 7    1  0.2458979E-009  0.4778727E+02  0.7816164E-02  0.1312668E+00
        -11   -1    0    0    0    0  0.00000000000E+00  0.00000000000E+00  0.45593999997E+02  0.45594000000E+02  0.51100000000E-03 0.  1.
         11   -1    0    0    0    0 -0.00000000000E+00 -0.00000000000E+00 -0.45593999997E+02  0.45594000000E+02  0.51100000000E-03 0. -1.
    9900012    2    1    2    0    0  0.26033979198E+01 -0.40243633712E+02 -0.16040438902E+02  0.47787269416E+02  0.19999992574E+02 0.  0.
        -12    1    1    2    0    0 -0.26033979198E+01  0.40243633712E+02  0.16040438902E+02  0.43400730584E+02  0.00000000000E+00 0.  1.
         11    1    3    3    0    0  0.57111766504E+01 -0.15794273965E+02 -0.14866278518E+00  0.16795795000E+02  0.51100000000E-03 0.  1.
        -11    1    3    3    0    0 -0.21994242788E+01 -0.69275904917E+01  0.74772179385E-01  0.72687391148E+01  0.51100000000E-03 0. -1.
         12    1    3    3    0    0 -0.90835445177E+00 -0.17521769255E+02 -0.15966548296E+02  0.23722735301E+02  0.00000000000E+00 0. -1.
</event>
<event>
 7    1  0.2458979E-009  0.4778728E+02  0.7816164E-02  0.1312668E+00
        -11   -1    0    0    0    0  0.00000000000E+00  0.00000000000E+00  0.45593999997E+02  0.45594000000E+02  0.51100000000E-03 0.  1.
         11   -1    0    0    0    0 -0.00000000000E+00 -0.00000000000E+00 -0.45593999997E+02  0.45594000000E+02  0.51100000000E-03 0. -1.
    9900012    2    1    2    0    0  0.33263218133E+02  0.79152746679E+01 -0.26730675801E+02  0.47787282467E+02  0.20000052078E+02 0.  0.
        -12    1    1    2    0    0 -0.33263218133E+02 -0.79152746679E+01  0.26730675801E+02  0.43400717533E+02  0.00000000000E+00 0.  1.
         11    1    3    3    0    0  0.27158186714E+02  0.13959782518E+02 -0.22716043168E+02  0.38058655402E+02  0.51100000000E-03 0. -1.
        -11    1    3    3    0    0  0.27146766732E+01 -0.32376883114E+01 -0.85579764508E+00  0.43109726179E+01  0.51100000000E-03 0.  1.
         12    1    3    3    0    0  0.33903547459E+01 -0.28068195383E+01 -0.31588349879E+01  0.54176544467E+01  0.00000000000E+00 0. -1.
</event>
<event>
 7    1  0.2458979E-009  0.4778727E+02  0.7816164E-02  0.1312668E+00
        -11   -1    0    0    0    0  0.00000000000E+00  0.00000000000E+00  0.45593999997E+02  0.45594000000E+02  0.51100000000E-03 0.  1.
         11   -1    0    0    0    0 -0.00000000000E+00 -0.00000000000E+00 -0.45593999997E+02  0.45594000000E+02  0.51100000000E-03 0. -1.
    9900012    2    1    2    0    0  0.26958002223E+02 -0.91246225462E+01 -0.32766301145E+02  0.47787272919E+02  0.20000008547E+02 0.  0.
        -12    1    1    2    0    0 -0.26958002223E+02  0.91246225462E+01  0.32766301145E+02  0.43400727081E+02  0.00000000000E+00 0.  1.
         11    1    3    3    0    0  0.99228614550E+01 -0.72231239975E+01 -0.19900595541E+02  0.23380983788E+02  0.51100000000E-03 0. -1.
        -11    1    3    3    0    0  0.24857200533E+01  0.37645125849E+01 -0.59994485717E+00  0.45508563236E+01  0.51100000000E-03 0.  1.
         12    1    3    3    0    0  0.14549420714E+02 -0.56660111336E+01 -0.12265760746E+02  0.19855432808E+02  0.00000000000E+00 0. -1.
</event>
<event>
 7    1  0.2458979E-009  0.4778727E+02  0.7816164E-02  0.1312668E+00
        -11   -1    0    0    0    0  0.00000000000E+00  0.00000000000E+00  0.45593999997E+02  0.45594000000E+02  0.51100000000E-03 0.  1.
         11   -1    0    0    0    0 -0.00000000000E+00 -0.00000000000E+00 -0.45593999997E+02  0.45594000000E+02  0.51100000000E-03 0. -1.
    9900012    2    1    2    0    0 -0.10380036007E+02  0.35012788888E+02 -0.23451709621E+02  0.47787271696E+02  0.20000002969E+02 0.  0.
        -12    1    1    2    0    0  0.10380036007E+02 -0.35012788888E+02  0.23451709621E+02  0.43400728304E+02  0.00000000000E+00 0.  1.
         11    1    3    3    0    0 -0.75347450576E+01  0.22050706147E+02 -0.59017222858E+01  0.24038226866E+02  0.51100000000E-03 0. -1.
        -11    1    3    3    0    0  0.24562920540E+01  0.88326145992E+01 -0.87181489481E+01  0.12651267630E+02  0.51100000000E-03 0.  1.
         12    1    3    3    0    0 -0.53015830039E+01  0.41294681418E+01 -0.88318383869E+01  0.11097777200E+02  0.00000000000E+00 0. -1.
</event>
<event>
 7    1  0.2458979E-009  0.4778727E+02  0.7816164E-02  0.1312668E+00
        -11   -1    0    0    0    0  0.00000000000E+00  0.00000000000E+00  0.45593999997E+02  0.45594000000E+02  0.51100000000E-03 0.  1.
         11   -1    0    0    0    0 -0.00000000000E+00 -0.00000000000E+00 -0.45593999997E+02  0.45594000000E+02  0.51100000000E-03 0. -1.
    9900012    2    1    2    0    0  0.77145238468E+00 -0.54020349919E+01 -0.43056312109E+02  0.47787272665E+02  0.20000007387E+02 0.  0.
        -12    1    1    2    0    0 -0.77145238468E+00  0.54020349919E+01  0.43056312109E+02  0.43400727335E+02  0.00000000000E+00 0.  1.
         11    1    3    3    0    0  0.34190817084E+01  0.24411176960E+01 -0.30895746623E+00  0.42124375736E+01  0.51100000000E-03 0. -1.
        -11    1    3    3    0    0 -0.98511432539E+00 -0.41688564488E+01 -0.18120231006E+02  0.18619682766E+02  0.51100000000E-03 0.  1.
         12    1    3    3    0    0 -0.16625149983E+01 -0.36742962392E+01 -0.24627123636E+02  0.24955152325E+02  0.00000000000E+00 0. -1.
</event>
<event>
 7    1  0.2458979E-009  0.4778727E+02  0.7816164E-02  0.1312668E+00
        -11   -1    0    0    0    0  0.00000000000E+00  0.00000000000E+00  0.45593999997E+02  0.45594000000E+02  0.51100000000E-03 0.  1.
         11   -1    0    0    0    0 -0.00000000000E+00 -0.00000000000E+00 -0.45593999997E+02  0.45594000000E+02  0.51100000000E-03 0. -1.
    9900012    2    1    2    0    0 -0.37022763626E+02 -0.20651037678E+02  0.92990777923E+01  0.47787271533E+02  0.20000002229E+02 0.  0.
        -12    1    1    2    0    0  0.37022763626E+02  0.20651037678E+02 -0.92990777923E+01  0.43400728467E+02  0.00000000000E+00 0.  1.
         11    1    3    3    0    0 -0.59885356211E+01  0.22939637977E+00 -0.24091173134E+01  0.64590268675E+01  0.51100000000E-03 0. -1.
        -11    1    3    3    0    0 -0.24063378130E+02 -0.11218183760E+02  0.12585222773E+02  0.29381654930E+02  0.51100000000E-03 0.  1.
        -12    1    3    3    0    0 -0.69708498748E+01 -0.96622502978E+01 -0.87702766750E+00  0.11946589736E+02  0.00000000000E+00 0.  1.
</event>
<event>
 7    1  0.2458979E-009  0.4778727E+02  0.7816164E-02  0.1312668E+00
        -11   -1    0    0    0    0  0.00000000000E+00  0.00000000000E+00  0.45593999997E+02  0.45594000000E+02  0.51100000000E-03 0.  1.
         11   -1    0    0    0    0 -0.00000000000E+00 -0.00000000000E+00 -0.45593999997E+02  0.45594000000E+02  0.51100000000E-03 0. -1.
    9900012    2    1    2    0    0  0.41093070208E+02 -0.12863373098E+02 -0.54329054965E+01  0.47787271334E+02  0.20000001322E+02 0.  0.
        -12    1    1    2    0    0 -0.41093070208E+02  0.12863373098E+02  0.54329054965E+01  0.43400728666E+02  0.00000000000E+00 0.  1.
         11    1    3    3    0    0  0.33760287243E+01  0.29279541784E+01 -0.20165034670E+01  0.49027310870E+01  0.51100000000E-03 0. -1.
        -11    1    3    3    0    0  0.20022838056E+02 -0.92322945282E+01  0.43574830814E+01  0.22475252282E+02  0.51100000000E-03 0.  1.
        -12    1    3    3    0    0  0.17694203428E+02 -0.65590327486E+01 -0.77738851109E+01  0.20409287965E+02  0.00000000000E+00 0.  1.
</event>
<event>
 7    1  0.2458979E-009  0.4778728E+02  0.7816164E-02  0.1312668E+00
        -11   -1    0    0    0    0  0.00000000000E+00  0.00000000000E+00  0.45593999997E+02  0.45594000000E+02  0.51100000000E-03 0. -1.
         11   -1    0    0    0    0 -0.00000000000E+00 -0.00000000000E+00 -0.45593999997E+02  0.45594000000E+02  0.51100000000E-03 0.  1.
    9900012    2    1    2    0    0  0.33267308020E+02  0.82481690447E+01  0.26624728742E+02  0.47787282770E+02  0.20000053460E+02 0.  0.
        -12    1    1    2    0    0 -0.33267308020E+02 -0.82481690447E+01 -0.26624728742E+02  0.43400717230E+02  0.00000000000E+00 0.  1.
         11    1    3    3    0    0  0.28132246658E+02  0.17705370327E+01  0.20419720603E+02  0.34806940302E+02  0.51100000000E-03 0. -1.
        -11    1    3    3    0    0  0.58000775767E+01  0.79142250538E+01  0.54876924833E+01  0.11242358612E+02  0.51100000000E-03 0.  1.
         12    1    3    3    0    0 -0.66501621475E+00 -0.14365930418E+01  0.71731565611E+00  0.17379838561E+01  0.00000000000E+00 0. -1.
</event>
<event>
 7    1  0.2458979E-009  0.4778727E+02  0.7816164E-02  0.1312668E+00
        -11   -1    0    0    0    0  0.00000000000E+00  0.00000000000E+00  0.45593999997E+02  0.45594000000E+02  0.51100000000E-03 0.  1.
         11   -1    0    0    0    0 -0.00000000000E+00 -0.00000000000E+00 -0.45593999997E+02  0.45594000000E+02  0.51100000000E-03 0. -1.
    9900012    2    1    2    0    0 -0.36671833039E+02  0.10791993968E+02 -0.20550735583E+02  0.47787271835E+02  0.20000003603E+02 0.  0.
        -12    1    1    2    0    0  0.36671833039E+02 -0.10791993968E+02  0.20550735583E+02  0.43400728165E+02  0.00000000000E+00 0.  1.
         11    1    3    3    0    0 -0.18421526102E+02  0.27540283807E+01 -0.15140914610E+02  0.24003845354E+02  0.51100000000E-03 0. -1.
        -11    1    3    3    0    0 -0.78969591289E+00  0.54255588544E+01 -0.84076641636E+00  0.55468186328E+01  0.51100000000E-03 0.  1.
        -12    1    3    3    0    0 -0.17460611024E+02  0.26124067330E+01 -0.45690545560E+01  0.18236607848E+02  0.00000000000E+00 0.  1.
</event>
<event>
 7    1  0.2458979E-009  0.4778727E+02  0.7816164E-02  0.1312668E+00
        -11   -1    0    0    0    0  0.00000000000E+00  0.00000000000E+00  0.45593999997E+02  0.45594000000E+02  0.51100000000E-03 0.  1.
         11   -1    0    0    0    0 -0.00000000000E+00 -0.00000000000E+00 -0.45593999997E+02  0.45594000000E+02  0.51100000000E-03 0. -1.
    9900012    2    1    2    0    0 -0.41204477684E+01  0.24002480029E+02 -0.35923891266E+02  0.47787273035E+02  0.20000009078E+02 0.  0.
        -12    1    1    2    0    0  0.41204477684E+01 -0.24002480029E+02  0.35923891266E+02  0.43400726965E+02  0.00000000000E+00 0.  1.
         11    1    3    3    0    0  0.11517607123E+01  0.70602800521E+01 -0.10903548068E+02  0.13040761783E+02  0.51100000000E-03 0. -1.
        -11    1    3    3    0    0 -0.88014441307E+01  0.10030071840E+02 -0.68750212225E+01  0.15011118445E+02  0.51100000000E-03 0.  1.
        -12    1    3    3    0    0  0.35292356499E+01  0.69121281369E+01 -0.18145321976E+02  0.19735392807E+02  0.00000000000E+00 0.  1.
</event>
<event>
 7    1  0.2458979E-009  0.4778727E+02  0.7816164E-02  0.1312668E+00
        -11   -1    0    0    0    0  0.00000000000E+00  0.00000000000E+00  0.45593999997E+02  0.45594000000E+02  0.51100000000E-03 0. -1.
         11   -1    0    0    0    0 -0.00000000000E+00 -0.00000000000E+00 -0.45593999997E+02  0.45594000000E+02  0.51100000000E-03 0.  1.
    9900012    2    1    2    0    0  0.24312756243E+02 -0.64272464785E+01  0.35372355774E+02  0.47787272282E+02  0.20000005644E+02 0.  0.
        -12    1    1    2    0    0 -0.24312756243E+02  0.64272464785E+01 -0.35372355774E+02  0.43400727718E+02  0.00000000000E+00 0.  1.
         11    1    3    3    0    0  0.11553799221E+02  0.12947055122E+01  0.19018155586E+02  0.22290284452E+02  0.51100000000E-03 0. -1.
        -11    1    3    3    0    0  0.77372286026E+01 -0.10772661850E+02  0.13637511338E+02  0.19023581827E+02  0.51100000000E-03 0.  1.
        -12    1    3    3    0    0  0.50217284198E+01  0.30507098596E+01  0.27166888498E+01  0.64734060027E+01  0.00000000000E+00 0.  1.
</event>
<event>
 7    1  0.2458979E-009  0.4778727E+02  0.7816164E-02  0.1312668E+00
        -11   -1    0    0    0    0  0.00000000000E+00  0.00000000000E+00  0.45593999997E+02  0.45594000000E+02  0.51100000000E-03 0. -1.
         11   -1    0    0    0    0 -0.00000000000E+00 -0.00000000000E+00 -0.45593999997E+02  0.45594000000E+02  0.51100000000E-03 0.  1.
    9900012    2    1    2    0    0 -0.16664327908E+02 -0.14826353305E+01  0.40046544212E+02  0.47787265727E+02  0.19999975754E+02 0.  0.
        -12    1    1    2    0    0  0.16664327908E+02  0.14826353305E+01 -0.40046544212E+02  0.43400734273E+02  0.00000000000E+00 0.  1.
         11    1    3    3    0    0 -0.41796788259E+01  0.49682162743E+01  0.10134596986E+02  0.12035902308E+02  0.51100000000E-03 0. -1.
        -11    1    3    3    0    0 -0.12502159526E+02 -0.83081376106E+01  0.30335516366E+02  0.33846309944E+02  0.51100000000E-03 0.  1.
        -12    1    3    3    0    0  0.17510443411E-01  0.18572860058E+01 -0.42356914092E+00  0.19050534744E+01  0.00000000000E+00 0.  1.
</event>
<event>
 7    1  0.2458979E-009  0.4778728E+02  0.7816164E-02  0.1312668E+00
        -11   -1    0    0    0    0  0.00000000000E+00  0.00000000000E+00  0.45593999997E+02  0.45594000000E+02  0.51100000000E-03 0. -1.
         11   -1    0    0    0    0 -0.00000000000E+00 -0.00000000000E+00 -0.45593999997E+02  0.45594000000E+02  0.51100000000E-03 0.  1.
    9900012    2    1    2    0    0  0.31406844383E+02 -0.10207332576E+01  0.29936450134E+02  0.47787276306E+02  0.20000023991E+02 0.  0.
        -12    1    1    2    0    0 -0.31406844383E+02  0.10207332576E+01 -0.29936450134E+02  0.43400723694E+02  0.00000000000E+00 0.  1.
         11    1    3    3    0    0  0.10225828465E+02  0.45654373784E+00  0.46434602354E+01  0.11240005480E+02  0.51100000000E-03 0. -1.
        -11    1    3    3    0    0 -0.22816131373E+01 -0.15618182760E+01  0.15618797605E+01  0.31756107260E+01  0.51100000000E-03 0.  1.
        -12    1    3    3    0    0  0.23462629056E+02  0.84541280510E-01  0.23731110138E+02  0.33371660100E+02  0.00000000000E+00 0.  1.
</event>
<event>
 7    1  0.2458979E-009  0.4778727E+02  0.7816164E-02  0.1312668E+00
        -11   -1    0    0    0    0  0.00000000000E+00  0.00000000000E+00  0.45593999997E+02  0.45594000000E+02  0.51100000000E-03 0. -1.
         11   -1    0    0    0    0 -0.00000000000E+00 -0.00000000000E+00 -0.45593999997E+02  0.45594000000E+02  0.51100000000E-03 0.  1.
    9900012    2    1    2    0    0  0.40922928835E+02 -0.11981862046E+02  0.80853220459E+01  0.47787267804E+02  0.19999985226E+02 0.  0.
        -12    1    1    2    0    0 -0.40922928835E+02  0.11981862046E+02 -0.80853220459E+01  0.43400732196E+02  0.00000000000E+00 0.  1.
         11    1    3    3    0    0  0.91607896431E+01 -0.33312513129E+01 -0.11881543606E+01  0.98198275566E+01  0.51100000000E-03 0. -1.
        -11    1    3    3    0    0  0.17660465957E+02  0.37318981173E+01  0.46447481629E+01  0.18638476524E+02  0.51100000000E-03 0.  1.
        -12    1    3    3    0    0  0.14101673235E+02 -0.12382508851E+02  0.46287282436E+01  0.19328963724E+02  0.00000000000E+00 0.  1.
</event>
<event>
 7    1  0.2458979E-009  0.4778727E+02  0.7816164E-02  0.1312668E+00
        -11   -1    0    0    0    0  0.00000000000E+00  0.00000000000E+00  0.45593999997E+02  0.45594000000E+02  0.51100000000E-03 0.  1.
         11   -1    0    0    0    0 -0.00000000000E+00 -0.00000000000E+00 -0.45593999997E+02  0.45594000000E+02  0.51100000000E-03 0. -1.
    9900012    2    1    2    0    0  0.10804254861E+02  0.41784554354E+02 -0.45762508074E+01  0.47787274463E+02  0.20000015588E+02 0.  0.
        -12    1    1    2    0    0 -0.10804254861E+02 -0.41784554354E+02  0.45762508074E+01  0.43400725537E+02  0.00000000000E+00 0.  1.
         11    1    3    3    0    0  0.18009477635E+01  0.30401519612E+02 -0.80472403000E+01  0.31500061655E+02  0.51100000000E-03 0. -1.
        -11    1    3    3    0    0  0.10036657889E+02  0.10695096044E+02  0.30929455473E+01  0.14989526123E+02  0.51100000000E-03 0.  1.
         12    1    3    3    0    0 -0.10333507908E+01  0.68793869760E+00  0.37804394527E+00  0.12976866853E+01  0.00000000000E+00 0. -1.
</event>
<event>
 7    1  0.2458979E-009  0.4778727E+02  0.7816164E-02  0.1312668E+00
        -11   -1    0    0    0    0  0.00000000000E+00  0.00000000000E+00  0.45593999997E+02  0.45594000000E+02  0.51100000000E-03 0.  1.
         11   -1    0    0    0    0 -0.00000000000E+00 -0.00000000000E+00 -0.45593999997E+02  0.45594000000E+02  0.51100000000E-03 0. -1.
    9900012    2    1    2    0    0 -0.20931376772E+02  0.34831719359E+02 -0.15239821694E+02  0.47787269910E+02  0.19999994828E+02 0.  0.
        -12    1    1    2    0    0  0.20931376772E+02 -0.34831719359E+02  0.15239821694E+02  0.43400730090E+02  0.00000000000E+00 0.  1.
         11    1    3    3    0    0 -0.20604145681E+02  0.26097103786E+02 -0.16366241406E+02  0.37059998695E+02  0.51100000000E-03 0. -1.
        -11    1    3    3    0    0  0.20584868781E+01  0.17576261862E+01 -0.12482345463E+01  0.29807226945E+01  0.51100000000E-03 0.  1.
         12    1    3    3    0    0 -0.23857179684E+01  0.69769893874E+01  0.23746542581E+01  0.77465485206E+01  0.00000000000E+00 0. -1.
</event>
<event>
 7    1  0.2458979E-009  0.4778724E+02  0.7816164E-02  0.1312668E+00
        -11   -1    0    0    0    0  0.00000000000E+00  0.00000000000E+00  0.45593999997E+02  0.45594000000E+02  0.51100000000E-03 0.  1.
         11   -1    0    0    0    0 -0.00000000000E+00 -0.00000000000E+00 -0.45593999997E+02  0.45594000000E+02  0.51100000000E-03 0. -1.
    9900012    2    1    2    0    0  0.10997251310E+02  0.15347771423E+02 -0.39078535568E+02  0.47787244636E+02  0.19999879592E+02 0.  0.
        -12    1    1    2    0    0 -0.10997251310E+02 -0.15347771423E+02  0.39078535568E+02  0.43400755364E+02  0.00000000000E+00 0.  1.
         11    1    3    3    0    0 -0.36433436056E+00 -0.32936936127E+00 -0.19066127773E+02  0.19072452706E+02  0.51100000000E-03 0. -1.
        -11    1    3    3    0    0  0.73450949135E+01  0.53413677780E+01 -0.61741644626E+01  0.10981845751E+02  0.51100000000E-03 0.  1.
         12    1    3    3    0    0  0.40164907566E+01  0.10335773006E+02 -0.13838243333E+02  0.17732946179E+02  0.00000000000E+00 0. -1.
</event>
<event>
 7    1  0.2458979E-009  0.4778727E+02  0.7816164E-02  0.1312668E+00
        -11   -1    0    0    0    0  0.00000000000E+00  0.00000000000E+00  0.45593999997E+02  0.45594000000E+02  0.51100000000E-03 0.  1.
         11   -1    0    0    0    0 -0.00000000000E+00 -0.00000000000E+00 -0.45593999997E+02  0.45594000000E+02  0.51100000000E-03 0. -1.
    9900012    2    1    2    0    0  0.38820307351E+02 -0.11552584087E+02 -0.15593097156E+02  0.47787272577E+02  0.20000006988E+02 0.  0.
        -12    1    1    2    0    0 -0.38820307351E+02  0.11552584087E+02  0.15593097156E+02  0.43400727423E+02  0.00000000000E+00 0.  1.
         11    1    3    3    0    0  0.23750504030E+02 -0.33043129248E+01 -0.16358623367E+02  0.29027736465E+02  0.51100000000E-03 0. -1.
        -11    1    3    3    0    0  0.15457885462E+02 -0.63828803820E+01  0.49001532681E-01  0.16723928555E+02  0.51100000000E-03 0.  1.
         12    1    3    3    0    0 -0.38808214038E+00 -0.18653907797E+01  0.71652467820E+00  0.20356075563E+01  0.00000000000E+00 0. -1.
</event>
<event>
 7    1  0.2458979E-009  0.4778727E+02  0.7816164E-02  0.1312668E+00
        -11   -1    0    0    0    0  0.00000000000E+00  0.00000000000E+00  0.45593999997E+02  0.45594000000E+02  0.51100000000E-03 0. -1.
         11   -1    0    0    0    0 -0.00000000000E+00 -0.00000000000E+00 -0.45593999997E+02  0.45594000000E+02  0.51100000000E-03 0.  1.
    9900012    2    1    2    0    0 -0.37646075575E+02  0.20478320305E+02  0.68581748684E+01  0.47787272227E+02  0.20000005390E+02 0.  0.
        -12    1    1    2    0    0  0.37646075575E+02 -0.20478320305E+02 -0.68581748684E+01  0.43400727773E+02  0.00000000000E+00 0.  1.
         11    1    3    3    0    0 -0.15309021154E+02  0.63169300308E+01  0.36798680972E+01  0.16964998178E+02  0.51100000000E-03 0.  1.
        -11    1    3    3    0    0 -0.20414839966E+02  0.89513023151E+01 -0.30261074682E+01  0.22495529126E+02  0.51100000000E-03 0. -1.
        -12    1    3    3    0    0 -0.19222144550E+01  0.52100879593E+01  0.62044142394E+01  0.83267449227E+01  0.00000000000E+00 0.  1.
</event>
<event>
 7    1  0.2458979E-009  0.4778729E+02  0.7816164E-02  0.1312668E+00
        -11   -1    0    0    0    0  0.00000000000E+00  0.00000000000E+00  0.45593999997E+02  0.45594000000E+02  0.51100000000E-03 0.  1.
         11   -1    0    0    0    0 -0.00000000000E+00 -0.00000000000E+00 -0.45593999997E+02  0.45594000000E+02  0.51100000000E-03 0. -1.
    9900012    2    1    2    0    0  0.95325993347E+01 -0.33998749755E+02 -0.25235621032E+02  0.47787285676E+02  0.20000066711E+02 0.  0.
        -12    1    1    2    0    0 -0.95325993347E+01  0.33998749755E+02  0.25235621032E+02  0.43400714324E+02  0.00000000000E+00 0.  1.
         11    1    3    3    0    0  0.86566869032E+01 -0.95595254587E+01 -0.23197838172E+01  0.13103593109E+02  0.51100000000E-03 0. -1.
        -11    1    3    3    0    0 -0.24963646623E+01 -0.10001664332E+02 -0.50858661631E+01  0.11494831918E+02  0.51100000000E-03 0.  1.
         12    1    3    3    0    0  0.33722770938E+01 -0.14437559964E+02 -0.17829971052E+02  0.23188860649E+02  0.00000000000E+00 0. -1.
</event>
<event>
 7    1  0.2458979E-009  0.4778727E+02  0.7816164E-02  0.1312668E+00
        -11   -1    0    0    0    0  0.00000000000E+00  0.00000000000E+00  0.45593999997E+02  0.45594000000E+02  0.51100000000E-03 0.  1.
         11   -1    0    0    0    0 -0.00000000000E+00 -0.00000000000E+00 -0.45593999997E+02  0.45594000000E+02  0.51100000000E-03 0. -1.
    9900012    2    1    2    0    0  0.20586945324E+02  0.30061655585E+02 -0.23581729648E+02  0.47787269275E+02  0.19999991931E+02 0.  0.
        -12    1    1    2    0    0 -0.20586945324E+02 -0.30061655585E+02  0.23581729648E+02  0.43400730725E+02  0.00000000000E+00 0.  1.
         11    1    3    3    0    0  0.16910543299E+02  0.25184506092E+02 -0.16069575600E+02  0.34328662689E+02  0.51100000000E-03 0. -1.
        -11    1    3    3    0    0 -0.10761993631E+01  0.52656904960E+01 -0.67520615171E+01  0.86299499687E+01  0.51100000000E-03 0.  1.
         12    1    3    3    0    0  0.47526013888E+01 -0.38854100349E+00 -0.76009253144E+00  0.48286566173E+01  0.00000000000E+00 0. -1.
</event>
<event>
 7    1  0.2458979E-009  0.4778727E+02  0.7816164E-02  0.1312668E+00
        -11   -1    0    0    0    0  0.00000000000E+00  0.00000000000E+00  0.45593999997E+02  0.45594000000E+02  0.51100000000E-03 0. -1.
         11   -1    0    0    0    0 -0.00000000000E+00 -0.00000000000E+00 -0.45593999997E+02  0.45594000000E+02  0.51100000000E-03 0.  1.
    9900012    2    1    2    0    0 -0.32876689586E+02 -0.27027284263E+02  0.85013183545E+01  0.47787271590E+02  0.20000002486E+02 0.  0.
        -12    1    1    2    0    0  0.32876689586E+02  0.27027284263E+02 -0.85013183545E+01  0.43400728410E+02  0.00000000000E+00 0.  1.
         11    1    3    3    0    0 -0.30319765344E+02 -0.19589210461E+02  0.31852374849E+01  0.36237702398E+02  0.51100000000E-03 0. -1.
        -11    1    3    3    0    0 -0.31205162205E+01 -0.84912991705E+01  0.45091932207E+01  0.10108046639E+02  0.51100000000E-03 0.  1.
        -12    1    3    3    0    0  0.56359197778E+00  0.10532253685E+01  0.80688764899E+00  0.14415225535E+01  0.00000000000E+00 0.  1.
</event>
<event>
 7    1  0.2458979E-009  0.4778727E+02  0.7816164E-02  0.1312668E+00
        -11   -1    0    0    0    0  0.00000000000E+00  0.00000000000E+00  0.45593999997E+02  0.45594000000E+02  0.51100000000E-03 0.  1.
         11   -1    0    0    0    0 -0.00000000000E+00 -0.00000000000E+00 -0.45593999997E+02  0.45594000000E+02  0.51100000000E-03 0. -1.
    9900012    2    1    2    0    0 -0.50746851485E+00  0.30353211188E+02 -0.31016906719E+02  0.47787268945E+02  0.19999990429E+02 0.  0.
        -12    1    1    2    0    0  0.50746851485E+00 -0.30353211188E+02  0.31016906719E+02  0.43400731055E+02  0.00000000000E+00 0.  1.
         11    1    3    3    0    0  0.33363886031E+01  0.20314877865E+02 -0.25747749775E+02  0.32966230757E+02  0.51100000000E-03 0. -1.
        -11    1    3    3    0    0 -0.22927934469E+01  0.45832024424E+01 -0.71933479817E+01  0.88321515989E+01  0.51100000000E-03 0.  1.
         12    1    3    3    0    0 -0.15510636710E+01  0.54551308797E+01  0.19241910382E+01  0.59888865892E+01  0.00000000000E+00 0. -1.
</event>
<event>
 7    1  0.2458979E-009  0.4778727E+02  0.7816164E-02  0.1312668E+00
        -11   -1    0    0    0    0  0.00000000000E+00  0.00000000000E+00  0.45593999997E+02  0.45594000000E+02  0.51100000000E-03 0. -1.
         11   -1    0    0    0    0 -0.00000000000E+00 -0.00000000000E+00 -0.45593999997E+02  0.45594000000E+02  0.51100000000E-03 0.  1.
    9900012    2    1    2    0    0  0.27119887406E+02  0.12718714816E+02  0.31406519026E+02  0.47787269167E+02  0.19999991440E+02 0.  0.
        -12    1    1    2    0    0 -0.27119887406E+02 -0.12718714816E+02 -0.31406519026E+02  0.43400730833E+02  0.00000000000E+00 0.  1.
         11    1    3    3    0    0  0.99888164069E+01  0.41958819289E+01  0.82118897483E+01  0.13594742067E+02  0.51100000000E-03 0. -1.
        -11    1    3    3    0    0  0.13092191257E+02  0.10851052945E+02  0.89737996110E+01  0.19227061700E+02  0.51100000000E-03 0.  1.
        -12    1    3    3    0    0  0.40388797425E+01 -0.23282200574E+01  0.14220829667E+02  0.14965465399E+02  0.00000000000E+00 0.  1.
</event>
<event>
 7    1  0.2458979E-009  0.4778727E+02  0.7816164E-02  0.1312668E+00
        -11   -1    0    0    0    0  0.00000000000E+00  0.00000000000E+00  0.45593999997E+02  0.45594000000E+02  0.51100000000E-03 0.  1.
         11   -1    0    0    0    0 -0.00000000000E+00 -0.00000000000E+00 -0.45593999997E+02  0.45594000000E+02  0.51100000000E-03 0. -1.
    9900012    2    1    2    0    0 -0.35110344494E+02 -0.13147113342E+01 -0.25478588719E+02  0.47787271440E+02  0.20000001806E+02 0.  0.
        -12    1    1    2    0    0  0.35110344494E+02  0.13147113342E+01  0.25478588719E+02  0.43400728560E+02  0.00000000000E+00 0.  1.
         11    1    3    3    0    0 -0.10798708391E+02  0.27033590975E+01 -0.16249203415E+02  0.19696620654E+02  0.51100000000E-03 0. -1.
        -11    1    3    3    0    0 -0.24680241284E+02 -0.40767202345E+01 -0.10227734413E+02  0.27024812843E+02  0.51100000000E-03 0.  1.
        -12    1    3    3    0    0  0.36860518147E+00  0.58649802763E-01  0.99834910818E+00  0.10658379431E+01  0.00000000000E+00 0.  1.
</event>
<event>
 7    1  0.2458979E-009  0.4778727E+02  0.7816164E-02  0.1312668E+00
        -11   -1    0    0    0    0  0.00000000000E+00  0.00000000000E+00  0.45593999997E+02  0.45594000000E+02  0.51100000000E-03 0. -1.
         11   -1    0    0    0    0 -0.00000000000E+00 -0.00000000000E+00 -0.45593999997E+02  0.45594000000E+02  0.51100000000E-03 0.  1.
    9900012    2    1    2    0    0 -0.22521890870E+02  0.37054529467E+02  0.18302879424E+01  0.47787266408E+02  0.19999978861E+02 0.  0.
        -12    1    1    2    0    0  0.22521890870E+02 -0.37054529467E+02 -0.18302879424E+01  0.43400733592E+02  0.00000000000E+00 0.  1.
         11    1    3    3    0    0 -0.78194770728E+01  0.27069870512E+02  0.38894898048E+01  0.28443808508E+02  0.51100000000E-03 0. -1.
        -11    1    3    3    0    0 -0.14856300344E+02  0.81386782106E+01 -0.54060220591E+00  0.16948156063E+02  0.51100000000E-03 0.  1.
         12    1    3    3    0    0  0.15388654645E+00  0.18459807439E+01 -0.15185996565E+01  0.23953018375E+01  0.00000000000E+00 0. -1.
</event>
<event>
 7    1  0.2458979E-009  0.4778727E+02  0.7816164E-02  0.1312668E+00
        -11   -1    0    0    0    0  0.00000000000E+00  0.00000000000E+00  0.45593999997E+02  0.45594000000E+02  0.51100000000E-03 0.  1.
         11   -1    0    0    0    0 -0.00000000000E+00 -0.00000000000E+00 -0.45593999997E+02  0.45594000000E+02  0.51100000000E-03 0. -1.
    9900012    2    1    2    0    0  0.35386281595E+01  0.10669561663E+02 -0.41919708044E+02  0.47787270077E+02  0.19999995590E+02 0.  0.
        -12    1    1    2    0    0 -0.35386281595E+01 -0.10669561663E+02  0.41919708044E+02  0.43400729923E+02  0.00000000000E+00 0.  1.
         11    1    3    3    0    0  0.39168766729E+01  0.11185242240E+02 -0.20640198191E+02  0.23800616557E+02  0.51100000000E-03 0. -1.
        -11    1    3    3    0    0 -0.47988437098E+01 -0.28567630028E+01 -0.76766740111E+01  0.94932249494E+01  0.51100000000E-03 0.  1.
         12    1    3    3    0    0  0.44205951964E+01  0.23410824249E+01 -0.13602835841E+02  0.14493428571E+02  0.00000000000E+00 0. -1.
</event>
<event>
 7    1  0.2458979E-009  0.4778728E+02  0.7816164E-02  0.1312668E+00
        -11   -1    0    0    0    0  0.00000000000E+00  0.00000000000E+00  0.45593999997E+02  0.45594000000E+02  0.51100000000E-03 0. -1.
         11   -1    0    0    0    0 -0.00000000000E+00 -0.00000000000E+00 -0.45593999997E+02  0.45594000000E+02  0.51100000000E-03 0.  1.
    9900012    2    1    2    0    0 -0.31865920329E+02  0.29439182209E+02 -0.12330701092E+01  0.47787276625E+02  0.20000025445E+02 0.  0.
        -12    1    1    2    0    0  0.31865920329E+02 -0.29439182209E+02  0.12330701092E+01  0.43400723375E+02  0.00000000000E+00 0.  1.
         11    1    3    3    0    0 -0.64897611938E+01  0.23717211964E+01  0.37506823183E+01  0.78619132468E+01  0.51100000000E-03 0. -1.
        -11    1    3    3    0    0 -0.61969283807E+01  0.63482240259E+01  0.47475645474E+01  0.10061870553E+02  0.51100000000E-03 0.  1.
        -12    1    3    3    0    0 -0.19179230754E+02  0.20719236987E+02 -0.97313169750E+01  0.29863492825E+02  0.00000000000E+00 0.  1.
</event>
<event>
 7    1  0.2458979E-009  0.4778727E+02  0.7816164E-02  0.1312668E+00
        -11   -1    0    0    0    0  0.00000000000E+00  0.00000000000E+00  0.45593999997E+02  0.45594000000E+02  0.51100000000E-03 0.  1.
         11   -1    0    0    0    0 -0.00000000000E+00 -0.00000000000E+00 -0.45593999997E+02  0.45594000000E+02  0.51100000000E-03 0. -1.
    9900012    2    1    2    0    0  0.15102102148E+02  0.18646399917E+02 -0.36164371639E+02  0.47787268494E+02  0.19999988374E+02 0.  0.
        -12    1    1    2    0    0 -0.15102102148E+02 -0.18646399917E+02  0.36164371639E+02  0.43400731506E+02  0.00000000000E+00 0.  1.
         11    1    3    3    0    0 -0.67757629245E+00  0.99320169575E+01 -0.66068237769E+01  0.11947978538E+02  0.51100000000E-03 0. -1.
        -11    1    3    3    0    0  0.14821878603E+02  0.96147202318E+01 -0.22233596057E+02  0.28398304955E+02  0.51100000000E-03 0.  1.
         12    1    3    3    0    0  0.95779983744E+00 -0.90033727216E+00 -0.73239518053E+01  0.74409850006E+01  0.00000000000E+00 0. -1.
</event>
<event>
 7    1  0.2458979E-009  0.4778727E+02  0.7816164E-02  0.1312668E+00
        -11   -1    0    0    0    0  0.00000000000E+00  0.00000000000E+00  0.45593999997E+02  0.45594000000E+02  0.51100000000E-03 0.  1.
         11   -1    0    0    0    0 -0.00000000000E+00 -0.00000000000E+00 -0.45593999997E+02  0.45594000000E+02  0.51100000000E-03 0. -1.
    9900012    2    1    2    0    0  0.24949628122E+02  0.13680867723E+02 -0.32771529631E+02  0.47787271441E+02  0.20000001808E+02 0.  0.
        -12    1    1    2    0    0 -0.24949628122E+02 -0.13680867723E+02  0.32771529631E+02  0.43400728559E+02  0.00000000000E+00 0.  1.
         11    1    3    3    0    0  0.10538698182E+02  0.10296372313E+02 -0.18882572219E+02  0.23950594482E+02  0.51100000000E-03 0. -1.
        -11    1    3    3    0    0  0.49138152276E+01  0.27615596964E+01  0.14178213447E+01  0.58122293205E+01  0.51100000000E-03 0.  1.
         12    1    3    3    0    0  0.94971147122E+01  0.62293571385E+00 -0.15306778756E+02  0.18024447638E+02  0.00000000000E+00 0. -1.
</event>
<event>
 7    1  0.2458979E-009  0.4778727E+02  0.7816164E-02  0.1312668E+00
        -11   -1    0    0    0    0  0.00000000000E+00  0.00000000000E+00  0.45593999997E+02  0.45594000000E+02  0.51100000000E-03 0.  1.
         11   -1    0    0    0    0 -0.00000000000E+00 -0.00000000000E+00 -0.45593999997E+02  0.45594000000E+02  0.51100000000E-03 0. -1.
    9900012    2    1    2    0    0  0.33250680503E+02 -0.10303973864E+02 -0.25919952877E+02  0.47787267421E+02  0.19999983478E+02 0.  0.
        -12    1    1    2    0    0 -0.33250680503E+02  0.10303973864E+02  0.25919952877E+02  0.43400732579E+02  0.00000000000E+00 0.  1.
         11    1    3    3    0    0  0.25167401377E+02 -0.44534769851E+01 -0.12285639260E+02  0.28357864546E+02  0.51100000000E-03 0. -1.
        -11    1    3    3    0    0  0.28076794411E+01  0.15341628709E+01 -0.18549841270E+00  0.32048602904E+01  0.51100000000E-03 0.  1.
         12    1    3    3    0    0  0.52755996843E+01 -0.73846597503E+01 -0.13448815204E+02  0.16224542584E+02  0.00000000000E+00 0. -1.
</event>
<event>
 7    1  0.2458979E-009  0.4778727E+02  0.7816164E-02  0.1312668E+00
        -11   -1    0    0    0    0  0.00000000000E+00  0.00000000000E+00  0.45593999997E+02  0.45594000000E+02  0.51100000000E-03 0.  1.
         11   -1    0    0    0    0 -0.00000000000E+00 -0.00000000000E+00 -0.45593999997E+02  0.45594000000E+02  0.51100000000E-03 0. -1.
    9900012    2    1    2    0    0  0.16944143518E+02 -0.31915824820E+02 -0.24039538671E+02  0.47787270824E+02  0.19999998996E+02 0.  0.
        -12    1    1    2    0    0 -0.16944143518E+02  0.31915824820E+02  0.24039538671E+02  0.43400729176E+02  0.00000000000E+00 0.  1.
         11    1    3    3    0    0  0.10978497937E+02 -0.15806968356E+02 -0.11207990959E+02  0.22271208480E+02  0.51100000000E-03 0. -1.
        -11    1    3    3    0    0 -0.17825735181E+01 -0.12793910913E+02 -0.45362508306E+01  0.13690847185E+02  0.51100000000E-03 0.  1.
        -12    1    3    3    0    0  0.77482190988E+01 -0.33149455514E+01 -0.82952968810E+01  0.11825215159E+02  0.00000000000E+00 0.  1.
</event>
<event>
 7    1  0.2458979E-009  0.4778728E+02  0.7816164E-02  0.1312668E+00
        -11   -1    0    0    0    0  0.00000000000E+00  0.00000000000E+00  0.45593999997E+02  0.45594000000E+02  0.51100000000E-03 0.  1.
         11   -1    0    0    0    0 -0.00000000000E+00 -0.00000000000E+00 -0.45593999997E+02  0.45594000000E+02  0.51100000000E-03 0. -1.
    9900012    2    1    2    0    0 -0.31335133723E+01 -0.19162051388E+02 -0.38815195098E+02  0.47787280075E+02  0.20000041176E+02 0.  0.
        -12    1    1    2    0    0  0.31335133723E+01  0.19162051388E+02  0.38815195098E+02  0.43400719925E+02  0.00000000000E+00 0.  1.
         11    1    3    3    0    0  0.35250029281E+01 -0.71500866060E+01 -0.18671496043E+02  0.20302072526E+02  0.51100000000E-03 0. -1.
        -11    1    3    3    0    0 -0.13357193009E+01 -0.63199236439E+01 -0.65079247883E+00  0.64922347483E+01  0.51100000000E-03 0.  1.
        -12    1    3    3    0    0 -0.53227969995E+01 -0.56920411377E+01 -0.19492906576E+02  0.20992972801E+02  0.00000000000E+00 0.  1.
</event>
<event>
 7    1  0.2458979E-009  0.4778727E+02  0.7816164E-02  0.1312668E+00
        -11   -1    0    0    0    0  0.00000000000E+00  0.00000000000E+00  0.45593999997E+02  0.45594000000E+02  0.51100000000E-03 0.  1.
         11   -1    0    0    0    0 -0.00000000000E+00 -0.00000000000E+00 -0.45593999997E+02  0.45594000000E+02  0.51100000000E-03 0. -1.
    9900012    2    1    2    0    0  0.52113684782E+01  0.31069637454E+02 -0.29852017413E+02  0.47787266405E+02  0.19999978849E+02 0.  0.
        -12    1    1    2    0    0 -0.52113684782E+01 -0.31069637454E+02  0.29852017413E+02  0.43400733595E+02  0.00000000000E+00 0.  1.
         11    1    3    3    0    0 -0.74037439510E+00  0.57907619055E+01 -0.16612379014E+02  0.17608299591E+02  0.51100000000E-03 0. -1.
        -11    1    3    3    0    0  0.71679451076E+01  0.23031512773E+02 -0.13445362371E+02  0.27615354193E+02  0.51100000000E-03 0.  1.
        -12    1    3    3    0    0 -0.12162022343E+01  0.22473627756E+01  0.20572397286E+00  0.25636126215E+01  0.00000000000E+00 0.  1.
</event>
<event>
 7    1  0.2458979E-009  0.4778728E+02  0.7816164E-02  0.1312668E+00
        -11   -1    0    0    0    0  0.00000000000E+00  0.00000000000E+00  0.45593999997E+02  0.45594000000E+02  0.51100000000E-03 0.  1.
         11   -1    0    0    0    0 -0.00000000000E+00 -0.00000000000E+00 -0.45593999997E+02  0.45594000000E+02  0.51100000000E-03 0. -1.
    9900012    2    1    2    0    0 -0.69370973774E+01  0.32511812852E+02 -0.27901278317E+02  0.47787278500E+02  0.20000033995E+02 0.  0.
        -12    1    1    2    0    0  0.69370973774E+01 -0.32511812852E+02  0.27901278317E+02  0.43400721500E+02  0.00000000000E+00 0.  1.
         11    1    3    3    0    0  0.11661738600E+01 -0.17744421054E+01 -0.12590905158E+01  0.24685857176E+01  0.51100000000E-03 0. -1.
        -11    1    3    3    0    0 -0.23831046411E+01  0.56304967731E+00 -0.20003766251E+01  0.31619170724E+01  0.51100000000E-03 0.  1.
         12    1    3    3    0    0 -0.57201665963E+01  0.33723205280E+02 -0.24641811176E+02  0.42156775710E+02  0.00000000000E+00 0. -1.
</event>
<event>
 7    1  0.2458979E-009  0.4778727E+02  0.7816164E-02  0.1312668E+00
        -11   -1    0    0    0    0  0.00000000000E+00  0.00000000000E+00  0.45593999997E+02  0.45594000000E+02  0.51100000000E-03 0.  1.
         11   -1    0    0    0    0 -0.00000000000E+00 -0.00000000000E+00 -0.45593999997E+02  0.45594000000E+02  0.51100000000E-03 0. -1.
    9900012    2    1    2    0    0 -0.72931859081E+01 -0.41407792029E+02 -0.10762331828E+02  0.47787267428E+02  0.19999983510E+02 0.  0.
        -12    1    1    2    0    0  0.72931859081E+01  0.41407792029E+02  0.10762331828E+02  0.43400732572E+02  0.00000000000E+00 0.  1.
         11    1    3    3    0    0 -0.18281806911E-01 -0.32425294514E+02 -0.53920356292E+01  0.32870565967E+02  0.51100000000E-03 0. -1.
        -11    1    3    3    0    0 -0.50648703224E+01 -0.35209957276E+01  0.98939172693E+00  0.62473369164E+01  0.51100000000E-03 0.  1.
         12    1    3    3    0    0 -0.22100337788E+01 -0.54615017882E+01 -0.63596879256E+01  0.86693645440E+01  0.00000000000E+00 0. -1.
</event>
<event>
 7    1  0.2458979E-009  0.4778727E+02  0.7816164E-02  0.1312668E+00
        -11   -1    0    0    0    0  0.00000000000E+00  0.00000000000E+00  0.45593999997E+02  0.45594000000E+02  0.51100000000E-03 0.  1.
         11   -1    0    0    0    0 -0.00000000000E+00 -0.00000000000E+00 -0.45593999997E+02  0.45594000000E+02  0.51100000000E-03 0. -1.
    9900012    2    1    2    0    0 -0.35115222563E+01  0.13342361413E+02 -0.41149409383E+02  0.47787270868E+02  0.19999999194E+02 0.  0.
        -12    1    1    2    0    0  0.35115222563E+01 -0.13342361413E+02  0.41149409383E+02  0.43400729132E+02  0.00000000000E+00 0.  1.
         11    1    3    3    0    0 -0.16041238834E+01  0.14930916408E+02 -0.25125089843E+02  0.29270729716E+02  0.51100000000E-03 0. -1.
        -11    1    3    3    0    0 -0.50331592267E+01 -0.22281937436E+01 -0.13013368537E+02  0.14129589524E+02  0.51100000000E-03 0.  1.
        -12    1    3    3    0    0  0.31257608538E+01  0.63963874852E+00 -0.30109510029E+01  0.43869516279E+01  0.00000000000E+00 0.  1.
</event>
<event>
 7    1  0.2458979E-009  0.4778727E+02  0.7816164E-02  0.1312668E+00
        -11   -1    0    0    0    0  0.00000000000E+00  0.00000000000E+00  0.45593999997E+02  0.45594000000E+02  0.51100000000E-03 0. -1.
         11   -1    0    0    0    0 -0.00000000000E+00 -0.00000000000E+00 -0.45593999997E+02  0.45594000000E+02  0.51100000000E-03 0.  1.
    9900012    2    1    2    0    0  0.20761432121E+02 -0.37893523178E+02 -0.40825133477E+01  0.47787273304E+02  0.20000010301E+02 0.  0.
        -12    1    1    2    0    0 -0.20761432121E+02  0.37893523178E+02  0.40825133477E+01  0.43400726696E+02  0.00000000000E+00 0.  1.
         11    1    3    3    0    0  0.15122168019E+02 -0.25705391933E+02 -0.89798930858E+01  0.31146197522E+02  0.51100000000E-03 0. -1.
        -11    1    3    3    0    0  0.40542390838E+01 -0.17802333660E+01  0.41792784263E+01  0.60887152842E+01  0.51100000000E-03 0.  1.
         12    1    3    3    0    0  0.15850250184E+01 -0.10407897879E+02  0.71810131179E+00  0.10552360497E+02  0.00000000000E+00 0. -1.
</event>
<event>
 7    1  0.2458979E-009  0.4778727E+02  0.7816164E-02  0.1312668E+00
        -11   -1    0    0    0    0  0.00000000000E+00  0.00000000000E+00  0.45593999997E+02  0.45594000000E+02  0.51100000000E-03 0.  1.
         11   -1    0    0    0    0 -0.00000000000E+00 -0.00000000000E+00 -0.45593999997E+02  0.45594000000E+02  0.51100000000E-03 0. -1.
    9900012    2    1    2    0    0 -0.15273132047E+02 -0.17225825942E+02 -0.36791654062E+02  0.47787269009E+02  0.19999990720E+02 0.  0.
        -12    1    1    2    0    0  0.15273132047E+02  0.17225825942E+02  0.36791654062E+02  0.43400730991E+02  0.00000000000E+00 0.  1.
         11    1    3    3    0    0  0.19773394271E+01 -0.74416279278E+01 -0.13153864104E+02  0.15241779377E+02  0.51100000000E-03 0. -1.
        -11    1    3    3    0    0 -0.11764422463E+02 -0.54618464345E+01 -0.75519299902E+01  0.15008832373E+02  0.51100000000E-03 0.  1.
         12    1    3    3    0    0 -0.54860490111E+01 -0.43223515794E+01 -0.16085859968E+02  0.17536657259E+02  0.00000000000E+00 0. -1.
</event>
<event>
 7    1  0.2458979E-009  0.4778725E+02  0.7816164E-02  0.1312668E+00
        -11   -1    0    0    0    0  0.00000000000E+00  0.00000000000E+00  0.45593999997E+02  0.45594000000E+02  0.51100000000E-03 0.  1.
         11   -1    0    0    0    0 -0.00000000000E+00 -0.00000000000E+00 -0.45593999997E+02  0.45594000000E+02  0.51100000000E-03 0. -1.
    9900012    2    1    2    0    0 -0.59260181810E+01 -0.12152761074E+02 -0.41240974340E+02  0.47787248189E+02  0.19999895794E+02 0.  0.
        -12    1    1    2    0    0  0.59260181810E+01  0.12152761074E+02  0.41240974340E+02  0.43400751811E+02  0.00000000000E+00 0.  1.
         11    1    3    3    0    0 -0.17101703680E+01 -0.71281711516E+00 -0.18984494310E+02  0.19074690441E+02  0.51100000000E-03 0. -1.
        -11    1    3    3    0    0 -0.38802894312E+01 -0.14357909514E+02 -0.16265171171E+02  0.22040009192E+02  0.51100000000E-03 0.  1.
        -12    1    3    3    0    0 -0.33555838180E+00  0.29179655546E+01 -0.59913088587E+01  0.66725485570E+01  0.00000000000E+00 0.  1.
</event>
<event>
 7    1  0.2458979E-009  0.4778727E+02  0.7816164E-02  0.1312668E+00
        -11   -1    0    0    0    0  0.00000000000E+00  0.00000000000E+00  0.45593999997E+02  0.45594000000E+02  0.51100000000E-03 0. -1.
         11   -1    0    0    0    0 -0.00000000000E+00 -0.00000000000E+00 -0.45593999997E+02  0.45594000000E+02  0.51100000000E-03 0.  1.
    9900012    2    1    2    0    0  0.39302187826E+02  0.13084018567E+02 -0.12952586691E+02  0.47787274064E+02  0.20000013766E+02 0.  0.
        -12    1    1    2    0    0 -0.39302187826E+02 -0.13084018567E+02  0.12952586691E+02  0.43400725936E+02  0.00000000000E+00 0.  1.
         11    1    3    3    0    0  0.66996627834E+01 -0.51323191635E+00 -0.12285075010E+01  0.68306748827E+01  0.51100000000E-03 0. -1.
        -11    1    3    3    0    0  0.16239410134E+02  0.67504548290E+01  0.30781003488E+01  0.17853901084E+02  0.51100000000E-03 0.  1.
        -12    1    3    3    0    0  0.16363114909E+02  0.68467956548E+01 -0.14802179539E+02  0.23102698097E+02  0.00000000000E+00 0.  1.
</event>
<event>
 7    1  0.2458979E-009  0.4778727E+02  0.7816164E-02  0.1312668E+00
        -11   -1    0    0    0    0  0.00000000000E+00  0.00000000000E+00  0.45593999997E+02  0.45594000000E+02  0.51100000000E-03 0.  1.
         11   -1    0    0    0    0 -0.00000000000E+00 -0.00000000000E+00 -0.45593999997E+02  0.45594000000E+02  0.51100000000E-03 0. -1.
    9900012    2    1    2    0    0 -0.32320832575E+02  0.83698739096E+01 -0.27729624063E+02  0.47787273528E+02  0.20000011326E+02 0.  0.
        -12    1    1    2    0    0  0.32320832575E+02 -0.83698739096E+01  0.27729624063E+02  0.43400726472E+02  0.00000000000E+00 0.  1.
         11    1    3    3    0    0 -0.15358388517E+02  0.61594989516E+01 -0.48536258036E+01  0.17244628406E+02  0.51100000000E-03 0. -1.
        -11    1    3    3    0    0 -0.63176055224E+01  0.45758469051E+01 -0.40568947637E+01  0.87925485396E+01  0.51100000000E-03 0.  1.
         12    1    3    3    0    0 -0.10644838536E+02 -0.23654719471E+01 -0.18819103495E+02  0.21750096583E+02  0.00000000000E+00 0. -1.
</event>
<event>
 7    1  0.2458979E-009  0.4778728E+02  0.7816164E-02  0.1312668E+00
        -11   -1    0    0    0    0  0.00000000000E+00  0.00000000000E+00  0.45593999997E+02  0.45594000000E+02  0.51100000000E-03 0.  1.
         11   -1    0    0    0    0 -0.00000000000E+00 -0.00000000000E+00 -0.45593999997E+02  0.45594000000E+02  0.51100000000E-03 0. -1.
    9900012    2    1    2    0    0 -0.20593817798E+02  0.23924608384E+02 -0.29784737132E+02  0.47787276690E+02  0.20000025741E+02 0.  0.
        -12    1    1    2    0    0  0.20593817798E+02 -0.23924608384E+02  0.29784737132E+02  0.43400723310E+02  0.00000000000E+00 0.  1.
         11    1    3    3    0    0 -0.26119430762E+01 -0.24608438256E+01 -0.12205421449E+01  0.37904778533E+01  0.51100000000E-03 0. -1.
        -11    1    3    3    0    0 -0.40279007762E+01  0.14532332336E+02 -0.14367920306E+02  0.20829061476E+02  0.51100000000E-03 0.  1.
         12    1    3    3    0    0 -0.13953973945E+02  0.11853119873E+02 -0.14196274681E+02  0.23167737360E+02  0.00000000000E+00 0. -1.
</event>
<event>
 7    1  0.2458979E-009  0.4778727E+02  0.7816164E-02  0.1312668E+00
        -11   -1    0    0    0    0  0.00000000000E+00  0.00000000000E+00  0.45593999997E+02  0.45594000000E+02  0.51100000000E-03 0.  1.
         11   -1    0    0    0    0 -0.00000000000E+00 -0.00000000000E+00 -0.45593999997E+02  0.45594000000E+02  0.51100000000E-03 0. -1.
    9900012    2    1    2    0    0 -0.20794057031E+02  0.26526617170E+02 -0.27341712513E+02  0.47787268791E+02  0.19999989727E+02 0.  0.
        -12    1    1    2    0    0  0.20794057031E+02 -0.26526617170E+02  0.27341712513E+02  0.43400731209E+02  0.00000000000E+00 0.  1.
         11    1    3    3    0    0 -0.70792430580E+01  0.64425340079E+01 -0.10202171680E+02  0.13989504422E+02  0.51100000000E-03 0. -1.
        -11    1    3    3    0    0 -0.11061031914E+02  0.80906178453E+01 -0.16567560970E+02  0.21500897676E+02  0.51100000000E-03 0.  1.
        -12    1    3    3    0    0 -0.26537820589E+01  0.11993465317E+02 -0.57197986371E+00  0.12296866694E+02  0.00000000000E+00 0.  1.
</event>
<event>
 7    1  0.2458979E-009  0.4778727E+02  0.7816164E-02  0.1312668E+00
        -11   -1    0    0    0    0  0.00000000000E+00  0.00000000000E+00  0.45593999997E+02  0.45594000000E+02  0.51100000000E-03 0.  1.
         11   -1    0    0    0    0 -0.00000000000E+00 -0.00000000000E+00 -0.45593999997E+02  0.45594000000E+02  0.51100000000E-03 0. -1.
    9900012    2    1    2    0    0  0.27626263735E+02  0.64136225185E+01 -0.32852369071E+02  0.47787272410E+02  0.20000006226E+02 0.  0.
        -12    1    1    2    0    0 -0.27626263735E+02 -0.64136225185E+01  0.32852369071E+02  0.43400727590E+02  0.00000000000E+00 0.  1.
         11    1    3    3    0    0  0.44919016950E+01 -0.17418870874E+01 -0.12709196120E+02  0.13591726076E+02  0.51100000000E-03 0. -1.
        -11    1    3    3    0    0  0.24583021836E+02  0.82749000577E+01 -0.19962633556E+02  0.32730806166E+02  0.51100000000E-03 0.  1.
        -12    1    3    3    0    0 -0.14486597960E+01 -0.11939045176E+00 -0.18053939571E+00  0.14647401674E+01  0.00000000000E+00 0.  1.
</event>
<event>
 7    1  0.2458979E-009  0.4778727E+02  0.7816164E-02  0.1312668E+00
        -11   -1    0    0    0    0  0.00000000000E+00  0.00000000000E+00  0.45593999997E+02  0.45594000000E+02  0.51100000000E-03 0.  1.
         11   -1    0    0    0    0 -0.00000000000E+00 -0.00000000000E+00 -0.45593999997E+02  0.45594000000E+02  0.51100000000E-03 0. -1.
    9900012    2    1    2    0    0  0.36027721797E+02 -0.14751593761E+00 -0.24199267709E+02  0.47787273549E+02  0.20000011418E+02 0.  0.
        -12    1    1    2    0    0 -0.36027721797E+02  0.14751593761E+00  0.24199267709E+02  0.43400726451E+02  0.00000000000E+00 0.  1.
         11    1    3    3    0    0  0.13754779896E+02  0.38064462261E+01 -0.66346290434E+01  0.15738529336E+02  0.51100000000E-03 0. -1.
        -11    1    3    3    0    0  0.13656303225E+02 -0.93277660504E+01 -0.12297841791E+02  0.20609190917E+02  0.51100000000E-03 0.  1.
        -12    1    3    3    0    0  0.86166386759E+01  0.53738038867E+01 -0.52667968749E+01  0.11439553296E+02  0.00000000000E+00 0.  1.
</event>
<event>
 7    1  0.2458979E-009  0.4778727E+02  0.7816164E-02  0.1312668E+00
        -11   -1    0    0    0    0  0.00000000000E+00  0.00000000000E+00  0.45593999997E+02  0.45594000000E+02  0.51100000000E-03 0.  1.
         11   -1    0    0    0    0 -0.00000000000E+00 -0.00000000000E+00 -0.45593999997E+02  0.45594000000E+02  0.51100000000E-03 0. -1.
    9900012    2    1    2    0    0 -0.60219077724E+01 -0.11139292820E+02 -0.41512360682E+02  0.47787270661E+02  0.19999998254E+02 0.  0.
        -12    1    1    2    0    0  0.60219077724E+01  0.11139292820E+02  0.41512360682E+02  0.43400729339E+02  0.00000000000E+00 0.  1.
         11    1    3    3    0    0 -0.56699640396E+00 -0.25335994403E+01  0.87418280307E+00  0.27394902592E+01  0.51100000000E-03 0.  1.
        -11    1    3    3    0    0 -0.19528496958E+01 -0.47426371411E+01 -0.37667894697E+02  0.38015477377E+02  0.51100000000E-03 0. -1.
         12    1    3    3    0    0 -0.35020616727E+01 -0.38630562389E+01 -0.47186487875E+01  0.70323030256E+01  0.00000000000E+00 0. -1.
</event>
<event>
 7    1  0.2458979E-009  0.4778727E+02  0.7816164E-02  0.1312668E+00
        -11   -1    0    0    0    0  0.00000000000E+00  0.00000000000E+00  0.45593999997E+02  0.45594000000E+02  0.51100000000E-03 0.  1.
         11   -1    0    0    0    0 -0.00000000000E+00 -0.00000000000E+00 -0.45593999997E+02  0.45594000000E+02  0.51100000000E-03 0. -1.
    9900012    2    1    2    0    0  0.90753124627E+01  0.16091784913E+02 -0.39272336069E+02  0.47787271685E+02  0.20000002921E+02 0.  0.
        -12    1    1    2    0    0 -0.90753124627E+01 -0.16091784913E+02  0.39272336069E+02  0.43400728315E+02  0.00000000000E+00 0.  1.
         11    1    3    3    0    0  0.48011775210E+01  0.75403246122E+01 -0.30800851971E+02  0.32071798878E+02  0.51100000000E-03 0. -1.
        -11    1    3    3    0    0  0.17734076173E+01 -0.14134026710E+01 -0.38094106930E+01  0.44333161151E+01  0.51100000000E-03 0.  1.
         12    1    3    3    0    0  0.25007273243E+01  0.99648629718E+01 -0.46620734042E+01  0.11282156692E+02  0.00000000000E+00 0. -1.
</event>
<event>
 7    1  0.2458979E-009  0.4778726E+02  0.7816164E-02  0.1312668E+00
        -11   -1    0    0    0    0  0.00000000000E+00  0.00000000000E+00  0.45593999997E+02  0.45594000000E+02  0.51100000000E-03 0.  1.
         11   -1    0    0    0    0 -0.00000000000E+00 -0.00000000000E+00 -0.45593999997E+02  0.45594000000E+02  0.51100000000E-03 0. -1.
    9900012    2    1    2    0    0 -0.26545534253E+02  0.26516557765E+02 -0.21813541474E+02  0.47787264798E+02  0.19999971520E+02 0.  0.
        -12    1    1    2    0    0  0.26545534253E+02 -0.26516557765E+02  0.21813541474E+02  0.43400735202E+02  0.00000000000E+00 0.  1.
         11    1    3    3    0    0 -0.28396843163E+02  0.20753837754E+02 -0.18363939971E+02  0.39677912933E+02  0.51100000000E-03 0. -1.
        -11    1    3    3    0    0  0.20038929916E+01  0.10289326737E+01 -0.23334953438E+01  0.32433763811E+01  0.51100000000E-03 0.  1.
         12    1    3    3    0    0 -0.15258408105E+00  0.47337873372E+01 -0.11161061586E+01  0.48659754842E+01  0.00000000000E+00 0. -1.
</event>
<event>
 7    1  0.2458979E-009  0.4778727E+02  0.7816164E-02  0.1312668E+00
        -11   -1    0    0    0    0  0.00000000000E+00  0.00000000000E+00  0.45593999997E+02  0.45594000000E+02  0.51100000000E-03 0.  1.
         11   -1    0    0    0    0 -0.00000000000E+00 -0.00000000000E+00 -0.45593999997E+02  0.45594000000E+02  0.51100000000E-03 0. -1.
    9900012    2    1    2    0    0 -0.18899477697E+02 -0.33992988686E+02 -0.19259018861E+02  0.47787270230E+02  0.19999996288E+02 0.  0.
        -12    1    1    2    0    0  0.18899477697E+02  0.33992988686E+02  0.19259018861E+02  0.43400729770E+02  0.00000000000E+00 0.  1.
         11    1    3    3    0    0 -0.10065898306E+02 -0.10238886412E+02 -0.51793672898E+01  0.15263779002E+02  0.51100000000E-03 0. -1.
        -11    1    3    3    0    0  0.29664370141E+01 -0.36347489726E+01  0.93544724693E+00  0.47839534347E+01  0.51100000000E-03 0.  1.
        -12    1    3    3    0    0 -0.11800016406E+02 -0.20119353302E+02 -0.15015098819E+02  0.27739537793E+02  0.00000000000E+00 0.  1.
</event>
<event>
 7    1  0.2458979E-009  0.4778727E+02  0.7816164E-02  0.1312668E+00
        -11   -1    0    0    0    0  0.00000000000E+00  0.00000000000E+00  0.45593999997E+02  0.45594000000E+02  0.51100000000E-03 0.  1.
         11   -1    0    0    0    0 -0.00000000000E+00 -0.00000000000E+00 -0.45593999997E+02  0.45594000000E+02  0.51100000000E-03 0. -1.
    9900012    2    1    2    0    0 -0.73502591214E+01 -0.20701098378E+02 -0.37430755349E+02  0.47787271559E+02  0.20000002346E+02 0.  0.
        -12    1    1    2    0    0  0.73502591214E+01  0.20701098378E+02  0.37430755349E+02  0.43400728441E+02  0.00000000000E+00 0.  1.
         11    1    3    3    0    0  0.59715042031E+00 -0.20438495367E+02 -0.25883822477E+02  0.32985768867E+02  0.51100000000E-03 0. -1.
        -11    1    3    3    0    0 -0.30077057227E+01  0.21664455593E+01 -0.54037929371E+01  0.65529198411E+01  0.51100000000E-03 0.  1.
         12    1    3    3    0    0 -0.49397038191E+01 -0.24290485696E+01 -0.61431399357E+01  0.82485828506E+01  0.00000000000E+00 0. -1.
</event>
<event>
 7    1  0.2458979E-009  0.4778727E+02  0.7816164E-02  0.1312668E+00
        -11   -1    0    0    0    0  0.00000000000E+00  0.00000000000E+00  0.45593999997E+02  0.45594000000E+02  0.51100000000E-03 0.  1.
         11   -1    0    0    0    0 -0.00000000000E+00 -0.00000000000E+00 -0.45593999997E+02  0.45594000000E+02  0.51100000000E-03 0. -1.
    9900012    2    1    2    0    0  0.27840309481E+02 -0.14132147362E+02 -0.30146685954E+02  0.47787273104E+02  0.20000009392E+02 0.  0.
        -12    1    1    2    0    0 -0.27840309481E+02  0.14132147362E+02  0.30146685954E+02  0.43400726896E+02  0.00000000000E+00 0.  1.
         11    1    3    3    0    0  0.10839682465E+02  0.19328612598E+01 -0.36018279299E+01  0.11584810456E+02  0.51100000000E-03 0.  1.
        -11    1    3    3    0    0  0.89352844917E+01 -0.12482753779E+02 -0.13440750787E+02  0.20403730856E+02  0.51100000000E-03 0. -1.
        -12    1    3    3    0    0  0.80653425245E+01 -0.35822548425E+01 -0.13104107236E+02  0.15798731793E+02  0.00000000000E+00 0.  1.
</event>
<event>
 7    1  0.2458979E-009  0.4778727E+02  0.7816164E-02  0.1312668E+00
        -11   -1    0    0    0    0  0.00000000000E+00  0.00000000000E+00  0.45593999997E+02  0.45594000000E+02  0.51100000000E-03 0.  1.
         11   -1    0    0    0    0 -0.00000000000E+00 -0.00000000000E+00 -0.45593999997E+02  0.45594000000E+02  0.51100000000E-03 0. -1.
    9900012    2    1    2    0    0 -0.36311559653E+02 -0.22880778059E+02 -0.64470053369E+01  0.47787271356E+02  0.20000001419E+02 0.  0.
        -12    1    1    2    0    0  0.36311559653E+02  0.22880778059E+02  0.64470053369E+01  0.43400728644E+02  0.00000000000E+00 0.  1.
         11    1    3    3    0    0 -0.25511387575E+02 -0.19270632827E+02 -0.99025932282E+01  0.33470129047E+02  0.51100000000E-03 0. -1.
        -11    1    3    3    0    0 -0.66150259413E+00 -0.60268227013E-01 -0.21147450635E+01  0.22166111264E+01  0.51100000000E-03 0.  1.
         12    1    3    3    0    0 -0.10138669484E+02 -0.35498770058E+01  0.55703329548E+01  0.12100531182E+02  0.00000000000E+00 0. -1.
</event>
<event>
 7    1  0.2458979E-009  0.4778727E+02  0.7816164E-02  0.1312668E+00
        -11   -1    0    0    0    0  0.00000000000E+00  0.00000000000E+00  0.45593999997E+02  0.45594000000E+02  0.51100000000E-03 0. -1.
         11   -1    0    0    0    0 -0.00000000000E+00 -0.00000000000E+00 -0.45593999997E+02  0.45594000000E+02  0.51100000000E-03 0.  1.
    9900012    2    1    2    0    0  0.13756813249E+02 -0.40688635896E+02  0.62296348425E+01  0.47787270143E+02  0.19999995889E+02 0.  0.
        -12    1    1    2    0    0 -0.13756813249E+02  0.40688635896E+02 -0.62296348425E+01  0.43400729857E+02  0.00000000000E+00 0.  1.
         11    1    3    3    0    0 -0.23393308638E+01 -0.40085662278E+00  0.75007486141E+00  0.24891298643E+01  0.51100000000E-03 0. -1.
        -11    1    3    3    0    0 -0.12480688761E+01 -0.32105363488E+01  0.25004637304E+01  0.42564702154E+01  0.51100000000E-03 0.  1.
         12    1    3    3    0    0  0.17344212989E+02 -0.37077242925E+02  0.29790962506E+01  0.41041670063E+02  0.00000000000E+00 0. -1.
</event>
<event>
 7    1  0.2458979E-009  0.4778728E+02  0.7816164E-02  0.1312668E+00
        -11   -1    0    0    0    0  0.00000000000E+00  0.00000000000E+00  0.45593999997E+02  0.45594000000E+02  0.51100000000E-03 0.  1.
         11   -1    0    0    0    0 -0.00000000000E+00 -0.00000000000E+00 -0.45593999997E+02  0.45594000000E+02  0.51100000000E-03 0. -1.
    9900012    2    1    2    0    0 -0.20024000236E+02 -0.15455337595E+02 -0.35267467458E+02  0.47787282189E+02  0.20000050813E+02 0.  0.
        -12    1    1    2    0    0  0.20024000236E+02  0.15455337595E+02  0.35267467458E+02  0.43400717811E+02  0.00000000000E+00 0.  1.
         11    1    3    3    0    0 -0.58815113533E+01  0.29156306917E+01 -0.84057898893E+01  0.10665382415E+02  0.51100000000E-03 0. -1.
        -11    1    3    3    0    0 -0.37079555344E+01 -0.13659622993E+02 -0.15561715044E+02  0.21035712727E+02  0.51100000000E-03 0.  1.
         12    1    3    3    0    0 -0.10434533348E+02 -0.47113452933E+01 -0.11299962525E+02  0.16086187047E+02  0.00000000000E+00 0. -1.
</event>
<event>
 7    1  0.2458979E-009  0.4778726E+02  0.7816164E-02  0.1312668E+00
        -11   -1    0    0    0    0  0.00000000000E+00  0.00000000000E+00  0.45593999997E+02  0.45594000000E+02  0.51100000000E-03 0.  1.
         11   -1    0    0    0    0 -0.00000000000E+00 -0.00000000000E+00 -0.45593999997E+02  0.45594000000E+02  0.51100000000E-03 0. -1.
    9900012    2    1    2    0    0  0.23390326580E+01 -0.19983699171E+02 -0.38455231099E+02  0.47787261467E+02  0.19999956331E+02 0.  0.
        -12    1    1    2    0    0 -0.23390326580E+01  0.19983699171E+02  0.38455231099E+02  0.43400738533E+02  0.00000000000E+00 0.  1.
         11    1    3    3    0    0 -0.72561376477E+01 -0.14448047163E+02 -0.26617592508E+02  0.31143118527E+02  0.51100000000E-03 0. -1.
        -11    1    3    3    0    0  0.65117953555E+01 -0.18107646326E+01 -0.79852912057E+01  0.10461702692E+02  0.51100000000E-03 0.  1.
         12    1    3    3    0    0  0.30833749502E+01 -0.37248873756E+01 -0.38523473856E+01  0.61824402483E+01  0.00000000000E+00 0. -1.
</event>
<event>
 7    1  0.2458979E-009  0.4778727E+02  0.7816164E-02  0.1312668E+00
        -11   -1    0    0    0    0  0.00000000000E+00  0.00000000000E+00  0.45593999997E+02  0.45594000000E+02  0.51100000000E-03 0.  1.
         11   -1    0    0    0    0 -0.00000000000E+00 -0.00000000000E+00 -0.45593999997E+02  0.45594000000E+02  0.51100000000E-03 0. -1.
    9900012    2    1    2    0    0  0.18313903693E+02 -0.33508302234E+02 -0.20625663745E+02  0.47787269684E+02  0.19999993795E+02 0.  0.
        -12    1    1    2    0    0 -0.18313903693E+02  0.33508302234E+02  0.20625663745E+02  0.43400730316E+02  0.00000000000E+00 0.  1.
         11    1    3    3    0    0  0.19905866702E+02 -0.21673293866E+02 -0.16714160518E+02  0.33842847963E+02  0.51100000000E-03 0. -1.
        -11    1    3    3    0    0 -0.18186991055E+01 -0.35022137130E+00 -0.15421210359E+00  0.18585217457E+01  0.51100000000E-03 0.  1.
        -12    1    3    3    0    0  0.22673609650E+00 -0.11484786997E+02 -0.37572911237E+01  0.12085899975E+02  0.00000000000E+00 0.  1.
</event>
<event>
 7    1  0.2458979E-009  0.4778727E+02  0.7816164E-02  0.1312668E+00
        -11   -1    0    0    0    0  0.00000000000E+00  0.00000000000E+00  0.45593999997E+02  0.45594000000E+02  0.51100000000E-03 0.  1.
         11   -1    0    0    0    0 -0.00000000000E+00 -0.00000000000E+00 -0.45593999997E+02  0.45594000000E+02  0.51100000000E-03 0. -1.
    9900012    2    1    2    0    0 -0.29825196220E+02  0.73983798471E+01 -0.30648732025E+02  0.47787272717E+02  0.20000007627E+02 0.  0.
        -12    1    1    2    0    0  0.29825196220E+02 -0.73983798471E+01  0.30648732025E+02  0.43400727283E+02  0.00000000000E+00 0.  1.
         11    1    3    3    0    0 -0.23098782901E+01  0.22659165242E+01  0.18772682046E+01  0.37408624116E+01  0.51100000000E-03 0. -1.
        -11    1    3    3    0    0 -0.34533928675E+01 -0.27013197558E+01 -0.43772215928E+01  0.61954111933E+01  0.51100000000E-03 0.  1.
         12    1    3    3    0    0 -0.24061925062E+02  0.78337830787E+01 -0.28148778637E+02  0.37850999112E+02  0.00000000000E+00 0. -1.
</event>
<event>
 7    1  0.2458979E-009  0.4778727E+02  0.7816164E-02  0.1312668E+00
        -11   -1    0    0    0    0  0.00000000000E+00  0.00000000000E+00  0.45593999997E+02  0.45594000000E+02  0.51100000000E-03 0.  1.
         11   -1    0    0    0    0 -0.00000000000E+00 -0.00000000000E+00 -0.45593999997E+02  0.45594000000E+02  0.51100000000E-03 0. -1.
    9900012    2    1    2    0    0 -0.82538288526E+01  0.27532619607E+02 -0.32518492516E+02  0.47787272026E+02  0.20000004474E+02 0.  0.
        -12    1    1    2    0    0  0.82538288526E+01 -0.27532619607E+02  0.32518492516E+02  0.43400727974E+02  0.00000000000E+00 0.  1.
         11    1    3    3    0    0 -0.11033942891E+02  0.11998420128E+02 -0.10972635506E+02  0.19649649144E+02  0.51100000000E-03 0. -1.
        -11    1    3    3    0    0 -0.16311934107E+01 -0.16923131565E+00 -0.10662053268E+01  0.19560739355E+01  0.51100000000E-03 0.  1.
         12    1    3    3    0    0  0.44113074487E+01  0.15703430795E+02 -0.20479651684E+02  0.26181548946E+02  0.00000000000E+00 0. -1.
</event>
<event>
 7    1  0.2458979E-009  0.4778727E+02  0.7816164E-02  0.1312668E+00
        -11   -1    0    0    0    0  0.00000000000E+00  0.00000000000E+00  0.45593999997E+02  0.45594000000E+02  0.51100000000E-03 0.  1.
         11   -1    0    0    0    0 -0.00000000000E+00 -0.00000000000E+00 -0.45593999997E+02  0.45594000000E+02  0.51100000000E-03 0. -1.
    9900012    2    1    2    0    0 -0.42440374177E+02  0.49287502383E+01  0.76253291750E+01  0.47787267469E+02  0.19999983700E+02 0.  0.
        -12    1    1    2    0    0  0.42440374177E+02 -0.49287502383E+01 -0.76253291750E+01  0.43400732531E+02  0.00000000000E+00 0.  1.
         11    1    3    3    0    0 -0.58373938178E+01 -0.23413811837E+01 -0.25210715038E+01  0.67759157477E+01  0.51100000000E-03 0. -1.
        -11    1    3    3    0    0 -0.37262452302E+02  0.75007280322E+01  0.11307603923E+02  0.39656187150E+02  0.51100000000E-03 0.  1.
        -12    1    3    3    0    0  0.65947194299E+00 -0.23059661015E+00 -0.11612032446E+01  0.13551645714E+01  0.00000000000E+00 0.  1.
</event>
<event>
 7    1  0.2458979E-009  0.4778727E+02  0.7816164E-02  0.1312668E+00
        -11   -1    0    0    0    0  0.00000000000E+00  0.00000000000E+00  0.45593999997E+02  0.45594000000E+02  0.51100000000E-03 0.  1.
         11   -1    0    0    0    0 -0.00000000000E+00 -0.00000000000E+00 -0.45593999997E+02  0.45594000000E+02  0.51100000000E-03 0. -1.
    9900012    2    1    2    0    0 -0.35290057845E+02 -0.22143381330E+02 -0.12161662664E+02  0.47787267769E+02  0.19999985066E+02 0.  0.
        -12    1    1    2    0    0  0.35290057845E+02  0.22143381330E+02  0.12161662664E+02  0.43400732231E+02  0.00000000000E+00 0.  1.
         11    1    3    3    0    0 -0.51340881349E+01  0.93479646311E+00 -0.44062395968E+01  0.68299087146E+01  0.51100000000E-03 0. -1.
        -11    1    3    3    0    0 -0.25119270480E+02 -0.16237397020E+02 -0.70653236349E+00  0.29918723229E+02  0.51100000000E-03 0.  1.
        -12    1    3    3    0    0 -0.50366992304E+01 -0.68407807728E+01 -0.70488907040E+01  0.11038635825E+02  0.00000000000E+00 0.  1.
</event>
<event>
 7    1  0.2458979E-009  0.4778729E+02  0.7816164E-02  0.1312668E+00
        -11   -1    0    0    0    0  0.00000000000E+00  0.00000000000E+00  0.45593999997E+02  0.45594000000E+02  0.51100000000E-03 0.  1.
         11   -1    0    0    0    0 -0.00000000000E+00 -0.00000000000E+00 -0.45593999997E+02  0.45594000000E+02  0.51100000000E-03 0. -1.
    9900012    2    1    2    0    0  0.25119236653E+02  0.19213530299E+02 -0.29723483716E+02  0.47787294006E+02  0.20000104692E+02 0.  0.
        -12    1    1    2    0    0 -0.25119236653E+02 -0.19213530299E+02  0.29723483716E+02  0.43400705994E+02  0.00000000000E+00 0.  1.
         11    1    3    3    0    0  0.24219293596E+02  0.12775432912E+02 -0.17721182898E+02  0.32616348538E+02  0.51100000000E-03 0. -1.
        -11    1    3    3    0    0 -0.24874841656E+01  0.39266752942E+01 -0.40295957479E+01  0.61517475967E+01  0.51100000000E-03 0.  1.
        -12    1    3    3    0    0  0.33874272220E+01  0.25114220929E+01 -0.79727050705E+01  0.90191978720E+01  0.00000000000E+00 0.  1.
</event>
<event>
 7    1  0.2458979E-009  0.4778728E+02  0.7816164E-02  0.1312668E+00
        -11   -1    0    0    0    0  0.00000000000E+00  0.00000000000E+00  0.45593999997E+02  0.45594000000E+02  0.51100000000E-03 0.  1.
         11   -1    0    0    0    0 -0.00000000000E+00 -0.00000000000E+00 -0.45593999997E+02  0.45594000000E+02  0.51100000000E-03 0. -1.
    9900012    2    1    2    0    0 -0.14116848472E+02 -0.35755269571E+02 -0.20146910380E+02  0.47787277532E+02  0.20000029581E+02 0.  0.
        -12    1    1    2    0    0  0.14116848472E+02  0.35755269571E+02  0.20146910380E+02  0.43400722468E+02  0.00000000000E+00 0.  1.
         11    1    3    3    0    0  0.39352445471E+01 -0.51834225448E+01 -0.17922928476E+01  0.67502839078E+01  0.51100000000E-03 0. -1.
        -11    1    3    3    0    0 -0.41958271398E+01 -0.67770144440E+01 -0.46775369164E-01  0.79708894333E+01  0.51100000000E-03 0.  1.
         12    1    3    3    0    0 -0.13856265880E+02 -0.23794832582E+02 -0.18307842163E+02  0.33066104191E+02  0.00000000000E+00 0. -1.
</event>
<event>
 7    1  0.2458979E-009  0.4778727E+02  0.7816164E-02  0.1312668E+00
        -11   -1    0    0    0    0  0.00000000000E+00  0.00000000000E+00  0.45593999997E+02  0.45594000000E+02  0.51100000000E-03 0.  1.
         11   -1    0    0    0    0 -0.00000000000E+00 -0.00000000000E+00 -0.45593999997E+02  0.45594000000E+02  0.51100000000E-03 0. -1.
    9900012    2    1    2    0    0 -0.68144336217E+01 -0.38990458340E+02 -0.17802551229E+02  0.47787272156E+02  0.20000005067E+02 0.  0.
        -12    1    1    2    0    0  0.68144336217E+01  0.38990458340E+02  0.17802551229E+02  0.43400727844E+02  0.00000000000E+00 0.  1.
         11    1    3    3    0    0 -0.62095642212E-02 -0.21963726244E+02 -0.71528040952E+00  0.21975371109E+02  0.51100000000E-03 0. -1.
        -11    1    3    3    0    0 -0.77487161645E+01 -0.15828942726E+02 -0.14555496749E+02  0.22857395213E+02  0.51100000000E-03 0.  1.
        -12    1    3    3    0    0  0.94049210707E+00 -0.11977893698E+01 -0.25317740706E+01  0.29545058339E+01  0.00000000000E+00 0.  1.
</event>
<event>
 7    1  0.2458979E-009  0.4778723E+02  0.7816164E-02  0.1312668E+00
        -11   -1    0    0    0    0  0.00000000000E+00  0.00000000000E+00  0.45593999997E+02  0.45594000000E+02  0.51100000000E-03 0. -1.
         11   -1    0    0    0    0 -0.00000000000E+00 -0.00000000000E+00 -0.45593999997E+02  0.45594000000E+02  0.51100000000E-03 0.  1.
    9900012    2    1    2    0    0  0.94714593216E+01  0.22456277308E+02  0.35911471060E+02  0.47787231736E+02  0.19999820775E+02 0.  0.
        -12    1    1    2    0    0 -0.94714593216E+01 -0.22456277308E+02 -0.35911471060E+02  0.43400768264E+02  0.00000000000E+00 0.  1.
         11    1    3    3    0    0  0.98108421421E+01  0.94076571953E+01  0.60206412822E+01  0.14866228814E+02  0.51100000000E-03 0. -1.
        -11    1    3    3    0    0 -0.15618820372E+01  0.10577726721E+02  0.26326313585E+02  0.28414830024E+02  0.51100000000E-03 0.  1.
         12    1    3    3    0    0  0.12224992166E+01  0.24708933924E+01  0.35645161933E+01  0.45061728976E+01  0.00000000000E+00 0. -1.
</event>
<event>
 7    1  0.2458979E-009  0.4778727E+02  0.7816164E-02  0.1312668E+00
        -11   -1    0    0    0    0  0.00000000000E+00  0.00000000000E+00  0.45593999997E+02  0.45594000000E+02  0.51100000000E-03 0. -1.
         11   -1    0    0    0    0 -0.00000000000E+00 -0.00000000000E+00 -0.45593999997E+02  0.45594000000E+02  0.51100000000E-03 0.  1.
    9900012    2    1    2    0    0  0.52730051734E+01 -0.24929713793E+02  0.35133007675E+02  0.47787269112E+02  0.19999991187E+02 0.  0.
        -12    1    1    2    0    0 -0.52730051734E+01  0.24929713793E+02 -0.35133007675E+02  0.43400730888E+02  0.00000000000E+00 0.  1.
         11    1    3    3    0    0  0.16106718328E+00  0.42829516595E+00  0.79099233557E+01  0.79231475527E+01  0.51100000000E-03 0. -1.
        -11    1    3    3    0    0  0.69227750160E+01 -0.17090714705E+02  0.10750462506E+02  0.21344549361E+02  0.51100000000E-03 0.  1.
        -12    1    3    3    0    0 -0.18108370259E+01 -0.82672942541E+01  0.16472621813E+02  0.18519572198E+02  0.00000000000E+00 0.  1.
</event>
<event>
 7    1  0.2458979E-009  0.4778727E+02  0.7816164E-02  0.1312668E+00
        -11   -1    0    0    0    0  0.00000000000E+00  0.00000000000E+00  0.45593999997E+02  0.45594000000E+02  0.51100000000E-03 0. -1.
         11   -1    0    0    0    0 -0.00000000000E+00 -0.00000000000E+00 -0.45593999997E+02  0.45594000000E+02  0.51100000000E-03 0.  1.
    9900012    2    1    2    0    0  0.77197855740E+01 -0.14441237156E+02  0.40193021343E+02  0.47787269769E+02  0.19999994184E+02 0.  0.
        -12    1    1    2    0    0 -0.77197855740E+01  0.14441237156E+02 -0.40193021343E+02  0.43400730231E+02  0.00000000000E+00 0.  1.
         11    1    3    3    0    0  0.64346230308E+01 -0.69974789010E+01  0.45373436592E+01  0.10533592562E+02  0.51100000000E-03 0.  1.
        -11    1    3    3    0    0 -0.64739747452E+00 -0.80023814290E+01  0.21394201939E+02  0.22851019865E+02  0.51100000000E-03 0. -1.
        -12    1    3    3    0    0  0.19325600177E+01  0.55862317367E+00  0.14261475745E+02  0.14402657342E+02  0.00000000000E+00 0.  1.
</event>
<event>
 7    1  0.2458979E-009  0.4778728E+02  0.7816164E-02  0.1312668E+00
        -11   -1    0    0    0    0  0.00000000000E+00  0.00000000000E+00  0.45593999997E+02  0.45594000000E+02  0.51100000000E-03 0. -1.
         11   -1    0    0    0    0 -0.00000000000E+00 -0.00000000000E+00 -0.45593999997E+02  0.45594000000E+02  0.51100000000E-03 0.  1.
    9900012    2    1    2    0    0  0.22954432780E+02  0.28090533748E+02  0.23825160451E+02  0.47787281791E+02  0.20000048999E+02 0.  0.
        -12    1    1    2    0    0 -0.22954432780E+02 -0.28090533748E+02 -0.23825160451E+02  0.43400718209E+02  0.00000000000E+00 0.  1.
         11    1    3    3    0    0  0.50210557999E+01  0.12519746872E+02  0.16454707108E+02  0.21277040427E+02  0.51100000000E-03 0. -1.
        -11    1    3    3    0    0  0.11784687312E+02  0.14197125087E+02  0.26555010405E+01  0.18641054203E+02  0.51100000000E-03 0.  1.
         12    1    3    3    0    0  0.61486896686E+01  0.13736617889E+01  0.47149523031E+01  0.78691871608E+01  0.00000000000E+00 0. -1.
</event>
<event>
 7    1  0.2458979E-009  0.4778727E+02  0.7816164E-02  0.1312668E+00
        -11   -1    0    0    0    0  0.00000000000E+00  0.00000000000E+00  0.45593999997E+02  0.45594000000E+02  0.51100000000E-03 0. -1.
         11   -1    0    0    0    0 -0.00000000000E+00 -0.00000000000E+00 -0.45593999997E+02  0.45594000000E+02  0.51100000000E-03 0.  1.
    9900012    2    1    2    0    0 -0.37405094553E+02 -0.19178840165E+02  0.10800684349E+02  0.47787265087E+02  0.19999972839E+02 0.  0.
        -12    1    1    2    0    0  0.37405094553E+02  0.19178840165E+02 -0.10800684349E+02  0.43400734913E+02  0.00000000000E+00 0.  1.
         11    1    3    3    0    0 -0.37686581780E+01 -0.29931862006E+01  0.37786065042E+01  0.61188083373E+01  0.51100000000E-03 0. -1.
        -11    1    3    3    0    0  0.93441221460E+00 -0.28722208503E+01  0.32409693584E+01  0.44301988040E+01  0.51100000000E-03 0.  1.
        -12    1    3    3    0    0 -0.34570848589E+02 -0.13313433114E+02  0.37811084866E+01  0.37238257946E+02  0.00000000000E+00 0.  1.
</event>
<event>
 7    1  0.2458979E-009  0.4778727E+02  0.7816164E-02  0.1312668E+00
        -11   -1    0    0    0    0  0.00000000000E+00  0.00000000000E+00  0.45593999997E+02  0.45594000000E+02  0.51100000000E-03 0. -1.
         11   -1    0    0    0    0 -0.00000000000E+00 -0.00000000000E+00 -0.45593999997E+02  0.45594000000E+02  0.51100000000E-03 0.  1.
    9900012    2    1    2    0    0  0.25969795102E+02 -0.13928711043E+02 -0.31861953016E+02  0.47787270755E+02  0.19999998683E+02 0.  0.
        -12    1    1    2    0    0 -0.25969795102E+02  0.13928711043E+02  0.31861953016E+02  0.43400729245E+02  0.00000000000E+00 0.  1.
         11    1    3    3    0    0  0.69157379569E+01 -0.13214751681E+02 -0.16039981591E+02  0.21902924535E+02  0.51100000000E-03 0. -1.
        -11    1    3    3    0    0  0.46109734805E+01  0.18417200098E+01 -0.75754061542E+01  0.90575817796E+01  0.51100000000E-03 0.  1.
         12    1    3    3    0    0  0.14443083664E+02 -0.25556793718E+01 -0.82465652712E+01  0.16826764441E+02  0.00000000000E+00 0. -1.
</event>
<event>
 7    1  0.2458979E-009  0.4778727E+02  0.7816164E-02  0.1312668E+00
        -11   -1    0    0    0    0  0.00000000000E+00  0.00000000000E+00  0.45593999997E+02  0.45594000000E+02  0.51100000000E-03 0.  1.
         11   -1    0    0    0    0 -0.00000000000E+00 -0.00000000000E+00 -0.45593999997E+02  0.45594000000E+02  0.51100000000E-03 0. -1.
    9900012    2    1    2    0    0  0.30755894960E+02  0.24734626357E+02 -0.18052601891E+02  0.47787271310E+02  0.20000001209E+02 0.  0.
        -12    1    1    2    0    0 -0.30755894960E+02 -0.24734626357E+02  0.18052601891E+02  0.43400728690E+02  0.00000000000E+00 0.  1.
         11    1    3    3    0    0  0.11272672665E+02  0.97177968133E+01 -0.15917920804E+02  0.21791946377E+02  0.51100000000E-03 0. -1.
        -11    1    3    3    0    0  0.74936698004E+01  0.13741403909E+01  0.53684482977E+00  0.76375095106E+01  0.51100000000E-03 0.  1.
         12    1    3    3    0    0  0.11989552494E+02  0.13642689153E+02 -0.26715259166E+01  0.18357815422E+02  0.00000000000E+00 0. -1.
</event>
<event>
 7    1  0.2458979E-009  0.4778727E+02  0.7816164E-02  0.1312668E+00
        -11   -1    0    0    0    0  0.00000000000E+00  0.00000000000E+00  0.45593999997E+02  0.45594000000E+02  0.51100000000E-03 0.  1.
         11   -1    0    0    0    0 -0.00000000000E+00 -0.00000000000E+00 -0.45593999997E+02  0.45594000000E+02  0.51100000000E-03 0. -1.
    9900012    2    1    2    0    0 -0.19846642716E+02 -0.21385627465E+02 -0.32130814971E+02  0.47787267750E+02  0.19999984979E+02 0.  0.
        -12    1    1    2    0    0  0.19846642716E+02  0.21385627465E+02  0.32130814971E+02  0.43400732250E+02  0.00000000000E+00 0.  1.
         11    1    3    3    0    0 -0.12816624865E+02 -0.42705453915E+01 -0.10717848057E+02  0.17244584602E+02  0.51100000000E-03 0. -1.
        -11    1    3    3    0    0  0.81278173487E+00 -0.10232426324E+02 -0.58776797168E+01  0.11828367670E+02  0.51100000000E-03 0.  1.
        -12    1    3    3    0    0 -0.78427995854E+01 -0.68826557496E+01 -0.15535287197E+02  0.18714315478E+02  0.00000000000E+00 0.  1.
</event>
<event>
 7    1  0.2458979E-009  0.4778728E+02  0.7816164E-02  0.1312668E+00
        -11   -1    0    0    0    0  0.00000000000E+00  0.00000000000E+00  0.45593999997E+02  0.45594000000E+02  0.51100000000E-03 0. -1.
         11   -1    0    0    0    0 -0.00000000000E+00 -0.00000000000E+00 -0.45593999997E+02  0.45594000000E+02  0.51100000000E-03 0.  1.
    9900012    2    1    2    0    0  0.29229758021E+02  0.31437032914E+02  0.63997615384E+01  0.47787277193E+02  0.20000028035E+02 0.  0.
        -12    1    1    2    0    0 -0.29229758021E+02 -0.31437032914E+02 -0.63997615384E+01  0.43400722807E+02  0.00000000000E+00 0.  1.
         11    1    3    3    0    0  0.46384961815E+01  0.46519368297E+01  0.87298611462E+00  0.66270859442E+01  0.51100000000E-03 0. -1.
        -11    1    3    3    0    0  0.47708065638E+00  0.29532893841E+01 -0.48550635850E+01  0.57027332757E+01  0.51100000000E-03 0.  1.
        -12    1    3    3    0    0  0.24114181183E+02  0.23831806701E+02  0.10381839009E+02  0.35457457973E+02  0.00000000000E+00 0.  1.
</event>
<event>
 7    1  0.2458979E-009  0.4778727E+02  0.7816164E-02  0.1312668E+00
        -11   -1    0    0    0    0  0.00000000000E+00  0.00000000000E+00  0.45593999997E+02  0.45594000000E+02  0.51100000000E-03 0.  1.
         11   -1    0    0    0    0 -0.00000000000E+00 -0.00000000000E+00 -0.45593999997E+02  0.45594000000E+02  0.51100000000E-03 0. -1.
    9900012    2    1    2    0    0  0.20331938650E+02  0.19540232709E+02 -0.32991129084E+02  0.47787273948E+02  0.20000013239E+02 0.  0.
        -12    1    1    2    0    0 -0.20331938650E+02 -0.19540232709E+02  0.32991129084E+02  0.43400726052E+02  0.00000000000E+00 0.  1.
         11    1    3    3    0    0  0.11199916865E+02  0.61782232463E+01 -0.16741141278E+02  0.21068326744E+02  0.51100000000E-03 0. -1.
        -11    1    3    3    0    0 -0.33700505950E+01  0.11211156109E+01 -0.15858100129E+01  0.38895931515E+01  0.51100000000E-03 0.  1.
        -12    1    3    3    0    0  0.12502072380E+02  0.12240893851E+02 -0.14664177794E+02  0.22829354052E+02  0.00000000000E+00 0.  1.
</event>
<event>
 7    1  0.2458979E-009  0.4778727E+02  0.7816164E-02  0.1312668E+00
        -11   -1    0    0    0    0  0.00000000000E+00  0.00000000000E+00  0.45593999997E+02  0.45594000000E+02  0.51100000000E-03 0.  1.
         11   -1    0    0    0    0 -0.00000000000E+00 -0.00000000000E+00 -0.45593999997E+02  0.45594000000E+02  0.51100000000E-03 0. -1.
    9900012    2    1    2    0    0 -0.34082035025E+02 -0.26833457773E+02  0.14155395630E+01  0.47787270516E+02  0.19999997590E+02 0.  0.
        -12    1    1    2    0    0  0.34082035025E+02  0.26833457773E+02 -0.14155395630E+01  0.43400729484E+02  0.00000000000E+00 0.  1.
         11    1    3    3    0    0 -0.13875412626E+02 -0.69419758183E+01 -0.22186767217E+01  0.15672926672E+02  0.51100000000E-03 0. -1.
        -11    1    3    3    0    0 -0.12076824505E+02 -0.63958327792E+01  0.79090096656E+01  0.15789515547E+02  0.51100000000E-03 0.  1.
        -12    1    3    3    0    0 -0.81297978939E+01 -0.13495649176E+02 -0.42747933809E+01  0.16324828297E+02  0.00000000000E+00 0.  1.
</event>
<event>
 7    1  0.2458979E-009  0.4778727E+02  0.7816164E-02  0.1312668E+00
        -11   -1    0    0    0    0  0.00000000000E+00  0.00000000000E+00  0.45593999997E+02  0.45594000000E+02  0.51100000000E-03 0.  1.
         11   -1    0    0    0    0 -0.00000000000E+00 -0.00000000000E+00 -0.45593999997E+02  0.45594000000E+02  0.51100000000E-03 0. -1.
    9900012    2    1    2    0    0  0.44131950936E+01  0.10604215385E+02 -0.41853286027E+02  0.47787271594E+02  0.20000002506E+02 0.  0.
        -12    1    1    2    0    0 -0.44131950936E+01 -0.10604215385E+02  0.41853286027E+02  0.43400728406E+02  0.00000000000E+00 0.  1.
         11    1    3    3    0    0  0.27066127006E+01  0.13519781480E+02 -0.23639228313E+02  0.27366464132E+02  0.51100000000E-03 0. -1.
        -11    1    3    3    0    0 -0.24964928433E+01  0.96147205306E+00 -0.23612585015E+01  0.35682554557E+01  0.51100000000E-03 0.  1.
         12    1    3    3    0    0  0.42030752363E+01 -0.38770381482E+01 -0.15852799213E+02  0.16852552006E+02  0.00000000000E+00 0. -1.
</event>
<event>
 7    1  0.2458979E-009  0.4778727E+02  0.7816164E-02  0.1312668E+00
        -11   -1    0    0    0    0  0.00000000000E+00  0.00000000000E+00  0.45593999997E+02  0.45594000000E+02  0.51100000000E-03 0. -1.
         11   -1    0    0    0    0 -0.00000000000E+00 -0.00000000000E+00 -0.45593999997E+02  0.45594000000E+02  0.51100000000E-03 0.  1.
    9900012    2    1    2    0    0 -0.13190364839E+02 -0.63452449909E+01  0.40857994376E+02  0.47787267714E+02  0.19999984813E+02 0.  0.
        -12    1    1    2    0    0  0.13190364839E+02  0.63452449909E+01 -0.40857994376E+02  0.43400732286E+02  0.00000000000E+00 0.  1.
         11    1    3    3    0    0 -0.27705691352E+01 -0.71658867965E+01  0.29929243531E+02  0.30899605265E+02  0.51100000000E-03 0. -1.
        -11    1    3    3    0    0 -0.22147411167E+01  0.35394338599E+01  0.28408652263E+01  0.50500678964E+01  0.51100000000E-03 0.  1.
         12    1    3    3    0    0 -0.82050545871E+01 -0.27187920543E+01  0.80878856185E+01  0.11837594553E+02  0.00000000000E+00 0. -1.
</event>
<event>
 7    1  0.2458979E-009  0.4778726E+02  0.7816164E-02  0.1312668E+00
        -11   -1    0    0    0    0  0.00000000000E+00  0.00000000000E+00  0.45593999997E+02  0.45594000000E+02  0.51100000000E-03 0.  1.
         11   -1    0    0    0    0 -0.00000000000E+00 -0.00000000000E+00 -0.45593999997E+02  0.45594000000E+02  0.51100000000E-03 0. -1.
    9900012    2    1    2    0    0  0.15679907952E+02 -0.51989872350E+01 -0.40133961896E+02  0.47787264071E+02  0.19999968207E+02 0.  0.
        -12    1    1    2    0    0 -0.15679907952E+02  0.51989872350E+01  0.40133961896E+02  0.43400735929E+02  0.00000000000E+00 0.  1.
         11    1    3    3    0    0  0.11071827857E+02 -0.65930968417E+01 -0.16632766230E+02  0.21040513558E+02  0.51100000000E-03 0. -1.
        -11    1    3    3    0    0  0.35807366578E+01  0.62561880047E+01 -0.97513069469E+01  0.12126398921E+02  0.51100000000E-03 0.  1.
        -12    1    3    3    0    0  0.10273434373E+01 -0.48620783980E+01 -0.13749888719E+02  0.14620351592E+02  0.00000000000E+00 0.  1.
</event>
<event>
 7    1  0.2458979E-009  0.4778727E+02  0.7816164E-02  0.1312668E+00
        -11   -1    0    0    0    0  0.00000000000E+00  0.00000000000E+00  0.45593999997E+02  0.45594000000E+02  0.51100000000E-03 0.  1.
         11   -1    0    0    0    0 -0.00000000000E+00 -0.00000000000E+00 -0.45593999997E+02  0.45594000000E+02  0.51100000000E-03 0. -1.
    9900012    2    1    2    0    0  0.30335837899E+02  0.19765327289E+02 -0.23930985479E+02  0.47787270860E+02  0.19999999160E+02 0.  0.
        -12    1    1    2    0    0 -0.30335837899E+02 -0.19765327289E+02  0.23930985479E+02  0.43400729140E+02  0.00000000000E+00 0.  1.
         11    1    3    3    0    0  0.12230624750E+02 -0.15401936864E+01 -0.53865255343E+01  0.13452696234E+02  0.51100000000E-03 0. -1.
        -11    1    3    3    0    0  0.19692597274E+01  0.71850464436E+01 -0.50270366472E+01  0.89874342269E+01  0.51100000000E-03 0.  1.
         12    1    3    3    0    0  0.16135953421E+02  0.14120474532E+02 -0.13517423298E+02  0.25347140399E+02  0.00000000000E+00 0. -1.
</event>
<event>
 7    1  0.2458979E-009  0.4778727E+02  0.7816164E-02  0.1312668E+00
        -11   -1    0    0    0    0  0.00000000000E+00  0.00000000000E+00  0.45593999997E+02  0.45594000000E+02  0.51100000000E-03 0.  1.
         11   -1    0    0    0    0 -0.00000000000E+00 -0.00000000000E+00 -0.45593999997E+02  0.45594000000E+02  0.51100000000E-03 0. -1.
    9900012    2    1    2    0    0 -0.58952789559E+01 -0.88557429176E+01 -0.42076652700E+02  0.47787271907E+02  0.20000003931E+02 0.  0.
        -12    1    1    2    0    0  0.58952789559E+01  0.88557429176E+01  0.42076652700E+02  0.43400728093E+02  0.00000000000E+00 0.  1.
         11    1    3    3    0    0 -0.66567844282E+01 -0.80062158256E+01 -0.13764458873E+02  0.17258986039E+02  0.51100000000E-03 0. -1.
        -11    1    3    3    0    0  0.15240646324E+01 -0.45790770425E+01 -0.51596918006E+01  0.70649231633E+01  0.51100000000E-03 0.  1.
         12    1    3    3    0    0 -0.76255916007E+00  0.37295499505E+01 -0.23152502026E+02  0.23463362704E+02  0.00000000000E+00 0. -1.
</event>
<event>
 7    1  0.2458979E-009  0.4778727E+02  0.7816164E-02  0.1312668E+00
        -11   -1    0    0    0    0  0.00000000000E+00  0.00000000000E+00  0.45593999997E+02  0.45594000000E+02  0.51100000000E-03 0.  1.
         11   -1    0    0    0    0 -0.00000000000E+00 -0.00000000000E+00 -0.45593999997E+02  0.45594000000E+02  0.51100000000E-03 0. -1.
    9900012    2    1    2    0    0 -0.39448147138E+02  0.12208323056E+02 -0.13357544903E+02  0.47787268782E+02  0.19999989683E+02 0.  0.
        -12    1    1    2    0    0  0.39448147138E+02 -0.12208323056E+02  0.13357544903E+02  0.43400731218E+02  0.00000000000E+00 0.  1.
         11    1    3    3    0    0 -0.14616660434E+02 -0.33420650657E+01 -0.31846689917E+01  0.15328348834E+02  0.51100000000E-03 0. -1.
        -11    1    3    3    0    0 -0.86992389468E+01  0.10681410424E+02 -0.27597760943E+01  0.14049400387E+02  0.51100000000E-03 0.  1.
        -12    1    3    3    0    0 -0.16132247758E+02  0.48689776984E+01 -0.74130998170E+01  0.18409519560E+02  0.00000000000E+00 0.  1.
</event>
<event>
 7    1  0.2458979E-009  0.4778727E+02  0.7816164E-02  0.1312668E+00
        -11   -1    0    0    0    0  0.00000000000E+00  0.00000000000E+00  0.45593999997E+02  0.45594000000E+02  0.51100000000E-03 0.  1.
         11   -1    0    0    0    0 -0.00000000000E+00 -0.00000000000E+00 -0.45593999997E+02  0.45594000000E+02  0.51100000000E-03 0. -1.
    9900012    2    1    2    0    0 -0.33711304046E+02 -0.17763623243E+02 -0.20775588908E+02  0.47787269296E+02  0.19999992027E+02 0.  0.
        -12    1    1    2    0    0  0.33711304046E+02  0.17763623243E+02  0.20775588908E+02  0.43400730704E+02  0.00000000000E+00 0.  1.
         11    1    3    3    0    0 -0.14009018572E+02 -0.11152628145E+02 -0.19174526276E+02  0.26235399255E+02  0.51100000000E-03 0. -1.
        -11    1    3    3    0    0 -0.30548736586E+01 -0.76958095023E-01  0.14951973183E+01  0.34020274691E+01  0.51100000000E-03 0.  1.
         12    1    3    3    0    0 -0.16647411815E+02 -0.65340370027E+01 -0.30962599501E+01  0.18149842572E+02  0.00000000000E+00 0. -1.
</event>
<event>
 7    1  0.2458979E-009  0.4778728E+02  0.7816164E-02  0.1312668E+00
        -11   -1    0    0    0    0  0.00000000000E+00  0.00000000000E+00  0.45593999997E+02  0.45594000000E+02  0.51100000000E-03 0.  1.
         11   -1    0    0    0    0 -0.00000000000E+00 -0.00000000000E+00 -0.45593999997E+02  0.45594000000E+02  0.51100000000E-03 0. -1.
    9900012    2    1    2    0    0  0.21245394075E+02  0.30549643752E+02  0.22337756868E+02  0.47787275529E+02  0.20000020446E+02 0.  0.
        -12    1    1    2    0    0 -0.21245394075E+02 -0.30549643752E+02 -0.22337756868E+02  0.43400724471E+02  0.00000000000E+00 0.  1.
         11    1    3    3    0    0 -0.11522690079E+01  0.86183749836E+01  0.46077276123E+00  0.87072626596E+01  0.51100000000E-03 0. -1.
        -11    1    3    3    0    0  0.10277291342E+02  0.70981906135E+01  0.12795432210E+02  0.17880998659E+02  0.51100000000E-03 0.  1.
         12    1    3    3    0    0  0.12120371741E+02  0.14833078154E+02  0.90815518961E+01  0.21199014211E+02  0.00000000000E+00 0. -1.
</event>
<event>
 7    1  0.2458979E-009  0.4778727E+02  0.7816164E-02  0.1312668E+00
        -11   -1    0    0    0    0  0.00000000000E+00  0.00000000000E+00  0.45593999997E+02  0.45594000000E+02  0.51100000000E-03 0.  1.
         11   -1    0    0    0    0 -0.00000000000E+00 -0.00000000000E+00 -0.45593999997E+02  0.45594000000E+02  0.51100000000E-03 0. -1.
    9900012    2    1    2    0    0  0.29883350590E+02  0.27746322912E+02 -0.14857667763E+02  0.47787269949E+02  0.19999995005E+02 0.  0.
        -12    1    1    2    0    0 -0.29883350590E+02 -0.27746322912E+02  0.14857667763E+02  0.43400730051E+02  0.00000000000E+00 0.  1.
         11    1    3    3    0    0  0.24112330810E+02  0.12953201174E+02 -0.56792088818E+01  0.27954307925E+02  0.51100000000E-03 0. -1.
        -11    1    3    3    0    0 -0.13620610241E+01  0.27996379774E+00 -0.48297409038E+00  0.14720238431E+01  0.51100000000E-03 0.  1.
         12    1    3    3    0    0  0.71330808037E+01  0.14513157940E+02 -0.86954847910E+01  0.18360938181E+02  0.00000000000E+00 0. -1.
</event>
<event>
 7    1  0.2458979E-009  0.4778727E+02  0.7816164E-02  0.1312668E+00
        -11   -1    0    0    0    0  0.00000000000E+00  0.00000000000E+00  0.45593999997E+02  0.45594000000E+02  0.51100000000E-03 0.  1.
         11   -1    0    0    0    0 -0.00000000000E+00 -0.00000000000E+00 -0.45593999997E+02  0.45594000000E+02  0.51100000000E-03 0. -1.
    9900012    2    1    2    0    0 -0.32769605573E+02 -0.18253713808E+02 -0.21830671706E+02  0.47787270233E+02  0.19999996299E+02 0.  0.
        -12    1    1    2    0    0  0.32769605573E+02  0.18253713808E+02  0.21830671706E+02  0.43400729767E+02  0.00000000000E+00 0.  1.
         11    1    3    3    0    0 -0.15159489094E+02  0.12730693884E+00 -0.42974840438E+01  0.15757369260E+02  0.51100000000E-03 0. -1.
        -11    1    3    3    0    0 -0.27592386954E+01 -0.34944385515E+01  0.29431638287E+00  0.44621879569E+01  0.51100000000E-03 0.  1.
         12    1    3    3    0    0 -0.14850877784E+02 -0.14886582195E+02 -0.17827504046E+02  0.27567713015E+02  0.00000000000E+00 0. -1.
</event>
<event>
 7    1  0.2458979E-009  0.4778727E+02  0.7816164E-02  0.1312668E+00
        -11   -1    0    0    0    0  0.00000000000E+00  0.00000000000E+00  0.45593999997E+02  0.45594000000E+02  0.51100000000E-03 0.  1.
         11   -1    0    0    0    0 -0.00000000000E+00 -0.00000000000E+00 -0.45593999997E+02  0.45594000000E+02  0.51100000000E-03 0. -1.
    9900012    2    1    2    0    0 -0.79181756040E+01 -0.60635346664E+00 -0.42668004038E+02  0.47787265697E+02  0.19999975621E+02 0.  0.
        -12    1    1    2    0    0  0.79181756040E+01  0.60635346664E+00  0.42668004038E+02  0.43400734303E+02  0.00000000000E+00 0.  1.
         11    1    3    3    0    0  0.50705591670E+01 -0.45481430141E+01 -0.21581313794E+02  0.22630715421E+02  0.51100000000E-03 0. -1.
        -11    1    3    3    0    0 -0.51443736784E+01  0.25709851411E+01 -0.85277088950E+01  0.10285735968E+02  0.51100000000E-03 0.  1.
         12    1    3    3    0    0 -0.78443610925E+01  0.13708044064E+01 -0.12558981349E+02  0.14870814308E+02  0.00000000000E+00 0. -1.
</event>
<event>
 7    1  0.2458979E-009  0.4778726E+02  0.7816164E-02  0.1312668E+00
        -11   -1    0    0    0    0  0.00000000000E+00  0.00000000000E+00  0.45593999997E+02  0.45594000000E+02  0.51100000000E-03 0. -1.
         11   -1    0    0    0    0 -0.00000000000E+00 -0.00000000000E+00 -0.45593999997E+02  0.45594000000E+02  0.51100000000E-03 0.  1.
    9900012    2    1    2    0    0 -0.45949341777E+01  0.40690369485E+02  0.14380697892E+02  0.47787261978E+02  0.19999958665E+02 0.  0.
        -12    1    1    2    0    0  0.45949341777E+01 -0.40690369485E+02 -0.14380697892E+02  0.43400738022E+02  0.00000000000E+00 0.  1.
         11    1    3    3    0    0 -0.73558767719E+01  0.39069536994E+02  0.10038897764E+02  0.41003867044E+02  0.51100000000E-03 0. -1.
        -11    1    3    3    0    0  0.29159744479E+01  0.25391954784E+01  0.43909841770E+01  0.58507403772E+01  0.51100000000E-03 0.  1.
         12    1    3    3    0    0 -0.15503185371E+00 -0.91836298705E+00 -0.49184049108E-01  0.93265455681E+00  0.00000000000E+00 0. -1.
</event>
<event>
 7    1  0.2458979E-009  0.4778727E+02  0.7816164E-02  0.1312668E+00
        -11   -1    0    0    0    0  0.00000000000E+00  0.00000000000E+00  0.45593999997E+02  0.45594000000E+02  0.51100000000E-03 0.  1.
         11   -1    0    0    0    0 -0.00000000000E+00 -0.00000000000E+00 -0.45593999997E+02  0.45594000000E+02  0.51100000000E-03 0. -1.
    9900012    2    1    2    0    0 -0.43149224580E+02  0.37381918049E+01  0.27916738090E+01  0.47787273019E+02  0.20000009001E+02 0.  0.
        -12    1    1    2    0    0  0.43149224580E+02 -0.37381918049E+01 -0.27916738090E+01  0.43400726981E+02  0.00000000000E+00 0.  1.
         11    1    3    3    0    0 -0.11327203869E+02  0.50415691027E+01 -0.37662483781E+01  0.12957916252E+02  0.51100000000E-03 0. -1.
        -11    1    3    3    0    0 -0.36769993486E+01 -0.94259007331E+00 -0.32755298573E+01  0.50137706732E+01  0.51100000000E-03 0.  1.
         12    1    3    3    0    0 -0.28145021363E+02 -0.36078722444E+00  0.98334520445E+01  0.29815586093E+02  0.00000000000E+00 0. -1.
</event>
<event>
 7    1  0.2458979E-009  0.4778727E+02  0.7816164E-02  0.1312668E+00
        -11   -1    0    0    0    0  0.00000000000E+00  0.00000000000E+00  0.45593999997E+02  0.45594000000E+02  0.51100000000E-03 0. -1.
         11   -1    0    0    0    0 -0.00000000000E+00 -0.00000000000E+00 -0.45593999997E+02  0.45594000000E+02  0.51100000000E-03 0.  1.
    9900012    2    1    2    0    0 -0.15433305059E+02 -0.79305788382E+01  0.39781186512E+02  0.47787265144E+02  0.19999973096E+02 0.  0.
        -12    1    1    2    0    0  0.15433305059E+02  0.79305788382E+01 -0.39781186512E+02  0.43400734856E+02  0.00000000000E+00 0.  1.
         11    1    3    3    0    0 -0.16092144068E+02 -0.75548862772E+00  0.15624474002E+02  0.22442193562E+02  0.51100000000E-03 0. -1.
        -11    1    3    3    0    0  0.14558249831E+01 -0.34169569114E+01  0.97046703309E+01  0.10391133115E+02  0.51100000000E-03 0.  1.
         12    1    3    3    0    0 -0.79698597467E+00 -0.37581332990E+01  0.14452042179E+02  0.14953938467E+02  0.00000000000E+00 0. -1.
</event>
<event>
 7    1  0.2458979E-009  0.4778727E+02  0.7816164E-02  0.1312668E+00
        -11   -1    0    0    0    0  0.00000000000E+00  0.00000000000E+00  0.45593999997E+02  0.45594000000E+02  0.51100000000E-03 0. -1.
         11   -1    0    0    0    0 -0.00000000000E+00 -0.00000000000E+00 -0.45593999997E+02  0.45594000000E+02  0.51100000000E-03 0.  1.
    9900012    2    1    2    0    0  0.26499866062E+02 -0.31284398040E+02  0.14236098068E+02  0.47787274773E+02  0.20000016999E+02 0.  0.
        -12    1    1    2    0    0 -0.26499866062E+02  0.31284398040E+02 -0.14236098068E+02  0.43400725227E+02  0.00000000000E+00 0.  1.
         11    1    3    3    0    0 -0.14026265482E+00  0.13257167868E+01  0.35975161120E+01  0.38365767356E+01  0.51100000000E-03 0. -1.
        -11    1    3    3    0    0  0.46561995147E+01 -0.23398304140E+01  0.84582735946E+00  0.52792446874E+01  0.51100000000E-03 0.  1.
         12    1    3    3    0    0  0.21983929202E+02 -0.30270284413E+02  0.97927545968E+01  0.38671453350E+02  0.00000000000E+00 0. -1.
</event>
<event>
 7    1  0.2458979E-009  0.4778727E+02  0.7816164E-02  0.1312668E+00
        -11   -1    0    0    0    0  0.00000000000E+00  0.00000000000E+00  0.45593999997E+02  0.45594000000E+02  0.51100000000E-03 0.  1.
         11   -1    0    0    0    0 -0.00000000000E+00 -0.00000000000E+00 -0.45593999997E+02  0.45594000000E+02  0.51100000000E-03 0. -1.
    9900012    2    1    2    0    0 -0.47599363512E+01  0.43119077569E+02  0.13082416817E+01  0.47787270274E+02  0.19999996489E+02 0.  0.
        -12    1    1    2    0    0  0.47599363512E+01 -0.43119077569E+02 -0.13082416817E+01  0.43400729726E+02  0.00000000000E+00 0.  1.
         11    1    3    3    0    0  0.42889197586E+01  0.31463789309E+02  0.59067902771E+01  0.32299458851E+02  0.51100000000E-03 0.  1.
        -11    1    3    3    0    0 -0.57103953046E+01  0.80795822068E+01 -0.29160484766E+01  0.10314630490E+02  0.51100000000E-03 0. -1.
        -12    1    3    3    0    0 -0.33384608052E+01  0.35757060522E+01 -0.16825001187E+01  0.51731809334E+01  0.00000000000E+00 0.  1.
</event>
<event>
 7    1  0.2458979E-009  0.4778727E+02  0.7816164E-02  0.1312668E+00
        -11   -1    0    0    0    0  0.00000000000E+00  0.00000000000E+00  0.45593999997E+02  0.45594000000E+02  0.51100000000E-03 0.  1.
         11   -1    0    0    0    0 -0.00000000000E+00 -0.00000000000E+00 -0.45593999997E+02  0.45594000000E+02  0.51100000000E-03 0. -1.
    9900012    2    1    2    0    0 -0.58126734002E+01  0.12707292343E+02 -0.41089672502E+02  0.47787266861E+02  0.19999980925E+02 0.  0.
        -12    1    1    2    0    0  0.58126734002E+01 -0.12707292343E+02  0.41089672502E+02  0.43400733139E+02  0.00000000000E+00 0.  1.
         11    1    3    3    0    0 -0.91817236395E+01  0.67322782503E+01 -0.31400645536E+02  0.33401020340E+02  0.51100000000E-03 0. -1.
        -11    1    3    3    0    0 -0.10832439093E+01 -0.12629608113E+01 -0.34944395120E+01  0.38703481940E+01  0.51100000000E-03 0.  1.
         12    1    3    3    0    0  0.44522941486E+01  0.72379749039E+01 -0.61945874534E+01  0.10515898327E+02  0.00000000000E+00 0. -1.
</event>
<event>
 7    1  0.2458979E-009  0.4778727E+02  0.7816164E-02  0.1312668E+00
        -11   -1    0    0    0    0  0.00000000000E+00  0.00000000000E+00  0.45593999997E+02  0.45594000000E+02  0.51100000000E-03 0. -1.
         11   -1    0    0    0    0 -0.00000000000E+00 -0.00000000000E+00 -0.45593999997E+02  0.45594000000E+02  0.51100000000E-03 0.  1.
    9900012    2    1    2    0    0 -0.84042948940E+01 -0.36645644685E+02  0.21681510789E+02  0.47787270085E+02  0.19999995627E+02 0.  0.
        -12    1    1    2    0    0  0.84042948940E+01  0.36645644685E+02 -0.21681510789E+02  0.43400729915E+02  0.00000000000E+00 0.  1.
         11    1    3    3    0    0  0.29559096713E+01 -0.17493622938E+01  0.68061828118E+01  0.76237651557E+01  0.51100000000E-03 0. -1.
        -11    1    3    3    0    0 -0.10636490458E+02 -0.26189562181E+02  0.91218159432E+01  0.29702451462E+02  0.51100000000E-03 0.  1.
        -12    1    3    3    0    0 -0.72371410687E+00 -0.87067202098E+01  0.57535120344E+01  0.10461053468E+02  0.00000000000E+00 0.  1.
</event>
<event>
 7    1  0.2458979E-009  0.4778727E+02  0.7816164E-02  0.1312668E+00
        -11   -1    0    0    0    0  0.00000000000E+00  0.00000000000E+00  0.45593999997E+02  0.45594000000E+02  0.51100000000E-03 0.  1.
         11   -1    0    0    0    0 -0.00000000000E+00 -0.00000000000E+00 -0.45593999997E+02  0.45594000000E+02  0.51100000000E-03 0. -1.
    9900012    2    1    2    0    0  0.17781341391E+02 -0.34384802446E+02 -0.19624794251E+02  0.47787270855E+02  0.19999999136E+02 0.  0.
        -12    1    1    2    0    0 -0.17781341391E+02  0.34384802446E+02  0.19624794251E+02  0.43400729145E+02  0.00000000000E+00 0.  1.
         11    1    3    3    0    0  0.89740271896E+01 -0.24013090699E+02 -0.17299370057E+02  0.30926200762E+02  0.51100000000E-03 0. -1.
        -11    1    3    3    0    0  0.49887788980E+01 -0.10675723036E+02  0.94856285825E+00  0.11821960455E+02  0.51100000000E-03 0.  1.
         12    1    3    3    0    0  0.38185353038E+01  0.30401128908E+00 -0.32739870519E+01  0.50391096382E+01  0.00000000000E+00 0. -1.
</event>
<event>
 7    1  0.2458979E-009  0.4778727E+02  0.7816164E-02  0.1312668E+00
        -11   -1    0    0    0    0  0.00000000000E+00  0.00000000000E+00  0.45593999997E+02  0.45594000000E+02  0.51100000000E-03 0.  1.
         11   -1    0    0    0    0 -0.00000000000E+00 -0.00000000000E+00 -0.45593999997E+02  0.45594000000E+02  0.51100000000E-03 0. -1.
    9900012    2    1    2    0    0  0.33208583167E+02 -0.11490515435E+02 -0.25471185975E+02  0.47787271252E+02  0.20000000945E+02 0.  0.
        -12    1    1    2    0    0 -0.33208583167E+02  0.11490515435E+02  0.25471185975E+02  0.43400728748E+02  0.00000000000E+00 0.  1.
         11    1    3    3    0    0  0.11863340875E+02 -0.55071452896E+01 -0.16883230052E+01  0.13187795145E+02  0.51100000000E-03 0. -1.
        -11    1    3    3    0    0  0.12288325183E+02  0.17906658026E+01 -0.16377041494E+02  0.20552783465E+02  0.51100000000E-03 0.  1.
        -12    1    3    3    0    0  0.90569171089E+01 -0.77740359479E+01 -0.74058214758E+01  0.14046692642E+02  0.00000000000E+00 0.  1.
</event>
<event>
 7    1  0.2458979E-009  0.4778727E+02  0.7816164E-02  0.1312668E+00
        -11   -1    0    0    0    0  0.00000000000E+00  0.00000000000E+00  0.45593999997E+02  0.45594000000E+02  0.51100000000E-03 0.  1.
         11   -1    0    0    0    0 -0.00000000000E+00 -0.00000000000E+00 -0.45593999997E+02  0.45594000000E+02  0.51100000000E-03 0. -1.
    9900012    2    1    2    0    0 -0.32229763155E+02  0.40144623880E+01 -0.28788015061E+02  0.47787270139E+02  0.19999995873E+02 0.  0.
        -12    1    1    2    0    0  0.32229763155E+02 -0.40144623880E+01  0.28788015061E+02  0.43400729861E+02  0.00000000000E+00 0.  1.
         11    1    3    3    0    0 -0.66328987566E+01  0.64853122078E+00 -0.92038514809E+01  0.11363398303E+02  0.51100000000E-03 0. -1.
        -11    1    3    3    0    0 -0.14415966652E+02  0.10151646352E+02 -0.11321573278E+02  0.20953616393E+02  0.51100000000E-03 0.  1.
        -12    1    3    3    0    0 -0.11180897746E+02 -0.67857151851E+01 -0.82625903020E+01  0.15470255443E+02  0.00000000000E+00 0.  1.
</event>
<event>
 7    1  0.2458979E-009  0.4778725E+02  0.7816164E-02  0.1312668E+00
        -11   -1    0    0    0    0  0.00000000000E+00  0.00000000000E+00  0.45593999997E+02  0.45594000000E+02  0.51100000000E-03 0.  1.
         11   -1    0    0    0    0 -0.00000000000E+00 -0.00000000000E+00 -0.45593999997E+02  0.45594000000E+02  0.51100000000E-03 0. -1.
    9900012    2    1    2    0    0  0.42950492255E+02 -0.16225303941E+01 -0.60206000788E+01  0.47787250984E+02  0.19999908535E+02 0.  0.
        -12    1    1    2    0    0 -0.42950492255E+02  0.16225303941E+01  0.60206000788E+01  0.43400749016E+02  0.00000000000E+00 0.  1.
         11    1    3    3    0    0  0.19504139408E+02  0.61867398116E+01  0.19885998730E+01  0.20558252193E+02  0.51100000000E-03 0.  1.
        -11    1    3    3    0    0  0.21885335212E+02 -0.76869775127E+01 -0.48422280234E+01  0.23696090249E+02  0.51100000000E-03 0. -1.
        -12    1    3    3    0    0  0.15610176358E+01 -0.12229269300E+00 -0.31669719284E+01  0.35329085408E+01  0.00000000000E+00 0.  1.
</event>
<event>
 7    1  0.2458979E-009  0.4778726E+02  0.7816164E-02  0.1312668E+00
        -11   -1    0    0    0    0  0.00000000000E+00  0.00000000000E+00  0.45593999997E+02  0.45594000000E+02  0.51100000000E-03 0. -1.
         11   -1    0    0    0    0 -0.00000000000E+00 -0.00000000000E+00 -0.45593999997E+02  0.45594000000E+02  0.51100000000E-03 0.  1.
    9900012    2    1    2    0    0 -0.33768661744E+02 -0.19476808651E+02  0.19077616982E+02  0.47787261977E+02  0.19999958657E+02 0.  0.
        -12    1    1    2    0    0  0.33768661744E+02  0.19476808651E+02 -0.19077616982E+02  0.43400738023E+02  0.00000000000E+00 0.  1.
         11    1    3    3    0    0 -0.60868380584E+01 -0.12896064196E+01  0.88037739397E+01  0.10780497118E+02  0.51100000000E-03 0. -1.
        -11    1    3    3    0    0 -0.23435710582E+02 -0.11224578948E+02  0.31445104502E+01  0.26174637520E+02  0.51100000000E-03 0.  1.
        -12    1    3    3    0    0 -0.42461131038E+01 -0.69626232834E+01  0.71293325925E+01  0.10832127339E+02  0.00000000000E+00 0.  1.
</event>
<event>
 7    1  0.2458979E-009  0.4778728E+02  0.7816164E-02  0.1312668E+00
        -11   -1    0    0    0    0  0.00000000000E+00  0.00000000000E+00  0.45593999997E+02  0.45594000000E+02  0.51100000000E-03 0.  1.
         11   -1    0    0    0    0 -0.00000000000E+00 -0.00000000000E+00 -0.45593999997E+02  0.45594000000E+02  0.51100000000E-03 0. -1.
    9900012    2    1    2    0    0  0.12612040953E+02 -0.30714452602E+02 -0.27949626673E+02  0.47787276425E+02  0.20000024533E+02 0.  0.
        -12    1    1    2    0    0 -0.12612040953E+02  0.30714452602E+02  0.27949626673E+02  0.43400723575E+02  0.00000000000E+00 0.  1.
         11    1    3    3    0    0  0.21905173457E+01 -0.16861264067E+02 -0.88621336038E+01  0.19173888611E+02  0.51100000000E-03 0. -1.
        -11    1    3    3    0    0  0.65715077602E+01 -0.10304094853E+02 -0.19861365413E+02  0.23320225585E+02  0.51100000000E-03 0.  1.
        -12    1    3    3    0    0  0.38500158474E+01 -0.35490936814E+01  0.77387234368E+00  0.52931622296E+01  0.00000000000E+00 0.  1.
</event>
<event>
 7    1  0.2458979E-009  0.4778727E+02  0.7816164E-02  0.1312668E+00
        -11   -1    0    0    0    0  0.00000000000E+00  0.00000000000E+00  0.45593999997E+02  0.45594000000E+02  0.51100000000E-03 0.  1.
         11   -1    0    0    0    0 -0.00000000000E+00 -0.00000000000E+00 -0.45593999997E+02  0.45594000000E+02  0.51100000000E-03 0. -1.
    9900012    2    1    2    0    0 -0.69700377074E+01  0.27284445160E+02 -0.33024246780E+02  0.47787271334E+02  0.20000001322E+02 0.  0.
        -12    1    1    2    0    0  0.69700377074E+01 -0.27284445160E+02  0.33024246780E+02  0.43400728666E+02  0.00000000000E+00 0.  1.
         11    1    3    3    0    0 -0.10967717024E+02  0.60453219140E+01 -0.10135077041E+02  0.16110757916E+02  0.51100000000E-03 0.  1.
        -11    1    3    3    0    0  0.13307529405E+01  0.13905303076E+02 -0.16267971467E+02  0.21442370507E+02  0.51100000000E-03 0. -1.
        -12    1    3    3    0    0  0.26669263756E+01  0.73338201694E+01 -0.66211982720E+01  0.10234142911E+02  0.00000000000E+00 0.  1.
</event>
<event>
 7    1  0.2458979E-009  0.4778729E+02  0.7816164E-02  0.1312668E+00
        -11   -1    0    0    0    0  0.00000000000E+00  0.00000000000E+00  0.45593999997E+02  0.45594000000E+02  0.51100000000E-03 0.  1.
         11   -1    0    0    0    0 -0.00000000000E+00 -0.00000000000E+00 -0.45593999997E+02  0.45594000000E+02  0.51100000000E-03 0. -1.
    9900012    2    1    2    0    0 -0.47297364053E+01  0.50050742597E+01 -0.42850913523E+02  0.47787286129E+02  0.20000068775E+02 0.  0.
        -12    1    1    2    0    0  0.47297364053E+01 -0.50050742597E+01  0.42850913523E+02  0.43400713871E+02  0.00000000000E+00 0.  1.
         11    1    3    3    0    0 -0.84728028613E+00 -0.25068795818E+01 -0.94411822152E+01  0.98050115248E+01  0.51100000000E-03 0. -1.
        -11    1    3    3    0    0 -0.18422576567E+01  0.23290433924E+00  0.14225034507E+01  0.23391609677E+01  0.51100000000E-03 0.  1.
        -12    1    3    3    0    0 -0.20401984625E+01  0.72790495023E+01 -0.34832234758E+02  0.35643113636E+02  0.00000000000E+00 0.  1.
</event>
<event>
 7    1  0.2458979E-009  0.4778733E+02  0.7816164E-02  0.1312668E+00
        -11   -1    0    0    0    0  0.00000000000E+00  0.00000000000E+00  0.45593999997E+02  0.45594000000E+02  0.51100000000E-03 0.  1.
         11   -1    0    0    0    0 -0.00000000000E+00 -0.00000000000E+00 -0.45593999997E+02  0.45594000000E+02  0.51100000000E-03 0. -1.
    9900012    2    1    2    0    0 -0.33368337290E+02  0.27551972126E+02 -0.33258712789E+01  0.47787325796E+02  0.20000249634E+02 0.  0.
        -12    1    1    2    0    0  0.33368337290E+02 -0.27551972126E+02  0.33258712789E+01  0.43400674204E+02  0.00000000000E+00 0.  1.
         11    1    3    3    0    0 -0.71222286759E+01  0.99532079417E+01 -0.45390660069E+01  0.13053566950E+02  0.51100000000E-03 0. -1.
        -11    1    3    3    0    0 -0.12568093161E+02  0.71377509552E+01 -0.65214212905E+01  0.15856651296E+02  0.51100000000E-03 0.  1.
        -12    1    3    3    0    0 -0.13678015453E+02  0.10461013230E+02  0.77346160184E+01  0.18877107551E+02  0.00000000000E+00 0.  1.
</event>
<event>
 7    1  0.2458979E-009  0.4778727E+02  0.7816164E-02  0.1312668E+00
        -11   -1    0    0    0    0  0.00000000000E+00  0.00000000000E+00  0.45593999997E+02  0.45594000000E+02  0.51100000000E-03 0.  1.
         11   -1    0    0    0    0 -0.00000000000E+00 -0.00000000000E+00 -0.45593999997E+02  0.45594000000E+02  0.51100000000E-03 0. -1.
    9900012    2    1    2    0    0 -0.43098115805E+02 -0.33791876946E+01 -0.38414463860E+01  0.47787271830E+02  0.20000003580E+02 0.  0.
        -12    1    1    2    0    0  0.43098115805E+02  0.33791876946E+01  0.38414463860E+01  0.43400728170E+02  0.00000000000E+00 0.  1.
         11    1    3    3    0    0 -0.36636120565E+01  0.13119406483E+01 -0.58934012163E+01  0.70622531619E+01  0.51100000000E-03 0. -1.
        -11    1    3    3    0    0 -0.16533849455E+01 -0.19184225429E+01 -0.99256964258E+00  0.27201510230E+01  0.51100000000E-03 0.  1.
         12    1    3    3    0    0 -0.37781118803E+02 -0.27727058000E+01  0.30445244729E+01  0.38004867645E+02  0.00000000000E+00 0. -1.
</event>
<event>
 7    1  0.2458979E-009  0.4778727E+02  0.7816164E-02  0.1312668E+00
        -11   -1    0    0    0    0  0.00000000000E+00  0.00000000000E+00  0.45593999997E+02  0.45594000000E+02  0.51100000000E-03 0.  1.
         11   -1    0    0    0    0 -0.00000000000E+00 -0.00000000000E+00 -0.45593999997E+02  0.45594000000E+02  0.51100000000E-03 0. -1.
    9900012    2    1    2    0    0 -0.28760708598E+02  0.10325453948E+02 -0.30819311988E+02  0.47787270170E+02  0.19999996015E+02 0.  0.
        -12    1    1    2    0    0  0.28760708598E+02 -0.10325453948E+02  0.30819311988E+02  0.43400729830E+02  0.00000000000E+00 0.  1.
         11    1    3    3    0    0 -0.16583789384E+02  0.42688183457E+01 -0.26748896355E+02  0.31760798745E+02  0.51100000000E-03 0. -1.
        -11    1    3    3    0    0 -0.84815043945E+01  0.18419321510E+01  0.64273729746E+00  0.87029731895E+01  0.51100000000E-03 0.  1.
         12    1    3    3    0    0 -0.36954148197E+01  0.42147034512E+01 -0.47131529302E+01  0.73234982361E+01  0.00000000000E+00 0. -1.
</event>
<event>
 7    1  0.2458979E-009  0.4778726E+02  0.7816164E-02  0.1312668E+00
        -11   -1    0    0    0    0  0.00000000000E+00  0.00000000000E+00  0.45593999997E+02  0.45594000000E+02  0.51100000000E-03 0.  1.
         11   -1    0    0    0    0 -0.00000000000E+00 -0.00000000000E+00 -0.45593999997E+02  0.45594000000E+02  0.51100000000E-03 0. -1.
    9900012    2    1    2    0    0  0.18716161535E+01 -0.18162222189E+02 -0.39373275244E+02  0.47787261926E+02  0.19999958426E+02 0.  0.
        -12    1    1    2    0    0 -0.18716161535E+01  0.18162222189E+02  0.39373275244E+02  0.43400738074E+02  0.00000000000E+00 0.  1.
         11    1    3    3    0    0  0.56209050268E+01 -0.64299247709E+01 -0.24344613336E+02  0.25799199690E+02  0.51100000000E-03 0. -1.
        -11    1    3    3    0    0 -0.72745306001E+01 -0.69135359438E+01 -0.86247605539E+01  0.13232621417E+02  0.51100000000E-03 0.  1.
         12    1    3    3    0    0  0.35252417267E+01 -0.48187614747E+01 -0.64039013545E+01  0.87554408193E+01  0.00000000000E+00 0. -1.
</event>
<event>
 7    1  0.2458979E-009  0.4778727E+02  0.7816164E-02  0.1312668E+00
        -11   -1    0    0    0    0  0.00000000000E+00  0.00000000000E+00  0.45593999997E+02  0.45594000000E+02  0.51100000000E-03 0.  1.
         11   -1    0    0    0    0 -0.00000000000E+00 -0.00000000000E+00 -0.45593999997E+02  0.45594000000E+02  0.51100000000E-03 0. -1.
    9900012    2    1    2    0    0 -0.20279103385E+02 -0.28855298371E+02 -0.25293347332E+02  0.47787266165E+02  0.19999977754E+02 0.  0.
        -12    1    1    2    0    0  0.20279103385E+02  0.28855298371E+02  0.25293347332E+02  0.43400733835E+02  0.00000000000E+00 0.  1.
         11    1    3    3    0    0 -0.22508227266E+02 -0.23950675305E+02 -0.21540372436E+02  0.39296854673E+02  0.51100000000E-03 0. -1.
        -11    1    3    3    0    0 -0.16688192012E+01 -0.10904855998E+01 -0.25101526759E+00  0.20092598875E+01  0.51100000000E-03 0.  1.
         12    1    3    3    0    0  0.38979430831E+01 -0.38141374665E+01 -0.35019596283E+01  0.64811516053E+01  0.00000000000E+00 0. -1.
</event>
<event>
 7    1  0.2458979E-009  0.4778727E+02  0.7816164E-02  0.1312668E+00
        -11   -1    0    0    0    0  0.00000000000E+00  0.00000000000E+00  0.45593999997E+02  0.45594000000E+02  0.51100000000E-03 0.  1.
         11   -1    0    0    0    0 -0.00000000000E+00 -0.00000000000E+00 -0.45593999997E+02  0.45594000000E+02  0.51100000000E-03 0. -1.
    9900012    2    1    2    0    0 -0.26945584347E+02 -0.98236560073E+01 -0.32573831335E+02  0.47787271654E+02  0.20000002778E+02 0.  0.
        -12    1    1    2    0    0  0.26945584347E+02  0.98236560073E+01  0.32573831335E+02  0.43400728346E+02  0.00000000000E+00 0.  1.
         11    1    3    3    0    0 -0.61811207224E+01 -0.34570871528E+01 -0.75742793750E+01  0.10369542578E+02  0.51100000000E-03 0. -1.
        -11    1    3    3    0    0 -0.20822867754E+02 -0.62853187216E+01 -0.12840319723E+02  0.25258085117E+02  0.51100000000E-03 0.  1.
        -12    1    3    3    0    0  0.58404128706E-01 -0.81250132935E-01 -0.12159232236E+02  0.12159643959E+02  0.00000000000E+00 0.  1.
</event>
<event>
 7    1  0.2458979E-009  0.4778727E+02  0.7816164E-02  0.1312668E+00
        -11   -1    0    0    0    0  0.00000000000E+00  0.00000000000E+00  0.45593999997E+02  0.45594000000E+02  0.51100000000E-03 0. -1.
         11   -1    0    0    0    0 -0.00000000000E+00 -0.00000000000E+00 -0.45593999997E+02  0.45594000000E+02  0.51100000000E-03 0.  1.
    9900012    2    1    2    0    0 -0.84350011420E+01  0.41934453783E+02  0.73467962780E+01  0.47787273348E+02  0.20000010504E+02 0.  0.
        -12    1    1    2    0    0  0.84350011420E+01 -0.41934453783E+02 -0.73467962780E+01  0.43400726652E+02  0.00000000000E+00 0.  1.
         11    1    3    3    0    0  0.40281950155E+01  0.79937704340E+01  0.14334591391E+01  0.90654027047E+01  0.51100000000E-03 0. -1.
        -11    1    3    3    0    0 -0.12987568233E+02  0.17375426047E+02  0.31989914726E+01  0.21927514808E+02  0.51100000000E-03 0.  1.
        -12    1    3    3    0    0  0.52437207565E+00  0.16565257302E+02  0.27143456663E+01  0.16794355836E+02  0.00000000000E+00 0.  1.
</event>
<event>
 7    1  0.2458979E-009  0.4778729E+02  0.7816164E-02  0.1312668E+00
        -11   -1    0    0    0    0  0.00000000000E+00  0.00000000000E+00  0.45593999997E+02  0.45594000000E+02  0.51100000000E-03 0.  1.
         11   -1    0    0    0    0 -0.00000000000E+00 -0.00000000000E+00 -0.45593999997E+02  0.45594000000E+02  0.51100000000E-03 0. -1.
    9900012    2    1    2    0    0  0.65115608191E+01  0.24827965486E+02 -0.34997053680E+02  0.47787285020E+02  0.20000063719E+02 0.  0.
        -12    1    1    2    0    0 -0.65115608191E+01 -0.24827965486E+02  0.34997053680E+02  0.43400714980E+02  0.00000000000E+00 0.  1.
         11    1    3    3    0    0  0.96773486132E+01  0.10408769486E+02 -0.19529112869E+02  0.24153256677E+02  0.51100000000E-03 0. -1.
        -11    1    3    3    0    0 -0.42659458234E+01  0.15418049367E+02 -0.12453500696E+02  0.20273239008E+02  0.51100000000E-03 0.  1.
        -12    1    3    3    0    0  0.11001580294E+01 -0.99885336663E+00 -0.30144401161E+01  0.33607893345E+01  0.00000000000E+00 0.  1.
</event>
<event>
 7    1  0.2458979E-009  0.4778727E+02  0.7816164E-02  0.1312668E+00
        -11   -1    0    0    0    0  0.00000000000E+00  0.00000000000E+00  0.45593999997E+02  0.45594000000E+02  0.51100000000E-03 0.  1.
         11   -1    0    0    0    0 -0.00000000000E+00 -0.00000000000E+00 -0.45593999997E+02  0.45594000000E+02  0.51100000000E-03 0. -1.
    9900012    2    1    2    0    0 -0.24782068922E+02  0.54269976931E+01 -0.35213918367E+02  0.47787270850E+02  0.19999999113E+02 0.  0.
        -12    1    1    2    0    0  0.24782068922E+02 -0.54269976931E+01  0.35213918367E+02  0.43400729150E+02  0.00000000000E+00 0.  1.
         11    1    3    3    0    0 -0.21616894737E+02  0.43204264101E+01 -0.30247581489E+02  0.37428230103E+02  0.51100000000E-03 0. -1.
        -11    1    3    3    0    0  0.16060366319E+01  0.28666178236E+01 -0.40101903729E+01  0.51844458235E+01  0.51100000000E-03 0.  1.
         12    1    3    3    0    0 -0.47712108166E+01 -0.17600465405E+01 -0.95614650500E+00  0.51745949233E+01  0.00000000000E+00 0. -1.
</event>
<event>
 7    1  0.2458979E-009  0.4778728E+02  0.7816164E-02  0.1312668E+00
        -11   -1    0    0    0    0  0.00000000000E+00  0.00000000000E+00  0.45593999997E+02  0.45594000000E+02  0.51100000000E-03 0. -1.
         11   -1    0    0    0    0 -0.00000000000E+00 -0.00000000000E+00 -0.45593999997E+02  0.45594000000E+02  0.51100000000E-03 0.  1.
    9900012    2    1    2    0    0 -0.28715024907E+02  0.16556570250E+02  0.28016958707E+02  0.47787278243E+02  0.20000032821E+02 0.  0.
        -12    1    1    2    0    0  0.28715024907E+02 -0.16556570250E+02 -0.28016958707E+02  0.43400721757E+02  0.00000000000E+00 0.  1.
         11    1    3    3    0    0 -0.27832854968E+01  0.12039788278E+01  0.67650334276E+01  0.74136307375E+01  0.51100000000E-03 0. -1.
        -11    1    3    3    0    0 -0.23941310553E+02  0.74548916680E+01  0.11272220363E+02  0.27492266421E+02  0.51100000000E-03 0.  1.
        -12    1    3    3    0    0 -0.19904288578E+01  0.78976997540E+01  0.99797049156E+01  0.12881381085E+02  0.00000000000E+00 0.  1.
</event>
<event>
 7    1  0.2458979E-009  0.4778727E+02  0.7816164E-02  0.1312668E+00
        -11   -1    0    0    0    0  0.00000000000E+00  0.00000000000E+00  0.45593999997E+02  0.45594000000E+02  0.51100000000E-03 0.  1.
         11   -1    0    0    0    0 -0.00000000000E+00 -0.00000000000E+00 -0.45593999997E+02  0.45594000000E+02  0.51100000000E-03 0. -1.
    9900012    2    1    2    0    0  0.30426312164E+02 -0.12900529797E+02 -0.28132525285E+02  0.47787272818E+02  0.20000008088E+02 0.  0.
        -12    1    1    2    0    0 -0.30426312164E+02  0.12900529797E+02  0.28132525285E+02  0.43400727182E+02  0.00000000000E+00 0.  1.
         11    1    3    3    0    0  0.34573572364E+01 -0.82429174843E+01 -0.13596362074E+02  0.16271449524E+02  0.51100000000E-03 0. -1.
        -11    1    3    3    0    0  0.29718321390E+01 -0.24602088677E+01 -0.17527900414E+01  0.42375331415E+01  0.51100000000E-03 0.  1.
         12    1    3    3    0    0  0.23997122789E+02 -0.21974034451E+01 -0.12783373170E+02  0.27278290153E+02  0.00000000000E+00 0. -1.
</event>
<event>
 7    1  0.2458979E-009  0.4778727E+02  0.7816164E-02  0.1312668E+00
        -11   -1    0    0    0    0  0.00000000000E+00  0.00000000000E+00  0.45593999997E+02  0.45594000000E+02  0.51100000000E-03 0.  1.
         11   -1    0    0    0    0 -0.00000000000E+00 -0.00000000000E+00 -0.45593999997E+02  0.45594000000E+02  0.51100000000E-03 0. -1.
    9900012    2    1    2    0    0  0.27663991568E+01 -0.31882715602E+02 -0.29316597121E+02  0.47787269761E+02  0.19999994150E+02 0.  0.
        -12    1    1    2    0    0 -0.27663991568E+01  0.31882715602E+02  0.29316597121E+02  0.43400730239E+02  0.00000000000E+00 0.  1.
         11    1    3    3    0    0 -0.10403799771E+00 -0.57199925026E+01 -0.25929752843E+01  0.62811351857E+01  0.51100000000E-03 0. -1.
        -11    1    3    3    0    0  0.13419346773E+01  0.22472915226E+01 -0.22638279257E+00  0.26272337726E+01  0.51100000000E-03 0.  1.
        -12    1    3    3    0    0  0.15285024773E+01 -0.28410014622E+02 -0.26497239044E+02  0.38878900803E+02  0.00000000000E+00 0.  1.
</event>
<event>
 7    1  0.2458979E-009  0.4778727E+02  0.7816164E-02  0.1312668E+00
        -11   -1    0    0    0    0  0.00000000000E+00  0.00000000000E+00  0.45593999997E+02  0.45594000000E+02  0.51100000000E-03 0. -1.
         11   -1    0    0    0    0 -0.00000000000E+00 -0.00000000000E+00 -0.45593999997E+02  0.45594000000E+02  0.51100000000E-03 0.  1.
    9900012    2    1    2    0    0 -0.28978750205E+02 -0.31301169416E+02  0.80057629206E+01  0.47787269473E+02  0.19999992837E+02 0.  0.
        -12    1    1    2    0    0  0.28978750205E+02  0.31301169416E+02 -0.80057629206E+01  0.43400730527E+02  0.00000000000E+00 0.  1.
         11    1    3    3    0    0 -0.88213225582E+00 -0.25795938029E+01  0.70649294663E+00  0.28163085857E+01  0.51100000000E-03 0. -1.
        -11    1    3    3    0    0 -0.71800712826E+01 -0.20347893935E+02  0.11109483581E+01  0.21606119914E+02  0.51100000000E-03 0.  1.
        -12    1    3    3    0    0 -0.20916546667E+02 -0.83736816784E+01  0.61883216158E+01  0.23364840974E+02  0.00000000000E+00 0.  1.
</event>
<event>
 7    1  0.2458979E-009  0.4778729E+02  0.7816164E-02  0.1312668E+00
        -11   -1    0    0    0    0  0.00000000000E+00  0.00000000000E+00  0.45593999997E+02  0.45594000000E+02  0.51100000000E-03 0.  1.
         11   -1    0    0    0    0 -0.00000000000E+00 -0.00000000000E+00 -0.45593999997E+02  0.45594000000E+02  0.51100000000E-03 0. -1.
    9900012    2    1    2    0    0 -0.30646712824E+02  0.29557597063E+02 -0.84112340035E+01  0.47787292535E+02  0.20000097982E+02 0.  0.
        -12    1    1    2    0    0  0.30646712824E+02 -0.29557597063E+02  0.84112340035E+01  0.43400707465E+02  0.00000000000E+00 0.  1.
         11    1    3    3    0    0 -0.84965610199E+01  0.82308018667E+01 -0.23629454582E+01  0.12063215162E+02  0.51100000000E-03 0. -1.
        -11    1    3    3    0    0 -0.10467130673E+02  0.11942265350E+02 -0.11682553371E+02  0.19714476400E+02  0.51100000000E-03 0.  1.
        -12    1    3    3    0    0 -0.11683021131E+02  0.93845298465E+01  0.56342648255E+01  0.16009600973E+02  0.00000000000E+00 0.  1.
</event>
<event>
 7    1  0.2458979E-009  0.4778727E+02  0.7816164E-02  0.1312668E+00
        -11   -1    0    0    0    0  0.00000000000E+00  0.00000000000E+00  0.45593999997E+02  0.45594000000E+02  0.51100000000E-03 0. -1.
         11   -1    0    0    0    0 -0.00000000000E+00 -0.00000000000E+00 -0.45593999997E+02  0.45594000000E+02  0.51100000000E-03 0.  1.
    9900012    2    1    2    0    0 -0.21133765931E+02  0.24797610780E+02  0.28671688694E+02  0.47787270797E+02  0.19999998871E+02 0.  0.
        -12    1    1    2    0    0  0.21133765931E+02 -0.24797610780E+02 -0.28671688694E+02  0.43400729203E+02  0.00000000000E+00 0.  1.
         11    1    3    3    0    0 -0.17586121268E+02  0.25367193799E+02  0.29687398607E+02  0.42826485016E+02  0.51100000000E-03 0. -1.
        -11    1    3    3    0    0 -0.27471865416E+01 -0.14192989261E+01 -0.17776910765E+01  0.35667392897E+01  0.51100000000E-03 0.  1.
        -12    1    3    3    0    0 -0.80045812160E+00  0.84971590752E+00  0.76198116256E+00  0.13940464913E+01  0.00000000000E+00 0.  1.
</event>
<event>
 7    1  0.2458979E-009  0.4778727E+02  0.7816164E-02  0.1312668E+00
        -11   -1    0    0    0    0  0.00000000000E+00  0.00000000000E+00  0.45593999997E+02  0.45594000000E+02  0.51100000000E-03 0.  1.
         11   -1    0    0    0    0 -0.00000000000E+00 -0.00000000000E+00 -0.45593999997E+02  0.45594000000E+02  0.51100000000E-03 0. -1.
    9900012    2    1    2    0    0 -0.26190089870E+02 -0.22892290153E+02 -0.25954678890E+02  0.47787272908E+02  0.20000008497E+02 0.  0.
        -12    1    1    2    0    0  0.26190089870E+02  0.22892290153E+02  0.25954678890E+02  0.43400727092E+02  0.00000000000E+00 0.  1.
         11    1    3    3    0    0 -0.17144873208E+02 -0.16489970488E+02 -0.26233354724E+02  0.35412634812E+02  0.51100000000E-03 0. -1.
        -11    1    3    3    0    0 -0.62370003384E+00 -0.70600517117E+00  0.18603257957E+01  0.20852475539E+01  0.51100000000E-03 0.  1.
        -12    1    3    3    0    0 -0.84215166273E+01 -0.56963144942E+01 -0.15816499614E+01  0.10289390542E+02  0.00000000000E+00 0.  1.
</event>
<event>
 7    1  0.2458979E-009  0.4778727E+02  0.7816164E-02  0.1312668E+00
        -11   -1    0    0    0    0  0.00000000000E+00  0.00000000000E+00  0.45593999997E+02  0.45594000000E+02  0.51100000000E-03 0. -1.
         11   -1    0    0    0    0 -0.00000000000E+00 -0.00000000000E+00 -0.45593999997E+02  0.45594000000E+02  0.51100000000E-03 0.  1.
    9900012    2    1    2    0    0 -0.32103904133E+02  0.59559783727E+01  0.28591768878E+02  0.47787267442E+02  0.19999983577E+02 0.  0.
        -12    1    1    2    0    0  0.32103904133E+02 -0.59559783727E+01 -0.28591768878E+02  0.43400732558E+02  0.00000000000E+00 0.  1.
         11    1    3    3    0    0 -0.12171506767E+02  0.28807115163E+01  0.10747963837E+02  0.16491294756E+02  0.51100000000E-03 0. -1.
        -11    1    3    3    0    0 -0.10015897966E+02 -0.23644537942E+01  0.17103929716E+02  0.19961294191E+02  0.51100000000E-03 0.  1.
        -12    1    3    3    0    0 -0.99164993999E+01  0.54397206506E+01  0.73987532618E+00  0.11334678496E+02  0.00000000000E+00 0.  1.
</event>
<event>
 7    1  0.2458979E-009  0.4778727E+02  0.7816164E-02  0.1312668E+00
        -11   -1    0    0    0    0  0.00000000000E+00  0.00000000000E+00  0.45593999997E+02  0.45594000000E+02  0.51100000000E-03 0.  1.
         11   -1    0    0    0    0 -0.00000000000E+00 -0.00000000000E+00 -0.45593999997E+02  0.45594000000E+02  0.51100000000E-03 0. -1.
    9900012    2    1    2    0    0  0.36052450165E+02  0.25712937286E+01 -0.24025667248E+02  0.47787269579E+02  0.19999993320E+02 0.  0.
        -12    1    1    2    0    0 -0.36052450165E+02 -0.25712937286E+01  0.24025667248E+02  0.43400730421E+02  0.00000000000E+00 0.  1.
         11    1    3    3    0    0  0.32325356105E+02  0.57919698048E+01 -0.17625279247E+02  0.37270981075E+02  0.51100000000E-03 0. -1.
        -11    1    3    3    0    0  0.34731315112E+01 -0.33574771164E+01 -0.78563575667E+00  0.48941310654E+01  0.51100000000E-03 0.  1.
         12    1    3    3    0    0  0.25396254927E+00  0.13680104025E+00 -0.56147522445E+01  0.56221574389E+01  0.00000000000E+00 0. -1.
</event>
<event>
 7    1  0.2458979E-009  0.4778727E+02  0.7816164E-02  0.1312668E+00
        -11   -1    0    0    0    0  0.00000000000E+00  0.00000000000E+00  0.45593999997E+02  0.45594000000E+02  0.51100000000E-03 0.  1.
         11   -1    0    0    0    0 -0.00000000000E+00 -0.00000000000E+00 -0.45593999997E+02  0.45594000000E+02  0.51100000000E-03 0. -1.
    9900012    2    1    2    0    0 -0.46322232015E+01  0.43044204955E+02 -0.30597760122E+01  0.47787270729E+02  0.19999998560E+02 0.  0.
        -12    1    1    2    0    0  0.46322232015E+01 -0.43044204955E+02  0.30597760122E+01  0.43400729271E+02  0.00000000000E+00 0.  1.
         11    1    3    3    0    0 -0.82910142151E+01  0.31376773209E+02 -0.89002536699E+00  0.32465904563E+02  0.51100000000E-03 0. -1.
        -11    1    3    3    0    0  0.30553862043E+01 -0.39490112732E-01 -0.18952703642E+01  0.35956910797E+01  0.51100000000E-03 0.  1.
        -12    1    3    3    0    0  0.60340480930E+00  0.11706921859E+02 -0.27448028102E+00  0.11725675085E+02  0.00000000000E+00 0.  1.
</event>
<event>
 7    1  0.2458979E-009  0.4778727E+02  0.7816164E-02  0.1312668E+00
        -11   -1    0    0    0    0  0.00000000000E+00  0.00000000000E+00  0.45593999997E+02  0.45594000000E+02  0.51100000000E-03 0. -1.
         11   -1    0    0    0    0 -0.00000000000E+00 -0.00000000000E+00 -0.45593999997E+02  0.45594000000E+02  0.51100000000E-03 0.  1.
    9900012    2    1    2    0    0  0.41713086762E+02 -0.36002433845E+01  0.11431539710E+02  0.47787268902E+02  0.19999990233E+02 0.  0.
        -12    1    1    2    0    0 -0.41713086762E+02  0.36002433845E+01 -0.11431539710E+02  0.43400731098E+02  0.00000000000E+00 0.  1.
         11    1    3    3    0    0  0.27660926561E+02 -0.69460046026E+01  0.10158443463E+02  0.30274870966E+02  0.51100000000E-03 0. -1.
        -11    1    3    3    0    0  0.73397911868E+01  0.15243811709E+01 -0.42622944237E+01  0.86234231391E+01  0.51100000000E-03 0.  1.
        -12    1    3    3    0    0  0.67123690141E+01  0.18213800472E+01  0.55353906713E+01  0.88889747970E+01  0.00000000000E+00 0.  1.
</event>
<event>
 7    1  0.2458979E-009  0.4778727E+02  0.7816164E-02  0.1312668E+00
        -11   -1    0    0    0    0  0.00000000000E+00  0.00000000000E+00  0.45593999997E+02  0.45594000000E+02  0.51100000000E-03 0.  1.
         11   -1    0    0    0    0 -0.00000000000E+00 -0.00000000000E+00 -0.45593999997E+02  0.45594000000E+02  0.51100000000E-03 0. -1.
    9900012    2    1    2    0    0  0.13029172136E+02  0.29874562259E+02 -0.28659632729E+02  0.47787270227E+02  0.19999996272E+02 0.  0.
        -12    1    1    2    0    0 -0.13029172136E+02 -0.29874562259E+02  0.28659632729E+02  0.43400729773E+02  0.00000000000E+00 0.  1.
         11    1    3    3    0    0  0.49903193558E+01  0.16475927619E+02 -0.63791434728E+01  0.18359001876E+02  0.51100000000E-03 0. -1.
        -11    1    3    3    0    0  0.69986614828E+01  0.62038103589E+01 -0.19533381327E+02  0.21656904485E+02  0.51100000000E-03 0.  1.
        -12    1    3    3    0    0  0.10401912974E+01  0.71948242807E+01 -0.27471079291E+01  0.77713638661E+01  0.00000000000E+00 0.  1.
</event>
<event>
 7    1  0.2458979E-009  0.4778727E+02  0.7816164E-02  0.1312668E+00
        -11   -1    0    0    0    0  0.00000000000E+00  0.00000000000E+00  0.45593999997E+02  0.45594000000E+02  0.51100000000E-03 0.  1.
         11   -1    0    0    0    0 -0.00000000000E+00 -0.00000000000E+00 -0.45593999997E+02  0.45594000000E+02  0.51100000000E-03 0. -1.
    9900012    2    1    2    0    0 -0.24981157103E+02  0.35369226600E+02  0.29296715894E+01  0.47787269867E+02  0.19999994631E+02 0.  0.
        -12    1    1    2    0    0  0.24981157103E+02 -0.35369226600E+02 -0.29296715894E+01  0.43400730133E+02  0.00000000000E+00 0.  1.
         11    1    3    3    0    0 -0.12742251657E+02  0.78398416578E+01 -0.50597161198E+01  0.15793315738E+02  0.51100000000E-03 0. -1.
        -11    1    3    3    0    0 -0.55821616534E+01  0.14395506936E+02  0.77307400988E+01  0.17267179602E+02  0.51100000000E-03 0.  1.
        -12    1    3    3    0    0 -0.66567437922E+01  0.13133878006E+02  0.25864761036E+00  0.14726774527E+02  0.00000000000E+00 0.  1.
</event>
<event>
 7    1  0.2458979E-009  0.4778727E+02  0.7816164E-02  0.1312668E+00
        -11   -1    0    0    0    0  0.00000000000E+00  0.00000000000E+00  0.45593999997E+02  0.45594000000E+02  0.51100000000E-03 0.  1.
         11   -1    0    0    0    0 -0.00000000000E+00 -0.00000000000E+00 -0.45593999997E+02  0.45594000000E+02  0.51100000000E-03 0. -1.
    9900012    2    1    2    0    0 -0.28098478781E+02 -0.67139813041E+01 -0.32388593958E+02  0.47787273355E+02  0.20000010533E+02 0.  0.
        -12    1    1    2    0    0  0.28098478781E+02  0.67139813041E+01  0.32388593958E+02  0.43400726645E+02  0.00000000000E+00 0.  1.
         11    1    3    3    0    0 -0.15806148082E+02  0.38590972476E+01 -0.14845194646E+02  0.22025139117E+02  0.51100000000E-03 0. -1.
        -11    1    3    3    0    0 -0.78076606033E+01 -0.27581758392E+01 -0.13609226893E+02  0.15930416031E+02  0.51100000000E-03 0.  1.
         12    1    3    3    0    0 -0.44846700949E+01 -0.78149027125E+01 -0.39341724198E+01  0.98317182066E+01  0.00000000000E+00 0. -1.
</event>
<event>
 7    1  0.2458979E-009  0.4778726E+02  0.7816164E-02  0.1312668E+00
        -11   -1    0    0    0    0  0.00000000000E+00  0.00000000000E+00  0.45593999997E+02  0.45594000000E+02  0.51100000000E-03 0.  1.
         11   -1    0    0    0    0 -0.00000000000E+00 -0.00000000000E+00 -0.45593999997E+02  0.45594000000E+02  0.51100000000E-03 0. -1.
    9900012    2    1    2    0    0 -0.18766041883E+02 -0.38922790743E+02 -0.40591070988E+01  0.47787259020E+02  0.19999945177E+02 0.  0.
        -12    1    1    2    0    0  0.18766041883E+02  0.38922790743E+02  0.40591070988E+01  0.43400740980E+02  0.00000000000E+00 0.  1.
         11    1    3    3    0    0 -0.16670390393E+02 -0.22342719535E+02  0.94330995256E+00  0.27892451775E+02  0.51100000000E-03 0. -1.
        -11    1    3    3    0    0 -0.46764470462E+00 -0.23258859202E-01  0.18454547766E+01  0.19039265054E+01  0.51100000000E-03 0.  1.
         12    1    3    3    0    0 -0.16280067854E+01 -0.16556812348E+02 -0.68478718280E+01  0.17990880740E+02  0.00000000000E+00 0. -1.
</event>
<event>
 7    1  0.2458979E-009  0.4778727E+02  0.7816164E-02  0.1312668E+00
        -11   -1    0    0    0    0  0.00000000000E+00  0.00000000000E+00  0.45593999997E+02  0.45594000000E+02  0.51100000000E-03 0.  1.
         11   -1    0    0    0    0 -0.00000000000E+00 -0.00000000000E+00 -0.45593999997E+02  0.45594000000E+02  0.51100000000E-03 0. -1.
    9900012    2    1    2    0    0 -0.21345323751E+02 -0.11228872199E+02 -0.36082027709E+02  0.47787272581E+02  0.20000007008E+02 0.  0.
        -12    1    1    2    0    0  0.21345323751E+02  0.11228872199E+02  0.36082027709E+02  0.43400727419E+02  0.00000000000E+00 0.  1.
         11    1    3    3    0    0 -0.82500480879E+01 -0.99020399521E+01 -0.23453651071E+02  0.26761678525E+02  0.51100000000E-03 0. -1.
        -11    1    3    3    0    0 -0.55424999784E+01 -0.32205417412E+01 -0.26649355258E+00  0.64157785336E+01  0.51100000000E-03 0.  1.
         12    1    3    3    0    0 -0.75527756850E+01  0.18937094948E+01 -0.12361883085E+02  0.14609815523E+02  0.00000000000E+00 0. -1.
</event>
<event>
 7    1  0.2458979E-009  0.4778729E+02  0.7816164E-02  0.1312668E+00
        -11   -1    0    0    0    0  0.00000000000E+00  0.00000000000E+00  0.45593999997E+02  0.45594000000E+02  0.51100000000E-03 0.  1.
         11   -1    0    0    0    0 -0.00000000000E+00 -0.00000000000E+00 -0.45593999997E+02  0.45594000000E+02  0.51100000000E-03 0. -1.
    9900012    2    1    2    0    0 -0.12355867476E+02 -0.20995987376E+02 -0.35918277052E+02  0.47787290635E+02  0.20000089322E+02 0.  0.
        -12    1    1    2    0    0  0.12355867476E+02  0.20995987376E+02  0.35918277052E+02  0.43400709365E+02  0.00000000000E+00 0.  1.
         11    1    3    3    0    0 -0.29989238987E+01  0.75320720920E+00 -0.13731101400E+02  0.14074942684E+02  0.51100000000E-03 0. -1.
        -11    1    3    3    0    0 -0.55219746229E+01 -0.47706837497E+01 -0.32423765492E+01  0.79852760205E+01  0.51100000000E-03 0.  1.
         12    1    3    3    0    0 -0.38349689549E+01 -0.16978510835E+02 -0.18944799103E+02  0.25727071930E+02  0.00000000000E+00 0. -1.
</event>
<event>
 7    1  0.2458979E-009  0.4778729E+02  0.7816164E-02  0.1312668E+00
        -11   -1    0    0    0    0  0.00000000000E+00  0.00000000000E+00  0.45593999997E+02  0.45594000000E+02  0.51100000000E-03 0.  1.
         11   -1    0    0    0    0 -0.00000000000E+00 -0.00000000000E+00 -0.45593999997E+02  0.45594000000E+02  0.51100000000E-03 0. -1.
    9900012    2    1    2    0    0 -0.17663817181E+02  0.99571805524E+01 -0.38372720475E+02  0.47787290805E+02  0.20000090098E+02 0.  0.
        -12    1    1    2    0    0  0.17663817181E+02 -0.99571805524E+01  0.38372720475E+02  0.43400709195E+02  0.00000000000E+00 0.  1.
         11    1    3    3    0    0 -0.48626969485E+01  0.94193682521E+00 -0.21708933151E+02  0.22266810401E+02  0.51100000000E-03 0. -1.
        -11    1    3    3    0    0 -0.13297995079E+02  0.90167461333E+01 -0.10185610852E+02  0.19023276601E+02  0.51100000000E-03 0.  1.
        -12    1    3    3    0    0  0.49687484629E+00 -0.15024060881E-02 -0.64781764720E+01  0.64972038041E+01  0.00000000000E+00 0.  1.
</event>
<event>
 7    1  0.2458979E-009  0.4778727E+02  0.7816164E-02  0.1312668E+00
        -11   -1    0    0    0    0  0.00000000000E+00  0.00000000000E+00  0.45593999997E+02  0.45594000000E+02  0.51100000000E-03 0.  1.
         11   -1    0    0    0    0 -0.00000000000E+00 -0.00000000000E+00 -0.45593999997E+02  0.45594000000E+02  0.51100000000E-03 0. -1.
    9900012    2    1    2    0    0  0.18557469213E+02 -0.10848733198E+02 -0.37703426793E+02  0.47787273422E+02  0.20000010839E+02 0.  0.
        -12    1    1    2    0    0 -0.18557469213E+02  0.10848733198E+02  0.37703426793E+02  0.43400726578E+02  0.00000000000E+00 0.  1.
         11    1    3    3    0    0  0.45265346652E+01  0.52223410061E+01 -0.10739543462E+02  0.12771067132E+02  0.51100000000E-03 0. -1.
        -11    1    3    3    0    0  0.58648307491E+01 -0.94462723331E+01 -0.18199639741E+02  0.21327334285E+02  0.51100000000E-03 0.  1.
         12    1    3    3    0    0  0.81661037984E+01 -0.66248018707E+01 -0.87642435900E+01  0.13688872005E+02  0.00000000000E+00 0. -1.
</event>
<event>
 7    1  0.2458979E-009  0.4778727E+02  0.7816164E-02  0.1312668E+00
        -11   -1    0    0    0    0  0.00000000000E+00  0.00000000000E+00  0.45593999997E+02  0.45594000000E+02  0.51100000000E-03 0.  1.
         11   -1    0    0    0    0 -0.00000000000E+00 -0.00000000000E+00 -0.45593999997E+02  0.45594000000E+02  0.51100000000E-03 0. -1.
    9900012    2    1    2    0    0 -0.34975511174E+02 -0.50642048037E+01 -0.25193064890E+02  0.47787273385E+02  0.20000010670E+02 0.  0.
        -12    1    1    2    0    0  0.34975511174E+02  0.50642048037E+01  0.25193064890E+02  0.43400726615E+02  0.00000000000E+00 0.  1.
         11    1    3    3    0    0 -0.52143657506E+01 -0.24177618144E+00 -0.46692437923E+01  0.70035636469E+01  0.51100000000E-03 0. -1.
        -11    1    3    3    0    0 -0.17129477409E+02 -0.73883821937E+01 -0.20735813650E+02  0.27892313560E+02  0.51100000000E-03 0.  1.
        -12    1    3    3    0    0 -0.12631668015E+02  0.25659535715E+01  0.21199255266E+00  0.12891396177E+02  0.00000000000E+00 0.  1.
</event>
<event>
 7    1  0.2458979E-009  0.4778727E+02  0.7816164E-02  0.1312668E+00
        -11   -1    0    0    0    0  0.00000000000E+00  0.00000000000E+00  0.45593999997E+02  0.45594000000E+02  0.51100000000E-03 0.  1.
         11   -1    0    0    0    0 -0.00000000000E+00 -0.00000000000E+00 -0.45593999997E+02  0.45594000000E+02  0.51100000000E-03 0. -1.
    9900012    2    1    2    0    0  0.11077608756E+02  0.11054894652E+02 -0.40480848134E+02  0.47787272159E+02  0.20000005081E+02 0.  0.
        -12    1    1    2    0    0 -0.11077608756E+02 -0.11054894652E+02  0.40480848134E+02  0.43400727841E+02  0.00000000000E+00 0.  1.
         11    1    3    3    0    0 -0.40423995041E+00 -0.21120132991E+01  0.46885336015E+00  0.22008711565E+01  0.51100000000E-03 0. -1.
        -11    1    3    3    0    0  0.96373687841E+01  0.63973450675E+01 -0.16506546432E+02  0.20156164724E+02  0.51100000000E-03 0.  1.
         12    1    3    3    0    0  0.18444799225E+01  0.67695628837E+01 -0.24443155062E+02  0.25430236279E+02  0.00000000000E+00 0. -1.
</event>
<event>
 7    1  0.2521621E-009  0.4778726E+02  0.7816164E-02  0.1312668E+00
        -11   -1    0    0    0    0  0.00000000000E+00  0.00000000000E+00  0.45593999997E+02  0.45594000000E+02  0.51100000000E-03 0.  1.
         11   -1    0    0    0    0 -0.00000000000E+00 -0.00000000000E+00 -0.45593999997E+02  0.45594000000E+02  0.51100000000E-03 0. -1.
    9900012    2    1    2    0    0 -0.32866821925E+02 -0.11169875093E+02 -0.26050526143E+02  0.47787262617E+02  0.19999961578E+02 0.  0.
        -12    1    1    2    0    0  0.32866821925E+02  0.11169875093E+02  0.26050526143E+02  0.43400737383E+02  0.00000000000E+00 0.  1.
         11    1    3    3    0    0 -0.13216730126E+02 -0.90624665905E+01 -0.12170083317E+02  0.20122653506E+02  0.51100000000E-03 0. -1.
        -11    1    3    3    0    0 -0.66794981238E+01  0.71862257809E+00  0.19591053251E+01  0.69978716430E+01  0.51100000000E-03 0.  1.
        -12    1    3    3    0    0 -0.12970593675E+02 -0.28260310807E+01 -0.15839548151E+02  0.20666737469E+02  0.00000000000E+00 0.  1.
</event>
<event>
 7    1  0.2458979E-009  0.4778727E+02  0.7816164E-02  0.1312668E+00
        -11   -1    0    0    0    0  0.00000000000E+00  0.00000000000E+00  0.45593999997E+02  0.45594000000E+02  0.51100000000E-03 0. -1.
         11   -1    0    0    0    0 -0.00000000000E+00 -0.00000000000E+00 -0.45593999997E+02  0.45594000000E+02  0.51100000000E-03 0.  1.
    9900012    2    1    2    0    0  0.28181141158E+02 -0.19497715439E+02  0.26632419329E+02  0.47787269780E+02  0.19999994233E+02 0.  0.
        -12    1    1    2    0    0 -0.28181141158E+02  0.19497715439E+02 -0.26632419329E+02  0.43400730220E+02  0.00000000000E+00 0.  1.
         11    1    3    3    0    0  0.18341215313E+02 -0.11689984018E+02  0.24694363188E+02  0.32906951834E+02  0.51100000000E-03 0. -1.
        -11    1    3    3    0    0  0.11019482946E+02 -0.72893075694E+01  0.25465463563E+01  0.13455404410E+02  0.51100000000E-03 0.  1.
         12    1    3    3    0    0 -0.11795570998E+01 -0.51842385205E+00 -0.60849021532E+00  0.14249135357E+01  0.00000000000E+00 0. -1.
</event>
<event>
 7    1  0.2458979E-009  0.4778728E+02  0.7816164E-02  0.1312668E+00
        -11   -1    0    0    0    0  0.00000000000E+00  0.00000000000E+00  0.45593999997E+02  0.45594000000E+02  0.51100000000E-03 0. -1.
         11   -1    0    0    0    0 -0.00000000000E+00 -0.00000000000E+00 -0.45593999997E+02  0.45594000000E+02  0.51100000000E-03 0.  1.
    9900012    2    1    2    0    0 -0.19409128259E+02  0.19121466504E+02  0.33782808738E+02  0.47787275268E+02  0.20000019258E+02 0.  0.
        -12    1    1    2    0    0  0.19409128259E+02 -0.19121466504E+02 -0.33782808738E+02  0.43400724732E+02  0.00000000000E+00 0.  1.
         11    1    3    3    0    0 -0.17145312578E+02  0.11118366093E+02  0.24433645827E+02  0.31852517273E+02  0.51100000000E-03 0. -1.
        -11    1    3    3    0    0  0.30951560967E+00  0.72259944260E+01  0.10708745569E+02  0.12922384736E+02  0.51100000000E-03 0.  1.
         12    1    3    3    0    0 -0.25733312910E+01  0.77710598510E+00 -0.13595826582E+01  0.30123732587E+01  0.00000000000E+00 0. -1.
</event>
<event>
 7    1  0.2458979E-009  0.4778727E+02  0.7816164E-02  0.1312668E+00
        -11   -1    0    0    0    0  0.00000000000E+00  0.00000000000E+00  0.45593999997E+02  0.45594000000E+02  0.51100000000E-03 0.  1.
         11   -1    0    0    0    0 -0.00000000000E+00 -0.00000000000E+00 -0.45593999997E+02  0.45594000000E+02  0.51100000000E-03 0. -1.
    9900012    2    1    2    0    0  0.35761549061E+01 -0.23495901941E+02 -0.36314967066E+02  0.47787272760E+02  0.20000007823E+02 0.  0.
        -12    1    1    2    0    0 -0.35761549061E+01  0.23495901941E+02  0.36314967066E+02  0.43400727240E+02  0.00000000000E+00 0.  1.
         11    1    3    3    0    0 -0.46259846401E+00  0.14068374802E+01  0.11516381880E+00  0.14854130741E+01  0.51100000000E-03 0. -1.
        -11    1    3    3    0    0  0.71199553411E+01 -0.15252522926E+02 -0.29704820831E+02  0.34142489665E+02  0.51100000000E-03 0.  1.
        -12    1    3    3    0    0 -0.30812019710E+01 -0.96502164950E+01 -0.67253100536E+01  0.12159370021E+02  0.00000000000E+00 0.  1.
</event>
<event>
 7    1  0.2458979E-009  0.4778727E+02  0.7816164E-02  0.1312668E+00
        -11   -1    0    0    0    0  0.00000000000E+00  0.00000000000E+00  0.45593999997E+02  0.45594000000E+02  0.51100000000E-03 0.  1.
         11   -1    0    0    0    0 -0.00000000000E+00 -0.00000000000E+00 -0.45593999997E+02  0.45594000000E+02  0.51100000000E-03 0. -1.
    9900012    2    1    2    0    0  0.69291784616E+01  0.15455269086E+02 -0.39959288619E+02  0.47787267246E+02  0.19999982681E+02 0.  0.
        -12    1    1    2    0    0 -0.69291784616E+01 -0.15455269086E+02  0.39959288619E+02  0.43400732754E+02  0.00000000000E+00 0.  1.
         11    1    3    3    0    0  0.12193551811E+02  0.10309280962E+02 -0.22224516655E+02  0.27365911652E+02  0.51100000000E-03 0. -1.
        -11    1    3    3    0    0 -0.38770200845E+01  0.68839757935E+01 -0.13782061202E+02  0.15886019599E+02  0.51100000000E-03 0.  1.
         12    1    3    3    0    0 -0.13873532651E+01 -0.17379876696E+01 -0.39527107618E+01  0.45353359950E+01  0.00000000000E+00 0. -1.
</event>
<event>
 7    1  0.2458979E-009  0.4778727E+02  0.7816164E-02  0.1312668E+00
        -11   -1    0    0    0    0  0.00000000000E+00  0.00000000000E+00  0.45593999997E+02  0.45594000000E+02  0.51100000000E-03 0. -1.
         11   -1    0    0    0    0 -0.00000000000E+00 -0.00000000000E+00 -0.45593999997E+02  0.45594000000E+02  0.51100000000E-03 0.  1.
    9900012    2    1    2    0    0  0.34266029312E+02 -0.23805577608E+02  0.11948094875E+02  0.47787271191E+02  0.20000000666E+02 0.  0.
        -12    1    1    2    0    0 -0.34266029312E+02  0.23805577608E+02 -0.11948094875E+02  0.43400728809E+02  0.00000000000E+00 0.  1.
         11    1    3    3    0    0  0.13837449150E+02 -0.73914716091E+01  0.89105384539E+01  0.18041800003E+02  0.51100000000E-03 0. -1.
        -11    1    3    3    0    0  0.72545320171E+01 -0.14532620349E+02  0.90434663745E+00  0.16267855793E+02  0.51100000000E-03 0.  1.
        -12    1    3    3    0    0  0.13174048144E+02 -0.18814856501E+01  0.21332097834E+01  0.13477615395E+02  0.00000000000E+00 0.  1.
</event>
<event>
 7    1  0.2458979E-009  0.4778727E+02  0.7816164E-02  0.1312668E+00
        -11   -1    0    0    0    0  0.00000000000E+00  0.00000000000E+00  0.45593999997E+02  0.45594000000E+02  0.51100000000E-03 0.  1.
         11   -1    0    0    0    0 -0.00000000000E+00 -0.00000000000E+00 -0.45593999997E+02  0.45594000000E+02  0.51100000000E-03 0. -1.
    9900012    2    1    2    0    0  0.39256384832E+02 -0.30526506140E+01 -0.18254883769E+02  0.47787271812E+02  0.20000003501E+02 0.  0.
        -12    1    1    2    0    0 -0.39256384832E+02  0.30526506140E+01  0.18254883769E+02  0.43400728188E+02  0.00000000000E+00 0.  1.
         11    1    3    3    0    0  0.28221744384E+02 -0.72259566682E+01 -0.12854624755E+02  0.31842152623E+02  0.51100000000E-03 0. -1.
        -11    1    3    3    0    0  0.49690174686E+01  0.53055703079E+01  0.65666206397E+00  0.72987270276E+01  0.51100000000E-03 0.  1.
        -12    1    3    3    0    0  0.60656229794E+01 -0.11322642537E+01 -0.60569210780E+01  0.86463921617E+01  0.00000000000E+00 0.  1.
</event>
<event>
 7    1  0.2458979E-009  0.4778723E+02  0.7816164E-02  0.1312668E+00
        -11   -1    0    0    0    0  0.00000000000E+00  0.00000000000E+00  0.45593999997E+02  0.45594000000E+02  0.51100000000E-03 0.  1.
         11   -1    0    0    0    0 -0.00000000000E+00 -0.00000000000E+00 -0.45593999997E+02  0.45594000000E+02  0.51100000000E-03 0. -1.
    9900012    2    1    2    0    0  0.14645985259E+02  0.18567393289E+02 -0.36391943324E+02  0.47787233686E+02  0.19999829666E+02 0.  0.
        -12    1    1    2    0    0 -0.14645985259E+02 -0.18567393289E+02  0.36391943324E+02  0.43400766314E+02  0.00000000000E+00 0.  1.
         11    1    3    3    0    0  0.35896282300E+01  0.65156032395E+01 -0.12200341887E+02  0.14289396727E+02  0.51100000000E-03 0. -1.
        -11    1    3    3    0    0  0.10301433871E+02  0.16061212893E+02 -0.20292492276E+02  0.27854395388E+02  0.51100000000E-03 0.  1.
        -12    1    3    3    0    0  0.75492315823E+00 -0.40094228435E+01 -0.38991091615E+01  0.56434415711E+01  0.00000000000E+00 0.  1.
</event>
<event>
 7    1  0.2458979E-009  0.4778727E+02  0.7816164E-02  0.1312668E+00
        -11   -1    0    0    0    0  0.00000000000E+00  0.00000000000E+00  0.45593999997E+02  0.45594000000E+02  0.51100000000E-03 0.  1.
         11   -1    0    0    0    0 -0.00000000000E+00 -0.00000000000E+00 -0.45593999997E+02  0.45594000000E+02  0.51100000000E-03 0. -1.
    9900012    2    1    2    0    0  0.58755834577E+01 -0.93914878591E+01 -0.41963086801E+02  0.47787272137E+02  0.20000004981E+02 0.  0.
        -12    1    1    2    0    0 -0.58755834577E+01  0.93914878591E+01  0.41963086801E+02  0.43400727863E+02  0.00000000000E+00 0.  1.
         11    1    3    3    0    0  0.94841676571E+00 -0.49555139648E+01 -0.16894733283E+02  0.17632034085E+02  0.51100000000E-03 0. -1.
        -11    1    3    3    0    0 -0.44164342239E+01 -0.27668973945E+01 -0.16724365469E+02  0.17517562989E+02  0.51100000000E-03 0.  1.
        -12    1    3    3    0    0  0.93436009159E+01 -0.16690764998E+01 -0.83439880485E+01  0.12637675063E+02  0.00000000000E+00 0.  1.
</event>
<event>
 7    1  0.2458979E-009  0.4778727E+02  0.7816164E-02  0.1312668E+00
        -11   -1    0    0    0    0  0.00000000000E+00  0.00000000000E+00  0.45593999997E+02  0.45594000000E+02  0.51100000000E-03 0. -1.
         11   -1    0    0    0    0 -0.00000000000E+00 -0.00000000000E+00 -0.45593999997E+02  0.45594000000E+02  0.51100000000E-03 0.  1.
    9900012    2    1    2    0    0 -0.21617820190E+01  0.12654177425E+02  0.41458673965E+02  0.47787272417E+02  0.20000006257E+02 0.  0.
        -12    1    1    2    0    0  0.21617820190E+01 -0.12654177425E+02 -0.41458673965E+02  0.43400727583E+02  0.00000000000E+00 0.  1.
         11    1    3    3    0    0 -0.31288593149E+01  0.11809139421E+02  0.38942888680E+02  0.40814141097E+02  0.51100000000E-03 0. -1.
        -11    1    3    3    0    0  0.26189920053E+01 -0.18323192779E+01  0.49595014110E+00  0.32345756852E+01  0.51100000000E-03 0.  1.
        -12    1    3    3    0    0 -0.16519147094E+01  0.26773572817E+01  0.20198351438E+01  0.37385556341E+01  0.00000000000E+00 0.  1.
</event>
<event>
 7    1  0.2458979E-009  0.4778727E+02  0.7816164E-02  0.1312668E+00
        -11   -1    0    0    0    0  0.00000000000E+00  0.00000000000E+00  0.45593999997E+02  0.45594000000E+02  0.51100000000E-03 0. -1.
         11   -1    0    0    0    0 -0.00000000000E+00 -0.00000000000E+00 -0.45593999997E+02  0.45594000000E+02  0.51100000000E-03 0.  1.
    9900012    2    1    2    0    0 -0.32296507401E+02 -0.74183574672E-02  0.28992389347E+02  0.47787273216E+02  0.20000009901E+02 0.  0.
        -12    1    1    2    0    0  0.32296507401E+02  0.74183574672E-02 -0.28992389347E+02  0.43400726784E+02  0.00000000000E+00 0.  1.
         11    1    3    3    0    0 -0.15111797564E+02 -0.50485254910E+01  0.39546069501E+01  0.16416240484E+02  0.51100000000E-03 0. -1.
        -11    1    3    3    0    0 -0.62307447532E+01  0.15357102847E+01  0.14134534661E+02  0.15523068531E+02  0.51100000000E-03 0.  1.
         12    1    3    3    0    0 -0.10953965084E+02  0.35053968488E+01  0.10903247736E+02  0.15847964201E+02  0.00000000000E+00 0. -1.
</event>
<event>
 7    1  0.2458979E-009  0.4778727E+02  0.7816164E-02  0.1312668E+00
        -11   -1    0    0    0    0  0.00000000000E+00  0.00000000000E+00  0.45593999997E+02  0.45594000000E+02  0.51100000000E-03 0. -1.
         11   -1    0    0    0    0 -0.00000000000E+00 -0.00000000000E+00 -0.45593999997E+02  0.45594000000E+02  0.51100000000E-03 0.  1.
    9900012    2    1    2    0    0  0.42464812602E+02  0.88711483134E+01 -0.12905543792E+01  0.47787272905E+02  0.20000008485E+02 0.  0.
        -12    1    1    2    0    0 -0.42464812602E+02 -0.88711483134E+01  0.12905543792E+01  0.43400727095E+02  0.00000000000E+00 0.  1.
         11    1    3    3    0    0  0.15870530566E+02  0.48342228780E+01  0.59975714456E+01  0.17641267380E+02  0.51100000000E-03 0. -1.
        -11    1    3    3    0    0  0.38181092428E+01  0.42733492482E+01 -0.43190497805E+01  0.71759085317E+01  0.51100000000E-03 0.  1.
        -12    1    3    3    0    0  0.22776172794E+02 -0.23642381281E+00 -0.29690760443E+01  0.22970096994E+02  0.00000000000E+00 0.  1.
</event>
<event>
 7    1  0.2458979E-009  0.4778727E+02  0.7816164E-02  0.1312668E+00
        -11   -1    0    0    0    0  0.00000000000E+00  0.00000000000E+00  0.45593999997E+02  0.45594000000E+02  0.51100000000E-03 0. -1.
         11   -1    0    0    0    0 -0.00000000000E+00 -0.00000000000E+00 -0.45593999997E+02  0.45594000000E+02  0.51100000000E-03 0.  1.
    9900012    2    1    2    0    0  0.39065873494E+02 -0.15680370578E+02  0.10564411716E+02  0.47787270879E+02  0.19999999248E+02 0.  0.
        -12    1    1    2    0    0 -0.39065873494E+02  0.15680370578E+02 -0.10564411716E+02  0.43400729121E+02  0.00000000000E+00 0.  1.
         11    1    3    3    0    0  0.28980065352E+02 -0.11419704151E+02  0.18514914226E+01  0.31203875584E+02  0.51100000000E-03 0. -1.
        -11    1    3    3    0    0  0.27271731312E+01 -0.35341761511E+01 -0.79941982717E+00  0.45350795666E+01  0.51100000000E-03 0.  1.
         12    1    3    3    0    0  0.73586350102E+01 -0.72649027627E+00  0.95123401203E+01  0.12048315729E+02  0.00000000000E+00 0. -1.
</event>
<event>
 7    1  0.2458979E-009  0.4778727E+02  0.7816164E-02  0.1312668E+00
        -11   -1    0    0    0    0  0.00000000000E+00  0.00000000000E+00  0.45593999997E+02  0.45594000000E+02  0.51100000000E-03 0. -1.
         11   -1    0    0    0    0 -0.00000000000E+00 -0.00000000000E+00 -0.45593999997E+02  0.45594000000E+02  0.51100000000E-03 0.  1.
    9900012    2    1    2    0    0 -0.31703998262E+02 -0.16948359574E+02  0.24315283680E+02  0.47787269378E+02  0.19999992404E+02 0.  0.
        -12    1    1    2    0    0  0.31703998262E+02  0.16948359574E+02 -0.24315283680E+02  0.43400730622E+02  0.00000000000E+00 0.  1.
         11    1    3    3    0    0 -0.15581978834E+02 -0.10471819111E+02  0.14422919286E+02  0.23674409409E+02  0.51100000000E-03 0. -1.
        -11    1    3    3    0    0 -0.25990515210E+00  0.16798891551E+01  0.54818056776E+01  0.57393180788E+01  0.51100000000E-03 0.  1.
        -12    1    3    3    0    0 -0.15862114275E+02 -0.81564296181E+01  0.44105587171E+01  0.18373541890E+02  0.00000000000E+00 0.  1.
</event>
<event>
 7    1  0.2458979E-009  0.4778730E+02  0.7816164E-02  0.1312668E+00
        -11   -1    0    0    0    0  0.00000000000E+00  0.00000000000E+00  0.45593999997E+02  0.45594000000E+02  0.51100000000E-03 0.  1.
         11   -1    0    0    0    0 -0.00000000000E+00 -0.00000000000E+00 -0.45593999997E+02  0.45594000000E+02  0.51100000000E-03 0. -1.
    9900012    2    1    2    0    0 -0.19226891133E+02 -0.18280772746E+02 -0.34347647581E+02  0.47787298517E+02  0.20000125257E+02 0.  0.
        -12    1    1    2    0    0  0.19226891133E+02  0.18280772746E+02  0.34347647581E+02  0.43400701483E+02  0.00000000000E+00 0.  1.
         11    1    3    3    0    0 -0.13220149611E+02 -0.61647818180E+01 -0.19254887105E+02  0.24156315288E+02  0.51100000000E-03 0. -1.
        -11    1    3    3    0    0 -0.64417116348E+00 -0.12732268611E+02 -0.99030181729E+01  0.16142967189E+02  0.51100000000E-03 0.  1.
        -12    1    3    3    0    0 -0.53625703594E+01  0.61627768235E+00 -0.51897423031E+01  0.74880160399E+01  0.00000000000E+00 0.  1.
</event>
<event>
 7    1  0.2458979E-009  0.4778727E+02  0.7816164E-02  0.1312668E+00
        -11   -1    0    0    0    0  0.00000000000E+00  0.00000000000E+00  0.45593999997E+02  0.45594000000E+02  0.51100000000E-03 0.  1.
         11   -1    0    0    0    0 -0.00000000000E+00 -0.00000000000E+00 -0.45593999997E+02  0.45594000000E+02  0.51100000000E-03 0. -1.
    9900012    2    1    2    0    0  0.42868592526E+02  0.25415144858E+01  0.62807250492E+01  0.47787273874E+02  0.20000012903E+02 0.  0.
        -12    1    1    2    0    0 -0.42868592526E+02 -0.25415144858E+01 -0.62807250492E+01  0.43400726126E+02  0.00000000000E+00 0.  1.
         11    1    3    3    0    0  0.22198711038E+02 -0.49324865070E+01  0.55907904004E+00  0.22746972646E+02  0.51100000000E-03 0. -1.
        -11    1    3    3    0    0  0.13288989385E+02  0.43158713660E+01  0.87205183635E+01  0.16470319527E+02  0.51100000000E-03 0.  1.
         12    1    3    3    0    0  0.73808921035E+01  0.31581296267E+01 -0.29988723543E+01  0.85699817024E+01  0.00000000000E+00 0. -1.
</event>
<event>
 7    1  0.2458979E-009  0.4778727E+02  0.7816164E-02  0.1312668E+00
        -11   -1    0    0    0    0  0.00000000000E+00  0.00000000000E+00  0.45593999997E+02  0.45594000000E+02  0.51100000000E-03 0. -1.
         11   -1    0    0    0    0 -0.00000000000E+00 -0.00000000000E+00 -0.45593999997E+02  0.45594000000E+02  0.51100000000E-03 0.  1.
    9900012    2    1    2    0    0  0.34478814622E+02 -0.59134228327E+00  0.26353082458E+02  0.47787270761E+02  0.19999998708E+02 0.  0.
        -12    1    1    2    0    0 -0.34478814622E+02  0.59134228327E+00 -0.26353082458E+02  0.43400729239E+02  0.00000000000E+00 0.  1.
         11    1    3    3    0    0  0.94626376931E+01  0.49621938955E+01  0.13221272107E+02  0.16999026935E+02  0.51100000000E-03 0. -1.
        -11    1    3    3    0    0  0.33790902033E+01 -0.49357103090E+01  0.13057390377E+01  0.61224538832E+01  0.51100000000E-03 0.  1.
         12    1    3    3    0    0  0.21637086725E+02 -0.61782586974E+00  0.11826071314E+02  0.24665789942E+02  0.00000000000E+00 0. -1.
</event>
<event>
 7    1  0.2458979E-009  0.4778726E+02  0.7816164E-02  0.1312668E+00
        -11   -1    0    0    0    0  0.00000000000E+00  0.00000000000E+00  0.45593999997E+02  0.45594000000E+02  0.51100000000E-03 0.  1.
         11   -1    0    0    0    0 -0.00000000000E+00 -0.00000000000E+00 -0.45593999997E+02  0.45594000000E+02  0.51100000000E-03 0. -1.
    9900012    2    1    2    0    0  0.32474625840E+01 -0.42500863498E+02 -0.81703373887E+01  0.47787264702E+02  0.19999971084E+02 0.  0.
        -12    1    1    2    0    0 -0.32474625840E+01  0.42500863498E+02  0.81703373887E+01  0.43400735298E+02  0.00000000000E+00 0.  1.
         11    1    3    3    0    0 -0.47783457487E+01 -0.47579849332E+01 -0.44006603984E+01  0.80521314521E+01  0.51100000000E-03 0. -1.
        -11    1    3    3    0    0  0.77552002865E+01 -0.16931892471E+02 -0.23850159147E+00  0.18624956306E+02  0.51100000000E-03 0.  1.
        -12    1    3    3    0    0  0.27060804613E+00 -0.20810986094E+02 -0.35311753988E+01  0.21110176944E+02  0.00000000000E+00 0.  1.
</event>
<event>
 7    1  0.2458979E-009  0.4778727E+02  0.7816164E-02  0.1312668E+00
        -11   -1    0    0    0    0  0.00000000000E+00  0.00000000000E+00  0.45593999997E+02  0.45594000000E+02  0.51100000000E-03 0. -1.
         11   -1    0    0    0    0 -0.00000000000E+00 -0.00000000000E+00 -0.45593999997E+02  0.45594000000E+02  0.51100000000E-03 0.  1.
    9900012    2    1    2    0    0 -0.30365689303E+02  0.23156145439E+02 -0.20623792651E+02  0.47787274409E+02  0.20000015342E+02 0.  0.
        -12    1    1    2    0    0  0.30365689303E+02 -0.23156145439E+02  0.20623792651E+02  0.43400725591E+02  0.00000000000E+00 0.  1.
         11    1    3    3    0    0 -0.13768044961E+02  0.63618863084E+01  0.90962641567E+00  0.15194080424E+02  0.51100000000E-03 0. -1.
        -11    1    3    3    0    0 -0.25068168381E+01  0.44938994775E+01 -0.79774259430E+01  0.94930810652E+01  0.51100000000E-03 0.  1.
         12    1    3    3    0    0 -0.14090827504E+02  0.12300359653E+02 -0.13555993124E+02  0.23100112920E+02  0.00000000000E+00 0. -1.
</event>
<event>
 7    1  0.2458979E-009  0.4778728E+02  0.7816164E-02  0.1312668E+00
        -11   -1    0    0    0    0  0.00000000000E+00  0.00000000000E+00  0.45593999997E+02  0.45594000000E+02  0.51100000000E-03 0.  1.
         11   -1    0    0    0    0 -0.00000000000E+00 -0.00000000000E+00 -0.45593999997E+02  0.45594000000E+02  0.51100000000E-03 0. -1.
    9900012    2    1    2    0    0 -0.11165595055E+01  0.39730184535E+02 -0.17432400574E+02  0.47787275835E+02  0.20000021841E+02 0.  0.
        -12    1    1    2    0    0  0.11165595055E+01 -0.39730184535E+02  0.17432400574E+02  0.43400724165E+02  0.00000000000E+00 0.  1.
         11    1    3    3    0    0 -0.65018117615E+01  0.27627223108E+02 -0.17322144100E+02  0.33250469009E+02  0.51100000000E-03 0. -1.
        -11    1    3    3    0    0  0.54955729822E+01  0.12747006695E+02 -0.15232904482E+00  0.13882028183E+02  0.51100000000E-03 0.  1.
        -12    1    3    3    0    0 -0.11032072624E+00 -0.64404526806E+00  0.42072570325E-01  0.65477864284E+00  0.00000000000E+00 0.  1.
</event>
<event>
 7    1  0.2458979E-009  0.4778727E+02  0.7816164E-02  0.1312668E+00
        -11   -1    0    0    0    0  0.00000000000E+00  0.00000000000E+00  0.45593999997E+02  0.45594000000E+02  0.51100000000E-03 0.  1.
         11   -1    0    0    0    0 -0.00000000000E+00 -0.00000000000E+00 -0.45593999997E+02  0.45594000000E+02  0.51100000000E-03 0. -1.
    9900012    2    1    2    0    0 -0.11141597128E+02 -0.33003346394E+02 -0.25889521535E+02  0.47787269763E+02  0.19999994157E+02 0.  0.
        -12    1    1    2    0    0  0.11141597128E+02  0.33003346394E+02  0.25889521535E+02  0.43400730237E+02  0.00000000000E+00 0.  1.
         11    1    3    3    0    0  0.70667789047E+00 -0.27642934403E+01  0.23352860287E+01  0.36870412205E+01  0.51100000000E-03 0.  1.
        -11    1    3    3    0    0 -0.91862497267E+01 -0.21987172114E+02 -0.25748576699E+02  0.35082932088E+02  0.51100000000E-03 0. -1.
         12    1    3    3    0    0 -0.26620252915E+01 -0.82518808398E+01 -0.24762308655E+01  0.90172964543E+01  0.00000000000E+00 0. -1.
</event>
<event>
 7    1  0.2458979E-009  0.4778728E+02  0.7816164E-02  0.1312668E+00
        -11   -1    0    0    0    0  0.00000000000E+00  0.00000000000E+00  0.45593999997E+02  0.45594000000E+02  0.51100000000E-03 0.  1.
         11   -1    0    0    0    0 -0.00000000000E+00 -0.00000000000E+00 -0.45593999997E+02  0.45594000000E+02  0.51100000000E-03 0. -1.
    9900012    2    1    2    0    0 -0.10217973859E+02  0.44526441037E+01 -0.41945080052E+02  0.47787276850E+02  0.20000026471E+02 0.  0.
        -12    1    1    2    0    0  0.10217973859E+02 -0.44526441037E+01  0.41945080052E+02  0.43400723150E+02  0.00000000000E+00 0.  1.
         11    1    3    3    0    0 -0.17507508873E+00  0.61499965895E+01 -0.28989564941E+02  0.29635249030E+02  0.51100000000E-03 0. -1.
        -11    1    3    3    0    0 -0.10271453427E+02 -0.13034660528E+00 -0.82124321743E+01  0.13151569800E+02  0.51100000000E-03 0.  1.
        -12    1    3    3    0    0  0.22855465617E+00 -0.15670058805E+01 -0.47430829374E+01  0.50004580202E+01  0.00000000000E+00 0.  1.
</event>
<event>
 7    1  0.2458979E-009  0.4778727E+02  0.7816164E-02  0.1312668E+00
        -11   -1    0    0    0    0  0.00000000000E+00  0.00000000000E+00  0.45593999997E+02  0.45594000000E+02  0.51100000000E-03 0.  1.
         11   -1    0    0    0    0 -0.00000000000E+00 -0.00000000000E+00 -0.45593999997E+02  0.45594000000E+02  0.51100000000E-03 0. -1.
    9900012    2    1    2    0    0  0.71645840434E+00  0.19815516074E+02 -0.38606413443E+02  0.47787272485E+02  0.20000006566E+02 0.  0.
        -12    1    1    2    0    0 -0.71645840434E+00 -0.19815516074E+02  0.38606413443E+02  0.43400727515E+02  0.00000000000E+00 0.  1.
         11    1    3    3    0    0 -0.93446923815E+00  0.16640244216E+01 -0.20490348732E+02  0.20579033055E+02  0.51100000000E-03 0. -1.
        -11    1    3    3    0    0  0.44423301386E+01  0.15824784274E+02 -0.13122101101E+02  0.21032061999E+02  0.51100000000E-03 0.  1.
        -12    1    3    3    0    0 -0.27914024961E+01  0.23267073786E+01 -0.49939636095E+01  0.61761774305E+01  0.00000000000E+00 0.  1.
</event>
<event>
 7    1  0.2458979E-009  0.4778728E+02  0.7816164E-02  0.1312668E+00
        -11   -1    0    0    0    0  0.00000000000E+00  0.00000000000E+00  0.45593999997E+02  0.45594000000E+02  0.51100000000E-03 0.  1.
         11   -1    0    0    0    0 -0.00000000000E+00 -0.00000000000E+00 -0.45593999997E+02  0.45594000000E+02  0.51100000000E-03 0. -1.
    9900012    2    1    2    0    0  0.16648673164E+02  0.39101590598E+02  0.88039743269E+01  0.47787278009E+02  0.20000031752E+02 0.  0.
        -12    1    1    2    0    0 -0.16648673164E+02 -0.39101590598E+02 -0.88039743269E+01  0.43400721991E+02  0.00000000000E+00 0.  1.
         11    1    3    3    0    0  0.13938528165E+02  0.28373473878E+02  0.98252826361E+00  0.31627550480E+02  0.51100000000E-03 0. -1.
        -11    1    3    3    0    0 -0.81981912723E+00  0.94711879120E+01  0.79761742332E+01  0.12409466529E+02  0.51100000000E-03 0.  1.
         12    1    3    3    0    0  0.35299641260E+01  0.12569288080E+01 -0.15472816987E+00  0.37502609997E+01  0.00000000000E+00 0. -1.
</event>
<event>
 7    1  0.2458979E-009  0.4778727E+02  0.7816164E-02  0.1312668E+00
        -11   -1    0    0    0    0  0.00000000000E+00  0.00000000000E+00  0.45593999997E+02  0.45594000000E+02  0.51100000000E-03 0. -1.
         11   -1    0    0    0    0 -0.00000000000E+00 -0.00000000000E+00 -0.45593999997E+02  0.45594000000E+02  0.51100000000E-03 0.  1.
    9900012    2    1    2    0    0  0.35902318422E+02  0.22205709476E+02 -0.10077373790E+02  0.47787268855E+02  0.19999990018E+02 0.  0.
        -12    1    1    2    0    0 -0.35902318422E+02 -0.22205709476E+02  0.10077373790E+02  0.43400731145E+02  0.00000000000E+00 0.  1.
         11    1    3    3    0    0  0.10405286497E+02 -0.30556913740E+00  0.19020260163E+01  0.10582110509E+02  0.51100000000E-03 0. -1.
        -11    1    3    3    0    0  0.20295325664E+02  0.16908242937E+02 -0.13087292788E+02  0.29479928015E+02  0.51100000000E-03 0.  1.
         12    1    3    3    0    0  0.52017062612E+01  0.56030356761E+01  0.11078929809E+01  0.77252303313E+01  0.00000000000E+00 0. -1.
</event>
<event>
 7    1  0.2458979E-009  0.4778727E+02  0.7816164E-02  0.1312668E+00
        -11   -1    0    0    0    0  0.00000000000E+00  0.00000000000E+00  0.45593999997E+02  0.45594000000E+02  0.51100000000E-03 0. -1.
         11   -1    0    0    0    0 -0.00000000000E+00 -0.00000000000E+00 -0.45593999997E+02  0.45594000000E+02  0.51100000000E-03 0.  1.
    9900012    2    1    2    0    0  0.33383119729E+02 -0.17503099021E+02  0.21513543340E+02  0.47787266075E+02  0.19999977344E+02 0.  0.
        -12    1    1    2    0    0 -0.33383119729E+02  0.17503099021E+02 -0.21513543340E+02  0.43400733925E+02  0.00000000000E+00 0.  1.
         11    1    3    3    0    0  0.25682197246E+02 -0.98182948677E+01  0.11848997510E+02  0.29939487500E+02  0.51100000000E-03 0. -1.
        -11    1    3    3    0    0 -0.45216972698E+00 -0.53063836559E+01  0.49376023826E+00  0.53484543935E+01  0.51100000000E-03 0.  1.
         12    1    3    3    0    0  0.81530922094E+01 -0.23784204970E+01  0.91707855918E+01  0.12499324182E+02  0.00000000000E+00 0. -1.
</event>
<event>
 7    1  0.2458979E-009  0.4778727E+02  0.7816164E-02  0.1312668E+00
        -11   -1    0    0    0    0  0.00000000000E+00  0.00000000000E+00  0.45593999997E+02  0.45594000000E+02  0.51100000000E-03 0. -1.
         11   -1    0    0    0    0 -0.00000000000E+00 -0.00000000000E+00 -0.45593999997E+02  0.45594000000E+02  0.51100000000E-03 0.  1.
    9900012    2    1    2    0    0 -0.84795860013E+01  0.23280346308E+02  0.35633491980E+02  0.47787266669E+02  0.19999980051E+02 0.  0.
        -12    1    1    2    0    0  0.84795860013E+01 -0.23280346308E+02 -0.35633491980E+02  0.43400733331E+02  0.00000000000E+00 0.  1.
         11    1    3    3    0    0 -0.96202330751E+01  0.86034638312E+01  0.27451637526E+02  0.30334153646E+02  0.51100000000E-03 0. -1.
        -11    1    3    3    0    0 -0.11224139667E+01  0.11056795682E+02  0.64194003340E+01  0.12834377460E+02  0.51100000000E-03 0.  1.
         12    1    3    3    0    0  0.22630610406E+01  0.36200867951E+01  0.17624541197E+01  0.46187355631E+01  0.00000000000E+00 0. -1.
</event>
<event>
 7    1  0.2458979E-009  0.4778727E+02  0.7816164E-02  0.1312668E+00
        -11   -1    0    0    0    0  0.00000000000E+00  0.00000000000E+00  0.45593999997E+02  0.45594000000E+02  0.51100000000E-03 0. -1.
         11   -1    0    0    0    0 -0.00000000000E+00 -0.00000000000E+00 -0.45593999997E+02  0.45594000000E+02  0.51100000000E-03 0.  1.
    9900012    2    1    2    0    0 -0.10659792624E+02 -0.34043708515E+02  0.24718773773E+02  0.47787273681E+02  0.20000012021E+02 0.  0.
        -12    1    1    2    0    0  0.10659792624E+02  0.34043708515E+02 -0.24718773773E+02  0.43400726319E+02  0.00000000000E+00 0.  1.
         11    1    3    3    0    0 -0.78316246124E+01 -0.32670855382E+02  0.19698610048E+02  0.38945530854E+02  0.51100000000E-03 0. -1.
        -11    1    3    3    0    0 -0.22867739641E-01  0.18409044574E+01 -0.45932754796E+00  0.18974810176E+01  0.51100000000E-03 0.  1.
         12    1    3    3    0    0 -0.28053002720E+01 -0.32137575902E+01  0.54794912728E+01  0.69442618091E+01  0.00000000000E+00 0. -1.
</event>
<event>
 7    1  0.2458979E-009  0.4778727E+02  0.7816164E-02  0.1312668E+00
        -11   -1    0    0    0    0  0.00000000000E+00  0.00000000000E+00  0.45593999997E+02  0.45594000000E+02  0.51100000000E-03 0.  1.
         11   -1    0    0    0    0 -0.00000000000E+00 -0.00000000000E+00 -0.45593999997E+02  0.45594000000E+02  0.51100000000E-03 0. -1.
    9900012    2    1    2    0    0 -0.40267630032E+01  0.41374084707E+02 -0.12473719555E+02  0.47787269763E+02  0.19999994156E+02 0.  0.
        -12    1    1    2    0    0  0.40267630032E+01 -0.41374084707E+02  0.12473719555E+02  0.43400730237E+02  0.00000000000E+00 0.  1.
         11    1    3    3    0    0 -0.26882063341E+01  0.75182846960E+01 -0.35481990004E+01  0.87373207834E+01  0.51100000000E-03 0. -1.
        -11    1    3    3    0    0 -0.27589004386E+00  0.66621677981E+01 -0.97629486196E+01  0.11822679946E+02  0.51100000000E-03 0.  1.
        -12    1    3    3    0    0 -0.10626666252E+01  0.27193632213E+02  0.83742806537E+00  0.27227269034E+02  0.00000000000E+00 0.  1.
</event>
<event>
 7    1  0.2458979E-009  0.4778727E+02  0.7816164E-02  0.1312668E+00
        -11   -1    0    0    0    0  0.00000000000E+00  0.00000000000E+00  0.45593999997E+02  0.45594000000E+02  0.51100000000E-03 0.  1.
         11   -1    0    0    0    0 -0.00000000000E+00 -0.00000000000E+00 -0.45593999997E+02  0.45594000000E+02  0.51100000000E-03 0. -1.
    9900012    2    1    2    0    0 -0.42002937256E+02  0.10646153504E+02 -0.24568363743E+01  0.47787269966E+02  0.19999995082E+02 0.  0.
        -12    1    1    2    0    0  0.42002937256E+02 -0.10646153504E+02  0.24568363743E+01  0.43400730034E+02  0.00000000000E+00 0.  1.
         11    1    3    3    0    0 -0.52220769808E+01 -0.19303077760E+00  0.20564691025E+01  0.56157291873E+01  0.51100000000E-03 0. -1.
        -11    1    3    3    0    0  0.12234214829E-01 -0.26627339507E+01 -0.91007236395E+00  0.28139889369E+01  0.51100000000E-03 0.  1.
        -12    1    3    3    0    0 -0.36793094490E+02  0.13501918232E+02 -0.36032331129E+01  0.39357551841E+02  0.00000000000E+00 0.  1.
</event>
<event>
 7    1 -0.2458979E-009  0.4778727E+02  0.7816164E-02  0.1312668E+00
        -11   -1    0    0    0    0  0.00000000000E+00  0.00000000000E+00  0.45593999997E+02  0.45594000000E+02  0.51100000000E-03 0.  1.
         11   -1    0    0    0    0 -0.00000000000E+00 -0.00000000000E+00 -0.45593999997E+02  0.45594000000E+02  0.51100000000E-03 0. -1.
    9900012    2    1    2    0    0  0.23297740348E+02  0.26091968060E+01 -0.36524389231E+02  0.47787267034E+02  0.19999981714E+02 0.  0.
        -12    1    1    2    0    0 -0.23297740348E+02 -0.26091968060E+01  0.36524389231E+02  0.43400732966E+02  0.00000000000E+00 0.  1.
         11    1    3    3    0    0  0.84707165304E+01 -0.16743822183E+01 -0.86645917250E+01  0.12232405502E+02  0.51100000000E-03 0. -1.
        -11    1    3    3    0    0  0.24219754756E+01  0.37779526683E+01  0.57832812530E+00  0.45247491919E+01  0.51100000000E-03 0.  1.
        -12    1    3    3    0    0  0.12405048342E+02  0.50562635599E+00 -0.28438125631E+02  0.31030112340E+02  0.00000000000E+00 0.  1.
</event>
<event>
 7    1  0.2458979E-009  0.4778727E+02  0.7816164E-02  0.1312668E+00
        -11   -1    0    0    0    0  0.00000000000E+00  0.00000000000E+00  0.45593999997E+02  0.45594000000E+02  0.51100000000E-03 0. -1.
         11   -1    0    0    0    0 -0.00000000000E+00 -0.00000000000E+00 -0.45593999997E+02  0.45594000000E+02  0.51100000000E-03 0.  1.
    9900012    2    1    2    0    0  0.12206038137E+02  0.41640560957E+02  0.83637548343E+00  0.47787271806E+02  0.20000003474E+02 0.  0.
        -12    1    1    2    0    0 -0.12206038137E+02 -0.41640560957E+02 -0.83637548343E+00  0.43400728194E+02  0.00000000000E+00 0.  1.
         11    1    3    3    0    0  0.59340165591E+01  0.90203808275E+01  0.31278101022E+01  0.11241130686E+02  0.51100000000E-03 0. -1.
        -11    1    3    3    0    0  0.75510251471E+00  0.48859541879E+00 -0.38044208260E+01  0.39092868113E+01  0.51100000000E-03 0.  1.
        -12    1    3    3    0    0  0.55169190629E+01  0.32131584710E+02  0.15129862072E+01  0.32636854309E+02  0.00000000000E+00 0.  1.
</event>
<event>
 7    1  0.2458979E-009  0.4778727E+02  0.7816164E-02  0.1312668E+00
        -11   -1    0    0    0    0  0.00000000000E+00  0.00000000000E+00  0.45593999997E+02  0.45594000000E+02  0.51100000000E-03 0. -1.
         11   -1    0    0    0    0 -0.00000000000E+00 -0.00000000000E+00 -0.45593999997E+02  0.45594000000E+02  0.51100000000E-03 0.  1.
    9900012    2    1    2    0    0  0.40432221751E+02  0.58909947206E+01 -0.14634030644E+02  0.47787271580E+02  0.20000002440E+02 0.  0.
        -12    1    1    2    0    0 -0.40432221751E+02 -0.58909947206E+01  0.14634030644E+02  0.43400728420E+02  0.00000000000E+00 0.  1.
         11    1    3    3    0    0  0.68051845567E+01  0.54520901366E+01 -0.65403196009E+01  0.10900073598E+02  0.51100000000E-03 0. -1.
        -11    1    3    3    0    0  0.72579882113E+01  0.54346596315E+01 -0.96457810176E+00  0.91183512414E+01  0.51100000000E-03 0.  1.
         12    1    3    3    0    0  0.26369048983E+02 -0.49957550475E+01 -0.71291329411E+01  0.27768846740E+02  0.00000000000E+00 0. -1.
</event>
<event>
 7    1  0.2458979E-009  0.4778727E+02  0.7816164E-02  0.1312668E+00
        -11   -1    0    0    0    0  0.00000000000E+00  0.00000000000E+00  0.45593999997E+02  0.45594000000E+02  0.51100000000E-03 0. -1.
         11   -1    0    0    0    0 -0.00000000000E+00 -0.00000000000E+00 -0.45593999997E+02  0.45594000000E+02  0.51100000000E-03 0.  1.
    9900012    2    1    2    0    0  0.20743510199E+02 -0.10125079963E+02  0.36753406898E+02  0.47787269842E+02  0.19999994517E+02 0.  0.
        -12    1    1    2    0    0 -0.20743510199E+02  0.10125079963E+02 -0.36753406898E+02  0.43400730158E+02  0.00000000000E+00 0.  1.
         11    1    3    3    0    0  0.12540545862E+02 -0.12650010583E+02  0.23280643492E+02  0.29313417064E+02  0.51100000000E-03 0. -1.
        -11    1    3    3    0    0  0.28668116791E+01  0.47475234720E+01  0.25249874363E+01  0.60936975750E+01  0.51100000000E-03 0.  1.
        -12    1    3    3    0    0  0.53361526576E+01 -0.22225928520E+01  0.10947775970E+02  0.12380155203E+02  0.00000000000E+00 0.  1.
</event>
<event>
 7    1  0.2458979E-009  0.4778727E+02  0.7816164E-02  0.1312668E+00
        -11   -1    0    0    0    0  0.00000000000E+00  0.00000000000E+00  0.45593999997E+02  0.45594000000E+02  0.51100000000E-03 0.  1.
         11   -1    0    0    0    0 -0.00000000000E+00 -0.00000000000E+00 -0.45593999997E+02  0.45594000000E+02  0.51100000000E-03 0. -1.
    9900012    2    1    2    0    0  0.92897573460E+01  0.42314964236E+02 -0.26014592212E+01  0.47787269822E+02  0.19999994428E+02 0.  0.
        -12    1    1    2    0    0 -0.92897573460E+01 -0.42314964236E+02  0.26014592212E+01  0.43400730178E+02  0.00000000000E+00 0.  1.
         11    1    3    3    0    0  0.82720357748E+01  0.10073479670E+02  0.48870004316E+01  0.13920644453E+02  0.51100000000E-03 0.  1.
        -11    1    3    3    0    0  0.24504922882E+00  0.15639276149E+02 -0.72622171650E+01  0.17244906669E+02  0.51100000000E-03 0. -1.
         12    1    3    3    0    0  0.77267234234E+00  0.16602208418E+02 -0.22624248780E+00  0.16621718700E+02  0.00000000000E+00 0. -1.
</event>
<event>
 7    1  0.2458979E-009  0.4778727E+02  0.7816164E-02  0.1312668E+00
        -11   -1    0    0    0    0  0.00000000000E+00  0.00000000000E+00  0.45593999997E+02  0.45594000000E+02  0.51100000000E-03 0.  1.
         11   -1    0    0    0    0 -0.00000000000E+00 -0.00000000000E+00 -0.45593999997E+02  0.45594000000E+02  0.51100000000E-03 0. -1.
    9900012    2    1    2    0    0  0.33181769647E+02  0.82589244096E+01 -0.26727959127E+02  0.47787268804E+02  0.19999989783E+02 0.  0.
        -12    1    1    2    0    0 -0.33181769647E+02 -0.82589244096E+01  0.26727959127E+02  0.43400731196E+02  0.00000000000E+00 0.  1.
         11    1    3    3    0    0  0.27620667796E+02  0.69741852219E+01 -0.14302318544E+02  0.31876274328E+02  0.51100000000E-03 0. -1.
        -11    1    3    3    0    0  0.47864839079E+01 -0.20050458606E+01 -0.11150032135E+02  0.12298530561E+02  0.51100000000E-03 0.  1.
         12    1    3    3    0    0  0.77461794265E+00  0.32897850483E+01 -0.12756084487E+01  0.36124639148E+01  0.00000000000E+00 0. -1.
</event>
<event>
 7    1  0.2458979E-009  0.4778727E+02  0.7816164E-02  0.1312668E+00
        -11   -1    0    0    0    0  0.00000000000E+00  0.00000000000E+00  0.45593999997E+02  0.45594000000E+02  0.51100000000E-03 0.  1.
         11   -1    0    0    0    0 -0.00000000000E+00 -0.00000000000E+00 -0.45593999997E+02  0.45594000000E+02  0.51100000000E-03 0. -1.
    9900012    2    1    2    0    0  0.40859757872E+02 -0.13815046438E+02 -0.48216183064E+01  0.47787270461E+02  0.19999997339E+02 0.  0.
        -12    1    1    2    0    0 -0.40859757872E+02  0.13815046438E+02  0.48216183064E+01  0.43400729539E+02  0.00000000000E+00 0.  1.
         11    1    3    3    0    0  0.80628137101E+01 -0.10207610916E+02  0.15132081878E+01  0.13095575009E+02  0.51100000000E-03 0. -1.
        -11    1    3    3    0    0  0.16623716121E+02 -0.18625490774E+01 -0.76045164330E+01  0.18375138018E+02  0.51100000000E-03 0.  1.
         12    1    3    3    0    0  0.16173228041E+02 -0.17448864451E+01  0.12696899388E+01  0.16316557435E+02  0.00000000000E+00 0. -1.
</event>
<event>
 7    1  0.2458979E-009  0.4778728E+02  0.7816164E-02  0.1312668E+00
        -11   -1    0    0    0    0  0.00000000000E+00  0.00000000000E+00  0.45593999997E+02  0.45594000000E+02  0.51100000000E-03 0. -1.
         11   -1    0    0    0    0 -0.00000000000E+00 -0.00000000000E+00 -0.45593999997E+02  0.45594000000E+02  0.51100000000E-03 0.  1.
    9900012    2    1    2    0    0 -0.32610671551E+02  0.11928405122E+02 -0.26036130738E+02  0.47787275910E+02  0.20000022183E+02 0.  0.
        -12    1    1    2    0    0  0.32610671551E+02 -0.11928405122E+02  0.26036130738E+02  0.43400724090E+02  0.00000000000E+00 0.  1.
         11    1    3    3    0    0  0.42192253733E+00  0.38935888181E+01 -0.36070798723E+00  0.39329585588E+01  0.51100000000E-03 0. -1.
        -11    1    3    3    0    0 -0.30566346269E+01  0.55052852590E+00 -0.72350145240E+01  0.78734701577E+01  0.51100000000E-03 0.  1.
         12    1    3    3    0    0 -0.29975959461E+02  0.74842877781E+01 -0.18440408227E+02  0.35980847193E+02  0.00000000000E+00 0. -1.
</event>
<event>
 7    1  0.2458979E-009  0.4778727E+02  0.7816164E-02  0.1312668E+00
        -11   -1    0    0    0    0  0.00000000000E+00  0.00000000000E+00  0.45593999997E+02  0.45594000000E+02  0.51100000000E-03 0.  1.
         11   -1    0    0    0    0 -0.00000000000E+00 -0.00000000000E+00 -0.45593999997E+02  0.45594000000E+02  0.51100000000E-03 0. -1.
    9900012    2    1    2    0    0  0.22506159818E+02 -0.25521776081E+02 -0.26939466869E+02  0.47787272365E+02  0.20000006021E+02 0.  0.
        -12    1    1    2    0    0 -0.22506159818E+02  0.25521776081E+02  0.26939466869E+02  0.43400727635E+02  0.00000000000E+00 0.  1.
         11    1    3    3    0    0  0.53639886220E+01  0.19636946254E+01 -0.61866958962E+01  0.84204321084E+01  0.51100000000E-03 0. -1.
        -11    1    3    3    0    0  0.67057525426E+01 -0.84290306921E+01 -0.26643514172E+01  0.11095694855E+02  0.51100000000E-03 0.  1.
         12    1    3    3    0    0  0.10436418653E+02 -0.19056440014E+02 -0.18088419555E+02  0.28271145402E+02  0.00000000000E+00 0. -1.
</event>
<event>
 7    1  0.2458979E-009  0.4778727E+02  0.7816164E-02  0.1312668E+00
        -11   -1    0    0    0    0  0.00000000000E+00  0.00000000000E+00  0.45593999997E+02  0.45594000000E+02  0.51100000000E-03 0.  1.
         11   -1    0    0    0    0 -0.00000000000E+00 -0.00000000000E+00 -0.45593999997E+02  0.45594000000E+02  0.51100000000E-03 0. -1.
    9900012    2    1    2    0    0 -0.98665629970E+01 -0.33609874974E+02 -0.25625194518E+02  0.47787270107E+02  0.19999995728E+02 0.  0.
        -12    1    1    2    0    0  0.98665629970E+01  0.33609874974E+02  0.25625194518E+02  0.43400729893E+02  0.00000000000E+00 0.  1.
         11    1    3    3    0    0 -0.96655256770E+01 -0.25591356198E+02 -0.22480854680E+02  0.35408031943E+02  0.51100000000E-03 0. -1.
        -11    1    3    3    0    0 -0.23095902592E+01 -0.21487954440E+01 -0.49646110213E+01  0.58820822741E+01  0.51100000000E-03 0.  1.
         12    1    3    3    0    0  0.21085529393E+01 -0.58697233317E+01  0.18202711829E+01  0.64971558907E+01  0.00000000000E+00 0. -1.
</event>
<event>
 7    1  0.2458979E-009  0.4778727E+02  0.7816164E-02  0.1312668E+00
        -11   -1    0    0    0    0  0.00000000000E+00  0.00000000000E+00  0.45593999997E+02  0.45594000000E+02  0.51100000000E-03 0. -1.
         11   -1    0    0    0    0 -0.00000000000E+00 -0.00000000000E+00 -0.45593999997E+02  0.45594000000E+02  0.51100000000E-03 0.  1.
    9900012    2    1    2    0    0 -0.27940911395E+02 -0.25040370127E+02  0.21815328712E+02  0.47787271521E+02  0.20000002175E+02 0.  0.
        -12    1    1    2    0    0  0.27940911395E+02  0.25040370127E+02 -0.21815328712E+02  0.43400728479E+02  0.00000000000E+00 0.  1.
         11    1    3    3    0    0 -0.17604521939E+02 -0.17778706658E+02  0.22104773312E+02  0.33385964215E+02  0.51100000000E-03 0. -1.
        -11    1    3    3    0    0 -0.10801584142E+02 -0.72274708905E+01  0.99519382546E+00  0.13034606494E+02  0.51100000000E-03 0.  1.
        -12    1    3    3    0    0  0.46519468566E+00 -0.34192578261E-01 -0.12846384252E+01  0.13667008127E+01  0.00000000000E+00 0.  1.
</event>
<event>
 7    1  0.2458979E-009  0.4778727E+02  0.7816164E-02  0.1312668E+00
        -11   -1    0    0    0    0  0.00000000000E+00  0.00000000000E+00  0.45593999997E+02  0.45594000000E+02  0.51100000000E-03 0. -1.
         11   -1    0    0    0    0 -0.00000000000E+00 -0.00000000000E+00 -0.45593999997E+02  0.45594000000E+02  0.51100000000E-03 0.  1.
    9900012    2    1    2    0    0 -0.24142180794E+02  0.35950631489E+02  0.28862144815E+01  0.47787273832E+02  0.20000012708E+02 0.  0.
        -12    1    1    2    0    0  0.24142180794E+02 -0.35950631489E+02 -0.28862144815E+01  0.43400726168E+02  0.00000000000E+00 0.  1.
         11    1    3    3    0    0 -0.23059487161E+02  0.24133674754E+02 -0.27285210817E+01  0.33490581256E+02  0.51100000000E-03 0. -1.
        -11    1    3    3    0    0  0.22807872620E+01  0.36812161984E+01  0.15442494446E+01  0.45976134942E+01  0.51100000000E-03 0.  1.
         12    1    3    3    0    0 -0.33634808941E+01  0.81357405362E+01  0.40704861186E+01  0.96990790820E+01  0.00000000000E+00 0. -1.
</event>
<event>
 7    1  0.2458979E-009  0.4778727E+02  0.7816164E-02  0.1312668E+00
        -11   -1    0    0    0    0  0.00000000000E+00  0.00000000000E+00  0.45593999997E+02  0.45594000000E+02  0.51100000000E-03 0. -1.
         11   -1    0    0    0    0 -0.00000000000E+00 -0.00000000000E+00 -0.45593999997E+02  0.45594000000E+02  0.51100000000E-03 0.  1.
    9900012    2    1    2    0    0 -0.18112076340E+02 -0.10238805130E+02  0.38088619965E+02  0.47787269468E+02  0.19999992815E+02 0.  0.
        -12    1    1    2    0    0  0.18112076340E+02  0.10238805130E+02 -0.38088619965E+02  0.43400730532E+02  0.00000000000E+00 0.  1.
         11    1    3    3    0    0 -0.10994179044E+02 -0.21743353288E-01  0.21466522854E+02  0.24118126987E+02  0.51100000000E-03 0. -1.
        -11    1    3    3    0    0 -0.44937809966E+01 -0.88780379868E+01  0.40277432538E+01  0.10734819147E+02  0.51100000000E-03 0.  1.
         12    1    3    3    0    0 -0.26241162999E+01 -0.13390237901E+01  0.12594353857E+02  0.12934323335E+02  0.00000000000E+00 0. -1.
</event>
<event>
 7    1  0.2458979E-009  0.4778727E+02  0.7816164E-02  0.1312668E+00
        -11   -1    0    0    0    0  0.00000000000E+00  0.00000000000E+00  0.45593999997E+02  0.45594000000E+02  0.51100000000E-03 0.  1.
         11   -1    0    0    0    0 -0.00000000000E+00 -0.00000000000E+00 -0.45593999997E+02  0.45594000000E+02  0.51100000000E-03 0. -1.
    9900012    2    1    2    0    0  0.28617898714E+02  0.23233965554E+02 -0.22908995376E+02  0.47787270152E+02  0.19999995932E+02 0.  0.
        -12    1    1    2    0    0 -0.28617898714E+02 -0.23233965554E+02  0.22908995376E+02  0.43400729848E+02  0.00000000000E+00 0.  1.
         11    1    3    3    0    0  0.49905300903E+01  0.98338290117E+01 -0.15870551505E+02  0.19325733853E+02  0.51100000000E-03 0. -1.
        -11    1    3    3    0    0  0.17251257781E+02  0.72394717051E+01 -0.45906027470E+01  0.19263682915E+02  0.51100000000E-03 0.  1.
         12    1    3    3    0    0  0.63761108428E+01  0.61606648367E+01 -0.24478411234E+01  0.91978533841E+01  0.00000000000E+00 0. -1.
</event>
<event>
 7    1  0.2458979E-009  0.4778728E+02  0.7816164E-02  0.1312668E+00
        -11   -1    0    0    0    0  0.00000000000E+00  0.00000000000E+00  0.45593999997E+02  0.45594000000E+02  0.51100000000E-03 0.  1.
         11   -1    0    0    0    0 -0.00000000000E+00 -0.00000000000E+00 -0.45593999997E+02  0.45594000000E+02  0.51100000000E-03 0. -1.
    9900012    2    1    2    0    0 -0.23491130933E+02 -0.46645452071E+01 -0.36194358035E+02  0.47787276872E+02  0.20000026570E+02 0.  0.
        -12    1    1    2    0    0  0.23491130933E+02  0.46645452071E+01  0.36194358035E+02  0.43400723128E+02  0.00000000000E+00 0.  1.
         11    1    3    3    0    0 -0.47512820960E+01 -0.60112982278E-01 -0.22552160920E+02  0.23047304778E+02  0.51100000000E-03 0. -1.
        -11    1    3    3    0    0 -0.16791722527E+02 -0.59521139385E+01 -0.13525898418E+02  0.22368270699E+02  0.51100000000E-03 0.  1.
         12    1    3    3    0    0 -0.19481263099E+01  0.13476817137E+01 -0.11629869651E+00  0.23717013951E+01  0.00000000000E+00 0. -1.
</event>
<event>
 7    1  0.2458979E-009  0.4778727E+02  0.7816164E-02  0.1312668E+00
        -11   -1    0    0    0    0  0.00000000000E+00  0.00000000000E+00  0.45593999997E+02  0.45594000000E+02  0.51100000000E-03 0.  1.
         11   -1    0    0    0    0 -0.00000000000E+00 -0.00000000000E+00 -0.45593999997E+02  0.45594000000E+02  0.51100000000E-03 0. -1.
    9900012    2    1    2    0    0  0.29191404772E+02 -0.25527214412E+02 -0.19489664159E+02  0.47787265015E+02  0.19999972510E+02 0.  0.
        -12    1    1    2    0    0 -0.29191404772E+02  0.25527214412E+02  0.19489664159E+02  0.43400734985E+02  0.00000000000E+00 0.  1.
         11    1    3    3    0    0  0.19162356982E+02 -0.14091805451E+02 -0.12181826408E+02  0.26723992981E+02  0.51100000000E-03 0. -1.
        -11    1    3    3    0    0  0.12335161174E+02 -0.10914307744E+02 -0.39175435065E+01  0.16930016600E+02  0.51100000000E-03 0.  1.
         12    1    3    3    0    0 -0.23061133835E+01 -0.52110121744E+00 -0.33902942444E+01  0.41332554336E+01  0.00000000000E+00 0. -1.
</event>
<event>
 7    1  0.2458979E-009  0.4778727E+02  0.7816164E-02  0.1312668E+00
        -11   -1    0    0    0    0  0.00000000000E+00  0.00000000000E+00  0.45593999997E+02  0.45594000000E+02  0.51100000000E-03 0. -1.
         11   -1    0    0    0    0 -0.00000000000E+00 -0.00000000000E+00 -0.45593999997E+02  0.45594000000E+02  0.51100000000E-03 0.  1.
    9900012    2    1    2    0    0 -0.54803439587E+00  0.43201588338E+02  0.41164983589E+01  0.47787272640E+02  0.20000007276E+02 0.  0.
        -12    1    1    2    0    0  0.54803439587E+00 -0.43201588338E+02 -0.41164983589E+01  0.43400727360E+02  0.00000000000E+00 0.  1.
         11    1    3    3    0    0 -0.35786142670E+01  0.31775794597E+02  0.25770497438E+01  0.32080348938E+02  0.51100000000E-03 0. -1.
        -11    1    3    3    0    0  0.53555658142E+01  0.66666841189E+01 -0.26511763203E+01  0.89529603190E+01  0.51100000000E-03 0.  1.
        -12    1    3    3    0    0 -0.23249859430E+01  0.47591096220E+01  0.41906249355E+01  0.67539633830E+01  0.00000000000E+00 0.  1.
</event>
<event>
 7    1  0.2458979E-009  0.4778727E+02  0.7816164E-02  0.1312668E+00
        -11   -1    0    0    0    0  0.00000000000E+00  0.00000000000E+00  0.45593999997E+02  0.45594000000E+02  0.51100000000E-03 0.  1.
         11   -1    0    0    0    0 -0.00000000000E+00 -0.00000000000E+00 -0.45593999997E+02  0.45594000000E+02  0.51100000000E-03 0. -1.
    9900012    2    1    2    0    0 -0.12907346427E+02  0.11644731270E+02 -0.39767121745E+02  0.47787270397E+02  0.19999997049E+02 0.  0.
        -12    1    1    2    0    0  0.12907346427E+02 -0.11644731270E+02  0.39767121745E+02  0.43400729603E+02  0.00000000000E+00 0.  1.
         11    1    3    3    0    0 -0.75386262671E+01  0.13231627148E+02 -0.23940281159E+02  0.28373295635E+02  0.51100000000E-03 0. -1.
        -11    1    3    3    0    0  0.11667717964E+01 -0.40080959739E+01 -0.72106321008E+01  0.83318308501E+01  0.51100000000E-03 0.  1.
        -12    1    3    3    0    0 -0.65354919562E+01  0.24212000964E+01 -0.86162084856E+01  0.11082143912E+02  0.00000000000E+00 0.  1.
</event>
<event>
 7    1  0.2458979E-009  0.4778728E+02  0.7816164E-02  0.1312668E+00
        -11   -1    0    0    0    0  0.00000000000E+00  0.00000000000E+00  0.45593999997E+02  0.45594000000E+02  0.51100000000E-03 0.  1.
         11   -1    0    0    0    0 -0.00000000000E+00 -0.00000000000E+00 -0.45593999997E+02  0.45594000000E+02  0.51100000000E-03 0. -1.
    9900012    2    1    2    0    0  0.11468568540E+02  0.41848835064E+02 -0.87723319168E+00  0.47787278824E+02  0.20000035470E+02 0.  0.
        -12    1    1    2    0    0 -0.11468568540E+02 -0.41848835064E+02  0.87723319168E+00  0.43400721176E+02  0.00000000000E+00 0.  1.
         11    1    3    3    0    0 -0.23601036271E+01  0.69682507512E+01 -0.44729218003E+01  0.86100892768E+01  0.51100000000E-03 0. -1.
        -11    1    3    3    0    0  0.51105851228E+01  0.60880407143E+01 -0.27886838073E+01  0.84237211299E+01  0.51100000000E-03 0.  1.
         12    1    3    3    0    0  0.87180870439E+01  0.28792543598E+02  0.63843724159E+01  0.30753468417E+02  0.00000000000E+00 0. -1.
</event>
<event>
 7    1  0.2458979E-009  0.4778727E+02  0.7816164E-02  0.1312668E+00
        -11   -1    0    0    0    0  0.00000000000E+00  0.00000000000E+00  0.45593999997E+02  0.45594000000E+02  0.51100000000E-03 0.  1.
         11   -1    0    0    0    0 -0.00000000000E+00 -0.00000000000E+00 -0.45593999997E+02  0.45594000000E+02  0.51100000000E-03 0. -1.
    9900012    2    1    2    0    0 -0.35924014944E+01  0.41978198487E+02 -0.10418686331E+02  0.47787268191E+02  0.19999986989E+02 0.  0.
        -12    1    1    2    0    0  0.35924014944E+01 -0.41978198487E+02  0.10418686331E+02  0.43400731809E+02  0.00000000000E+00 0.  1.
         11    1    3    3    0    0 -0.44336940629E+01  0.75389953190E+01 -0.81960543238E+01  0.11986217093E+02  0.51100000000E-03 0. -1.
        -11    1    3    3    0    0  0.11859736862E+01  0.23145041094E+02  0.29712224077E+01  0.23365094130E+02  0.51100000000E-03 0.  1.
        -12    1    3    3    0    0 -0.34468111776E+00  0.11294162074E+02 -0.51938544151E+01  0.12435956968E+02  0.00000000000E+00 0.  1.
</event>
<event>
 7    1  0.2458979E-009  0.4778727E+02  0.7816164E-02  0.1312668E+00
        -11   -1    0    0    0    0  0.00000000000E+00  0.00000000000E+00  0.45593999997E+02  0.45594000000E+02  0.51100000000E-03 0.  1.
         11   -1    0    0    0    0 -0.00000000000E+00 -0.00000000000E+00 -0.45593999997E+02  0.45594000000E+02  0.51100000000E-03 0. -1.
    9900012    2    1    2    0    0  0.20118590701E+01 -0.27409689167E+02 -0.33589948845E+02  0.47787270737E+02  0.19999998600E+02 0.  0.
        -12    1    1    2    0    0 -0.20118590701E+01  0.27409689167E+02  0.33589948845E+02  0.43400729263E+02  0.00000000000E+00 0.  1.
         11    1    3    3    0    0  0.86355918558E+01 -0.18602843387E+02 -0.23881442660E+02  0.31479557376E+02  0.51100000000E-03 0. -1.
        -11    1    3    3    0    0 -0.56122580547E+01 -0.22969269581E+01 -0.25481540923E+01  0.65777202329E+01  0.51100000000E-03 0.  1.
        -12    1    3    3    0    0 -0.10114747310E+01 -0.65099188211E+01 -0.71603520928E+01  0.97299931285E+01  0.00000000000E+00 0.  1.
</event>
<event>
 7    1  0.2458979E-009  0.4778727E+02  0.7816164E-02  0.1312668E+00
        -11   -1    0    0    0    0  0.00000000000E+00  0.00000000000E+00  0.45593999997E+02  0.45594000000E+02  0.51100000000E-03 0. -1.
         11   -1    0    0    0    0 -0.00000000000E+00 -0.00000000000E+00 -0.45593999997E+02  0.45594000000E+02  0.51100000000E-03 0.  1.
    9900012    2    1    2    0    0  0.40615927401E+02  0.61603767269E+01  0.14000710672E+02  0.47787266142E+02  0.19999977649E+02 0.  0.
        -12    1    1    2    0    0 -0.40615927401E+02 -0.61603767269E+01 -0.14000710672E+02  0.43400733858E+02  0.00000000000E+00 0.  1.
         11    1    3    3    0    0  0.15647192229E+02  0.68725647409E+01  0.12057448201E+02  0.20915277386E+02  0.51100000000E-03 0. -1.
        -11    1    3    3    0    0  0.17125272700E+02 -0.30511513135E+00 -0.32806436092E+01  0.17439342965E+02  0.51100000000E-03 0.  1.
        -12    1    3    3    0    0  0.78434624723E+01 -0.40707288264E+00  0.52239060800E+01  0.94326457910E+01  0.00000000000E+00 0.  1.
</event>
<event>
 7    1  0.2458979E-009  0.4778727E+02  0.7816164E-02  0.1312668E+00
        -11   -1    0    0    0    0  0.00000000000E+00  0.00000000000E+00  0.45593999997E+02  0.45594000000E+02  0.51100000000E-03 0.  1.
         11   -1    0    0    0    0 -0.00000000000E+00 -0.00000000000E+00 -0.45593999997E+02  0.45594000000E+02  0.51100000000E-03 0. -1.
    9900012    2    1    2    0    0  0.22972891791E+01 -0.38481259611E+02  0.19938375764E+02  0.47787266056E+02  0.19999977255E+02 0.  0.
        -12    1    1    2    0    0 -0.22972891791E+01  0.38481259611E+02 -0.19938375764E+02  0.43400733944E+02  0.00000000000E+00 0.  1.
         11    1    3    3    0    0 -0.54504307448E+01 -0.77688529800E+01  0.29385008561E+01  0.99346393730E+01  0.51100000000E-03 0. -1.
        -11    1    3    3    0    0  0.10896778550E+02 -0.24862619648E+02  0.13001039490E+02  0.30098449572E+02  0.51100000000E-03 0.  1.
        -12    1    3    3    0    0 -0.31490586261E+01 -0.58497869824E+01  0.39988354181E+01  0.77541771112E+01  0.00000000000E+00 0.  1.
</event>
<event>
 7    1  0.2458979E-009  0.4778727E+02  0.7816164E-02  0.1312668E+00
        -11   -1    0    0    0    0  0.00000000000E+00  0.00000000000E+00  0.45593999997E+02  0.45594000000E+02  0.51100000000E-03 0.  1.
         11   -1    0    0    0    0 -0.00000000000E+00 -0.00000000000E+00 -0.45593999997E+02  0.45594000000E+02  0.51100000000E-03 0. -1.
    9900012    2    1    2    0    0  0.17861540133E+02 -0.25552105327E+02 -0.30194020054E+02  0.47787267868E+02  0.19999985519E+02 0.  0.
        -12    1    1    2    0    0 -0.17861540133E+02  0.25552105327E+02  0.30194020054E+02  0.43400732132E+02  0.00000000000E+00 0.  1.
         11    1    3    3    0    0  0.51692866695E+01 -0.96909790055E+01 -0.84113863687E+01  0.13834305897E+02  0.51100000000E-03 0. -1.
        -11    1    3    3    0    0  0.67286519197E+01 -0.14935240622E+02 -0.22547323567E+02  0.27869660375E+02  0.51100000000E-03 0.  1.
        -12    1    3    3    0    0  0.59636015434E+01 -0.92588569917E+00  0.76468988185E+00  0.60833015964E+01  0.00000000000E+00 0.  1.
</event>
<event>
 7    1  0.2458979E-009  0.4778727E+02  0.7816164E-02  0.1312668E+00
        -11   -1    0    0    0    0  0.00000000000E+00  0.00000000000E+00  0.45593999997E+02  0.45594000000E+02  0.51100000000E-03 0.  1.
         11   -1    0    0    0    0 -0.00000000000E+00 -0.00000000000E+00 -0.45593999997E+02  0.45594000000E+02  0.51100000000E-03 0. -1.
    9900012    2    1    2    0    0 -0.12480118841E+02  0.26621205989E+02 -0.31924616131E+02  0.47787273166E+02  0.20000009673E+02 0.  0.
        -12    1    1    2    0    0  0.12480118841E+02 -0.26621205989E+02  0.31924616131E+02  0.43400726834E+02  0.00000000000E+00 0.  1.
         11    1    3    3    0    0 -0.18459811655E+01 -0.88699850957E+00 -0.29556952300E+01  0.35959070306E+01  0.51100000000E-03 0.  1.
        -11    1    3    3    0    0 -0.83359803127E+01  0.15796393532E+02 -0.26573483243E+02  0.32018192147E+02  0.51100000000E-03 0. -1.
        -12    1    3    3    0    0 -0.22981573625E+01  0.11711810967E+02 -0.23954376576E+01  0.12173173989E+02  0.00000000000E+00 0.  1.
</event>
<event>
 7    1  0.2458979E-009  0.4778727E+02  0.7816164E-02  0.1312668E+00
        -11   -1    0    0    0    0  0.00000000000E+00  0.00000000000E+00  0.45593999997E+02  0.45594000000E+02  0.51100000000E-03 0.  1.
         11   -1    0    0    0    0 -0.00000000000E+00 -0.00000000000E+00 -0.45593999997E+02  0.45594000000E+02  0.51100000000E-03 0. -1.
    9900012    2    1    2    0    0  0.37474863151E+02  0.19912891817E+02 -0.90958728599E+01  0.47787268073E+02  0.19999986454E+02 0.  0.
        -12    1    1    2    0    0 -0.37474863151E+02 -0.19912891817E+02  0.90958728599E+01  0.43400731927E+02  0.00000000000E+00 0.  1.
         11    1    3    3    0    0  0.27909387652E+02  0.11239209015E+02  0.24296115162E+01  0.30185373126E+02  0.51100000000E-03 0. -1.
        -11    1    3    3    0    0  0.68962218852E+01  0.79295751211E+01 -0.86798279147E+01  0.13629946837E+02  0.51100000000E-03 0.  1.
         12    1    3    3    0    0  0.26692536134E+01  0.74410768126E+00 -0.28456564614E+01  0.39719481102E+01  0.00000000000E+00 0. -1.
</event>
<event>
 7    1  0.2458979E-009  0.4778728E+02  0.7816164E-02  0.1312668E+00
        -11   -1    0    0    0    0  0.00000000000E+00  0.00000000000E+00  0.45593999997E+02  0.45594000000E+02  0.51100000000E-03 0. -1.
         11   -1    0    0    0    0 -0.00000000000E+00 -0.00000000000E+00 -0.45593999997E+02  0.45594000000E+02  0.51100000000E-03 0.  1.
    9900012    2    1    2    0    0 -0.12352876960E+02 -0.39939723295E+02  0.11655371519E+02  0.47787277064E+02  0.20000027447E+02 0.  0.
        -12    1    1    2    0    0  0.12352876960E+02  0.39939723295E+02 -0.11655371519E+02  0.43400722936E+02  0.00000000000E+00 0.  1.
         11    1    3    3    0    0 -0.39450266116E+00  0.70456715795E+00  0.20385491928E+01  0.21926537124E+01  0.51100000000E-03 0. -1.
        -11    1    3    3    0    0 -0.13222113018E+02 -0.29392683389E+02  0.27364860084E+01  0.32345671509E+02  0.51100000000E-03 0.  1.
        -12    1    3    3    0    0  0.12637387195E+01 -0.11251607065E+02  0.68803363178E+01  0.13248951843E+02  0.00000000000E+00 0.  1.
</event>
<event>
 7    1  0.2458979E-009  0.4778727E+02  0.7816164E-02  0.1312668E+00
        -11   -1    0    0    0    0  0.00000000000E+00  0.00000000000E+00  0.45593999997E+02  0.45594000000E+02  0.51100000000E-03 0.  1.
         11   -1    0    0    0    0 -0.00000000000E+00 -0.00000000000E+00 -0.45593999997E+02  0.45594000000E+02  0.51100000000E-03 0. -1.
    9900012    2    1    2    0    0  0.66765038570E+01  0.35704814901E+02 -0.23753178207E+02  0.47787274363E+02  0.20000015129E+02 0.  0.
        -12    1    1    2    0    0 -0.66765038570E+01 -0.35704814901E+02  0.23753178207E+02  0.43400725637E+02  0.00000000000E+00 0.  1.
         11    1    3    3    0    0  0.12114585484E+01  0.24784298968E+02 -0.19496950541E+02  0.31557252539E+02  0.51100000000E-03 0. -1.
        -11    1    3    3    0    0  0.69283194287E+01  0.29675202648E+01 -0.14859895199E+01  0.76821840477E+01  0.51100000000E-03 0.  1.
        -12    1    3    3    0    0 -0.14632741201E+01  0.79529956687E+01 -0.27702381459E+01  0.85478377758E+01  0.00000000000E+00 0.  1.
</event>
<event>
 7    1  0.2458979E-009  0.4778727E+02  0.7816164E-02  0.1312668E+00
        -11   -1    0    0    0    0  0.00000000000E+00  0.00000000000E+00  0.45593999997E+02  0.45594000000E+02  0.51100000000E-03 0. -1.
         11   -1    0    0    0    0 -0.00000000000E+00 -0.00000000000E+00 -0.45593999997E+02  0.45594000000E+02  0.51100000000E-03 0.  1.
    9900012    2    1    2    0    0 -0.31130611201E+02 -0.18709734790E+02  0.23758241375E+02  0.47787272323E+02  0.20000005828E+02 0.  0.
        -12    1    1    2    0    0  0.31130611201E+02  0.18709734790E+02 -0.23758241375E+02  0.43400727677E+02  0.00000000000E+00 0.  1.
         11    1    3    3    0    0 -0.46007440557E+01 -0.14162724172E+01  0.12023590187E+02  0.12951424426E+02  0.51100000000E-03 0. -1.
        -11    1    3    3    0    0 -0.17823797881E+02 -0.15845648099E+02  0.98967204181E+01  0.25820871594E+02  0.51100000000E-03 0.  1.
        -12    1    3    3    0    0 -0.87060692642E+01 -0.14478142733E+01  0.18379307703E+01  0.90149763017E+01  0.00000000000E+00 0.  1.
</event>
<event>
 7    1  0.2458979E-009  0.4778727E+02  0.7816164E-02  0.1312668E+00
        -11   -1    0    0    0    0  0.00000000000E+00  0.00000000000E+00  0.45593999997E+02  0.45594000000E+02  0.51100000000E-03 0.  1.
         11   -1    0    0    0    0 -0.00000000000E+00 -0.00000000000E+00 -0.45593999997E+02  0.45594000000E+02  0.51100000000E-03 0. -1.
    9900012    2    1    2    0    0  0.93318623133E+01  0.96424339060E+01 -0.41274242888E+02  0.47787270607E+02  0.19999998004E+02 0.  0.
        -12    1    1    2    0    0 -0.93318623133E+01 -0.96424339060E+01  0.41274242888E+02  0.43400729393E+02  0.00000000000E+00 0.  1.
         11    1    3    3    0    0 -0.23587956356E+01  0.50729790994E+01 -0.20836349229E+02  0.21574347806E+02  0.51100000000E-03 0. -1.
        -11    1    3    3    0    0  0.70028177270E+01  0.48964885120E+01 -0.46244016473E+01  0.97159737918E+01  0.51100000000E-03 0.  1.
        -12    1    3    3    0    0  0.46878402218E+01 -0.32703370541E+00 -0.15813492012E+02  0.16496949009E+02  0.00000000000E+00 0.  1.
</event>
<event>
 7    1  0.2458979E-009  0.4778727E+02  0.7816164E-02  0.1312668E+00
        -11   -1    0    0    0    0  0.00000000000E+00  0.00000000000E+00  0.45593999997E+02  0.45594000000E+02  0.51100000000E-03 0.  1.
         11   -1    0    0    0    0 -0.00000000000E+00 -0.00000000000E+00 -0.45593999997E+02  0.45594000000E+02  0.51100000000E-03 0. -1.
    9900012    2    1    2    0    0  0.34292230685E+02 -0.89508224244E+01 -0.25050926665E+02  0.47787271501E+02  0.20000002083E+02 0.  0.
        -12    1    1    2    0    0 -0.34292230685E+02  0.89508224244E+01  0.25050926665E+02  0.43400728499E+02  0.00000000000E+00 0.  1.
         11    1    3    3    0    0  0.25736425936E+02 -0.49156397718E+01 -0.11320802688E+02  0.28542734769E+02  0.51100000000E-03 0. -1.
        -11    1    3    3    0    0  0.44557473610E+01 -0.55346984622E+01 -0.13004433305E+02  0.14818969514E+02  0.51100000000E-03 0.  1.
        -12    1    3    3    0    0  0.41000573882E+01  0.14995158096E+01 -0.72569067176E+00  0.44255672180E+01  0.00000000000E+00 0.  1.
</event>
<event>
 7    1  0.2458979E-009  0.4778726E+02  0.7816164E-02  0.1312668E+00
        -11   -1    0    0    0    0  0.00000000000E+00  0.00000000000E+00  0.45593999997E+02  0.45594000000E+02  0.51100000000E-03 0.  1.
         11   -1    0    0    0    0 -0.00000000000E+00 -0.00000000000E+00 -0.45593999997E+02  0.45594000000E+02  0.51100000000E-03 0. -1.
    9900012    2    1    2    0    0 -0.39874320912E+01 -0.33815842828E+02 -0.26911205977E+02  0.47787264430E+02  0.19999969844E+02 0.  0.
        -12    1    1    2    0    0  0.39874320912E+01  0.33815842828E+02  0.26911205977E+02  0.43400735570E+02  0.00000000000E+00 0.  1.
         11    1    3    3    0    0 -0.67826034677E+01 -0.30482749144E+02 -0.20332500543E+02  0.37264088393E+02  0.51100000000E-03 0. -1.
        -11    1    3    3    0    0 -0.10701101909E+01 -0.23538629172E+00 -0.52935708112E+01  0.54057779015E+01  0.51100000000E-03 0.  1.
         12    1    3    3    0    0  0.38652815674E+01 -0.30977073920E+01 -0.12851346232E+01  0.51173981359E+01  0.00000000000E+00 0. -1.
</event>
<event>
 7    1  0.3094281E-009  0.4778727E+02  0.7816164E-02  0.1312668E+00
        -11   -1    0    0    0    0  0.00000000000E+00  0.00000000000E+00  0.45593999997E+02  0.45594000000E+02  0.51100000000E-03 0. -1.
         11   -1    0    0    0    0 -0.00000000000E+00 -0.00000000000E+00 -0.45593999997E+02  0.45594000000E+02  0.51100000000E-03 0.  1.
    9900012    2    1    2    0    0 -0.39777651621E+01 -0.12255782444E+02  0.41443895518E+02  0.47787270804E+02  0.19999998905E+02 0.  0.
        -12    1    1    2    0    0  0.39777651621E+01  0.12255782444E+02 -0.41443895518E+02  0.43400729196E+02  0.00000000000E+00 0.  1.
         11    1    3    3    0    0 -0.19698793330E+01 -0.11830132101E+02  0.28752008546E+02  0.31153016641E+02  0.51100000000E-03 0. -1.
        -11    1    3    3    0    0  0.26444307640E+01  0.36753251530E+01  0.58951803704E+01  0.74333156066E+01  0.51100000000E-03 0.  1.
        -12    1    3    3    0    0 -0.46523165932E+01 -0.41009754958E+01  0.67967066014E+01  0.92009385568E+01  0.00000000000E+00 0.  1.
</event>
<event>
 7    1  0.2458979E-009  0.4778727E+02  0.7816164E-02  0.1312668E+00
        -11   -1    0    0    0    0  0.00000000000E+00  0.00000000000E+00  0.45593999997E+02  0.45594000000E+02  0.51100000000E-03 0.  1.
         11   -1    0    0    0    0 -0.00000000000E+00 -0.00000000000E+00 -0.45593999997E+02  0.45594000000E+02  0.51100000000E-03 0. -1.
    9900012    2    1    2    0    0  0.49612582678E+01  0.15732824010E+02 -0.40143337286E+02  0.47787270013E+02  0.19999995296E+02 0.  0.
        -12    1    1    2    0    0 -0.49612582678E+01 -0.15732824010E+02  0.40143337286E+02  0.43400729987E+02  0.00000000000E+00 0.  1.
         11    1    3    3    0    0  0.27842964153E+01  0.97805134716E+01 -0.19265104371E+02  0.21784283256E+02  0.51100000000E-03 0. -1.
        -11    1    3    3    0    0 -0.13401115955E+00 -0.26324250774E+01 -0.15260510987E+02  0.15486472052E+02  0.51100000000E-03 0.  1.
        -12    1    3    3    0    0  0.23109730120E+01  0.85847356162E+01 -0.56177219288E+01  0.10516514705E+02  0.00000000000E+00 0.  1.
</event>
<event>
 7    1  0.2458979E-009  0.4778726E+02  0.7816164E-02  0.1312668E+00
        -11   -1    0    0    0    0  0.00000000000E+00  0.00000000000E+00  0.45593999997E+02  0.45594000000E+02  0.51100000000E-03 0.  1.
         11   -1    0    0    0    0 -0.00000000000E+00 -0.00000000000E+00 -0.45593999997E+02  0.45594000000E+02  0.51100000000E-03 0. -1.
    9900012    2    1    2    0    0 -0.23151097111E+01  0.11175771374E+02 -0.41873217502E+02  0.47787263338E+02  0.19999964864E+02 0.  0.
        -12    1    1    2    0    0  0.23151097111E+01 -0.11175771374E+02  0.41873217502E+02  0.43400736662E+02  0.00000000000E+00 0.  1.
         11    1    3    3    0    0  0.20744609266E+00  0.15328552010E+02 -0.36015795264E+02  0.39142624457E+02  0.51100000000E-03 0. -1.
        -11    1    3    3    0    0 -0.34231709103E+01 -0.18768729306E+01 -0.34140820532E+01  0.51862035832E+01  0.51100000000E-03 0.  1.
         12    1    3    3    0    0  0.90061510658E+00 -0.22759077050E+01 -0.24433401852E+01  0.34584352983E+01  0.00000000000E+00 0. -1.
</event>
<event>
 7    1  0.2458979E-009  0.4778727E+02  0.7816164E-02  0.1312668E+00
        -11   -1    0    0    0    0  0.00000000000E+00  0.00000000000E+00  0.45593999997E+02  0.45594000000E+02  0.51100000000E-03 0.  1.
         11   -1    0    0    0    0 -0.00000000000E+00 -0.00000000000E+00 -0.45593999997E+02  0.45594000000E+02  0.51100000000E-03 0. -1.
    9900012    2    1    2    0    0 -0.82317822265E+01 -0.81137705612E+00 -0.42605195502E+02  0.47787271260E+02  0.20000000985E+02 0.  0.
        -12    1    1    2    0    0  0.82317822265E+01  0.81137705612E+00  0.42605195502E+02  0.43400728740E+02  0.00000000000E+00 0.  1.
         11    1    3    3    0    0 -0.43619455589E+01 -0.56487158493E+01 -0.12512472394E+02  0.14404739688E+02  0.51100000000E-03 0. -1.
        -11    1    3    3    0    0  0.68995596472E+00  0.84504632685E+01 -0.15396158659E+02  0.17576349746E+02  0.51100000000E-03 0.  1.
        -12    1    3    3    0    0 -0.45597926324E+01 -0.36131244753E+01 -0.14696564449E+02  0.15806181826E+02  0.00000000000E+00 0.  1.
</event>
<event>
 7    1  0.2458979E-009  0.4778727E+02  0.7816164E-02  0.1312668E+00
        -11   -1    0    0    0    0  0.00000000000E+00  0.00000000000E+00  0.45593999997E+02  0.45594000000E+02  0.51100000000E-03 0.  1.
         11   -1    0    0    0    0 -0.00000000000E+00 -0.00000000000E+00 -0.45593999997E+02  0.45594000000E+02  0.51100000000E-03 0. -1.
    9900012    2    1    2    0    0 -0.10778683496E+02 -0.38788825634E+02 -0.16213284859E+02  0.47787267081E+02  0.19999981930E+02 0.  0.
        -12    1    1    2    0    0  0.10778683496E+02  0.38788825634E+02  0.16213284859E+02  0.43400732919E+02  0.00000000000E+00 0.  1.
         11    1    3    3    0    0 -0.13836481663E+02 -0.24514808528E+02 -0.11688786066E+02  0.30480350752E+02  0.51100000000E-03 0. -1.
        -11    1    3    3    0    0  0.35533251563E+01 -0.14648320733E+02 -0.55878108598E+01  0.16075541995E+02  0.51100000000E-03 0.  1.
        -12    1    3    3    0    0 -0.49552698847E+00  0.37430362723E+00  0.10633120662E+01  0.12313743346E+01  0.00000000000E+00 0.  1.
</event>
<event>
 7    1  0.2458979E-009  0.4778727E+02  0.7816164E-02  0.1312668E+00
        -11   -1    0    0    0    0  0.00000000000E+00  0.00000000000E+00  0.45593999997E+02  0.45594000000E+02  0.51100000000E-03 0. -1.
         11   -1    0    0    0    0 -0.00000000000E+00 -0.00000000000E+00 -0.45593999997E+02  0.45594000000E+02  0.51100000000E-03 0.  1.
    9900012    2    1    2    0    0 -0.33236631776E+02  0.19992173288E+02  0.19474665275E+02  0.47787271064E+02  0.20000000088E+02 0.  0.
        -12    1    1    2    0    0  0.33236631776E+02 -0.19992173288E+02 -0.19474665275E+02  0.43400728936E+02  0.00000000000E+00 0.  1.
         11    1    3    3    0    0 -0.27379216266E+01  0.50832917808E+01  0.18328203079E+01  0.60576646246E+01  0.51100000000E-03 0. -1.
        -11    1    3    3    0    0 -0.20060765286E+01  0.32615320188E+01 -0.28307264683E+01  0.47618217887E+01  0.51100000000E-03 0.  1.
        -12    1    3    3    0    0 -0.28492633621E+02  0.11647349489E+02  0.20472571435E+02  0.36967784650E+02  0.00000000000E+00 0.  1.
</event>
<event>
 7    1  0.2458979E-009  0.4778725E+02  0.7816164E-02  0.1312668E+00
        -11   -1    0    0    0    0  0.00000000000E+00  0.00000000000E+00  0.45593999997E+02  0.45594000000E+02  0.51100000000E-03 0.  1.
         11   -1    0    0    0    0 -0.00000000000E+00 -0.00000000000E+00 -0.45593999997E+02  0.45594000000E+02  0.51100000000E-03 0. -1.
    9900012    2    1    2    0    0 -0.14416196762E+02 -0.12548928040E+02 -0.38965657970E+02  0.47787253174E+02  0.19999918520E+02 0.  0.
        -12    1    1    2    0    0  0.14416196762E+02  0.12548928040E+02  0.38965657970E+02  0.43400746826E+02  0.00000000000E+00 0.  1.
         11    1    3    3    0    0 -0.14240701811E+02 -0.15829808632E+02 -0.27961033908E+02  0.35145410040E+02  0.51100000000E-03 0. -1.
        -11    1    3    3    0    0  0.19140729999E+01  0.14023014914E+01 -0.16912780493E+01  0.29138542556E+01  0.51100000000E-03 0.  1.
         12    1    3    3    0    0 -0.20895679510E+01  0.18785791007E+01 -0.93133460132E+01  0.97279888785E+01  0.00000000000E+00 0. -1.
</event>
<event>
 7    1  0.2458979E-009  0.4778727E+02  0.7816164E-02  0.1312668E+00
        -11   -1    0    0    0    0  0.00000000000E+00  0.00000000000E+00  0.45593999997E+02  0.45594000000E+02  0.51100000000E-03 0. -1.
         11   -1    0    0    0    0 -0.00000000000E+00 -0.00000000000E+00 -0.45593999997E+02  0.45594000000E+02  0.51100000000E-03 0.  1.
    9900012    2    1    2    0    0  0.33541835658E+02 -0.26138028872E+02  0.86817140696E+01  0.47787268994E+02  0.19999990652E+02 0.  0.
        -12    1    1    2    0    0 -0.33541835658E+02  0.26138028872E+02 -0.86817140696E+01  0.43400731006E+02  0.00000000000E+00 0.  1.
         11    1    3    3    0    0  0.38067571263E+01 -0.77844268947E+01  0.22387666955E+01  0.89499038249E+01  0.51100000000E-03 0. -1.
        -11    1    3    3    0    0  0.21569585137E+02 -0.17506053036E+02  0.10477905266E+02  0.29689988126E+02  0.51100000000E-03 0.  1.
        -12    1    3    3    0    0  0.81654933944E+01 -0.84754894165E+00 -0.40349578919E+01  0.91473770432E+01  0.00000000000E+00 0.  1.
</event>
<event>
 7    1  0.2458979E-009  0.4778725E+02  0.7816164E-02  0.1312668E+00
        -11   -1    0    0    0    0  0.00000000000E+00  0.00000000000E+00  0.45593999997E+02  0.45594000000E+02  0.51100000000E-03 0.  1.
         11   -1    0    0    0    0 -0.00000000000E+00 -0.00000000000E+00 -0.45593999997E+02  0.45594000000E+02  0.51100000000E-03 0. -1.
    9900012    2    1    2    0    0  0.16626956042E+02 -0.25629931524E+02 -0.30826547036E+02  0.47787250475E+02  0.19999906215E+02 0.  0.
        -12    1    1    2    0    0 -0.16626956042E+02  0.25629931524E+02  0.30826547036E+02  0.43400749525E+02  0.00000000000E+00 0.  1.
         11    1    3    3    0    0  0.94309897284E+01 -0.61138322501E+01 -0.43903010770E+01  0.12066368793E+02  0.51100000000E-03 0. -1.
        -11    1    3    3    0    0  0.19782661553E+01 -0.17279938716E+02 -0.23758155250E+02  0.29444180412E+02  0.51100000000E-03 0.  1.
        -12    1    3    3    0    0  0.52177001581E+01 -0.22361605584E+01 -0.26780907089E+01  0.62767012696E+01  0.00000000000E+00 0.  1.
</event>
<event>
 7    1  0.2458979E-009  0.4778727E+02  0.7816164E-02  0.1312668E+00
        -11   -1    0    0    0    0  0.00000000000E+00  0.00000000000E+00  0.45593999997E+02  0.45594000000E+02  0.51100000000E-03 0.  1.
         11   -1    0    0    0    0 -0.00000000000E+00 -0.00000000000E+00 -0.45593999997E+02  0.45594000000E+02  0.51100000000E-03 0. -1.
    9900012    2    1    2    0    0 -0.39226914435E+02  0.48552311304E+01 -0.17924820503E+02  0.47787271026E+02  0.19999999915E+02 0.  0.
        -12    1    1    2    0    0  0.39226914435E+02 -0.48552311304E+01  0.17924820503E+02  0.43400728974E+02  0.00000000000E+00 0.  1.
         11    1    3    3    0    0 -0.44426559064E+01 -0.47029927215E+01 -0.71494720661E+01  0.96421098898E+01  0.51100000000E-03 0.  1.
        -11    1    3    3    0    0 -0.17188206754E+02  0.69185955923E+01 -0.31818271191E+01  0.18799612774E+02  0.51100000000E-03 0. -1.
        -12    1    3    3    0    0 -0.17596051775E+02  0.26396282596E+01 -0.75935213177E+01  0.19345548362E+02  0.00000000000E+00 0.  1.
</event>
<event>
 7    1  0.2458979E-009  0.4778727E+02  0.7816164E-02  0.1312668E+00
        -11   -1    0    0    0    0  0.00000000000E+00  0.00000000000E+00  0.45593999997E+02  0.45594000000E+02  0.51100000000E-03 0. -1.
         11   -1    0    0    0    0 -0.00000000000E+00 -0.00000000000E+00 -0.45593999997E+02  0.45594000000E+02  0.51100000000E-03 0.  1.
    9900012    2    1    2    0    0  0.38733646455E+02 -0.22467455437E+01  0.19449429711E+02  0.47787267871E+02  0.19999985530E+02 0.  0.
        -12    1    1    2    0    0 -0.38733646455E+02  0.22467455437E+01 -0.19449429711E+02  0.43400732129E+02  0.00000000000E+00 0.  1.
         11    1    3    3    0    0  0.13726305571E+02  0.38077135511E+01  0.74793579564E+01  0.16088845291E+02  0.51100000000E-03 0. -1.
        -11    1    3    3    0    0  0.10568055158E+02 -0.89720139339E+01  0.93883272375E+01  0.16742804796E+02  0.51100000000E-03 0.  1.
        -12    1    3    3    0    0  0.14439285727E+02  0.29175548392E+01  0.25817445170E+01  0.14955617783E+02  0.00000000000E+00 0.  1.
</event>
<event>
 7    1  0.2458979E-009  0.4778726E+02  0.7816164E-02  0.1312668E+00
        -11   -1    0    0    0    0  0.00000000000E+00  0.00000000000E+00  0.45593999997E+02  0.45594000000E+02  0.51100000000E-03 0. -1.
         11   -1    0    0    0    0 -0.00000000000E+00 -0.00000000000E+00 -0.45593999997E+02  0.45594000000E+02  0.51100000000E-03 0.  1.
    9900012    2    1    2    0    0  0.42388355625E+02  0.69514395016E+01  0.62071835370E+01  0.47787258864E+02  0.19999944463E+02 0.  0.
        -12    1    1    2    0    0 -0.42388355625E+02 -0.69514395016E+01 -0.62071835370E+01  0.43400741136E+02  0.00000000000E+00 0.  1.
         11    1    3    3    0    0  0.26689862630E+01  0.42710731136E+01  0.33343538519E+01  0.60401547236E+01  0.51100000000E-03 0. -1.
        -11    1    3    3    0    0  0.63420634393E+01 -0.69647470270E+00  0.50382114314E+01  0.81296014889E+01  0.51100000000E-03 0.  1.
         12    1    3    3    0    0  0.33377305923E+02  0.33768410907E+01 -0.21653817463E+01  0.33617502651E+02  0.00000000000E+00 0. -1.
</event>
<event>
 7    1 -0.2151178E-008  0.4778727E+02  0.7816164E-02  0.1312668E+00
        -11   -1    0    0    0    0  0.00000000000E+00  0.00000000000E+00  0.45593999997E+02  0.45594000000E+02  0.51100000000E-03 0.  1.
         11   -1    0    0    0    0 -0.00000000000E+00 -0.00000000000E+00 -0.45593999997E+02  0.45594000000E+02  0.51100000000E-03 0. -1.
    9900012    2    1    2    0    0 -0.24336395339E+02 -0.85095136599E+01 -0.34913484294E+02  0.47787270210E+02  0.19999996194E+02 0.  0.
        -12    1    1    2    0    0  0.24336395339E+02  0.85095136599E+01  0.34913484294E+02  0.43400729790E+02  0.00000000000E+00 0.  1.
         11    1    3    3    0    0 -0.61467873433E+01 -0.31482784147E+01 -0.14691224342E+02  0.16233506231E+02  0.51100000000E-03 0. -1.
        -11    1    3    3    0    0 -0.46316559825E+01 -0.87408526801E+01 -0.57729644540E+01  0.11453465046E+02  0.51100000000E-03 0.  1.
        -12    1    3    3    0    0 -0.13557952013E+02  0.33796174349E+01 -0.14449295497E+02  0.20100298932E+02  0.00000000000E+00 0.  1.
</event>
<event>
 7    1  0.2458979E-009  0.4778727E+02  0.7816164E-02  0.1312668E+00
        -11   -1    0    0    0    0  0.00000000000E+00  0.00000000000E+00  0.45593999997E+02  0.45594000000E+02  0.51100000000E-03 0.  1.
         11   -1    0    0    0    0 -0.00000000000E+00 -0.00000000000E+00 -0.45593999997E+02  0.45594000000E+02  0.51100000000E-03 0. -1.
    9900012    2    1    2    0    0  0.26679054626E+01 -0.40885962747E+00 -0.43316722951E+02  0.47787269903E+02  0.19999994796E+02 0.  0.
        -12    1    1    2    0    0 -0.26679054626E+01  0.40885962747E+00  0.43316722951E+02  0.43400730097E+02  0.00000000000E+00 0.  1.
         11    1    3    3    0    0  0.40429543968E+01 -0.10015081987E+01 -0.28864383546E+02  0.29163352631E+02  0.51100000000E-03 0. -1.
        -11    1    3    3    0    0  0.56969905059E+00  0.44080008456E+01 -0.10679985177E+01  0.45711759492E+01  0.51100000000E-03 0.  1.
        -12    1    3    3    0    0 -0.19447479849E+01 -0.38153522743E+01 -0.13384340887E+02  0.14052741323E+02  0.00000000000E+00 0.  1.
</event>
<event>
 7    1  0.2458979E-009  0.4778727E+02  0.7816164E-02  0.1312668E+00
        -11   -1    0    0    0    0  0.00000000000E+00  0.00000000000E+00  0.45593999997E+02  0.45594000000E+02  0.51100000000E-03 0.  1.
         11   -1    0    0    0    0 -0.00000000000E+00 -0.00000000000E+00 -0.45593999997E+02  0.45594000000E+02  0.51100000000E-03 0. -1.
    9900012    2    1    2    0    0  0.12486315342E+02  0.16630588973E+02 -0.38093813640E+02  0.47787271918E+02  0.20000003982E+02 0.  0.
        -12    1    1    2    0    0 -0.12486315342E+02 -0.16630588973E+02  0.38093813640E+02  0.43400728082E+02  0.00000000000E+00 0.  1.
         11    1    3    3    0    0  0.68513734226E+01  0.47857768199E+01 -0.42897719666E+01  0.93939938968E+01  0.51100000000E-03 0. -1.
        -11    1    3    3    0    0  0.23167465087E+01  0.13024484576E+02 -0.31552160520E+02  0.34213204273E+02  0.51100000000E-03 0.  1.
        -12    1    3    3    0    0  0.33181954110E+01 -0.11796724230E+01 -0.22518811532E+01  0.41800737480E+01  0.00000000000E+00 0.  1.
</event>
<event>
 7    1  0.2458979E-009  0.4778727E+02  0.7816164E-02  0.1312668E+00
        -11   -1    0    0    0    0  0.00000000000E+00  0.00000000000E+00  0.45593999997E+02  0.45594000000E+02  0.51100000000E-03 0.  1.
         11   -1    0    0    0    0 -0.00000000000E+00 -0.00000000000E+00 -0.45593999997E+02  0.45594000000E+02  0.51100000000E-03 0. -1.
    9900012    2    1    2    0    0 -0.40610647463E+02  0.85114023100E+01 -0.12726143332E+02  0.47787269813E+02  0.19999994384E+02 0.  0.
        -12    1    1    2    0    0  0.40610647463E+02 -0.85114023100E+01  0.12726143332E+02  0.43400730187E+02  0.00000000000E+00 0.  1.
         11    1    3    3    0    0 -0.30846572941E+02  0.11922009614E+02 -0.12214701401E+02  0.35253997021E+02  0.51100000000E-03 0. -1.
        -11    1    3    3    0    0 -0.98301546285E+01 -0.49331824526E+01 -0.42232708925E+00  0.11006661145E+02  0.51100000000E-03 0.  1.
         12    1    3    3    0    0  0.66080105575E-01  0.15225751484E+01 -0.89114842233E-01  0.15266116461E+01  0.00000000000E+00 0. -1.
</event>
<event>
 7    1  0.2458979E-009  0.4778727E+02  0.7816164E-02  0.1312668E+00
        -11   -1    0    0    0    0  0.00000000000E+00  0.00000000000E+00  0.45593999997E+02  0.45594000000E+02  0.51100000000E-03 0. -1.
         11   -1    0    0    0    0 -0.00000000000E+00 -0.00000000000E+00 -0.45593999997E+02  0.45594000000E+02  0.51100000000E-03 0.  1.
    9900012    2    1    2    0    0  0.14882075333E+01  0.12476651466E+01  0.43357254400E+02  0.47787274902E+02  0.20000017586E+02 0.  0.
        -12    1    1    2    0    0 -0.14882075333E+01 -0.12476651466E+01 -0.43357254400E+02  0.43400725098E+02  0.00000000000E+00 0.  1.
         11    1    3    3    0    0 -0.37874045536E+01  0.30269076673E+01  0.50678792034E+01  0.70135585234E+01  0.51100000000E-03 0. -1.
        -11    1    3    3    0    0  0.46845060491E+01 -0.70681654348E+01  0.19938460297E+02  0.21666696998E+02  0.51100000000E-03 0.  1.
        -12    1    3    3    0    0  0.59110603782E+00  0.52889229141E+01  0.18350914899E+02  0.19107019380E+02  0.00000000000E+00 0.  1.
</event>
<event>
 7    1  0.2458979E-009  0.4778726E+02  0.7816164E-02  0.1312668E+00
        -11   -1    0    0    0    0  0.00000000000E+00  0.00000000000E+00  0.45593999997E+02  0.45594000000E+02  0.51100000000E-03 0. -1.
         11   -1    0    0    0    0 -0.00000000000E+00 -0.00000000000E+00 -0.45593999997E+02  0.45594000000E+02  0.51100000000E-03 0.  1.
    9900012    2    1    2    0    0 -0.34070792018E+02  0.16594164300E+02  0.21152751246E+02  0.47787262186E+02  0.19999959610E+02 0.  0.
        -12    1    1    2    0    0  0.34070792018E+02 -0.16594164300E+02 -0.21152751246E+02  0.43400737814E+02  0.00000000000E+00 0.  1.
         11    1    3    3    0    0 -0.14757711275E+02  0.58499531615E+01 -0.19880112715E+00  0.15876130392E+02  0.51100000000E-03 0. -1.
        -11    1    3    3    0    0  0.67080833668E+00  0.45289319238E+00 -0.12904607309E+00  0.81960308587E+00  0.51100000000E-03 0.  1.
         12    1    3    3    0    0 -0.19983889079E+02  0.10291317947E+02  0.21480598446E+02  0.31091528708E+02  0.00000000000E+00 0. -1.
</event>
<event>
 7    1  0.2458979E-009  0.4778727E+02  0.7816164E-02  0.1312668E+00
        -11   -1    0    0    0    0  0.00000000000E+00  0.00000000000E+00  0.45593999997E+02  0.45594000000E+02  0.51100000000E-03 0.  1.
         11   -1    0    0    0    0 -0.00000000000E+00 -0.00000000000E+00 -0.45593999997E+02  0.45594000000E+02  0.51100000000E-03 0. -1.
    9900012    2    1    2    0    0  0.24890775400E+01 -0.10609021782E+02 -0.42010430608E+02  0.47787272701E+02  0.20000007554E+02 0.  0.
        -12    1    1    2    0    0 -0.24890775400E+01  0.10609021782E+02  0.42010430608E+02  0.43400727299E+02  0.00000000000E+00 0.  1.
         11    1    3    3    0    0 -0.33361532911E+01  0.27007514106E+01 -0.18416485535E+02  0.18910074476E+02  0.51100000000E-03 0. -1.
        -11    1    3    3    0    0  0.46406499480E+01 -0.53438229522E+01 -0.51541184430E+01  0.87553990697E+01  0.51100000000E-03 0.  1.
        -12    1    3    3    0    0  0.11845808831E+01 -0.79659502407E+01 -0.18439826630E+02  0.20121799155E+02  0.00000000000E+00 0.  1.
</event>
<event>
 7    1  0.2458979E-009  0.4778727E+02  0.7816164E-02  0.1312668E+00
        -11   -1    0    0    0    0  0.00000000000E+00  0.00000000000E+00  0.45593999997E+02  0.45594000000E+02  0.51100000000E-03 0. -1.
         11   -1    0    0    0    0 -0.00000000000E+00 -0.00000000000E+00 -0.45593999997E+02  0.45594000000E+02  0.51100000000E-03 0.  1.
    9900012    2    1    2    0    0 -0.43222034041E+02 -0.26085897411E+01  0.29451967125E+01  0.47787272463E+02  0.20000006467E+02 0.  0.
        -12    1    1    2    0    0  0.43222034041E+02  0.26085897411E+01 -0.29451967125E+01  0.43400727537E+02  0.00000000000E+00 0.  1.
         11    1    3    3    0    0 -0.51588295472E+00 -0.14017342653E+01  0.37573177470E+00  0.15401846646E+01  0.51100000000E-03 0. -1.
        -11    1    3    3    0    0 -0.15488612786E+02 -0.56017665707E+01 -0.57561259159E+01  0.17447346519E+02  0.51100000000E-03 0.  1.
        -12    1    3    3    0    0 -0.27217538300E+02  0.43949110949E+01  0.83255908537E+01  0.28799741279E+02  0.00000000000E+00 0.  1.
</event>
<event>
 7    1  0.2458979E-009  0.4778727E+02  0.7816164E-02  0.1312668E+00
        -11   -1    0    0    0    0  0.00000000000E+00  0.00000000000E+00  0.45593999997E+02  0.45594000000E+02  0.51100000000E-03 0.  1.
         11   -1    0    0    0    0 -0.00000000000E+00 -0.00000000000E+00 -0.45593999997E+02  0.45594000000E+02  0.51100000000E-03 0. -1.
    9900012    2    1    2    0    0 -0.32837845971E+02  0.22356060841E+02 -0.17478720098E+02  0.47787271428E+02  0.20000001747E+02 0.  0.
        -12    1    1    2    0    0  0.32837845971E+02 -0.22356060841E+02  0.17478720098E+02  0.43400728572E+02  0.00000000000E+00 0.  1.
         11    1    3    3    0    0 -0.40497201406E+01  0.39496807845E+01 -0.70835473632E+01  0.90651450636E+01  0.51100000000E-03 0. -1.
        -11    1    3    3    0    0 -0.19824908510E+02  0.13488127405E+02  0.22658719620E+00  0.23979322767E+02  0.51100000000E-03 0.  1.
        -12    1    3    3    0    0 -0.89632173206E+01  0.49182526516E+01 -0.10621759931E+02  0.14742803597E+02  0.00000000000E+00 0.  1.
</event>
<event>
 7    1  0.2458979E-009  0.4778727E+02  0.7816164E-02  0.1312668E+00
        -11   -1    0    0    0    0  0.00000000000E+00  0.00000000000E+00  0.45593999997E+02  0.45594000000E+02  0.51100000000E-03 0.  1.
         11   -1    0    0    0    0 -0.00000000000E+00 -0.00000000000E+00 -0.45593999997E+02  0.45594000000E+02  0.51100000000E-03 0. -1.
    9900012    2    1    2    0    0  0.18089175142E+01 -0.37381467577E+01 -0.43201588309E+02  0.47787272400E+02  0.20000006181E+02 0.  0.
        -12    1    1    2    0    0 -0.18089175142E+01  0.37381467577E+01  0.43201588309E+02  0.43400727600E+02  0.00000000000E+00 0.  1.
         11    1    3    3    0    0 -0.22150878937E+01  0.47212050591E+01 -0.16855586830E+02  0.17643899774E+02  0.51100000000E-03 0. -1.
        -11    1    3    3    0    0  0.72772547951E+01 -0.51349919223E+01 -0.11260496964E+02  0.14357066954E+02  0.51100000000E-03 0.  1.
         12    1    3    3    0    0 -0.32532493871E+01 -0.33243598945E+01 -0.15085504515E+02  0.15786305672E+02  0.00000000000E+00 0. -1.
</event>
<event>
 7    1  0.2458979E-009  0.4778727E+02  0.7816164E-02  0.1312668E+00
        -11   -1    0    0    0    0  0.00000000000E+00  0.00000000000E+00  0.45593999997E+02  0.45594000000E+02  0.51100000000E-03 0.  1.
         11   -1    0    0    0    0 -0.00000000000E+00 -0.00000000000E+00 -0.45593999997E+02  0.45594000000E+02  0.51100000000E-03 0. -1.
    9900012    2    1    2    0    0 -0.35434282857E+02  0.37141143063E+01 -0.24783877797E+02  0.47787266765E+02  0.19999980488E+02 0.  0.
        -12    1    1    2    0    0  0.35434282857E+02 -0.37141143063E+01  0.24783877797E+02  0.43400733235E+02  0.00000000000E+00 0.  1.
         11    1    3    3    0    0 -0.10296455282E+02  0.60004584626E+01 -0.14751058618E+01  0.12008265099E+02  0.51100000000E-03 0.  1.
        -11    1    3    3    0    0 -0.18483698401E+02  0.23787438892E+01 -0.18860859901E+02  0.26514855563E+02  0.51100000000E-03 0. -1.
         12    1    3    3    0    0 -0.66541291746E+01 -0.46650880455E+01 -0.44479120340E+01  0.92641461024E+01  0.00000000000E+00 0. -1.
</event>
<event>
 7    1  0.2458979E-009  0.4778727E+02  0.7816164E-02  0.1312668E+00
        -11   -1    0    0    0    0  0.00000000000E+00  0.00000000000E+00  0.45593999997E+02  0.45594000000E+02  0.51100000000E-03 0.  1.
         11   -1    0    0    0    0 -0.00000000000E+00 -0.00000000000E+00 -0.45593999997E+02  0.45594000000E+02  0.51100000000E-03 0. -1.
    9900012    2    1    2    0    0  0.23425665910E+02 -0.27724571099E+02 -0.23795163085E+02  0.47787268991E+02  0.19999990635E+02 0.  0.
        -12    1    1    2    0    0 -0.23425665910E+02  0.27724571099E+02  0.23795163085E+02  0.43400731009E+02  0.00000000000E+00 0.  1.
         11    1    3    3    0    0  0.19740434590E+02 -0.27947419993E+02 -0.22448485979E+02  0.40922824500E+02  0.51100000000E-03 0. -1.
        -11    1    3    3    0    0  0.39120227175E+01 -0.73007204034E+00  0.11830533344E+01  0.41516915082E+01  0.51100000000E-03 0.  1.
        -12    1    3    3    0    0 -0.22679139770E+00  0.95292093408E+00 -0.25297304398E+01  0.27127529822E+01  0.00000000000E+00 0.  1.
</event>
<event>
 7    1  0.2458979E-009  0.4778727E+02  0.7816164E-02  0.1312668E+00
        -11   -1    0    0    0    0  0.00000000000E+00  0.00000000000E+00  0.45593999997E+02  0.45594000000E+02  0.51100000000E-03 0.  1.
         11   -1    0    0    0    0 -0.00000000000E+00 -0.00000000000E+00 -0.45593999997E+02  0.45594000000E+02  0.51100000000E-03 0. -1.
    9900012    2    1    2    0    0  0.29055541025E+02 -0.31901559687E+02 -0.46571899470E+01  0.47787269673E+02  0.19999993747E+02 0.  0.
        -12    1    1    2    0    0 -0.29055541025E+02  0.31901559687E+02  0.46571899470E+01  0.43400730327E+02  0.00000000000E+00 0.  1.
         11    1    3    3    0    0  0.11537780043E+02 -0.22869520710E+02  0.12940515344E+01  0.25647805275E+02  0.51100000000E-03 0. -1.
        -11    1    3    3    0    0  0.14769549838E+02 -0.54288365681E+01 -0.15325815264E+01  0.15810144695E+02  0.51100000000E-03 0.  1.
        -12    1    3    3    0    0  0.27482111450E+01 -0.36032024090E+01 -0.44186599550E+01  0.63293197024E+01  0.00000000000E+00 0.  1.
</event>
<event>
 7    1  0.2458979E-009  0.4778726E+02  0.7816164E-02  0.1312668E+00
        -11   -1    0    0    0    0  0.00000000000E+00  0.00000000000E+00  0.45593999997E+02  0.45594000000E+02  0.51100000000E-03 0. -1.
         11   -1    0    0    0    0 -0.00000000000E+00 -0.00000000000E+00 -0.45593999997E+02  0.45594000000E+02  0.51100000000E-03 0.  1.
    9900012    2    1    2    0    0 -0.42457986833E+02  0.18925117109E+00  0.89948667531E+01  0.47787261644E+02  0.19999957141E+02 0.  0.
        -12    1    1    2    0    0  0.42457986833E+02 -0.18925117109E+00 -0.89948667531E+01  0.43400738356E+02  0.00000000000E+00 0.  1.
         11    1    3    3    0    0 -0.18064585400E+02 -0.91800609490E+01  0.32027387135E+01  0.20514879971E+02  0.51100000000E-03 0. -1.
        -11    1    3    3    0    0 -0.20474809223E+02  0.58342819610E+01  0.54898654514E+01  0.21986252106E+02  0.51100000000E-03 0.  1.
         12    1    3    3    0    0 -0.39185922098E+01  0.35350301591E+01  0.30226258826E+00  0.52861295675E+01  0.00000000000E+00 0. -1.
</event>
<event>
 7    1  0.2458979E-009  0.4778728E+02  0.7816164E-02  0.1312668E+00
        -11   -1    0    0    0    0  0.00000000000E+00  0.00000000000E+00  0.45593999997E+02  0.45594000000E+02  0.51100000000E-03 0.  1.
         11   -1    0    0    0    0 -0.00000000000E+00 -0.00000000000E+00 -0.45593999997E+02  0.45594000000E+02  0.51100000000E-03 0. -1.
    9900012    2    1    2    0    0  0.30679346409E+02 -0.54414795267E+01 -0.30212429432E+02  0.47787275493E+02  0.20000020284E+02 0.  0.
        -12    1    1    2    0    0 -0.30679346409E+02  0.54414795267E+01  0.30212429432E+02  0.43400724507E+02  0.00000000000E+00 0.  1.
         11    1    3    3    0    0  0.41533890413E+00  0.20746690236E+01  0.10396361427E+01  0.23574565814E+01  0.51100000000E-03 0.  1.
        -11    1    3    3    0    0  0.18992526270E+02 -0.16141692347E+00 -0.22170156419E+02  0.29193457237E+02  0.51100000000E-03 0. -1.
        -12    1    3    3    0    0  0.11271481235E+02 -0.73547316268E+01 -0.90819091553E+01  0.16236361675E+02  0.00000000000E+00 0.  1.
</event>
<event>
 7    1  0.2458979E-009  0.4778727E+02  0.7816164E-02  0.1312668E+00
        -11   -1    0    0    0    0  0.00000000000E+00  0.00000000000E+00  0.45593999997E+02  0.45594000000E+02  0.51100000000E-03 0. -1.
         11   -1    0    0    0    0 -0.00000000000E+00 -0.00000000000E+00 -0.45593999997E+02  0.45594000000E+02  0.51100000000E-03 0.  1.
    9900012    2    1    2    0    0 -0.31118179896E+02 -0.25361552930E+02  0.16494654597E+02  0.47787272848E+02  0.20000008222E+02 0.  0.
        -12    1    1    2    0    0  0.31118179896E+02  0.25361552930E+02 -0.16494654597E+02  0.43400727152E+02  0.00000000000E+00 0.  1.
         11    1    3    3    0    0 -0.26198309471E+02 -0.22422008832E+02  0.99981757281E+01  0.35903501464E+02  0.51100000000E-03 0. -1.
        -11    1    3    3    0    0 -0.38621796562E+01 -0.14914850555E+01  0.83405411895E+01  0.93115834831E+01  0.51100000000E-03 0.  1.
         12    1    3    3    0    0 -0.10576907687E+01 -0.14480590424E+01 -0.18440623210E+01  0.25721879007E+01  0.00000000000E+00 0. -1.
</event>
<event>
 7    1  0.2458979E-009  0.4778727E+02  0.7816164E-02  0.1312668E+00
        -11   -1    0    0    0    0  0.00000000000E+00  0.00000000000E+00  0.45593999997E+02  0.45594000000E+02  0.51100000000E-03 0.  1.
         11   -1    0    0    0    0 -0.00000000000E+00 -0.00000000000E+00 -0.45593999997E+02  0.45594000000E+02  0.51100000000E-03 0. -1.
    9900012    2    1    2    0    0  0.31694010338E+02  0.21270687250E+02 -0.20656015146E+02  0.47787269717E+02  0.19999993946E+02 0.  0.
        -12    1    1    2    0    0 -0.31694010338E+02 -0.21270687250E+02  0.20656015146E+02  0.43400730283E+02  0.00000000000E+00 0.  1.
         11    1    3    3    0    0  0.21706710128E+02  0.78189775213E+01 -0.77048168223E+01  0.24324511847E+02  0.51100000000E-03 0.  1.
        -11    1    3    3    0    0  0.22654396992E+01 -0.13574880909E+01 -0.64932046209E+00  0.27196706181E+01  0.51100000000E-03 0. -1.
         12    1    3    3    0    0  0.77218605111E+01  0.14809197820E+02 -0.12301877861E+02  0.20743087252E+02  0.00000000000E+00 0. -1.
</event>
<event>
 7    1  0.2458979E-009  0.4778727E+02  0.7816164E-02  0.1312668E+00
        -11   -1    0    0    0    0  0.00000000000E+00  0.00000000000E+00  0.45593999997E+02  0.45594000000E+02  0.51100000000E-03 0.  1.
         11   -1    0    0    0    0 -0.00000000000E+00 -0.00000000000E+00 -0.45593999997E+02  0.45594000000E+02  0.51100000000E-03 0. -1.
    9900012    2    1    2    0    0  0.77539338724E+00  0.40873208984E+02 -0.14574054760E+02  0.47787268212E+02  0.19999987087E+02 0.  0.
        -12    1    1    2    0    0 -0.77539338724E+00 -0.40873208984E+02  0.14574054760E+02  0.43400731788E+02  0.00000000000E+00 0.  1.
         11    1    3    3    0    0 -0.36724778696E+01  0.87639207568E+00 -0.31922020698E+01  0.49442199677E+01  0.51100000000E-03 0. -1.
        -11    1    3    3    0    0 -0.11152566566E+01  0.15877828525E+01  0.89629447452E+00  0.21373338165E+01  0.51100000000E-03 0.  1.
         12    1    3    3    0    0  0.55631279135E+01  0.38409034056E+02 -0.12278147165E+02  0.40705714428E+02  0.00000000000E+00 0. -1.
</event>
<event>
 7    1  0.2458979E-009  0.4778727E+02  0.7816164E-02  0.1312668E+00
        -11   -1    0    0    0    0  0.00000000000E+00  0.00000000000E+00  0.45593999997E+02  0.45594000000E+02  0.51100000000E-03 0. -1.
         11   -1    0    0    0    0 -0.00000000000E+00 -0.00000000000E+00 -0.45593999997E+02  0.45594000000E+02  0.51100000000E-03 0.  1.
    9900012    2    1    2    0    0  0.14026833379E+02 -0.43230350086E+01  0.40843393778E+02  0.47787268420E+02  0.19999988036E+02 0.  0.
        -12    1    1    2    0    0 -0.14026833379E+02  0.43230350086E+01 -0.40843393778E+02  0.43400731580E+02  0.00000000000E+00 0.  1.
         11    1    3    3    0    0  0.46223080584E+01 -0.25171914470E+01  0.12649086177E+02  0.13700414809E+02  0.51100000000E-03 0. -1.
        -11    1    3    3    0    0  0.12193033981E+02 -0.84470035983E+00  0.10395306339E+02  0.16045123574E+02  0.51100000000E-03 0.  1.
        -12    1    3    3    0    0 -0.27885086608E+01 -0.96114320175E+00  0.17799001262E+02  0.18041730037E+02  0.00000000000E+00 0.  1.
</event>
<event>
 7    1  0.2458979E-009  0.4778727E+02  0.7816164E-02  0.1312668E+00
        -11   -1    0    0    0    0  0.00000000000E+00  0.00000000000E+00  0.45593999997E+02  0.45594000000E+02  0.51100000000E-03 0.  1.
         11   -1    0    0    0    0 -0.00000000000E+00 -0.00000000000E+00 -0.45593999997E+02  0.45594000000E+02  0.51100000000E-03 0. -1.
    9900012    2    1    2    0    0  0.11608978070E+02 -0.41649946194E+02 -0.37599150741E+01  0.47787270154E+02  0.19999995940E+02 0.  0.
        -12    1    1    2    0    0 -0.11608978070E+02  0.41649946194E+02  0.37599150741E+01  0.43400729846E+02  0.00000000000E+00 0.  1.
         11    1    3    3    0    0 -0.67850778862E+00 -0.17960378397E+02 -0.24481527811E+01  0.18139157017E+02  0.51100000000E-03 0. -1.
        -11    1    3    3    0    0  0.12690362484E+02 -0.19942622408E+02 -0.52322138956E+01  0.24210112577E+02  0.51100000000E-03 0.  1.
        -12    1    3    3    0    0 -0.40287662541E+00 -0.37469453889E+01  0.39204516025E+01  0.54380005600E+01  0.00000000000E+00 0.  1.
</event>
<event>
 7    1  0.2458979E-009  0.4778727E+02  0.7816164E-02  0.1312668E+00
        -11   -1    0    0    0    0  0.00000000000E+00  0.00000000000E+00  0.45593999997E+02  0.45594000000E+02  0.51100000000E-03 0. -1.
         11   -1    0    0    0    0 -0.00000000000E+00 -0.00000000000E+00 -0.45593999997E+02  0.45594000000E+02  0.51100000000E-03 0.  1.
    9900012    2    1    2    0    0 -0.29566688502E+02  0.29213235276E+02  0.12490841959E+02  0.47787270546E+02  0.19999997729E+02 0.  0.
        -12    1    1    2    0    0  0.29566688502E+02 -0.29213235276E+02 -0.12490841959E+02  0.43400729454E+02  0.00000000000E+00 0.  1.
         11    1    3    3    0    0 -0.22067175967E+01 -0.22022814241E+01  0.22595670894E+01  0.38503622836E+01  0.51100000000E-03 0. -1.
        -11    1    3    3    0    0 -0.32895614107E+00 -0.26978387002E+00 -0.75209161222E+00  0.86408190212E+00  0.51100000000E-03 0.  1.
         12    1    3    3    0    0 -0.27031014764E+02  0.31685300570E+02  0.10983366482E+02  0.43072826361E+02  0.00000000000E+00 0. -1.
</event>
<event>
 7    1  0.2458979E-009  0.4778728E+02  0.7816164E-02  0.1312668E+00
        -11   -1    0    0    0    0  0.00000000000E+00  0.00000000000E+00  0.45593999997E+02  0.45594000000E+02  0.51100000000E-03 0.  1.
         11   -1    0    0    0    0 -0.00000000000E+00 -0.00000000000E+00 -0.45593999997E+02  0.45594000000E+02  0.51100000000E-03 0. -1.
    9900012    2    1    2    0    0 -0.36785292077E+02 -0.15008489867E+02 -0.17470267205E+02  0.47787277454E+02  0.20000029222E+02 0.  0.
        -12    1    1    2    0    0  0.36785292077E+02  0.15008489867E+02  0.17470267205E+02  0.43400722546E+02  0.00000000000E+00 0.  1.
         11    1    3    3    0    0 -0.33050951928E+02 -0.13431828444E+02 -0.12031951441E+02  0.37650329274E+02  0.51100000000E-03 0. -1.
        -11    1    3    3    0    0 -0.84267006094E+00 -0.13025957064E+00 -0.66348440665E+01  0.66894107690E+01  0.51100000000E-03 0.  1.
         12    1    3    3    0    0 -0.28916700883E+01 -0.14464018524E+01  0.11965283021E+01  0.34475374104E+01  0.00000000000E+00 0. -1.
</event>
<event>
 7    1  0.2458979E-009  0.4778726E+02  0.7816164E-02  0.1312668E+00
        -11   -1    0    0    0    0  0.00000000000E+00  0.00000000000E+00  0.45593999997E+02  0.45594000000E+02  0.51100000000E-03 0.  1.
         11   -1    0    0    0    0 -0.00000000000E+00 -0.00000000000E+00 -0.45593999997E+02  0.45594000000E+02  0.51100000000E-03 0. -1.
    9900012    2    1    2    0    0  0.12366091420E+02 -0.14987185804E+01 -0.41574726211E+02  0.47787259984E+02  0.19999949572E+02 0.  0.
        -12    1    1    2    0    0 -0.12366091420E+02  0.14987185804E+01  0.41574726211E+02  0.43400740016E+02  0.00000000000E+00 0.  1.
         11    1    3    3    0    0  0.42714448629E+01 -0.42086984392E+01 -0.31161668604E+02  0.31733388950E+02  0.51100000000E-03 0. -1.
        -11    1    3    3    0    0  0.13732095622E+01 -0.87787488741E+00 -0.78467032744E+01  0.80141825133E+01  0.51100000000E-03 0.  1.
         12    1    3    3    0    0  0.67214369951E+01  0.35878547461E+01 -0.25663543324E+01  0.80396885212E+01  0.00000000000E+00 0. -1.
</event>
<event>
 7    1  0.2458979E-009  0.4778727E+02  0.7816164E-02  0.1312668E+00
        -11   -1    0    0    0    0  0.00000000000E+00  0.00000000000E+00  0.45593999997E+02  0.45594000000E+02  0.51100000000E-03 0.  1.
         11   -1    0    0    0    0 -0.00000000000E+00 -0.00000000000E+00 -0.45593999997E+02  0.45594000000E+02  0.51100000000E-03 0. -1.
    9900012    2    1    2    0    0 -0.35114941866E+02  0.88857895140E+01 -0.23908300198E+02  0.47787271712E+02  0.20000003043E+02 0.  0.
        -12    1    1    2    0    0  0.35114941866E+02 -0.88857895140E+01  0.23908300198E+02  0.43400728288E+02  0.00000000000E+00 0.  1.
         11    1    3    3    0    0 -0.16053783955E+02  0.80731940000E+00 -0.20585630377E+02  0.26117885102E+02  0.51100000000E-03 0. -1.
        -11    1    3    3    0    0 -0.14362929736E+02  0.56875103723E+01 -0.18862788474E-01  0.15448038092E+02  0.51100000000E-03 0.  1.
        -12    1    3    3    0    0 -0.46982281756E+01  0.23909597417E+01 -0.33038070325E+01  0.62213485182E+01  0.00000000000E+00 0.  1.
</event>
<event>
 7    1  0.2458979E-009  0.4778727E+02  0.7816164E-02  0.1312668E+00
        -11   -1    0    0    0    0  0.00000000000E+00  0.00000000000E+00  0.45593999997E+02  0.45594000000E+02  0.51100000000E-03 0.  1.
         11   -1    0    0    0    0 -0.00000000000E+00 -0.00000000000E+00 -0.45593999997E+02  0.45594000000E+02  0.51100000000E-03 0. -1.
    9900012    2    1    2    0    0 -0.14615879326E+01 -0.32968161269E+02 -0.28188426850E+02  0.47787270686E+02  0.19999998364E+02 0.  0.
        -12    1    1    2    0    0  0.14615879326E+01  0.32968161269E+02  0.28188426850E+02  0.43400729314E+02  0.00000000000E+00 0.  1.
         11    1    3    3    0    0  0.48021289360E+01 -0.23501555035E+02 -0.17853169075E+02  0.29901825658E+02  0.51100000000E-03 0. -1.
        -11    1    3    3    0    0 -0.71802865556E+01 -0.81831806479E+01 -0.11566892711E+02  0.15884393844E+02  0.51100000000E-03 0.  1.
         12    1    3    3    0    0  0.91656968709E+00 -0.12834255859E+01  0.12316349358E+01  0.20010511839E+01  0.00000000000E+00 0. -1.
</event>
<event>
 7    1  0.2458979E-009  0.4778727E+02  0.7816164E-02  0.1312668E+00
        -11   -1    0    0    0    0  0.00000000000E+00  0.00000000000E+00  0.45593999997E+02  0.45594000000E+02  0.51100000000E-03 0. -1.
         11   -1    0    0    0    0 -0.00000000000E+00 -0.00000000000E+00 -0.45593999997E+02  0.45594000000E+02  0.51100000000E-03 0.  1.
    9900012    2    1    2    0    0  0.37212988837E+02 -0.19936160690E+02  0.10068073270E+02  0.47787272580E+02  0.20000007000E+02 0.  0.
        -12    1    1    2    0    0 -0.37212988837E+02  0.19936160690E+02 -0.10068073270E+02  0.43400727420E+02  0.00000000000E+00 0.  1.
         11    1    3    3    0    0  0.25937988313E+02 -0.69639837241E+01  0.25601061613E+01  0.26978332988E+02  0.51100000000E-03 0. -1.
        -11    1    3    3    0    0  0.45407952858E+01 -0.10512594914E+02  0.16888037911E+01  0.11575211970E+02  0.51100000000E-03 0.  1.
        -12    1    3    3    0    0  0.67342052383E+01 -0.24595820525E+01  0.58191633178E+01  0.92337276213E+01  0.00000000000E+00 0.  1.
</event>
<event>
 7    1  0.2458979E-009  0.4778727E+02  0.7816164E-02  0.1312668E+00
        -11   -1    0    0    0    0  0.00000000000E+00  0.00000000000E+00  0.45593999997E+02  0.45594000000E+02  0.51100000000E-03 0.  1.
         11   -1    0    0    0    0 -0.00000000000E+00 -0.00000000000E+00 -0.45593999997E+02  0.45594000000E+02  0.51100000000E-03 0. -1.
    9900012    2    1    2    0    0  0.13882192184E+02 -0.29026468067E+02 -0.29126827257E+02  0.47787272191E+02  0.20000005230E+02 0.  0.
        -12    1    1    2    0    0 -0.13882192184E+02  0.29026468067E+02  0.29126827257E+02  0.43400727809E+02  0.00000000000E+00 0.  1.
         11    1    3    3    0    0 -0.20971894162E+01 -0.69577499584E+01 -0.14353439152E+02  0.16088185220E+02  0.51100000000E-03 0. -1.
        -11    1    3    3    0    0  0.66244432477E+01 -0.12793317502E+02 -0.48328234970E+01  0.15195670576E+02  0.51100000000E-03 0.  1.
        -12    1    3    3    0    0  0.93549383520E+01 -0.92754006064E+01 -0.99405646084E+01  0.16503416395E+02  0.00000000000E+00 0.  1.
</event>
<event>
 7    1  0.2458979E-009  0.4778727E+02  0.7816164E-02  0.1312668E+00
        -11   -1    0    0    0    0  0.00000000000E+00  0.00000000000E+00  0.45593999997E+02  0.45594000000E+02  0.51100000000E-03 0.  1.
         11   -1    0    0    0    0 -0.00000000000E+00 -0.00000000000E+00 -0.45593999997E+02  0.45594000000E+02  0.51100000000E-03 0. -1.
    9900012    2    1    2    0    0 -0.18767857005E+02  0.31517569135E+01 -0.39005863751E+02  0.47787269186E+02  0.19999991529E+02 0.  0.
        -12    1    1    2    0    0  0.18767857005E+02 -0.31517569135E+01  0.39005863751E+02  0.43400730814E+02  0.00000000000E+00 0.  1.
         11    1    3    3    0    0 -0.13848108450E+02  0.15569832229E+00 -0.22424404718E+02  0.26356180999E+02  0.51100000000E-03 0. -1.
        -11    1    3    3    0    0 -0.84852413059E+01 -0.88151711260E-01 -0.81194792566E+01  0.11744489533E+02  0.51100000000E-03 0.  1.
         12    1    3    3    0    0  0.35654927516E+01  0.30842103025E+01 -0.84619797760E+01  0.96865986539E+01  0.00000000000E+00 0. -1.
</event>
<event>
 7    1  0.2458979E-009  0.4778727E+02  0.7816164E-02  0.1312668E+00
        -11   -1    0    0    0    0  0.00000000000E+00  0.00000000000E+00  0.45593999997E+02  0.45594000000E+02  0.51100000000E-03 0.  1.
         11   -1    0    0    0    0 -0.00000000000E+00 -0.00000000000E+00 -0.45593999997E+02  0.45594000000E+02  0.51100000000E-03 0. -1.
    9900012    2    1    2    0    0  0.31297825694E+02  0.18908926286E+01 -0.30008228090E+02  0.47787272803E+02  0.20000008019E+02 0.  0.
        -12    1    1    2    0    0 -0.31297825694E+02 -0.18908926286E+01  0.30008228090E+02  0.43400727197E+02  0.00000000000E+00 0.  1.
         11    1    3    3    0    0 -0.14690192766E+00 -0.39741757905E+00 -0.89366559072E+00  0.98901939195E+00  0.51100000000E-03 0. -1.
        -11    1    3    3    0    0  0.10317998588E+01 -0.30873133456E+01  0.12502331000E+01  0.34870041164E+01  0.51100000000E-03 0.  1.
        -12    1    3    3    0    0  0.30412927763E+02  0.53756235532E+01 -0.30364795600E+02  0.43311249295E+02  0.00000000000E+00 0.  1.
</event>
<event>
 7    1  0.2458979E-009  0.4778727E+02  0.7816164E-02  0.1312668E+00
        -11   -1    0    0    0    0  0.00000000000E+00  0.00000000000E+00  0.45593999997E+02  0.45594000000E+02  0.51100000000E-03 0.  1.
         11   -1    0    0    0    0 -0.00000000000E+00 -0.00000000000E+00 -0.45593999997E+02  0.45594000000E+02  0.51100000000E-03 0. -1.
    9900012    2    1    2    0    0 -0.11749673919E+02  0.91948917725E+01 -0.40755643247E+02  0.47787270416E+02  0.19999997136E+02 0.  0.
        -12    1    1    2    0    0  0.11749673919E+02 -0.91948917725E+01  0.40755643247E+02  0.43400729584E+02  0.00000000000E+00 0.  1.
         11    1    3    3    0    0 -0.16895337702E+02  0.39485940101E+01 -0.30967957658E+02  0.35497298946E+02  0.51100000000E-03 0. -1.
        -11    1    3    3    0    0  0.28541415625E+01  0.21147792526E+01 -0.46962527320E+01  0.58883958198E+01  0.51100000000E-03 0.  1.
         12    1    3    3    0    0  0.22915222207E+01  0.31315185099E+01 -0.50914328575E+01  0.64015756504E+01  0.00000000000E+00 0. -1.
</event>
<event>
 7    1  0.2458979E-009  0.4778727E+02  0.7816164E-02  0.1312668E+00
        -11   -1    0    0    0    0  0.00000000000E+00  0.00000000000E+00  0.45593999997E+02  0.45594000000E+02  0.51100000000E-03 0.  1.
         11   -1    0    0    0    0 -0.00000000000E+00 -0.00000000000E+00 -0.45593999997E+02  0.45594000000E+02  0.51100000000E-03 0. -1.
    9900012    2    1    2    0    0 -0.82093181976E+01 -0.17325535877E+02 -0.38936565921E+02  0.47787271153E+02  0.20000000495E+02 0.  0.
        -12    1    1    2    0    0  0.82093181976E+01  0.17325535877E+02  0.38936565921E+02  0.43400728847E+02  0.00000000000E+00 0.  1.
         11    1    3    3    0    0  0.25039529198E+01 -0.42577061010E+01 -0.14374935378E+02  0.15199888449E+02  0.51100000000E-03 0. -1.
        -11    1    3    3    0    0 -0.86165086340E+01 -0.13944613620E+02 -0.13329179322E+02  0.21127316245E+02  0.51100000000E-03 0.  1.
        -12    1    3    3    0    0 -0.20967624834E+01  0.87678384380E+00 -0.11232451221E+02  0.11460066459E+02  0.00000000000E+00 0.  1.
</event>
<event>
 7    1  0.2458979E-009  0.4778727E+02  0.7816164E-02  0.1312668E+00
        -11   -1    0    0    0    0  0.00000000000E+00  0.00000000000E+00  0.45593999997E+02  0.45594000000E+02  0.51100000000E-03 0.  1.
         11   -1    0    0    0    0 -0.00000000000E+00 -0.00000000000E+00 -0.45593999997E+02  0.45594000000E+02  0.51100000000E-03 0. -1.
    9900012    2    1    2    0    0  0.11714959923E+02  0.95794547856E+01 -0.40676981015E+02  0.47787273918E+02  0.20000013101E+02 0.  0.
        -12    1    1    2    0    0 -0.11714959923E+02 -0.95794547856E+01  0.40676981015E+02  0.43400726082E+02  0.00000000000E+00 0.  1.
         11    1    3    3    0    0  0.62882559455E+01  0.10506303980E+02 -0.23109401430E+02  0.26152801396E+02  0.51100000000E-03 0. -1.
        -11    1    3    3    0    0 -0.18629466827E+01 -0.99351931141E-02  0.66431833080E+00  0.19778746564E+01  0.51100000000E-03 0.  1.
        -12    1    3    3    0    0  0.72896506598E+01 -0.91691400170E+00 -0.18231897915E+02  0.19656597865E+02  0.00000000000E+00 0.  1.
</event>
<event>
 7    1  0.2458979E-009  0.4778726E+02  0.7816164E-02  0.1312668E+00
        -11   -1    0    0    0    0  0.00000000000E+00  0.00000000000E+00  0.45593999997E+02  0.45594000000E+02  0.51100000000E-03 0.  1.
         11   -1    0    0    0    0 -0.00000000000E+00 -0.00000000000E+00 -0.45593999997E+02  0.45594000000E+02  0.51100000000E-03 0. -1.
    9900012    2    1    2    0    0 -0.12056350715E+02 -0.38128689807E+02 -0.16866278844E+02  0.47787263359E+02  0.19999964959E+02 0.  0.
        -12    1    1    2    0    0  0.12056350715E+02  0.38128689807E+02  0.16866278844E+02  0.43400736641E+02  0.00000000000E+00 0.  1.
         11    1    3    3    0    0 -0.84634545105E+01 -0.27753751238E+02 -0.16293638336E+02  0.33277370998E+02  0.51100000000E-03 0. -1.
        -11    1    3    3    0    0  0.21296831734E+01 -0.40312606652E+01  0.27712274355E+01  0.53353832787E+01  0.51100000000E-03 0.  1.
         12    1    3    3    0    0 -0.57225793780E+01 -0.63436779031E+01 -0.33438679432E+01  0.91745090821E+01  0.00000000000E+00 0. -1.
</event>
<event>
 7    1  0.2458979E-009  0.4778727E+02  0.7816164E-02  0.1312668E+00
        -11   -1    0    0    0    0  0.00000000000E+00  0.00000000000E+00  0.45593999997E+02  0.45594000000E+02  0.51100000000E-03 0.  1.
         11   -1    0    0    0    0 -0.00000000000E+00 -0.00000000000E+00 -0.45593999997E+02  0.45594000000E+02  0.51100000000E-03 0. -1.
    9900012    2    1    2    0    0  0.81962659571E+01  0.15864880920E+02 -0.39556924332E+02  0.47787268614E+02  0.19999988917E+02 0.  0.
        -12    1    1    2    0    0 -0.81962659571E+01 -0.15864880920E+02  0.39556924332E+02  0.43400731386E+02  0.00000000000E+00 0.  1.
         11    1    3    3    0    0  0.99712961817E+01  0.13471780922E+02 -0.37481772253E+02  0.41058481221E+02  0.51100000000E-03 0. -1.
        -11    1    3    3    0    0 -0.77393379957E+00  0.81654133749E+00 -0.39352679841E+01  0.40929265385E+01  0.51100000000E-03 0.  1.
         12    1    3    3    0    0 -0.10010964249E+01  0.15765586605E+01  0.18601159043E+01  0.26358608536E+01  0.00000000000E+00 0. -1.
</event>
<event>
 7    1  0.2458979E-009  0.4778727E+02  0.7816164E-02  0.1312668E+00
        -11   -1    0    0    0    0  0.00000000000E+00  0.00000000000E+00  0.45593999997E+02  0.45594000000E+02  0.51100000000E-03 0.  1.
         11   -1    0    0    0    0 -0.00000000000E+00 -0.00000000000E+00 -0.45593999997E+02  0.45594000000E+02  0.51100000000E-03 0. -1.
    9900012    2    1    2    0    0 -0.20808873962E+02  0.31191227380E+02 -0.21856834703E+02  0.47787272768E+02  0.20000007859E+02 0.  0.
        -12    1    1    2    0    0  0.20808873962E+02 -0.31191227380E+02  0.21856834703E+02  0.43400727232E+02  0.00000000000E+00 0.  1.
         11    1    3    3    0    0 -0.19953893826E+02  0.23029975468E+02 -0.14712881219E+02  0.33837945016E+02  0.51100000000E-03 0. -1.
        -11    1    3    3    0    0  0.35934848144E+01  0.59129664636E+01 -0.49268833389E+01  0.84941441715E+01  0.51100000000E-03 0.  1.
        -12    1    3    3    0    0 -0.44484649504E+01  0.22482854482E+01 -0.22170701449E+01  0.54551835807E+01  0.00000000000E+00 0.  1.
</event>
<event>
 7    1  0.2458979E-009  0.4778727E+02  0.7816164E-02  0.1312668E+00
        -11   -1    0    0    0    0  0.00000000000E+00  0.00000000000E+00  0.45593999997E+02  0.45594000000E+02  0.51100000000E-03 0.  1.
         11   -1    0    0    0    0 -0.00000000000E+00 -0.00000000000E+00 -0.45593999997E+02  0.45594000000E+02  0.51100000000E-03 0. -1.
    9900012    2    1    2    0    0  0.11035052640E+01  0.43377065335E+02  0.91406538607E+00  0.47787273780E+02  0.20000012472E+02 0.  0.
        -12    1    1    2    0    0 -0.11035052640E+01 -0.43377065335E+02 -0.91406538607E+00  0.43400726220E+02  0.00000000000E+00 0.  1.
         11    1    3    3    0    0  0.61596208965E+01  0.10463798441E+02  0.53565230153E+01  0.13271184818E+02  0.51100000000E-03 0. -1.
        -11    1    3    3    0    0  0.97151590696E-01  0.78387503833E+01 -0.42489279153E+01  0.89167726614E+01  0.51100000000E-03 0.  1.
         12    1    3    3    0    0 -0.51532672231E+01  0.25074516510E+02 -0.19352971389E+00  0.25599316300E+02  0.00000000000E+00 0. -1.
</event>
<event>
 7    1  0.2458979E-009  0.4778727E+02  0.7816164E-02  0.1312668E+00
        -11   -1    0    0    0    0  0.00000000000E+00  0.00000000000E+00  0.45593999997E+02  0.45594000000E+02  0.51100000000E-03 0. -1.
         11   -1    0    0    0    0 -0.00000000000E+00 -0.00000000000E+00 -0.45593999997E+02  0.45594000000E+02  0.51100000000E-03 0.  1.
    9900012    2    1    2    0    0 -0.38597757121E+02 -0.15273854686E+02  0.12670672943E+02  0.47787269078E+02  0.19999991032E+02 0.  0.
        -12    1    1    2    0    0  0.38597757121E+02  0.15273854686E+02 -0.12670672943E+02  0.43400730922E+02  0.00000000000E+00 0.  1.
         11    1    3    3    0    0 -0.14856449828E+02  0.42184002213E+00  0.66671537384E+01  0.16289352035E+02  0.51100000000E-03 0. -1.
        -11    1    3    3    0    0 -0.74317223225E+01 -0.11698399366E+02  0.47822632782E+01  0.14661278482E+02  0.51100000000E-03 0.  1.
        -12    1    3    3    0    0 -0.16309584971E+02 -0.39972953425E+01  0.12212559266E+01  0.16836638561E+02  0.00000000000E+00 0.  1.
</event>
<event>
 7    1  0.2458979E-009  0.4778727E+02  0.7816164E-02  0.1312668E+00
        -11   -1    0    0    0    0  0.00000000000E+00  0.00000000000E+00  0.45593999997E+02  0.45594000000E+02  0.51100000000E-03 0.  1.
         11   -1    0    0    0    0 -0.00000000000E+00 -0.00000000000E+00 -0.45593999997E+02  0.45594000000E+02  0.51100000000E-03 0. -1.
    9900012    2    1    2    0    0 -0.30041374644E+02 -0.42359207327E+01 -0.31035399962E+02  0.47787271138E+02  0.20000000427E+02 0.  0.
        -12    1    1    2    0    0  0.30041374644E+02  0.42359207327E+01  0.31035399962E+02  0.43400728862E+02  0.00000000000E+00 0.  1.
         11    1    3    3    0    0 -0.26933700861E+01 -0.47502598796E+01 -0.12696386666E+02  0.13820906120E+02  0.51100000000E-03 0. -1.
        -11    1    3    3    0    0 -0.15641732660E+01  0.21639898355E+01 -0.25210591319E+01  0.36722240430E+01  0.51100000000E-03 0.  1.
        -12    1    3    3    0    0 -0.25783831292E+02 -0.16496506886E+01 -0.15817954164E+02  0.30294140975E+02  0.00000000000E+00 0.  1.
</event>
<event>
 7    1  0.2458979E-009  0.4778728E+02  0.7816164E-02  0.1312668E+00
        -11   -1    0    0    0    0  0.00000000000E+00  0.00000000000E+00  0.45593999997E+02  0.45594000000E+02  0.51100000000E-03 0.  1.
         11   -1    0    0    0    0 -0.00000000000E+00 -0.00000000000E+00 -0.45593999997E+02  0.45594000000E+02  0.51100000000E-03 0. -1.
    9900012    2    1    2    0    0 -0.74025859399E+01  0.28235139504E+02 -0.32118546942E+02  0.47787280662E+02  0.20000043850E+02 0.  0.
        -12    1    1    2    0    0  0.74025859399E+01 -0.28235139504E+02  0.32118546942E+02  0.43400719338E+02  0.00000000000E+00 0.  1.
         11    1    3    3    0    0 -0.64181509083E+01  0.23579033075E+01 -0.68031751086E+01  0.96454943320E+01  0.51100000000E-03 0. -1.
        -11    1    3    3    0    0  0.35452903058E+01  0.15112709263E+02 -0.19981513662E+02  0.25302647156E+02  0.51100000000E-03 0.  1.
        -12    1    3    3    0    0 -0.45297253375E+01  0.10764526933E+02 -0.53338581714E+01  0.12839139174E+02  0.00000000000E+00 0.  1.
</event>
<event>
 7    1  0.2458979E-009  0.4778727E+02  0.7816164E-02  0.1312668E+00
        -11   -1    0    0    0    0  0.00000000000E+00  0.00000000000E+00  0.45593999997E+02  0.45594000000E+02  0.51100000000E-03 0.  1.
         11   -1    0    0    0    0 -0.00000000000E+00 -0.00000000000E+00 -0.45593999997E+02  0.45594000000E+02  0.51100000000E-03 0. -1.
    9900012    2    1    2    0    0  0.30295132501E+02 -0.22396679189E+02 -0.21545695279E+02  0.47787271009E+02  0.19999999838E+02 0.  0.
        -12    1    1    2    0    0 -0.30295132501E+02  0.22396679189E+02  0.21545695279E+02  0.43400728991E+02  0.00000000000E+00 0.  1.
         11    1    3    3    0    0  0.19377917171E+02 -0.20043826200E+02 -0.15858705737E+02  0.32074244972E+02  0.51100000000E-03 0. -1.
        -11    1    3    3    0    0 -0.14195350881E+01  0.77855048568E+00 -0.17636737619E+01  0.23941107168E+01  0.51100000000E-03 0.  1.
        -12    1    3    3    0    0  0.12336750418E+02 -0.31314034740E+01 -0.39233157798E+01  0.13318915320E+02  0.00000000000E+00 0.  1.
</event>
<event>
 7    1  0.2458979E-009  0.4778727E+02  0.7816164E-02  0.1312668E+00
        -11   -1    0    0    0    0  0.00000000000E+00  0.00000000000E+00  0.45593999997E+02  0.45594000000E+02  0.51100000000E-03 0.  1.
         11   -1    0    0    0    0 -0.00000000000E+00 -0.00000000000E+00 -0.45593999997E+02  0.45594000000E+02  0.51100000000E-03 0. -1.
    9900012    2    1    2    0    0 -0.20126432733E+00  0.34946826734E+02 -0.25735232167E+02  0.47787269813E+02  0.19999994385E+02 0.  0.
        -12    1    1    2    0    0  0.20126432733E+00 -0.34946826734E+02  0.25735232167E+02  0.43400730187E+02  0.00000000000E+00 0.  1.
         11    1    3    3    0    0  0.81908215607E+01  0.17748424297E+02 -0.16217314141E+02  0.25398767707E+02  0.51100000000E-03 0. -1.
        -11    1    3    3    0    0 -0.70396776997E+01  0.73872495150E+01 -0.62166564320E+01  0.11948863334E+02  0.51100000000E-03 0.  1.
        -12    1    3    3    0    0 -0.13524081884E+01  0.98111529223E+01 -0.33012615940E+01  0.10439638772E+02  0.00000000000E+00 0.  1.
</event>
<event>
 7    1  0.2458979E-009  0.4778726E+02  0.7816164E-02  0.1312668E+00
        -11   -1    0    0    0    0  0.00000000000E+00  0.00000000000E+00  0.45593999997E+02  0.45594000000E+02  0.51100000000E-03 0.  1.
         11   -1    0    0    0    0 -0.00000000000E+00 -0.00000000000E+00 -0.45593999997E+02  0.45594000000E+02  0.51100000000E-03 0. -1.
    9900012    2    1    2    0    0 -0.28229760686E+01 -0.39091749831E+02 -0.18641077197E+02  0.47787264317E+02  0.19999969328E+02 0.  0.
        -12    1    1    2    0    0  0.28229760686E+01  0.39091749831E+02  0.18641077197E+02  0.43400735683E+02  0.00000000000E+00 0.  1.
         11    1    3    3    0    0 -0.82991982090E+01 -0.23143760413E+02 -0.18311321932E+02  0.30656399790E+02  0.51100000000E-03 0. -1.
        -11    1    3    3    0    0  0.20109884889E+01 -0.46075035370E+01  0.12166249766E+01  0.51723631099E+01  0.51100000000E-03 0.  1.
         12    1    3    3    0    0  0.34652336516E+01 -0.11340485881E+02 -0.15463802420E+01  0.11958501417E+02  0.00000000000E+00 0. -1.
</event>
<event>
 7    1  0.2458979E-009  0.4778727E+02  0.7816164E-02  0.1312668E+00
        -11   -1    0    0    0    0  0.00000000000E+00  0.00000000000E+00  0.45593999997E+02  0.45594000000E+02  0.51100000000E-03 0. -1.
         11   -1    0    0    0    0 -0.00000000000E+00 -0.00000000000E+00 -0.45593999997E+02  0.45594000000E+02  0.51100000000E-03 0.  1.
    9900012    2    1    2    0    0 -0.14778424623E+02  0.36618127572E+02 -0.18009279217E+02  0.47787271445E+02  0.20000001824E+02 0.  0.
        -12    1    1    2    0    0  0.14778424623E+02 -0.36618127572E+02  0.18009279217E+02  0.43400728555E+02  0.00000000000E+00 0.  1.
         11    1    3    3    0    0 -0.14591984375E+02  0.30058487341E+02 -0.13996604019E+02  0.36226283188E+02  0.51100000000E-03 0. -1.
        -11    1    3    3    0    0 -0.35325592183E-01 -0.40303475375E-01  0.23745756368E+01  0.23751804108E+01  0.51100000000E-03 0.  1.
         12    1    3    3    0    0 -0.15111465558E+00  0.65999437063E+01 -0.63872508342E+01  0.91858078461E+01  0.00000000000E+00 0. -1.
</event>
<event>
 7    1  0.2458979E-009  0.4778727E+02  0.7816164E-02  0.1312668E+00
        -11   -1    0    0    0    0  0.00000000000E+00  0.00000000000E+00  0.45593999997E+02  0.45594000000E+02  0.51100000000E-03 0. -1.
         11   -1    0    0    0    0 -0.00000000000E+00 -0.00000000000E+00 -0.45593999997E+02  0.45594000000E+02  0.51100000000E-03 0.  1.
    9900012    2    1    2    0    0  0.43149632093E+02  0.60959114527E+00 -0.46218046771E+01  0.47787269250E+02  0.19999991818E+02 0.  0.
        -12    1    1    2    0    0 -0.43149632093E+02 -0.60959114527E+00  0.46218046771E+01  0.43400730750E+02  0.00000000000E+00 0.  1.
         11    1    3    3    0    0  0.23452812128E+02  0.81634103363E+01 -0.35694345463E+01  0.25088175068E+02  0.51100000000E-03 0.  1.
        -11    1    3    3    0    0  0.19615158547E+02 -0.65567048793E+01 -0.26118804140E+01  0.20846264491E+02  0.51100000000E-03 0. -1.
         12    1    3    3    0    0  0.81661418996E-01 -0.99711431172E+00  0.15595102832E+01  0.18528296903E+01  0.00000000000E+00 0. -1.
</event>
<event>
 7    1  0.2458979E-009  0.4778727E+02  0.7816164E-02  0.1312668E+00
        -11   -1    0    0    0    0  0.00000000000E+00  0.00000000000E+00  0.45593999997E+02  0.45594000000E+02  0.51100000000E-03 0.  1.
         11   -1    0    0    0    0 -0.00000000000E+00 -0.00000000000E+00 -0.45593999997E+02  0.45594000000E+02  0.51100000000E-03 0. -1.
    9900012    2    1    2    0    0  0.41609040192E+02  0.12331333441E+02  0.49928948308E+00  0.47787270742E+02  0.19999998621E+02 0.  0.
        -12    1    1    2    0    0 -0.41609040192E+02 -0.12331333441E+02 -0.49928948308E+00  0.43400729258E+02  0.00000000000E+00 0.  1.
         11    1    3    3    0    0  0.35255586848E+02  0.10241017307E+02 -0.64158393949E+00  0.36718475863E+02  0.51100000000E-03 0. -1.
        -11    1    3    3    0    0  0.18784144517E+01 -0.28533917865E+01 -0.17056947834E+01  0.38183347804E+01  0.51100000000E-03 0.  1.
        -12    1    3    3    0    0  0.44750388922E+01  0.49437079207E+01  0.28465682060E+01  0.72504600987E+01  0.00000000000E+00 0.  1.
</event>
<event>
 7    1  0.2458979E-009  0.4778727E+02  0.7816164E-02  0.1312668E+00
        -11   -1    0    0    0    0  0.00000000000E+00  0.00000000000E+00  0.45593999997E+02  0.45594000000E+02  0.51100000000E-03 0.  1.
         11   -1    0    0    0    0 -0.00000000000E+00 -0.00000000000E+00 -0.45593999997E+02  0.45594000000E+02  0.51100000000E-03 0. -1.
    9900012    2    1    2    0    0  0.39889464057E+02  0.90465276308E+00  0.17077348228E+02  0.47787267726E+02  0.19999984871E+02 0.  0.
        -12    1    1    2    0    0 -0.39889464057E+02 -0.90465276308E+00 -0.17077348228E+02  0.43400732274E+02  0.00000000000E+00 0.  1.
         11    1    3    3    0    0  0.18227659401E+02 -0.15142839167E+01  0.55689630187E+01  0.19119465798E+02  0.51100000000E-03 0. -1.
        -11    1    3    3    0    0 -0.23501647482E-01  0.34572961049E+01  0.48564810294E+01  0.59614475536E+01  0.51100000000E-03 0.  1.
        -12    1    3    3    0    0  0.21685306303E+02 -0.10383594250E+01  0.66519041800E+01  0.22706354375E+02  0.00000000000E+00 0.  1.
</event>
<event>
 7    1  0.2458979E-009  0.4778728E+02  0.7816164E-02  0.1312668E+00
        -11   -1    0    0    0    0  0.00000000000E+00  0.00000000000E+00  0.45593999997E+02  0.45594000000E+02  0.51100000000E-03 0.  1.
         11   -1    0    0    0    0 -0.00000000000E+00 -0.00000000000E+00 -0.45593999997E+02  0.45594000000E+02  0.51100000000E-03 0. -1.
    9900012    2    1    2    0    0 -0.16112385647E+02 -0.19037768331E+02 -0.35518682960E+02  0.47787280726E+02  0.20000044142E+02 0.  0.
        -12    1    1    2    0    0  0.16112385647E+02  0.19037768331E+02  0.35518682960E+02  0.43400719274E+02  0.00000000000E+00 0.  1.
         11    1    3    3    0    0 -0.30079850944E+01 -0.15525685872E+01 -0.21183920038E+02  0.21452666780E+02  0.51100000000E-03 0. -1.
        -11    1    3    3    0    0 -0.10108938695E+02 -0.11923821103E+02 -0.88174870023E+01  0.17947596734E+02  0.51100000000E-03 0.  1.
         12    1    3    3    0    0 -0.29954618574E+01 -0.55613786410E+01 -0.55172759201E+01  0.83870172115E+01  0.00000000000E+00 0. -1.
</event>
<event>
 7    1  0.2458979E-009  0.4778727E+02  0.7816164E-02  0.1312668E+00
        -11   -1    0    0    0    0  0.00000000000E+00  0.00000000000E+00  0.45593999997E+02  0.45594000000E+02  0.51100000000E-03 0. -1.
         11   -1    0    0    0    0 -0.00000000000E+00 -0.00000000000E+00 -0.45593999997E+02  0.45594000000E+02  0.51100000000E-03 0.  1.
    9900012    2    1    2    0    0  0.12330546539E+02  0.29523883863E+02  0.29324408210E+02  0.47787274047E+02  0.20000013691E+02 0.  0.
        -12    1    1    2    0    0 -0.12330546539E+02 -0.29523883863E+02 -0.29324408210E+02  0.43400725953E+02  0.00000000000E+00 0.  1.
         11    1    3    3    0    0  0.71465437591E+01  0.98320171041E+01  0.80955381530E+01  0.14604087999E+02  0.51100000000E-03 0. -1.
        -11    1    3    3    0    0  0.63160950262E+01  0.12310619844E+01  0.26246781476E+01  0.69496406835E+01  0.51100000000E-03 0.  1.
        -12    1    3    3    0    0 -0.11320922464E+01  0.18460804775E+02  0.18604191910E+02  0.26233545365E+02  0.00000000000E+00 0.  1.
</event>
<event>
 7    1  0.2458979E-009  0.4778727E+02  0.7816164E-02  0.1312668E+00
        -11   -1    0    0    0    0  0.00000000000E+00  0.00000000000E+00  0.45593999997E+02  0.45594000000E+02  0.51100000000E-03 0.  1.
         11   -1    0    0    0    0 -0.00000000000E+00 -0.00000000000E+00 -0.45593999997E+02  0.45594000000E+02  0.51100000000E-03 0. -1.
    9900012    2    1    2    0    0  0.21885247730E+02  0.36160689675E+02 -0.98520922103E+01  0.47787271125E+02  0.20000000367E+02 0.  0.
        -12    1    1    2    0    0 -0.21885247730E+02 -0.36160689675E+02  0.98520922103E+01  0.43400728875E+02  0.00000000000E+00 0.  1.
         11    1    3    3    0    0  0.11445837040E+02  0.26697260149E+02 -0.10173182101E+02  0.30777337756E+02  0.51100000000E-03 0. -1.
        -11    1    3    3    0    0  0.41376697453E+01 -0.14291859906E+01 -0.45947751611E+00  0.44015910039E+01  0.51100000000E-03 0.  1.
        -12    1    3    3    0    0  0.63017409454E+01  0.10892615516E+02  0.78056740655E+00  0.12608342365E+02  0.00000000000E+00 0.  1.
</event>
<event>
 7    1  0.2458979E-009  0.4778727E+02  0.7816164E-02  0.1312668E+00
        -11   -1    0    0    0    0  0.00000000000E+00  0.00000000000E+00  0.45593999997E+02  0.45594000000E+02  0.51100000000E-03 0.  1.
         11   -1    0    0    0    0 -0.00000000000E+00 -0.00000000000E+00 -0.45593999997E+02  0.45594000000E+02  0.51100000000E-03 0. -1.
    9900012    2    1    2    0    0 -0.25993551971E+02 -0.25438516688E+02 -0.23682067272E+02  0.47787272061E+02  0.20000004637E+02 0.  0.
        -12    1    1    2    0    0  0.25993551971E+02  0.25438516688E+02  0.23682067272E+02  0.43400727939E+02  0.00000000000E+00 0.  1.
         11    1    3    3    0    0 -0.96162476904E+01 -0.16465663514E+02 -0.19074328979E+02  0.26970730818E+02  0.51100000000E-03 0. -1.
        -11    1    3    3    0    0 -0.60644726163E+01  0.63927783647E+00 -0.43211321111E+00  0.61133645691E+01  0.51100000000E-03 0.  1.
         12    1    3    3    0    0 -0.10312831664E+02 -0.96121310102E+01 -0.41756250816E+01  0.14703176674E+02  0.00000000000E+00 0. -1.
</event>
<event>
 7    1  0.2458979E-009  0.4778727E+02  0.7816164E-02  0.1312668E+00
        -11   -1    0    0    0    0  0.00000000000E+00  0.00000000000E+00  0.45593999997E+02  0.45594000000E+02  0.51100000000E-03 0.  1.
         11   -1    0    0    0    0 -0.00000000000E+00 -0.00000000000E+00 -0.45593999997E+02  0.45594000000E+02  0.51100000000E-03 0. -1.
    9900012    2    1    2    0    0 -0.22684238263E+02 -0.35954205068E+02 -0.87375201712E+01  0.47787265140E+02  0.19999973081E+02 0.  0.
        -12    1    1    2    0    0  0.22684238263E+02  0.35954205068E+02  0.87375201712E+01  0.43400734860E+02  0.00000000000E+00 0.  1.
         11    1    3    3    0    0 -0.60416218210E+01 -0.21755077976E+02  0.40441044747E+00  0.22582031797E+02  0.51100000000E-03 0. -1.
        -11    1    3    3    0    0 -0.12935228143E+02 -0.55472316708E+01 -0.53321760451E+01  0.15050714534E+02  0.51100000000E-03 0.  1.
        -12    1    3    3    0    0 -0.37073882980E+01 -0.86518954205E+01 -0.38097545736E+01  0.10154518810E+02  0.00000000000E+00 0.  1.
</event>
<event>
 7    1  0.2458979E-009  0.4778727E+02  0.7816164E-02  0.1312668E+00
        -11   -1    0    0    0    0  0.00000000000E+00  0.00000000000E+00  0.45593999997E+02  0.45594000000E+02  0.51100000000E-03 0.  1.
         11   -1    0    0    0    0 -0.00000000000E+00 -0.00000000000E+00 -0.45593999997E+02  0.45594000000E+02  0.51100000000E-03 0. -1.
    9900012    2    1    2    0    0 -0.19409333563E+02  0.22099321881E+02 -0.31914274268E+02  0.47787272368E+02  0.20000006033E+02 0.  0.
        -12    1    1    2    0    0  0.19409333563E+02 -0.22099321881E+02  0.31914274268E+02  0.43400727632E+02  0.00000000000E+00 0.  1.
         11    1    3    3    0    0 -0.87991118304E+01  0.84510385777E+01 -0.78091260554E+01  0.14485402033E+02  0.51100000000E-03 0. -1.
        -11    1    3    3    0    0  0.27529525625E+01  0.49474441096E+01 -0.12043002402E+02  0.13307511343E+02  0.51100000000E-03 0.  1.
        -12    1    3    3    0    0 -0.13363174295E+02  0.87008391940E+01 -0.12062145810E+02  0.19994358991E+02  0.00000000000E+00 0.  1.
</event>
<event>
 7    1  0.2458979E-009  0.4778729E+02  0.7816164E-02  0.1312668E+00
        -11   -1    0    0    0    0  0.00000000000E+00  0.00000000000E+00  0.45593999997E+02  0.45594000000E+02  0.51100000000E-03 0.  1.
         11   -1    0    0    0    0 -0.00000000000E+00 -0.00000000000E+00 -0.45593999997E+02  0.45594000000E+02  0.51100000000E-03 0. -1.
    9900012    2    1    2    0    0 -0.22055920601E+02 -0.21780940688E+02 -0.30376781491E+02  0.47787287281E+02  0.20000074028E+02 0.  0.
        -12    1    1    2    0    0  0.22055920601E+02  0.21780940688E+02  0.30376781491E+02  0.43400712719E+02  0.00000000000E+00 0.  1.
         11    1    3    3    0    0 -0.15310997160E+02 -0.88257451722E+01 -0.17371895882E+02  0.24781105275E+02  0.51100000000E-03 0. -1.
        -11    1    3    3    0    0  0.31670520435E+01 -0.62620884990E+01 -0.48679224504E+01  0.85405292729E+01  0.51100000000E-03 0.  1.
        -12    1    3    3    0    0 -0.99119754842E+01 -0.66931070169E+01 -0.81369631581E+01  0.14465652732E+02  0.00000000000E+00 0.  1.
</event>
<event>
 7    1  0.2458979E-009  0.4778730E+02  0.7816164E-02  0.1312668E+00
        -11   -1    0    0    0    0  0.00000000000E+00  0.00000000000E+00  0.45593999997E+02  0.45594000000E+02  0.51100000000E-03 0. -1.
         11   -1    0    0    0    0 -0.00000000000E+00 -0.00000000000E+00 -0.45593999997E+02  0.45594000000E+02  0.51100000000E-03 0.  1.
    9900012    2    1    2    0    0 -0.32065747155E+02 -0.24684642241E+02  0.15686854639E+02  0.47787295954E+02  0.20000113574E+02 0.  0.
        -12    1    1    2    0    0  0.32065747155E+02  0.24684642241E+02 -0.15686854639E+02  0.43400704046E+02  0.00000000000E+00 0.  1.
         11    1    3    3    0    0 -0.41847812157E+01 -0.80819866633E+01  0.11712673678E+02  0.14832991175E+02  0.51100000000E-03 0. -1.
        -11    1    3    3    0    0 -0.20368519380E+02 -0.11540590596E+02  0.10461692915E+01  0.23434083799E+02  0.51100000000E-03 0.  1.
         12    1    3    3    0    0 -0.75124465590E+01 -0.50620649819E+01  0.29280116700E+01  0.95202209808E+01  0.00000000000E+00 0. -1.
</event>
<event>
 7    1  0.2458979E-009  0.4778728E+02  0.7816164E-02  0.1312668E+00
        -11   -1    0    0    0    0  0.00000000000E+00  0.00000000000E+00  0.45593999997E+02  0.45594000000E+02  0.51100000000E-03 0.  1.
         11   -1    0    0    0    0 -0.00000000000E+00 -0.00000000000E+00 -0.45593999997E+02  0.45594000000E+02  0.51100000000E-03 0. -1.
    9900012    2    1    2    0    0  0.45020239798E+01 -0.36466030320E+02 -0.23099417162E+02  0.47787278112E+02  0.20000032224E+02 0.  0.
        -12    1    1    2    0    0 -0.45020239798E+01  0.36466030320E+02  0.23099417162E+02  0.43400721888E+02  0.00000000000E+00 0.  1.
         11    1    3    3    0    0  0.28341970342E+01 -0.80425820433E+01  0.25201345224E+01  0.88919557480E+01  0.51100000000E-03 0.  1.
        -11    1    3    3    0    0 -0.16434364379E+01 -0.20053883060E+02 -0.15871771137E+02  0.25627567742E+02  0.51100000000E-03 0. -1.
        -12    1    3    3    0    0  0.33112633835E+01 -0.83695652169E+01 -0.97477805471E+01  0.13267754622E+02  0.00000000000E+00 0.  1.
</event>
<event>
 7    1  0.2458979E-009  0.4778727E+02  0.7816164E-02  0.1312668E+00
        -11   -1    0    0    0    0  0.00000000000E+00  0.00000000000E+00  0.45593999997E+02  0.45594000000E+02  0.51100000000E-03 0.  1.
         11   -1    0    0    0    0 -0.00000000000E+00 -0.00000000000E+00 -0.45593999997E+02  0.45594000000E+02  0.51100000000E-03 0. -1.
    9900012    2    1    2    0    0 -0.26263996934E+02  0.18627075277E+01 -0.34501534005E+02  0.47787273474E+02  0.20000011079E+02 0.  0.
        -12    1    1    2    0    0  0.26263996934E+02 -0.18627075277E+01  0.34501534005E+02  0.43400726526E+02  0.00000000000E+00 0.  1.
         11    1    3    3    0    0 -0.10444531062E+02 -0.53716735638E+01 -0.60829143005E+01  0.13226675797E+02  0.51100000000E-03 0. -1.
        -11    1    3    3    0    0 -0.50756658983E+01  0.85395215518E+00 -0.16530945313E+02  0.17313687412E+02  0.51100000000E-03 0.  1.
         12    1    3    3    0    0 -0.10743799974E+02  0.63804289363E+01 -0.11887674391E+02  0.17246910266E+02  0.00000000000E+00 0. -1.
</event>
<event>
 7    1  0.2458979E-009  0.4778727E+02  0.7816164E-02  0.1312668E+00
        -11   -1    0    0    0    0  0.00000000000E+00  0.00000000000E+00  0.45593999997E+02  0.45594000000E+02  0.51100000000E-03 0. -1.
         11   -1    0    0    0    0 -0.00000000000E+00 -0.00000000000E+00 -0.45593999997E+02  0.45594000000E+02  0.51100000000E-03 0.  1.
    9900012    2    1    2    0    0 -0.36334739966E+02 -0.81456360418E+01 -0.22294809622E+02  0.47787271308E+02  0.20000001204E+02 0.  0.
        -12    1    1    2    0    0  0.36334739966E+02  0.81456360418E+01  0.22294809622E+02  0.43400728692E+02  0.00000000000E+00 0.  1.
         11    1    3    3    0    0 -0.24912186827E+02 -0.10133922915E+02 -0.16190560109E+02  0.31391841027E+02  0.51100000000E-03 0. -1.
        -11    1    3    3    0    0 -0.60089686116E+01 -0.27746506275E+01 -0.63616602373E+01  0.91802565931E+01  0.51100000000E-03 0.  1.
         12    1    3    3    0    0 -0.54135845273E+01  0.47629375011E+01  0.25741072484E+00  0.72151736885E+01  0.00000000000E+00 0. -1.
</event>
<event>
 7    1  0.2458979E-009  0.4778727E+02  0.7816164E-02  0.1312668E+00
        -11   -1    0    0    0    0  0.00000000000E+00  0.00000000000E+00  0.45593999997E+02  0.45594000000E+02  0.51100000000E-03 0.  1.
         11   -1    0    0    0    0 -0.00000000000E+00 -0.00000000000E+00 -0.45593999997E+02  0.45594000000E+02  0.51100000000E-03 0. -1.
    9900012    2    1    2    0    0 -0.17819396355E+02  0.95802606273E+01 -0.38396757159E+02  0.47787271429E+02  0.20000001756E+02 0.  0.
        -12    1    1    2    0    0  0.17819396355E+02 -0.95802606273E+01  0.38396757159E+02  0.43400728571E+02  0.00000000000E+00 0.  1.
         11    1    3    3    0    0 -0.95888661519E+01  0.25052248606E+00 -0.22133900729E+02  0.24122990638E+02  0.51100000000E-03 0. -1.
        -11    1    3    3    0    0 -0.78785719539E+01  0.57482584980E+01 -0.34329610781E+01  0.10339225978E+02  0.51100000000E-03 0.  1.
        -12    1    3    3    0    0 -0.35195824887E+00  0.35814796433E+01 -0.12829895352E+02  0.13325054814E+02  0.00000000000E+00 0.  1.
</event>
<event>
 7    1  0.2458979E-009  0.4778727E+02  0.7816164E-02  0.1312668E+00
        -11   -1    0    0    0    0  0.00000000000E+00  0.00000000000E+00  0.45593999997E+02  0.45594000000E+02  0.51100000000E-03 0.  1.
         11   -1    0    0    0    0 -0.00000000000E+00 -0.00000000000E+00 -0.45593999997E+02  0.45594000000E+02  0.51100000000E-03 0. -1.
    9900012    2    1    2    0    0 -0.37978686764E+02  0.20914688426E+02  0.19541071928E+01  0.47787269877E+02  0.19999994678E+02 0.  0.
        -12    1    1    2    0    0  0.37978686764E+02 -0.20914688426E+02 -0.19541071928E+01  0.43400730123E+02  0.00000000000E+00 0.  1.
         11    1    3    3    0    0 -0.66142860705E+01 -0.15739257123E+01  0.43037795714E+01  0.80466478257E+01  0.51100000000E-03 0. -1.
        -11    1    3    3    0    0 -0.95899439716E+01  0.30663091829E+01 -0.31567518051E+01  0.10551509826E+02  0.51100000000E-03 0.  1.
         12    1    3    3    0    0 -0.21774456722E+02  0.19422304956E+02  0.80707942658E+00  0.29189112226E+02  0.00000000000E+00 0. -1.
</event>
<event>
 7    1  0.2458979E-009  0.4778727E+02  0.7816164E-02  0.1312668E+00
        -11   -1    0    0    0    0  0.00000000000E+00  0.00000000000E+00  0.45593999997E+02  0.45594000000E+02  0.51100000000E-03 0.  1.
         11   -1    0    0    0    0 -0.00000000000E+00 -0.00000000000E+00 -0.45593999997E+02  0.45594000000E+02  0.51100000000E-03 0. -1.
    9900012    2    1    2    0    0  0.13367733764E+02  0.34994563347E+02 -0.21915913142E+02  0.47787273984E+02  0.20000013405E+02 0.  0.
        -12    1    1    2    0    0 -0.13367733764E+02 -0.34994563347E+02  0.21915913142E+02  0.43400726016E+02  0.00000000000E+00 0.  1.
         11    1    3    3    0    0  0.48721522423E+01  0.84761093965E+01 -0.26559404633E+01  0.10130958394E+02  0.51100000000E-03 0. -1.
        -11    1    3    3    0    0  0.58334248474E+01  0.59316437816E+01  0.13223323073E+01  0.84238830948E+01  0.51100000000E-03 0.  1.
        -12    1    3    3    0    0  0.26621566746E+01  0.20586810169E+02 -0.20582304986E+02  0.29232432496E+02  0.00000000000E+00 0.  1.
</event>
<event>
 7    1  0.2458979E-009  0.4778727E+02  0.7816164E-02  0.1312668E+00
        -11   -1    0    0    0    0  0.00000000000E+00  0.00000000000E+00  0.45593999997E+02  0.45594000000E+02  0.51100000000E-03 0.  1.
         11   -1    0    0    0    0 -0.00000000000E+00 -0.00000000000E+00 -0.45593999997E+02  0.45594000000E+02  0.51100000000E-03 0. -1.
    9900012    2    1    2    0    0  0.26107679386E+02  0.29795857387E+02 -0.17726230592E+02  0.47787270843E+02  0.19999999083E+02 0.  0.
        -12    1    1    2    0    0 -0.26107679386E+02 -0.29795857387E+02  0.17726230592E+02  0.43400729157E+02  0.00000000000E+00 0.  1.
         11    1    3    3    0    0  0.95236854155E+01  0.81784719533E+01 -0.90566073779E+01  0.15479345104E+02  0.51100000000E-03 0. -1.
        -11    1    3    3    0    0  0.60739128971E+01  0.19111514892E+02 -0.76197957656E+01  0.21452359011E+02  0.51100000000E-03 0.  1.
        -12    1    3    3    0    0  0.10510081073E+02  0.25058705417E+01 -0.10498274480E+01  0.10855566729E+02  0.00000000000E+00 0.  1.
</event>
<event>
 7    1  0.2458979E-009  0.4778727E+02  0.7816164E-02  0.1312668E+00
        -11   -1    0    0    0    0  0.00000000000E+00  0.00000000000E+00  0.45593999997E+02  0.45594000000E+02  0.51100000000E-03 0.  1.
         11   -1    0    0    0    0 -0.00000000000E+00 -0.00000000000E+00 -0.45593999997E+02  0.45594000000E+02  0.51100000000E-03 0. -1.
    9900012    2    1    2    0    0  0.39103118992E+02 -0.15220600352E+02  0.11086143714E+02  0.47787272213E+02  0.20000005330E+02 0.  0.
        -12    1    1    2    0    0 -0.39103118992E+02  0.15220600352E+02 -0.11086143714E+02  0.43400727787E+02  0.00000000000E+00 0.  1.
         11    1    3    3    0    0  0.26695968658E+02 -0.21684952017E+01  0.83876013816E+01  0.28066509780E+02  0.51100000000E-03 0. -1.
        -11    1    3    3    0    0  0.29920238734E+01 -0.18251523450E+00  0.22855888951E+01  0.37695404930E+01  0.51100000000E-03 0.  1.
         12    1    3    3    0    0  0.94151264609E+01 -0.12869589916E+02  0.41295343692E+00  0.15951221941E+02  0.00000000000E+00 0. -1.
</event>
<event>
 7    1  0.2458979E-009  0.4778729E+02  0.7816164E-02  0.1312668E+00
        -11   -1    0    0    0    0  0.00000000000E+00  0.00000000000E+00  0.45593999997E+02  0.45594000000E+02  0.51100000000E-03 0.  1.
         11   -1    0    0    0    0 -0.00000000000E+00 -0.00000000000E+00 -0.45593999997E+02  0.45594000000E+02  0.51100000000E-03 0. -1.
    9900012    2    1    2    0    0  0.38791831721E+02  0.83216694391E+01  0.17594475176E+02  0.47787286328E+02  0.20000069683E+02 0.  0.
        -12    1    1    2    0    0 -0.38791831721E+02 -0.83216694391E+01 -0.17594475176E+02  0.43400713672E+02  0.00000000000E+00 0.  1.
         11    1    3    3    0    0  0.17952982363E+02 -0.29511974475E+01  0.47676398048E+01  0.18808230424E+02  0.51100000000E-03 0.  1.
        -11    1    3    3    0    0  0.99522385317E+01  0.10574574466E+02  0.10236735580E+02  0.17766807043E+02  0.51100000000E-03 0. -1.
         12    1    3    3    0    0  0.10886610826E+02  0.69829242105E+00  0.25900997917E+01  0.11212248861E+02  0.00000000000E+00 0. -1.
</event>
<event>
 7    1  0.2458979E-009  0.4778727E+02  0.7816164E-02  0.1312668E+00
        -11   -1    0    0    0    0  0.00000000000E+00  0.00000000000E+00  0.45593999997E+02  0.45594000000E+02  0.51100000000E-03 0.  1.
         11   -1    0    0    0    0 -0.00000000000E+00 -0.00000000000E+00 -0.45593999997E+02  0.45594000000E+02  0.51100000000E-03 0. -1.
    9900012    2    1    2    0    0 -0.12508700736E+02 -0.37163042740E+02 -0.18602792506E+02  0.47787271563E+02  0.20000002366E+02 0.  0.
        -12    1    1    2    0    0  0.12508700736E+02  0.37163042740E+02  0.18602792506E+02  0.43400728437E+02  0.00000000000E+00 0.  1.
         11    1    3    3    0    0 -0.76727751130E+01 -0.18622059167E+02 -0.15929889274E+02  0.25679056410E+02  0.51100000000E-03 0. -1.
        -11    1    3    3    0    0 -0.48207904217E+01 -0.41666495882E+01  0.24809660846E+01  0.68378492273E+01  0.51100000000E-03 0.  1.
        -12    1    3    3    0    0 -0.15135201295E-01 -0.14374333985E+02 -0.51538693166E+01  0.15270365926E+02  0.00000000000E+00 0.  1.
</event>
<event>
 7    1  0.2458979E-009  0.4778727E+02  0.7816164E-02  0.1312668E+00
        -11   -1    0    0    0    0  0.00000000000E+00  0.00000000000E+00  0.45593999997E+02  0.45594000000E+02  0.51100000000E-03 0.  1.
         11   -1    0    0    0    0 -0.00000000000E+00 -0.00000000000E+00 -0.45593999997E+02  0.45594000000E+02  0.51100000000E-03 0. -1.
    9900012    2    1    2    0    0  0.25468871276E+00 -0.37338202737E+02 -0.22122769982E+02  0.47787271877E+02  0.20000003794E+02 0.  0.
        -12    1    1    2    0    0 -0.25468871276E+00  0.37338202737E+02  0.22122769982E+02  0.43400728123E+02  0.00000000000E+00 0.  1.
         11    1    3    3    0    0  0.18701949909E+01 -0.27996456642E+00 -0.13306536203E+01  0.23122821585E+01  0.51100000000E-03 0. -1.
        -11    1    3    3    0    0 -0.62677012664E+01 -0.11478425420E+02 -0.12738678297E+02  0.18256841302E+02  0.51100000000E-03 0.  1.
        -12    1    3    3    0    0  0.46521949883E+01 -0.25579812750E+02 -0.80534380641E+01  0.27218148416E+02  0.00000000000E+00 0.  1.
</event>
<event>
 7    1  0.2458979E-009  0.4778729E+02  0.7816164E-02  0.1312668E+00
        -11   -1    0    0    0    0  0.00000000000E+00  0.00000000000E+00  0.45593999997E+02  0.45594000000E+02  0.51100000000E-03 0. -1.
         11   -1    0    0    0    0 -0.00000000000E+00 -0.00000000000E+00 -0.45593999997E+02  0.45594000000E+02  0.51100000000E-03 0.  1.
    9900012    2    1    2    0    0 -0.30115667049E+02 -0.77878331266E+00  0.31241983564E+02  0.47787292145E+02  0.20000096207E+02 0.  0.
        -12    1    1    2    0    0  0.30115667049E+02  0.77878331266E+00 -0.31241983564E+02  0.43400707855E+02  0.00000000000E+00 0.  1.
         11    1    3    3    0    0 -0.24536632236E+02 -0.59748201992E+01  0.30712888746E+02  0.39762121841E+02  0.51100000000E-03 0. -1.
        -11    1    3    3    0    0  0.44920499884E-01 -0.63303867150E-02 -0.31444659391E+00  0.31770244986E+00  0.51100000000E-03 0.  1.
         12    1    3    3    0    0 -0.56239553131E+01  0.52023672733E+01  0.84354141135E+00  0.77074678541E+01  0.00000000000E+00 0. -1.
</event>
<event>
 7    1  0.2458979E-009  0.4778727E+02  0.7816164E-02  0.1312668E+00
        -11   -1    0    0    0    0  0.00000000000E+00  0.00000000000E+00  0.45593999997E+02  0.45594000000E+02  0.51100000000E-03 0.  1.
         11   -1    0    0    0    0 -0.00000000000E+00 -0.00000000000E+00 -0.45593999997E+02  0.45594000000E+02  0.51100000000E-03 0. -1.
    9900012    2    1    2    0    0  0.21715487201E+02 -0.59220165746E+01 -0.37107826093E+02  0.47787269337E+02  0.19999992217E+02 0.  0.
        -12    1    1    2    0    0 -0.21715487201E+02  0.59220165746E+01  0.37107826093E+02  0.43400730663E+02  0.00000000000E+00 0.  1.
         11    1    3    3    0    0  0.67831992470E+01  0.10940403788E+01 -0.98459772280E+01  0.12006331005E+02  0.51100000000E-03 0. -1.
        -11    1    3    3    0    0  0.11592149375E+02 -0.11542506039E+02 -0.14602863833E+02  0.21928315147E+02  0.51100000000E-03 0.  1.
        -12    1    3    3    0    0  0.33401385790E+01  0.45264490860E+01 -0.12658985033E+02  0.13852623185E+02  0.00000000000E+00 0.  1.
</event>
<event>
 7    1  0.2458979E-009  0.4778727E+02  0.7816164E-02  0.1312668E+00
        -11   -1    0    0    0    0  0.00000000000E+00  0.00000000000E+00  0.45593999997E+02  0.45594000000E+02  0.51100000000E-03 0.  1.
         11   -1    0    0    0    0 -0.00000000000E+00 -0.00000000000E+00 -0.45593999997E+02  0.45594000000E+02  0.51100000000E-03 0. -1.
    9900012    2    1    2    0    0  0.41134503827E+02  0.85451895646E+01 -0.10888311730E+02  0.47787274175E+02  0.20000014275E+02 0.  0.
        -12    1    1    2    0    0 -0.41134503827E+02 -0.85451895646E+01  0.10888311730E+02  0.43400725825E+02  0.00000000000E+00 0.  1.
         11    1    3    3    0    0  0.10753897707E+02  0.31891686987E+01 -0.38749502936E+01  0.11867280772E+02  0.51100000000E-03 0. -1.
        -11    1    3    3    0    0  0.31117757253E+02  0.69608890767E+01 -0.36162184905E+01  0.32091211096E+02  0.51100000000E-03 0.  1.
        -12    1    3    3    0    0 -0.73715113255E+00 -0.16048682108E+01 -0.33971429457E+01  0.38287823077E+01  0.00000000000E+00 0.  1.
</event>
<event>
 7    1  0.2458979E-009  0.4778727E+02  0.7816164E-02  0.1312668E+00
        -11   -1    0    0    0    0  0.00000000000E+00  0.00000000000E+00  0.45593999997E+02  0.45594000000E+02  0.51100000000E-03 0.  1.
         11   -1    0    0    0    0 -0.00000000000E+00 -0.00000000000E+00 -0.45593999997E+02  0.45594000000E+02  0.51100000000E-03 0. -1.
    9900012    2    1    2    0    0  0.79735400243E+01 -0.34215325371E+02 -0.25482490660E+02  0.47787272345E+02  0.20000005929E+02 0.  0.
        -12    1    1    2    0    0 -0.79735400243E+01  0.34215325371E+02  0.25482490660E+02  0.43400727655E+02  0.00000000000E+00 0.  1.
         11    1    3    3    0    0  0.84367847378E+01 -0.63203503426E+01 -0.12427029117E+02  0.16295926427E+02  0.51100000000E-03 0. -1.
        -11    1    3    3    0    0  0.18943275230E+01 -0.24156788426E+02 -0.10785045730E+02  0.26522747133E+02  0.51100000000E-03 0.  1.
        -12    1    3    3    0    0 -0.23575722365E+01 -0.37381866022E+01 -0.22704158127E+01  0.49685987850E+01  0.00000000000E+00 0.  1.
</event>
<event>
 7    1  0.2458979E-009  0.4778726E+02  0.7816164E-02  0.1312668E+00
        -11   -1    0    0    0    0  0.00000000000E+00  0.00000000000E+00  0.45593999997E+02  0.45594000000E+02  0.51100000000E-03 0.  1.
         11   -1    0    0    0    0 -0.00000000000E+00 -0.00000000000E+00 -0.45593999997E+02  0.45594000000E+02  0.51100000000E-03 0. -1.
    9900012    2    1    2    0    0  0.19737842288E+01 -0.58600407398E+01 -0.42957978424E+02  0.47787264845E+02  0.19999971736E+02 0.  0.
        -12    1    1    2    0    0 -0.19737842288E+01  0.58600407398E+01  0.42957978424E+02  0.43400735155E+02  0.00000000000E+00 0.  1.
         11    1    3    3    0    0 -0.30291887382E+01 -0.60073430762E+01 -0.95454674322E+01  0.11678189244E+02  0.51100000000E-03 0. -1.
        -11    1    3    3    0    0  0.60381005271E+01  0.50142395804E+01 -0.13805933228E+02  0.15880964993E+02  0.51100000000E-03 0.  1.
         12    1    3    3    0    0 -0.10351275601E+01 -0.48669372440E+01 -0.19606577764E+02  0.20228110609E+02  0.00000000000E+00 0. -1.
</event>
<event>
 7    1  0.2458979E-009  0.4778727E+02  0.7816164E-02  0.1312668E+00
        -11   -1    0    0    0    0  0.00000000000E+00  0.00000000000E+00  0.45593999997E+02  0.45594000000E+02  0.51100000000E-03 0.  1.
         11   -1    0    0    0    0 -0.00000000000E+00 -0.00000000000E+00 -0.45593999997E+02  0.45594000000E+02  0.51100000000E-03 0. -1.
    9900012    2    1    2    0    0 -0.40998892304E+01 -0.39456842010E+02 -0.17606023223E+02  0.47787268130E+02  0.19999986713E+02 0.  0.
        -12    1    1    2    0    0  0.40998892304E+01  0.39456842010E+02  0.17606023223E+02  0.43400731870E+02  0.00000000000E+00 0.  1.
         11    1    3    3    0    0 -0.29821419594E+01 -0.98407298965E+01  0.27704231113E+01  0.10649337070E+02  0.51100000000E-03 0.  1.
        -11    1    3    3    0    0 -0.27495268395E+01 -0.27920456580E+02 -0.20552436490E+02  0.34778074119E+02  0.51100000000E-03 0. -1.
         12    1    3    3    0    0  0.16317795685E+01 -0.16956555336E+01  0.17599015573E+00  0.23598569414E+01  0.00000000000E+00 0. -1.
</event>
<event>
 7    1  0.2458979E-009  0.4778727E+02  0.7816164E-02  0.1312668E+00
        -11   -1    0    0    0    0  0.00000000000E+00  0.00000000000E+00  0.45593999997E+02  0.45594000000E+02  0.51100000000E-03 0. -1.
         11   -1    0    0    0    0 -0.00000000000E+00 -0.00000000000E+00 -0.45593999997E+02  0.45594000000E+02  0.51100000000E-03 0.  1.
    9900012    2    1    2    0    0  0.13557484823E+02 -0.39459527103E+02 -0.11948370564E+02  0.47787271515E+02  0.20000002145E+02 0.  0.
        -12    1    1    2    0    0 -0.13557484823E+02  0.39459527103E+02  0.11948370564E+02  0.43400728485E+02  0.00000000000E+00 0.  1.
         11    1    3    3    0    0  0.61285070842E+00 -0.21941477987E+02 -0.96382424270E+01  0.23972896353E+02  0.51100000000E-03 0.  1.
        -11    1    3    3    0    0 -0.79433679617E+00 -0.48171471770E+01 -0.14134307646E+01  0.50826828209E+01  0.51100000000E-03 0. -1.
         12    1    3    3    0    0  0.13738970911E+02 -0.12700901939E+02 -0.89669737273E+00  0.18731692340E+02  0.00000000000E+00 0. -1.
</event>
<event>
 7    1  0.2458979E-009  0.4778727E+02  0.7816164E-02  0.1312668E+00
        -11   -1    0    0    0    0  0.00000000000E+00  0.00000000000E+00  0.45593999997E+02  0.45594000000E+02  0.51100000000E-03 0.  1.
         11   -1    0    0    0    0 -0.00000000000E+00 -0.00000000000E+00 -0.45593999997E+02  0.45594000000E+02  0.51100000000E-03 0. -1.
    9900012    2    1    2    0    0 -0.39058873467E+02 -0.54235701668E+01 -0.18127671301E+02  0.47787272164E+02  0.20000005105E+02 0.  0.
        -12    1    1    2    0    0  0.39058873467E+02  0.54235701668E+01  0.18127671301E+02  0.43400727836E+02  0.00000000000E+00 0.  1.
         11    1    3    3    0    0  0.13748641235E+01 -0.52572974066E+00 -0.26735450775E+01  0.30519643938E+01  0.51100000000E-03 0. -1.
        -11    1    3    3    0    0 -0.14682358309E+01 -0.16399674160E+01  0.86502006062E+00  0.23650517007E+01  0.51100000000E-03 0.  1.
         12    1    3    3    0    0 -0.38965501760E+02 -0.32578730102E+01 -0.16319146284E+02  0.42370256070E+02  0.00000000000E+00 0. -1.
</event>
<event>
 7    1  0.2458979E-009  0.4778727E+02  0.7816164E-02  0.1312668E+00
        -11   -1    0    0    0    0  0.00000000000E+00  0.00000000000E+00  0.45593999997E+02  0.45594000000E+02  0.51100000000E-03 0.  1.
         11   -1    0    0    0    0 -0.00000000000E+00 -0.00000000000E+00 -0.45593999997E+02  0.45594000000E+02  0.51100000000E-03 0. -1.
    9900012    2    1    2    0    0  0.42203838126E+01  0.70013477034E+01 -0.42623853102E+02  0.47787270024E+02  0.19999995349E+02 0.  0.
        -12    1    1    2    0    0 -0.42203838126E+01 -0.70013477034E+01  0.42623853102E+02  0.43400729976E+02  0.00000000000E+00 0.  1.
         11    1    3    3    0    0 -0.82105028264E+00  0.11164446665E+02 -0.32432334984E+02  0.34309989008E+02  0.51100000000E-03 0. -1.
        -11    1    3    3    0    0  0.54024558483E+01 -0.46844772028E+01 -0.10552926957E+02  0.12747357510E+02  0.51100000000E-03 0.  1.
        -12    1    3    3    0    0 -0.36102175308E+00  0.52137824082E+00  0.36140884010E+00  0.72992350688E+00  0.00000000000E+00 0.  1.
</event>
<event>
 7    1  0.2458979E-009  0.4778727E+02  0.7816164E-02  0.1312668E+00
        -11   -1    0    0    0    0  0.00000000000E+00  0.00000000000E+00  0.45593999997E+02  0.45594000000E+02  0.51100000000E-03 0.  1.
         11   -1    0    0    0    0 -0.00000000000E+00 -0.00000000000E+00 -0.45593999997E+02  0.45594000000E+02  0.51100000000E-03 0. -1.
    9900012    2    1    2    0    0 -0.67056442692E+01  0.41928711393E+02 -0.89800304417E+01  0.47787269005E+02  0.19999990702E+02 0.  0.
        -12    1    1    2    0    0  0.67056442692E+01 -0.41928711393E+02  0.89800304417E+01  0.43400730995E+02  0.00000000000E+00 0.  1.
         11    1    3    3    0    0 -0.41227967962E+01  0.33516226011E+02  0.35405976046E+00  0.33770700585E+02  0.51100000000E-03 0. -1.
        -11    1    3    3    0    0 -0.41756079466E+01  0.46570657934E+01 -0.45810266254E+01  0.77530489958E+01  0.51100000000E-03 0.  1.
        -12    1    3    3    0    0  0.15927604736E+01  0.37554195892E+01 -0.47530635767E+01  0.62635194246E+01  0.00000000000E+00 0.  1.
</event>
<event>
 7    1  0.2458979E-009  0.4778727E+02  0.7816164E-02  0.1312668E+00
        -11   -1    0    0    0    0  0.00000000000E+00  0.00000000000E+00  0.45593999997E+02  0.45594000000E+02  0.51100000000E-03 0.  1.
         11   -1    0    0    0    0 -0.00000000000E+00 -0.00000000000E+00 -0.45593999997E+02  0.45594000000E+02  0.51100000000E-03 0. -1.
    9900012    2    1    2    0    0  0.14578466651E+02  0.94774966332E+01 -0.39765168007E+02  0.47787271677E+02  0.20000002885E+02 0.  0.
        -12    1    1    2    0    0 -0.14578466651E+02 -0.94774966332E+01  0.39765168007E+02  0.43400728323E+02  0.00000000000E+00 0.  1.
         11    1    3    3    0    0  0.12319364676E+02 -0.51413839234E+00 -0.26680640454E+02  0.29391965902E+02  0.51100000000E-03 0. -1.
        -11    1    3    3    0    0  0.31064627384E+01  0.93870001759E+01 -0.67409428650E+01  0.11966879042E+02  0.51100000000E-03 0.  1.
         12    1    3    3    0    0 -0.84736076306E+00  0.60463484968E+00 -0.63435846882E+01  0.64284267329E+01  0.00000000000E+00 0. -1.
</event>
<event>
 7    1  0.2458979E-009  0.4778727E+02  0.7816164E-02  0.1312668E+00
        -11   -1    0    0    0    0  0.00000000000E+00  0.00000000000E+00  0.45593999997E+02  0.45594000000E+02  0.51100000000E-03 0. -1.
         11   -1    0    0    0    0 -0.00000000000E+00 -0.00000000000E+00 -0.45593999997E+02  0.45594000000E+02  0.51100000000E-03 0.  1.
    9900012    2    1    2    0    0  0.16832570391E+02  0.32249780668E+02  0.23669378499E+02  0.47787271232E+02  0.20000000853E+02 0.  0.
        -12    1    1    2    0    0 -0.16832570391E+02 -0.32249780668E+02 -0.23669378499E+02  0.43400728768E+02  0.00000000000E+00 0.  1.
         11    1    3    3    0    0  0.17490427417E+02  0.21729842338E+02  0.20673234115E+02  0.34720076444E+02  0.51100000000E-03 0. -1.
        -11    1    3    3    0    0  0.18074139967E+01  0.51481966885E+01 -0.14796203064E+01  0.56533132773E+01  0.51100000000E-03 0.  1.
         12    1    3    3    0    0 -0.24652710227E+01  0.53717416421E+01  0.44757646899E+01  0.74138815100E+01  0.00000000000E+00 0. -1.
</event>
<event>
 7    1  0.2458979E-009  0.4778727E+02  0.7816164E-02  0.1312668E+00
        -11   -1    0    0    0    0  0.00000000000E+00  0.00000000000E+00  0.45593999997E+02  0.45594000000E+02  0.51100000000E-03 0.  1.
         11   -1    0    0    0    0 -0.00000000000E+00 -0.00000000000E+00 -0.45593999997E+02  0.45594000000E+02  0.51100000000E-03 0. -1.
    9900012    2    1    2    0    0  0.33575091979E+02 -0.76570390261E+01 -0.26414132950E+02  0.47787268813E+02  0.19999989825E+02 0.  0.
        -12    1    1    2    0    0 -0.33575091979E+02  0.76570390261E+01  0.26414132950E+02  0.43400731187E+02  0.00000000000E+00 0.  1.
         11    1    3    3    0    0  0.18965958794E+02 -0.82329474070E+01 -0.71257160972E+01  0.21869267160E+02  0.51100000000E-03 0. -1.
        -11    1    3    3    0    0  0.72951989068E+01  0.42536289922E+01 -0.61849061435E+01  0.10467394660E+02  0.51100000000E-03 0.  1.
         12    1    3    3    0    0  0.73139342788E+01 -0.36777206113E+01 -0.13103510710E+02  0.15450606993E+02  0.00000000000E+00 0. -1.
</event>
<event>
 7    1  0.2458979E-009  0.4778727E+02  0.7816164E-02  0.1312668E+00
        -11   -1    0    0    0    0  0.00000000000E+00  0.00000000000E+00  0.45593999997E+02  0.45594000000E+02  0.51100000000E-03 0. -1.
         11   -1    0    0    0    0 -0.00000000000E+00 -0.00000000000E+00 -0.45593999997E+02  0.45594000000E+02  0.51100000000E-03 0.  1.
    9900012    2    1    2    0    0  0.40981194813E+02 -0.11914656159E+02  0.78870515180E+01  0.47787274876E+02  0.20000017468E+02 0.  0.
        -12    1    1    2    0    0 -0.40981194813E+02  0.11914656159E+02 -0.78870515180E+01  0.43400725124E+02  0.00000000000E+00 0.  1.
         11    1    3    3    0    0  0.10932949136E+02  0.36646711448E+01  0.77476254512E+01  0.13891900223E+02  0.51100000000E-03 0. -1.
        -11    1    3    3    0    0  0.24154274744E+02 -0.12026720780E+02 -0.46721026878E+00  0.26986835435E+02  0.51100000000E-03 0.  1.
        -12    1    3    3    0    0  0.58939709334E+01 -0.35526065241E+01  0.60663633556E+00  0.69085392177E+01  0.00000000000E+00 0.  1.
</event>
<event>
 7    1  0.2458979E-009  0.4778727E+02  0.7816164E-02  0.1312668E+00
        -11   -1    0    0    0    0  0.00000000000E+00  0.00000000000E+00  0.45593999997E+02  0.45594000000E+02  0.51100000000E-03 0.  1.
         11   -1    0    0    0    0 -0.00000000000E+00 -0.00000000000E+00 -0.45593999997E+02  0.45594000000E+02  0.51100000000E-03 0. -1.
    9900012    2    1    2    0    0 -0.21402262701E+02 -0.35156313889E+01 -0.37592644085E+02  0.47787269568E+02  0.19999993268E+02 0.  0.
        -12    1    1    2    0    0  0.21402262701E+02  0.35156313889E+01  0.37592644085E+02  0.43400730432E+02  0.00000000000E+00 0.  1.
         11    1    3    3    0    0 -0.21283125786E+02 -0.14434373238E+01 -0.23966873918E+02  0.32085292583E+02  0.51100000000E-03 0. -1.
        -11    1    3    3    0    0 -0.24922171438E+00  0.21121380739E+01 -0.98088845591E+01  0.10036805033E+02  0.51100000000E-03 0.  1.
         12    1    3    3    0    0  0.13008479929E+00 -0.41843321389E+01 -0.38168856079E+01  0.56651719521E+01  0.00000000000E+00 0. -1.
</event>
<event>
 7    1  0.2458979E-009  0.4778727E+02  0.7816164E-02  0.1312668E+00
        -11   -1    0    0    0    0  0.00000000000E+00  0.00000000000E+00  0.45593999997E+02  0.45594000000E+02  0.51100000000E-03 0.  1.
         11   -1    0    0    0    0 -0.00000000000E+00 -0.00000000000E+00 -0.45593999997E+02  0.45594000000E+02  0.51100000000E-03 0. -1.
    9900012    2    1    2    0    0  0.20268367845E+02  0.28558795906E+02 -0.25636134450E+02  0.47787274796E+02  0.20000017104E+02 0.  0.
        -12    1    1    2    0    0 -0.20268367845E+02 -0.28558795906E+02  0.25636134450E+02  0.43400725204E+02  0.00000000000E+00 0.  1.
         11    1    3    3    0    0  0.13923506798E+02  0.10597197849E+02 -0.17323903739E+02  0.24622800101E+02  0.51100000000E-03 0. -1.
        -11    1    3    3    0    0  0.12362332834E+01  0.11859586294E+01 -0.50430735044E+01  0.53261018797E+01  0.51100000000E-03 0.  1.
        -12    1    3    3    0    0  0.51086277641E+01  0.16775639428E+02 -0.32691572068E+01  0.17838372815E+02  0.00000000000E+00 0.  1.
</event>
<event>
 7    1  0.2458979E-009  0.4778728E+02  0.7816164E-02  0.1312668E+00
        -11   -1    0    0    0    0  0.00000000000E+00  0.00000000000E+00  0.45593999997E+02  0.45594000000E+02  0.51100000000E-03 0.  1.
         11   -1    0    0    0    0 -0.00000000000E+00 -0.00000000000E+00 -0.45593999997E+02  0.45594000000E+02  0.51100000000E-03 0. -1.
    9900012    2    1    2    0    0  0.35699663560E+02  0.32673383974E+01 -0.24463876552E+02  0.47787277259E+02  0.20000028334E+02 0.  0.
        -12    1    1    2    0    0 -0.35699663560E+02 -0.32673383974E+01  0.24463876552E+02  0.43400722741E+02  0.00000000000E+00 0.  1.
         11    1    3    3    0    0  0.91088390289E+01 -0.49016014225E+01 -0.91785622360E+00  0.10384560909E+02  0.51100000000E-03 0.  1.
        -11    1    3    3    0    0  0.11423319011E+02  0.21068395389E+00 -0.12914280053E+02  0.17242831395E+02  0.51100000000E-03 0. -1.
         12    1    3    3    0    0  0.15167505520E+02  0.79582558660E+01 -0.10631740275E+02  0.20159884955E+02  0.00000000000E+00 0. -1.
</event>
<event>
 7    1  0.2458979E-009  0.4778727E+02  0.7816164E-02  0.1312668E+00
        -11   -1    0    0    0    0  0.00000000000E+00  0.00000000000E+00  0.45593999997E+02  0.45594000000E+02  0.51100000000E-03 0. -1.
         11   -1    0    0    0    0 -0.00000000000E+00 -0.00000000000E+00 -0.45593999997E+02  0.45594000000E+02  0.51100000000E-03 0.  1.
    9900012    2    1    2    0    0 -0.14070990871E+02  0.40597131324E+02 -0.61240167301E+01  0.47787269168E+02  0.19999991444E+02 0.  0.
        -12    1    1    2    0    0  0.14070990871E+02 -0.40597131324E+02  0.61240167301E+01  0.43400730832E+02  0.00000000000E+00 0.  1.
         11    1    3    3    0    0 -0.87389752656E+01  0.19844113858E+02 -0.28893551098E+01  0.21874800953E+02  0.51100000000E-03 0. -1.
        -11    1    3    3    0    0  0.46015771870E+01  0.70060801991E+01  0.97175360292E+00  0.84382449414E+01  0.51100000000E-03 0.  1.
        -12    1    3    3    0    0 -0.99335927927E+01  0.13746937267E+02 -0.42064152232E+01  0.17474223274E+02  0.00000000000E+00 0.  1.
</event>
<event>
 7    1  0.2458979E-009  0.4778727E+02  0.7816164E-02  0.1312668E+00
        -11   -1    0    0    0    0  0.00000000000E+00  0.00000000000E+00  0.45593999997E+02  0.45594000000E+02  0.51100000000E-03 0. -1.
         11   -1    0    0    0    0 -0.00000000000E+00 -0.00000000000E+00 -0.45593999997E+02  0.45594000000E+02  0.51100000000E-03 0.  1.
    9900012    2    1    2    0    0  0.21278291866E+02  0.24424691560E+02  0.28884108607E+02  0.47787274286E+02  0.20000014779E+02 0.  0.
        -12    1    1    2    0    0 -0.21278291866E+02 -0.24424691560E+02 -0.28884108607E+02  0.43400725714E+02  0.00000000000E+00 0.  1.
         11    1    3    3    0    0  0.48824512164E+01 -0.23217966031E+01  0.53578594643E+01  0.76115522495E+01  0.51100000000E-03 0. -1.
        -11    1    3    3    0    0  0.44012841778E+01  0.41786391523E+01  0.10871425397E+01  0.61655662142E+01  0.51100000000E-03 0.  1.
         12    1    3    3    0    0  0.11994556472E+02  0.22567849011E+02  0.22439106602E+02  0.34010155822E+02  0.00000000000E+00 0. -1.
</event>
<event>
 7    1  0.2458979E-009  0.4778727E+02  0.7816164E-02  0.1312668E+00
        -11   -1    0    0    0    0  0.00000000000E+00  0.00000000000E+00  0.45593999997E+02  0.45594000000E+02  0.51100000000E-03 0. -1.
         11   -1    0    0    0    0 -0.00000000000E+00 -0.00000000000E+00 -0.45593999997E+02  0.45594000000E+02  0.51100000000E-03 0.  1.
    9900012    2    1    2    0    0  0.19615132807E+02 -0.34590712208E+02 -0.17388283061E+02  0.47787271966E+02  0.20000004203E+02 0.  0.
        -12    1    1    2    0    0 -0.19615132807E+02  0.34590712208E+02  0.17388283061E+02  0.43400728034E+02  0.00000000000E+00 0.  1.
         11    1    3    3    0    0  0.51060203317E+01 -0.13456310142E+02  0.29534261866E+01  0.14692394385E+02  0.51100000000E-03 0. -1.
        -11    1    3    3    0    0  0.90940417320E+01 -0.10960758672E+02 -0.13855851947E+02  0.19870190214E+02  0.51100000000E-03 0.  1.
         12    1    3    3    0    0  0.54150707428E+01 -0.10173643394E+02 -0.64858573007E+01  0.13224687368E+02  0.00000000000E+00 0. -1.
</event>
<event>
 7    1  0.2458979E-009  0.4778727E+02  0.7816164E-02  0.1312668E+00
        -11   -1    0    0    0    0  0.00000000000E+00  0.00000000000E+00  0.45593999997E+02  0.45594000000E+02  0.51100000000E-03 0. -1.
         11   -1    0    0    0    0 -0.00000000000E+00 -0.00000000000E+00 -0.45593999997E+02  0.45594000000E+02  0.51100000000E-03 0.  1.
    9900012    2    1    2    0    0  0.40444736163E+02 -0.95879879714E+01  0.12486675376E+02  0.47787271221E+02  0.20000000804E+02 0.  0.
        -12    1    1    2    0    0 -0.40444736163E+02  0.95879879714E+01 -0.12486675376E+02  0.43400728779E+02  0.00000000000E+00 0.  1.
         11    1    3    3    0    0  0.22714235759E+02 -0.91641325822E-01  0.66039224366E+01  0.23654950773E+02  0.51100000000E-03 0. -1.
        -11    1    3    3    0    0  0.12318169384E+02 -0.90012673711E+01 -0.10856610203E+01  0.15295057089E+02  0.51100000000E-03 0.  1.
        -12    1    3    3    0    0  0.54123310197E+01 -0.49507927445E+00  0.69684139598E+01  0.88372633586E+01  0.00000000000E+00 0.  1.
</event>
<event>
 7    1  0.2458979E-009  0.4778728E+02  0.7816164E-02  0.1312668E+00
        -11   -1    0    0    0    0  0.00000000000E+00  0.00000000000E+00  0.45593999997E+02  0.45594000000E+02  0.51100000000E-03 0.  1.
         11   -1    0    0    0    0 -0.00000000000E+00 -0.00000000000E+00 -0.45593999997E+02  0.45594000000E+02  0.51100000000E-03 0. -1.
    9900012    2    1    2    0    0 -0.92191108108E+01  0.35607988030E+02 -0.23036967232E+02  0.47787277945E+02  0.20000031461E+02 0.  0.
        -12    1    1    2    0    0  0.92191108108E+01 -0.35607988030E+02  0.23036967232E+02  0.43400722055E+02  0.00000000000E+00 0.  1.
         11    1    3    3    0    0 -0.92228746027E+01  0.42407871039E+01 -0.66633483037E+01  0.12142730421E+02  0.51100000000E-03 0. -1.
        -11    1    3    3    0    0  0.13201640187E+01  0.14147876368E+02 -0.93014214816E+01  0.16982982088E+02  0.51100000000E-03 0.  1.
        -12    1    3    3    0    0 -0.13164002268E+01  0.17219324558E+02 -0.70721974466E+01  0.18661565435E+02  0.00000000000E+00 0.  1.
</event>
<event>
 7    1  0.2458979E-009  0.4778728E+02  0.7816164E-02  0.1312668E+00
        -11   -1    0    0    0    0  0.00000000000E+00  0.00000000000E+00  0.45593999997E+02  0.45594000000E+02  0.51100000000E-03 0.  1.
         11   -1    0    0    0    0 -0.00000000000E+00 -0.00000000000E+00 -0.45593999997E+02  0.45594000000E+02  0.51100000000E-03 0. -1.
    9900012    2    1    2    0    0 -0.26498845379E+01 -0.25801327662E+01 -0.43242848601E+02  0.47787275026E+02  0.20000018152E+02 0.  0.
        -12    1    1    2    0    0  0.26498845379E+01  0.25801327662E+01  0.43242848601E+02  0.43400724974E+02  0.00000000000E+00 0.  1.
         11    1    3    3    0    0 -0.65735378286E+01  0.37408520670E+01 -0.22316435160E+02  0.23563290354E+02  0.51100000000E-03 0. -1.
        -11    1    3    3    0    0  0.57197985341E+01 -0.66492713126E+01 -0.10697995563E+02  0.13833871967E+02  0.51100000000E-03 0.  1.
        -12    1    3    3    0    0 -0.17961452433E+01  0.32828647948E+00 -0.10228417878E+02  0.10390112705E+02  0.00000000000E+00 0.  1.
</event>
<event>
 7    1  0.2458979E-009  0.4778727E+02  0.7816164E-02  0.1312668E+00
        -11   -1    0    0    0    0  0.00000000000E+00  0.00000000000E+00  0.45593999997E+02  0.45594000000E+02  0.51100000000E-03 0. -1.
         11   -1    0    0    0    0 -0.00000000000E+00 -0.00000000000E+00 -0.45593999997E+02  0.45594000000E+02  0.51100000000E-03 0.  1.
    9900012    2    1    2    0    0  0.15229237881E+02  0.65815869966E+01  0.40104568942E+02  0.47787269316E+02  0.19999992121E+02 0.  0.
        -12    1    1    2    0    0 -0.15229237881E+02 -0.65815869966E+01 -0.40104568942E+02  0.43400730684E+02  0.00000000000E+00 0.  1.
         11    1    3    3    0    0  0.71792481476E+01 -0.84547033628E+00  0.15928293869E+02  0.17491911557E+02  0.51100000000E-03 0. -1.
        -11    1    3    3    0    0  0.28704436478E+01  0.28981109170E+01 -0.99670435324E+00  0.41990372053E+01  0.51100000000E-03 0.  1.
        -12    1    3    3    0    0  0.51795460857E+01  0.45289464159E+01  0.25172979426E+02  0.26096320554E+02  0.00000000000E+00 0.  1.
</event>
<event>
 7    1  0.2458979E-009  0.4778731E+02  0.7816164E-02  0.1312668E+00
        -11   -1    0    0    0    0  0.00000000000E+00  0.00000000000E+00  0.45593999997E+02  0.45594000000E+02  0.51100000000E-03 0.  1.
         11   -1    0    0    0    0 -0.00000000000E+00 -0.00000000000E+00 -0.45593999997E+02  0.45594000000E+02  0.51100000000E-03 0. -1.
    9900012    2    1    2    0    0 -0.19770547603E+02  0.27147496576E+02 -0.27491064214E+02  0.47787311820E+02  0.20000185911E+02 0.  0.
        -12    1    1    2    0    0  0.19770547603E+02 -0.27147496576E+02  0.27491064214E+02  0.43400688180E+02  0.00000000000E+00 0.  1.
         11    1    3    3    0    0 -0.13406023101E+01  0.94609010056E+01  0.51139021168E+00  0.95690847316E+01  0.51100000000E-03 0. -1.
        -11    1    3    3    0    0 -0.12518443472E+02  0.92602603486E+01 -0.18800508295E+02  0.24411533362E+02  0.51100000000E-03 0.  1.
         12    1    3    3    0    0 -0.59115018210E+01  0.84263352222E+01 -0.92019461302E+01  0.13806693726E+02  0.00000000000E+00 0. -1.
</event>
<event>
 7    1  0.2458979E-009  0.4778727E+02  0.7816164E-02  0.1312668E+00
        -11   -1    0    0    0    0  0.00000000000E+00  0.00000000000E+00  0.45593999997E+02  0.45594000000E+02  0.51100000000E-03 0. -1.
         11   -1    0    0    0    0 -0.00000000000E+00 -0.00000000000E+00 -0.45593999997E+02  0.45594000000E+02  0.51100000000E-03 0.  1.
    9900012    2    1    2    0    0  0.12152558483E+01  0.42165422515E+02 -0.10209018867E+02  0.47787265341E+02  0.19999973998E+02 0.  0.
        -12    1    1    2    0    0 -0.12152558483E+01 -0.42165422515E+02  0.10209018867E+02  0.43400734659E+02  0.00000000000E+00 0.  1.
         11    1    3    3    0    0  0.24343963441E+01  0.28124320219E+02 -0.26997033927E+01  0.28358280484E+02  0.51100000000E-03 0. -1.
        -11    1    3    3    0    0  0.13010844961E+01 -0.63499071217E+00 -0.38238950251E+01  0.40887904684E+01  0.51100000000E-03 0.  1.
         12    1    3    3    0    0 -0.25202249919E+01  0.14676093009E+02 -0.36854204490E+01  0.15340194389E+02  0.00000000000E+00 0. -1.
</event>
<event>
 7    1  0.2458979E-009  0.4778727E+02  0.7816164E-02  0.1312668E+00
        -11   -1    0    0    0    0  0.00000000000E+00  0.00000000000E+00  0.45593999997E+02  0.45594000000E+02  0.51100000000E-03 0. -1.
         11   -1    0    0    0    0 -0.00000000000E+00 -0.00000000000E+00 -0.45593999997E+02  0.45594000000E+02  0.51100000000E-03 0.  1.
    9900012    2    1    2    0    0 -0.31902812027E+02  0.92907527646E+01  0.27919803727E+02  0.47787274864E+02  0.20000017415E+02 0.  0.
        -12    1    1    2    0    0  0.31902812027E+02 -0.92907527646E+01 -0.27919803727E+02  0.43400725136E+02  0.00000000000E+00 0.  1.
         11    1    3    3    0    0 -0.46393347597E+01  0.45443144640E+01  0.66679192935E+01  0.93078122524E+01  0.51100000000E-03 0. -1.
        -11    1    3    3    0    0 -0.21496143554E+02  0.75154820449E+01  0.22442060883E+02  0.31972062102E+02  0.51100000000E-03 0.  1.
        -12    1    3    3    0    0 -0.57673337132E+01 -0.27690437444E+01 -0.11901764498E+01  0.65074005102E+01  0.00000000000E+00 0.  1.
</event>
<event>
 7    1  0.2458979E-009  0.4778727E+02  0.7816164E-02  0.1312668E+00
        -11   -1    0    0    0    0  0.00000000000E+00  0.00000000000E+00  0.45593999997E+02  0.45594000000E+02  0.51100000000E-03 0. -1.
         11   -1    0    0    0    0 -0.00000000000E+00 -0.00000000000E+00 -0.45593999997E+02  0.45594000000E+02  0.51100000000E-03 0.  1.
    9900012    2    1    2    0    0  0.16853728103E+01 -0.37816572504E+02  0.21229456944E+02  0.47787268674E+02  0.19999989194E+02 0.  0.
        -12    1    1    2    0    0 -0.16853728103E+01  0.37816572504E+02 -0.21229456944E+02  0.43400731326E+02  0.00000000000E+00 0.  1.
         11    1    3    3    0    0  0.33119577405E+01 -0.12518814611E+02  0.14602364505E+02  0.19517142023E+02  0.51100000000E-03 0. -1.
        -11    1    3    3    0    0  0.75910552074E+00  0.89277504948E+00  0.45122529228E+00  0.12557440050E+01  0.51100000000E-03 0.  1.
         12    1    3    3    0    0 -0.23856904509E+01 -0.26190532943E+02  0.61758671462E+01  0.27014382647E+02  0.00000000000E+00 0. -1.
</event>
<event>
 7    1  0.2458979E-009  0.4778726E+02  0.7816164E-02  0.1312668E+00
        -11   -1    0    0    0    0  0.00000000000E+00  0.00000000000E+00  0.45593999997E+02  0.45594000000E+02  0.51100000000E-03 0. -1.
         11   -1    0    0    0    0 -0.00000000000E+00 -0.00000000000E+00 -0.45593999997E+02  0.45594000000E+02  0.51100000000E-03 0.  1.
    9900012    2    1    2    0    0  0.39976893052E+02 -0.95756186343E+01  0.13920467834E+02  0.47787264119E+02  0.19999968425E+02 0.  0.
        -12    1    1    2    0    0 -0.39976893052E+02  0.95756186343E+01 -0.13920467834E+02  0.43400735881E+02  0.00000000000E+00 0.  1.
         11    1    3    3    0    0  0.19257633601E+02 -0.70240829521E+01  0.57171147240E+01  0.21280967889E+02  0.51100000000E-03 0. -1.
        -11    1    3    3    0    0  0.11371961827E+01  0.38929090801E+01  0.35099210013E+01  0.53635344653E+01  0.51100000000E-03 0.  1.
        -12    1    3    3    0    0  0.19582063267E+02 -0.64444447623E+01  0.46934321087E+01  0.21142761765E+02  0.00000000000E+00 0.  1.
</event>
<event>
 7    1  0.2458979E-009  0.4778727E+02  0.7816164E-02  0.1312668E+00
        -11   -1    0    0    0    0  0.00000000000E+00  0.00000000000E+00  0.45593999997E+02  0.45594000000E+02  0.51100000000E-03 0.  1.
         11   -1    0    0    0    0 -0.00000000000E+00 -0.00000000000E+00 -0.45593999997E+02  0.45594000000E+02  0.51100000000E-03 0. -1.
    9900012    2    1    2    0    0 -0.17115700591E+02  0.30923458729E+02 -0.25187609641E+02  0.47787272058E+02  0.20000004619E+02 0.  0.
        -12    1    1    2    0    0  0.17115700591E+02 -0.30923458729E+02  0.25187609641E+02  0.43400727942E+02  0.00000000000E+00 0.  1.
         11    1    3    3    0    0 -0.80486566469E+01  0.19673900746E+02 -0.61473095964E+01  0.22127644699E+02  0.51100000000E-03 0. -1.
        -11    1    3    3    0    0 -0.49508803172E+01  0.13625800882E+01 -0.19535616401E+01  0.54940189074E+01  0.51100000000E-03 0.  1.
         12    1    3    3    0    0 -0.41161636271E+01  0.98869778946E+01 -0.17086738404E+02  0.20165608451E+02  0.00000000000E+00 0. -1.
</event>
<event>
 7    1  0.2458979E-009  0.4778727E+02  0.7816164E-02  0.1312668E+00
        -11   -1    0    0    0    0  0.00000000000E+00  0.00000000000E+00  0.45593999997E+02  0.45594000000E+02  0.51100000000E-03 0.  1.
         11   -1    0    0    0    0 -0.00000000000E+00 -0.00000000000E+00 -0.45593999997E+02  0.45594000000E+02  0.51100000000E-03 0. -1.
    9900012    2    1    2    0    0 -0.29777238973E+02 -0.18337097297E+02 -0.25703894167E+02  0.47787271048E+02  0.20000000018E+02 0.  0.
        -12    1    1    2    0    0  0.29777238973E+02  0.18337097297E+02  0.25703894167E+02  0.43400728952E+02  0.00000000000E+00 0.  1.
         11    1    3    3    0    0 -0.39527806070E+01 -0.10355891952E+02 -0.92213089280E+01  0.14418790215E+02  0.51100000000E-03 0. -1.
        -11    1    3    3    0    0 -0.20589829155E+02 -0.70440724136E+01 -0.76658940744E+01  0.23072190035E+02  0.51100000000E-03 0.  1.
         12    1    3    3    0    0 -0.52346292117E+01 -0.93713293201E+00 -0.88166911649E+01  0.10296290799E+02  0.00000000000E+00 0. -1.
</event>
<event>
 7    1  0.2458979E-009  0.4778727E+02  0.7816164E-02  0.1312668E+00
        -11   -1    0    0    0    0  0.00000000000E+00  0.00000000000E+00  0.45593999997E+02  0.45594000000E+02  0.51100000000E-03 0.  1.
         11   -1    0    0    0    0 -0.00000000000E+00 -0.00000000000E+00 -0.45593999997E+02  0.45594000000E+02  0.51100000000E-03 0. -1.
    9900012    2    1    2    0    0 -0.34163343843E+02 -0.23649613409E+02 -0.12537332145E+02  0.47787274497E+02  0.20000015741E+02 0.  0.
        -12    1    1    2    0    0  0.34163343843E+02  0.23649613409E+02  0.12537332145E+02  0.43400725503E+02  0.00000000000E+00 0.  1.
         11    1    3    3    0    0 -0.12017811607E+02 -0.16319612303E+01  0.15674505173E+01  0.12228981750E+02  0.51100000000E-03 0. -1.
        -11    1    3    3    0    0 -0.19051286411E+02 -0.19303194411E+02 -0.81500295132E+01  0.28319389289E+02  0.51100000000E-03 0.  1.
         12    1    3    3    0    0 -0.30942458251E+01 -0.27144577671E+01 -0.59547531487E+01  0.72389034568E+01  0.00000000000E+00 0. -1.
</event>
<event>
 7    1  0.2458979E-009  0.4778729E+02  0.7816164E-02  0.1312668E+00
        -11   -1    0    0    0    0  0.00000000000E+00  0.00000000000E+00  0.45593999997E+02  0.45594000000E+02  0.51100000000E-03 0.  1.
         11   -1    0    0    0    0 -0.00000000000E+00 -0.00000000000E+00 -0.45593999997E+02  0.45594000000E+02  0.51100000000E-03 0. -1.
    9900012    2    1    2    0    0  0.29000786754E+02 -0.32241086462E+02 -0.17574404891E+01  0.47787287037E+02  0.20000072918E+02 0.  0.
        -12    1    1    2    0    0 -0.29000786754E+02  0.32241086462E+02  0.17574404891E+01  0.43400712963E+02  0.00000000000E+00 0.  1.
         11    1    3    3    0    0  0.16613208645E+02 -0.10919593566E+02 -0.71012939144E+01  0.21110769779E+02  0.51100000000E-03 0. -1.
        -11    1    3    3    0    0  0.82640404765E+01 -0.20161211151E+02  0.51441802349E+01  0.22388197574E+02  0.51100000000E-03 0.  1.
        -12    1    3    3    0    0  0.41235376324E+01 -0.11602817453E+01  0.19967319035E+00  0.42883196846E+01  0.00000000000E+00 0.  1.
</event>
<event>
 7    1  0.2458979E-009  0.4778727E+02  0.7816164E-02  0.1312668E+00
        -11   -1    0    0    0    0  0.00000000000E+00  0.00000000000E+00  0.45593999997E+02  0.45594000000E+02  0.51100000000E-03 0.  1.
         11   -1    0    0    0    0 -0.00000000000E+00 -0.00000000000E+00 -0.45593999997E+02  0.45594000000E+02  0.51100000000E-03 0. -1.
    9900012    2    1    2    0    0  0.99947919596E+01  0.30761176820E+02 -0.28939203265E+02  0.47787270153E+02  0.19999995934E+02 0.  0.
        -12    1    1    2    0    0 -0.99947919596E+01 -0.30761176820E+02  0.28939203265E+02  0.43400729847E+02  0.00000000000E+00 0.  1.
         11    1    3    3    0    0  0.48596593567E+01  0.14730788169E+02 -0.11138137304E+02  0.19096348133E+02  0.51100000000E-03 0. -1.
        -11    1    3    3    0    0  0.50314488330E+01 -0.74403794474E+00 -0.15056825838E+01  0.53043519987E+01  0.51100000000E-03 0.  1.
        -12    1    3    3    0    0  0.10368376987E+00  0.16774426596E+02 -0.16295383377E+02  0.23386570021E+02  0.00000000000E+00 0.  1.
</event>
<event>
 7    1  0.2458979E-009  0.4778727E+02  0.7816164E-02  0.1312668E+00
        -11   -1    0    0    0    0  0.00000000000E+00  0.00000000000E+00  0.45593999997E+02  0.45594000000E+02  0.51100000000E-03 0.  1.
         11   -1    0    0    0    0 -0.00000000000E+00 -0.00000000000E+00 -0.45593999997E+02  0.45594000000E+02  0.51100000000E-03 0. -1.
    9900012    2    1    2    0    0  0.93865755953E+01 -0.50789525384E+00 -0.42370481546E+02  0.47787268838E+02  0.19999989938E+02 0.  0.
        -12    1    1    2    0    0 -0.93865755953E+01  0.50789525384E+00  0.42370481546E+02  0.43400731162E+02  0.00000000000E+00 0.  1.
         11    1    3    3    0    0 -0.31908868375E+01 -0.57316207718E+01 -0.20223648877E+02  0.21260978568E+02  0.51100000000E-03 0. -1.
        -11    1    3    3    0    0  0.66061635640E+01  0.54685291135E+01 -0.11982937658E+02  0.14735569310E+02  0.51100000000E-03 0.  1.
         12    1    3    3    0    0  0.59712988688E+01 -0.24480359559E+00 -0.10163895010E+02  0.11790720960E+02  0.00000000000E+00 0. -1.
</event>
<event>
 7    1  0.2458979E-009  0.4778727E+02  0.7816164E-02  0.1312668E+00
        -11   -1    0    0    0    0  0.00000000000E+00  0.00000000000E+00  0.45593999997E+02  0.45594000000E+02  0.51100000000E-03 0. -1.
         11   -1    0    0    0    0 -0.00000000000E+00 -0.00000000000E+00 -0.45593999997E+02  0.45594000000E+02  0.51100000000E-03 0.  1.
    9900012    2    1    2    0    0 -0.36203177771E+02  0.22673787730E+02 -0.76715405288E+01  0.47787271149E+02  0.20000000476E+02 0.  0.
        -12    1    1    2    0    0  0.36203177771E+02 -0.22673787730E+02  0.76715405288E+01  0.43400728851E+02  0.00000000000E+00 0.  1.
         11    1    3    3    0    0 -0.30121130433E+02  0.16835655211E+02 -0.85654893583E+01  0.35554034836E+02  0.51100000000E-03 0. -1.
        -11    1    3    3    0    0 -0.53609349946E+01  0.26697415719E+01  0.44161697225E+01  0.74410818673E+01  0.51100000000E-03 0.  1.
        -12    1    3    3    0    0 -0.72111234292E+00  0.31683909474E+01 -0.35222208930E+01  0.47921544451E+01  0.00000000000E+00 0.  1.
</event>
<event>
 7    1  0.2458979E-009  0.4778727E+02  0.7816164E-02  0.1312668E+00
        -11   -1    0    0    0    0  0.00000000000E+00  0.00000000000E+00  0.45593999997E+02  0.45594000000E+02  0.51100000000E-03 0.  1.
         11   -1    0    0    0    0 -0.00000000000E+00 -0.00000000000E+00 -0.45593999997E+02  0.45594000000E+02  0.51100000000E-03 0. -1.
    9900012    2    1    2    0    0 -0.31799339903E+02  0.28637938542E+02 -0.72314314982E+01  0.47787272544E+02  0.20000006838E+02 0.  0.
        -12    1    1    2    0    0  0.31799339903E+02 -0.28637938542E+02  0.72314314982E+01  0.43400727456E+02  0.00000000000E+00 0.  1.
         11    1    3    3    0    0 -0.14086953295E+02  0.11084741593E+02 -0.20247731219E+01  0.18039219932E+02  0.51100000000E-03 0. -1.
        -11    1    3    3    0    0 -0.46388198491E+01  0.15339265704E+02 -0.30880898494E+01  0.16320172215E+02  0.51100000000E-03 0.  1.
        -12    1    3    3    0    0 -0.13073566759E+02  0.22139312447E+01 -0.21185685268E+01  0.13427880397E+02  0.00000000000E+00 0.  1.
</event>
<event>
 7    1  0.2458979E-009  0.4778727E+02  0.7816164E-02  0.1312668E+00
        -11   -1    0    0    0    0  0.00000000000E+00  0.00000000000E+00  0.45593999997E+02  0.45594000000E+02  0.51100000000E-03 0.  1.
         11   -1    0    0    0    0 -0.00000000000E+00 -0.00000000000E+00 -0.45593999997E+02  0.45594000000E+02  0.51100000000E-03 0. -1.
    9900012    2    1    2    0    0 -0.96335760481E+01 -0.65946584667E+01 -0.41801050027E+02  0.47787273150E+02  0.20000009600E+02 0.  0.
        -12    1    1    2    0    0  0.96335760481E+01  0.65946584667E+01  0.41801050027E+02  0.43400726850E+02  0.00000000000E+00 0.  1.
         11    1    3    3    0    0  0.10359061491E+01 -0.98923410866E+01 -0.28219038544E+02  0.29920655915E+02  0.51100000000E-03 0. -1.
        -11    1    3    3    0    0 -0.97212418709E+01  0.24396912705E+01 -0.10430189000E+02  0.14465250770E+02  0.51100000000E-03 0.  1.
         12    1    3    3    0    0 -0.94824032629E+00  0.85799134938E+00 -0.31518224819E+01  0.34013664650E+01  0.00000000000E+00 0. -1.
</event>
<event>
 7    1  0.2458979E-009  0.4778727E+02  0.7816164E-02  0.1312668E+00
        -11   -1    0    0    0    0  0.00000000000E+00  0.00000000000E+00  0.45593999997E+02  0.45594000000E+02  0.51100000000E-03 0.  1.
         11   -1    0    0    0    0 -0.00000000000E+00 -0.00000000000E+00 -0.45593999997E+02  0.45594000000E+02  0.51100000000E-03 0. -1.
    9900012    2    1    2    0    0 -0.21502698904E+02 -0.37429550036E+02 -0.45039916151E+01  0.47787271705E+02  0.20000003013E+02 0.  0.
        -12    1    1    2    0    0  0.21502698904E+02  0.37429550036E+02  0.45039916151E+01  0.43400728295E+02  0.00000000000E+00 0.  1.
         11    1    3    3    0    0 -0.21910686626E+02 -0.26155348112E+02 -0.61876411344E+01  0.34676610653E+02  0.51100000000E-03 0. -1.
        -11    1    3    3    0    0  0.26250586029E+01 -0.29674293294E+01  0.21364014882E+01  0.45011977377E+01  0.51100000000E-03 0.  1.
         12    1    3    3    0    0 -0.22170708806E+01 -0.83067725943E+01 -0.45275196891E+00  0.86094633148E+01  0.00000000000E+00 0. -1.
</event>
<event>
 7    1  0.2458979E-009  0.4778727E+02  0.7816164E-02  0.1312668E+00
        -11   -1    0    0    0    0  0.00000000000E+00  0.00000000000E+00  0.45593999997E+02  0.45594000000E+02  0.51100000000E-03 0.  1.
         11   -1    0    0    0    0 -0.00000000000E+00 -0.00000000000E+00 -0.45593999997E+02  0.45594000000E+02  0.51100000000E-03 0. -1.
    9900012    2    1    2    0    0 -0.18425420543E+02  0.18137948859E+02 -0.34858885269E+02  0.47787271974E+02  0.20000004240E+02 0.  0.
        -12    1    1    2    0    0  0.18425420543E+02 -0.18137948859E+02  0.34858885269E+02  0.43400728026E+02  0.00000000000E+00 0.  1.
         11    1    3    3    0    0 -0.98380696985E+01  0.90001494992E+01 -0.22701914896E+02  0.26328069557E+02  0.51100000000E-03 0.  1.
        -11    1    3    3    0    0 -0.97343655758E+01  0.14289806134E+01 -0.75890491006E+01  0.12425519115E+02  0.51100000000E-03 0. -1.
        -12    1    3    3    0    0  0.11470147315E+01  0.77088187466E+01 -0.45679212716E+01  0.90336833023E+01  0.00000000000E+00 0.  1.
</event>
<event>
 7    1  0.2458979E-009  0.4778728E+02  0.7816164E-02  0.1312668E+00
        -11   -1    0    0    0    0  0.00000000000E+00  0.00000000000E+00  0.45593999997E+02  0.45594000000E+02  0.51100000000E-03 0.  1.
         11   -1    0    0    0    0 -0.00000000000E+00 -0.00000000000E+00 -0.45593999997E+02  0.45594000000E+02  0.51100000000E-03 0. -1.
    9900012    2    1    2    0    0 -0.13585054997E+02  0.39920204023E+02 -0.10268714117E+02  0.47787275373E+02  0.20000019735E+02 0.  0.
        -12    1    1    2    0    0  0.13585054997E+02 -0.39920204023E+02  0.10268714117E+02  0.43400724627E+02  0.00000000000E+00 0.  1.
         11    1    3    3    0    0  0.22499765885E+01  0.64767980416E+00  0.18985305195E+01  0.30143493779E+01  0.51100000000E-03 0.  1.
        -11    1    3    3    0    0 -0.11899301013E+02  0.18898465556E+02 -0.66354115998E+01  0.23297511719E+02  0.51100000000E-03 0. -1.
         12    1    3    3    0    0 -0.39357305725E+01  0.20374058663E+02 -0.55318330369E+01  0.21475414276E+02  0.00000000000E+00 0. -1.
</event>
<event>
 7    1  0.2458979E-009  0.4778727E+02  0.7816164E-02  0.1312668E+00
        -11   -1    0    0    0    0  0.00000000000E+00  0.00000000000E+00  0.45593999997E+02  0.45594000000E+02  0.51100000000E-03 0.  1.
         11   -1    0    0    0    0 -0.00000000000E+00 -0.00000000000E+00 -0.45593999997E+02  0.45594000000E+02  0.51100000000E-03 0. -1.
    9900012    2    1    2    0    0 -0.27534379928E+02 -0.13722801882E+02 -0.30613161624E+02  0.47787273807E+02  0.20000012596E+02 0.  0.
        -12    1    1    2    0    0  0.27534379928E+02  0.13722801882E+02  0.30613161624E+02  0.43400726193E+02  0.00000000000E+00 0.  1.
         11    1    3    3    0    0 -0.15210125848E+02 -0.10708882043E+01 -0.18878297700E+02  0.24266949833E+02  0.51100000000E-03 0. -1.
        -11    1    3    3    0    0 -0.11715041543E+02 -0.11462919199E+02 -0.57212704745E+01  0.17360116676E+02  0.51100000000E-03 0.  1.
        -12    1    3    3    0    0 -0.60921253707E+00 -0.11889944779E+01 -0.60135934491E+01  0.61602072981E+01  0.00000000000E+00 0.  1.
</event>
<event>
 7    1  0.2458979E-009  0.4778727E+02  0.7816164E-02  0.1312668E+00
        -11   -1    0    0    0    0  0.00000000000E+00  0.00000000000E+00  0.45593999997E+02  0.45594000000E+02  0.51100000000E-03 0. -1.
         11   -1    0    0    0    0 -0.00000000000E+00 -0.00000000000E+00 -0.45593999997E+02  0.45594000000E+02  0.51100000000E-03 0.  1.
    9900012    2    1    2    0    0 -0.20299948124E+02 -0.27877683077E+02  0.26350906690E+02  0.47787269695E+02  0.19999993848E+02 0.  0.
        -12    1    1    2    0    0  0.20299948124E+02  0.27877683077E+02 -0.26350906690E+02  0.43400730305E+02  0.00000000000E+00 0.  1.
         11    1    3    3    0    0 -0.13390517614E+02 -0.70336861525E+01  0.50584403374E+01  0.15948872116E+02  0.51100000000E-03 0. -1.
        -11    1    3    3    0    0  0.10668840193E+01 -0.29838723285E+01  0.36000895128E+00  0.31892541902E+01  0.51100000000E-03 0.  1.
         12    1    3    3    0    0 -0.79763145299E+01 -0.17860124596E+02  0.20932457401E+02  0.28649143389E+02  0.00000000000E+00 0. -1.
</event>
<event>
 7    1  0.2458979E-009  0.4778726E+02  0.7816164E-02  0.1312668E+00
        -11   -1    0    0    0    0  0.00000000000E+00  0.00000000000E+00  0.45593999997E+02  0.45594000000E+02  0.51100000000E-03 0. -1.
         11   -1    0    0    0    0 -0.00000000000E+00 -0.00000000000E+00 -0.45593999997E+02  0.45594000000E+02  0.51100000000E-03 0.  1.
    9900012    2    1    2    0    0 -0.32104420010E+02 -0.22284376561E+00  0.29204128353E+02  0.47787256269E+02  0.19999932632E+02 0.  0.
        -12    1    1    2    0    0  0.32104420010E+02  0.22284376561E+00 -0.29204128353E+02  0.43400743731E+02  0.00000000000E+00 0.  1.
         11    1    3    3    0    0 -0.15086548173E+02 -0.11653733473E+01  0.16150465568E+02  0.22131415886E+02  0.51100000000E-03 0. -1.
        -11    1    3    3    0    0  0.50836842178E+00  0.30016524789E+01  0.58511824556E+01  0.65958087030E+01  0.51100000000E-03 0.  1.
        -12    1    3    3    0    0 -0.17526240259E+02 -0.20591228973E+01  0.72024803299E+01  0.19060031680E+02  0.00000000000E+00 0.  1.
</event>
<event>
 7    1  0.2458979E-009  0.4778727E+02  0.7816164E-02  0.1312668E+00
        -11   -1    0    0    0    0  0.00000000000E+00  0.00000000000E+00  0.45593999997E+02  0.45594000000E+02  0.51100000000E-03 0.  1.
         11   -1    0    0    0    0 -0.00000000000E+00 -0.00000000000E+00 -0.45593999997E+02  0.45594000000E+02  0.51100000000E-03 0. -1.
    9900012    2    1    2    0    0 -0.28417569481E+02  0.31930545545E+02 -0.75169849229E+01  0.47787273550E+02  0.20000011425E+02 0.  0.
        -12    1    1    2    0    0  0.28417569481E+02 -0.31930545545E+02  0.75169849229E+01  0.43400726450E+02  0.00000000000E+00 0.  1.
         11    1    3    3    0    0 -0.12098811935E+02  0.26365526398E+02 -0.24143233196E+01  0.29109297309E+02  0.51100000000E-03 0. -1.
        -11    1    3    3    0    0 -0.16200625360E+02  0.45867477905E+01 -0.53409256449E+01  0.17664201209E+02  0.51100000000E-03 0.  1.
        -12    1    3    3    0    0 -0.11813218580E+00  0.97827135734E+00  0.23826404167E+00  0.10137750320E+01  0.00000000000E+00 0.  1.
</event>
<event>
 7    1  0.2458979E-009  0.4778727E+02  0.7816164E-02  0.1312668E+00
        -11   -1    0    0    0    0  0.00000000000E+00  0.00000000000E+00  0.45593999997E+02  0.45594000000E+02  0.51100000000E-03 0.  1.
         11   -1    0    0    0    0 -0.00000000000E+00 -0.00000000000E+00 -0.45593999997E+02  0.45594000000E+02  0.51100000000E-03 0. -1.
    9900012    2    1    2    0    0 -0.12045211032E+02 -0.35624737174E+02 -0.21665972221E+02  0.47787270054E+02  0.19999995485E+02 0.  0.
        -12    1    1    2    0    0  0.12045211032E+02  0.35624737174E+02  0.21665972221E+02  0.43400729946E+02  0.00000000000E+00 0.  1.
         11    1    3    3    0    0 -0.88401544755E+01 -0.15945539967E+02 -0.16269534889E+02  0.24435759488E+02  0.51100000000E-03 0. -1.
        -11    1    3    3    0    0 -0.46834851349E+01 -0.10958781186E+02  0.16652817157E+01  0.12033415207E+02  0.51100000000E-03 0.  1.
        -12    1    3    3    0    0  0.14784285783E+01 -0.87204160211E+01 -0.70617190478E+01  0.11318095359E+02  0.00000000000E+00 0.  1.
</event>
<event>
 7    1  0.2458979E-009  0.4778727E+02  0.7816164E-02  0.1312668E+00
        -11   -1    0    0    0    0  0.00000000000E+00  0.00000000000E+00  0.45593999997E+02  0.45594000000E+02  0.51100000000E-03 0. -1.
         11   -1    0    0    0    0 -0.00000000000E+00 -0.00000000000E+00 -0.45593999997E+02  0.45594000000E+02  0.51100000000E-03 0.  1.
    9900012    2    1    2    0    0  0.36733414181E+02  0.17415670840E+02 -0.15197833218E+02  0.47787269099E+02  0.19999991131E+02 0.  0.
        -12    1    1    2    0    0 -0.36733414181E+02 -0.17415670840E+02  0.15197833218E+02  0.43400730901E+02  0.00000000000E+00 0.  1.
         11    1    3    3    0    0  0.11155930281E+02  0.87407531405E+01 -0.34683988773E+01  0.14590590698E+02  0.51100000000E-03 0. -1.
        -11    1    3    3    0    0  0.15433226001E+02 -0.27477538710E+01 -0.72879282184E+01  0.17287235583E+02  0.51100000000E-03 0.  1.
        -12    1    3    3    0    0  0.10144257899E+02  0.11422671571E+02 -0.44415061226E+01  0.15909442817E+02  0.00000000000E+00 0.  1.
</event>
<event>
 7    1  0.2458979E-009  0.4778727E+02  0.7816164E-02  0.1312668E+00
        -11   -1    0    0    0    0  0.00000000000E+00  0.00000000000E+00  0.45593999997E+02  0.45594000000E+02  0.51100000000E-03 0.  1.
         11   -1    0    0    0    0 -0.00000000000E+00 -0.00000000000E+00 -0.45593999997E+02  0.45594000000E+02  0.51100000000E-03 0. -1.
    9900012    2    1    2    0    0  0.19413980212E+02  0.48126370212E+01 -0.38516998385E+02  0.47787271119E+02  0.20000000341E+02 0.  0.
        -12    1    1    2    0    0 -0.19413980212E+02 -0.48126370212E+01  0.38516998385E+02  0.43400728881E+02  0.00000000000E+00 0.  1.
         11    1    3    3    0    0  0.11552108054E+02 -0.44713834301E+01 -0.19348272533E+02  0.22973900856E+02  0.51100000000E-03 0. -1.
        -11    1    3    3    0    0  0.66745507650E+00  0.84676092855E+01 -0.96937174662E+01  0.12888524426E+02  0.51100000000E-03 0.  1.
        -12    1    3    3    0    0  0.71944170817E+01  0.81641116576E+00 -0.94750083856E+01  0.11924845837E+02  0.00000000000E+00 0.  1.
</event>
<event>
 7    1  0.2458979E-009  0.4778727E+02  0.7816164E-02  0.1312668E+00
        -11   -1    0    0    0    0  0.00000000000E+00  0.00000000000E+00  0.45593999997E+02  0.45594000000E+02  0.51100000000E-03 0.  1.
         11   -1    0    0    0    0 -0.00000000000E+00 -0.00000000000E+00 -0.45593999997E+02  0.45594000000E+02  0.51100000000E-03 0. -1.
    9900012    2    1    2    0    0  0.10585437465E+02  0.23104283113E+02 -0.35181875232E+02  0.47787265797E+02  0.19999976076E+02 0.  0.
        -12    1    1    2    0    0 -0.10585437465E+02 -0.23104283113E+02  0.35181875232E+02  0.43400734203E+02  0.00000000000E+00 0.  1.
         11    1    3    3    0    0 -0.28975940391E+00  0.33343964177E+01 -0.16689007247E+02  0.17021313790E+02  0.51100000000E-03 0. -1.
        -11    1    3    3    0    0  0.24991315013E+01  0.14360062204E+02 -0.10106607171E+02  0.17736982650E+02  0.51100000000E-03 0.  1.
         12    1    3    3    0    0  0.83760653675E+01  0.54098244912E+01 -0.83862608140E+01  0.13028969357E+02  0.00000000000E+00 0. -1.
</event>
<event>
 7    1  0.2458979E-009  0.4778727E+02  0.7816164E-02  0.1312668E+00
        -11   -1    0    0    0    0  0.00000000000E+00  0.00000000000E+00  0.45593999997E+02  0.45594000000E+02  0.51100000000E-03 0. -1.
         11   -1    0    0    0    0 -0.00000000000E+00 -0.00000000000E+00 -0.45593999997E+02  0.45594000000E+02  0.51100000000E-03 0.  1.
    9900012    2    1    2    0    0  0.25917712141E+02  0.29733075073E+02  0.18106339523E+02  0.47787273199E+02  0.20000009825E+02 0.  0.
        -12    1    1    2    0    0 -0.25917712141E+02 -0.29733075073E+02 -0.18106339523E+02  0.43400726801E+02  0.00000000000E+00 0.  1.
         11    1    3    3    0    0  0.25570815074E+02  0.22000935964E+02  0.12767169823E+02  0.36068107691E+02  0.51100000000E-03 0. -1.
        -11    1    3    3    0    0 -0.11878152389E+01  0.29633753532E+01 -0.12614549036E+01  0.34327492278E+01  0.51100000000E-03 0.  1.
         12    1    3    3    0    0  0.15347123051E+01  0.47687637565E+01  0.66006246034E+01  0.82864162808E+01  0.00000000000E+00 0. -1.
</event>
<event>
 7    1  0.2458979E-009  0.4778728E+02  0.7816164E-02  0.1312668E+00
        -11   -1    0    0    0    0  0.00000000000E+00  0.00000000000E+00  0.45593999997E+02  0.45594000000E+02  0.51100000000E-03 0.  1.
         11   -1    0    0    0    0 -0.00000000000E+00 -0.00000000000E+00 -0.45593999997E+02  0.45594000000E+02  0.51100000000E-03 0. -1.
    9900012    2    1    2    0    0 -0.25903432899E+02  0.16306742347E+02 -0.30768900472E+02  0.47787275142E+02  0.20000018683E+02 0.  0.
        -12    1    1    2    0    0  0.25903432899E+02 -0.16306742347E+02  0.30768900472E+02  0.43400724858E+02  0.00000000000E+00 0.  1.
         11    1    3    3    0    0 -0.81831763369E+01 -0.39701727039E+01 -0.86653083766E+01  0.12562412817E+02  0.51100000000E-03 0. -1.
        -11    1    3    3    0    0 -0.33368093097E+01  0.29989966938E+01 -0.15007348069E+01  0.47308014924E+01  0.51100000000E-03 0.  1.
         12    1    3    3    0    0 -0.14383447253E+02  0.17277918357E+02 -0.20602857289E+02  0.30494060833E+02  0.00000000000E+00 0. -1.
</event>
<event>
 7    1  0.2458979E-009  0.4778727E+02  0.7816164E-02  0.1312668E+00
        -11   -1    0    0    0    0  0.00000000000E+00  0.00000000000E+00  0.45593999997E+02  0.45594000000E+02  0.51100000000E-03 0.  1.
         11   -1    0    0    0    0 -0.00000000000E+00 -0.00000000000E+00 -0.45593999997E+02  0.45594000000E+02  0.51100000000E-03 0. -1.
    9900012    2    1    2    0    0  0.20252275943E+02 -0.22422096399E+02 -0.31156347769E+02  0.47787273116E+02  0.20000009444E+02 0.  0.
        -12    1    1    2    0    0 -0.20252275943E+02  0.22422096399E+02  0.31156347769E+02  0.43400726884E+02  0.00000000000E+00 0.  1.
         11    1    3    3    0    0 -0.41741393252E+00 -0.37461758660E+01 -0.26580589852E+01  0.46123037454E+01  0.51100000000E-03 0.  1.
        -11    1    3    3    0    0 -0.11554642459E+01 -0.46398914728E+01 -0.20770380723E+00  0.47861081930E+01  0.51100000000E-03 0. -1.
        -12    1    3    3    0    0  0.21825154121E+02 -0.14036029060E+02 -0.28290584976E+02  0.38388861177E+02  0.00000000000E+00 0.  1.
</event>
<event>
 7    1  0.2458979E-009  0.4778727E+02  0.7816164E-02  0.1312668E+00
        -11   -1    0    0    0    0  0.00000000000E+00  0.00000000000E+00  0.45593999997E+02  0.45594000000E+02  0.51100000000E-03 0. -1.
         11   -1    0    0    0    0 -0.00000000000E+00 -0.00000000000E+00 -0.45593999997E+02  0.45594000000E+02  0.51100000000E-03 0.  1.
    9900012    2    1    2    0    0  0.22945338701E+02 -0.28888329801E+02 -0.22860423720E+02  0.47787272593E+02  0.20000007061E+02 0.  0.
        -12    1    1    2    0    0 -0.22945338701E+02  0.28888329801E+02  0.22860423720E+02  0.43400727407E+02  0.00000000000E+00 0.  1.
         11    1    3    3    0    0  0.23162582601E+02 -0.21741591211E+02 -0.17996586708E+02  0.36511356515E+02  0.51100000000E-03 0. -1.
        -11    1    3    3    0    0 -0.12565199113E+01  0.11132881530E+01 -0.16443685472E+01  0.23499363777E+01  0.51100000000E-03 0.  1.
         12    1    3    3    0    0  0.10392760112E+01 -0.82600267430E+01 -0.32194684649E+01  0.89259797008E+01  0.00000000000E+00 0. -1.
</event>
<event>
 7    1  0.2458979E-009  0.4778727E+02  0.7816164E-02  0.1312668E+00
        -11   -1    0    0    0    0  0.00000000000E+00  0.00000000000E+00  0.45593999997E+02  0.45594000000E+02  0.51100000000E-03 0.  1.
         11   -1    0    0    0    0 -0.00000000000E+00 -0.00000000000E+00 -0.45593999997E+02  0.45594000000E+02  0.51100000000E-03 0. -1.
    9900012    2    1    2    0    0  0.24338948700E+02  0.20407162361E+02 -0.29576790619E+02  0.47787271403E+02  0.20000001635E+02 0.  0.
        -12    1    1    2    0    0 -0.24338948700E+02 -0.20407162361E+02  0.29576790619E+02  0.43400728597E+02  0.00000000000E+00 0.  1.
         11    1    3    3    0    0  0.22481162806E+02  0.12878968667E+02 -0.24303015568E+02  0.35523331502E+02  0.51100000000E-03 0. -1.
        -11    1    3    3    0    0 -0.12763553054E+01  0.43006001514E+01 -0.62176970101E+01  0.76670725116E+01  0.51100000000E-03 0.  1.
         12    1    3    3    0    0  0.31341411991E+01  0.32275935420E+01  0.94392195920E+00  0.45968673891E+01  0.00000000000E+00 0. -1.
</event>
<event>
 7    1  0.2458979E-009  0.4778727E+02  0.7816164E-02  0.1312668E+00
        -11   -1    0    0    0    0  0.00000000000E+00  0.00000000000E+00  0.45593999997E+02  0.45594000000E+02  0.51100000000E-03 0. -1.
         11   -1    0    0    0    0 -0.00000000000E+00 -0.00000000000E+00 -0.45593999997E+02  0.45594000000E+02  0.51100000000E-03 0.  1.
    9900012    2    1    2    0    0 -0.17053911027E+02 -0.39763797653E+02 -0.34099251534E+01  0.47787273340E+02  0.20000010464E+02 0.  0.
        -12    1    1    2    0    0  0.17053911027E+02  0.39763797653E+02  0.34099251534E+01  0.43400726660E+02  0.00000000000E+00 0.  1.
         11    1    3    3    0    0 -0.24875192000E+01 -0.89272958923E+01  0.36817785166E+01  0.99719535211E+01  0.51100000000E-03 0. -1.
        -11    1    3    3    0    0  0.90038823915E+00  0.91903423600E+00 -0.16253775934E+01  0.20729629737E+01  0.51100000000E-03 0.  1.
        -12    1    3    3    0    0 -0.15466780066E+02 -0.31755535997E+02 -0.54663260766E+01  0.35742356845E+02  0.00000000000E+00 0.  1.
</event>
<event>
 7    1  0.2458979E-009  0.4778725E+02  0.7816164E-02  0.1312668E+00
        -11   -1    0    0    0    0  0.00000000000E+00  0.00000000000E+00  0.45593999997E+02  0.45594000000E+02  0.51100000000E-03 0.  1.
         11   -1    0    0    0    0 -0.00000000000E+00 -0.00000000000E+00 -0.45593999997E+02  0.45594000000E+02  0.51100000000E-03 0. -1.
    9900012    2    1    2    0    0  0.12669194115E+02 -0.16849742486E+02 -0.37936821629E+02  0.47787254192E+02  0.19999923163E+02 0.  0.
        -12    1    1    2    0    0 -0.12669194115E+02  0.16849742486E+02  0.37936821629E+02  0.43400745808E+02  0.00000000000E+00 0.  1.
         11    1    3    3    0    0 -0.11402022987E+01 -0.12672988921E+01 -0.16198999433E+02  0.16288452679E+02  0.51100000000E-03 0. -1.
        -11    1    3    3    0    0  0.71078528523E+01 -0.11556866031E+02 -0.81636793831E+01  0.15834405134E+02  0.51100000000E-03 0.  1.
        -12    1    3    3    0    0  0.67015435614E+01 -0.40255775626E+01 -0.13574142813E+02  0.15664396379E+02  0.00000000000E+00 0.  1.
</event>
<event>
 7    1  0.2458979E-009  0.4778728E+02  0.7816164E-02  0.1312668E+00
        -11   -1    0    0    0    0  0.00000000000E+00  0.00000000000E+00  0.45593999997E+02  0.45594000000E+02  0.51100000000E-03 0.  1.
         11   -1    0    0    0    0 -0.00000000000E+00 -0.00000000000E+00 -0.45593999997E+02  0.45594000000E+02  0.51100000000E-03 0. -1.
    9900012    2    1    2    0    0  0.18530955009E+02 -0.32912348305E+02 -0.21377638548E+02  0.47787281177E+02  0.20000046196E+02 0.  0.
        -12    1    1    2    0    0 -0.18530955009E+02  0.32912348305E+02  0.21377638548E+02  0.43400718823E+02  0.00000000000E+00 0.  1.
         11    1    3    3    0    0  0.10288508228E+01 -0.12542572954E+02 -0.77094528209E+00  0.12608292003E+02  0.51100000000E-03 0. -1.
        -11    1    3    3    0    0  0.12307350799E+01 -0.69994746570E+00  0.10012152531E+01  0.17340898292E+01  0.51100000000E-03 0.  1.
         12    1    3    3    0    0  0.16271369106E+02 -0.19669827885E+02 -0.21607908519E+02  0.33444899345E+02  0.00000000000E+00 0. -1.
</event>
<event>
 7    1  0.2458979E-009  0.4778727E+02  0.7816164E-02  0.1312668E+00
        -11   -1    0    0    0    0  0.00000000000E+00  0.00000000000E+00  0.45593999997E+02  0.45594000000E+02  0.51100000000E-03 0. -1.
         11   -1    0    0    0    0 -0.00000000000E+00 -0.00000000000E+00 -0.45593999997E+02  0.45594000000E+02  0.51100000000E-03 0.  1.
    9900012    2    1    2    0    0  0.41471588998E+02  0.11305542526E+02  0.59929394271E+01  0.47787270642E+02  0.19999998164E+02 0.  0.
        -12    1    1    2    0    0 -0.41471588998E+02 -0.11305542526E+02 -0.59929394271E+01  0.43400729358E+02  0.00000000000E+00 0.  1.
         11    1    3    3    0    0  0.40308726323E+02  0.94092725997E+01  0.45523084621E+01  0.41641942092E+02  0.51100000000E-03 0. -1.
        -11    1    3    3    0    0  0.51649438205E+00  0.35202338878E+01  0.22599098110E+01  0.42149739841E+01  0.51100000000E-03 0.  1.
         12    1    3    3    0    0  0.64636829358E+00 -0.16239639619E+01 -0.81927884605E+00  0.19303545654E+01  0.00000000000E+00 0. -1.
</event>
<event>
 7    1  0.2458979E-009  0.4778727E+02  0.7816164E-02  0.1312668E+00
        -11   -1    0    0    0    0  0.00000000000E+00  0.00000000000E+00  0.45593999997E+02  0.45594000000E+02  0.51100000000E-03 0. -1.
         11   -1    0    0    0    0 -0.00000000000E+00 -0.00000000000E+00 -0.45593999997E+02  0.45594000000E+02  0.51100000000E-03 0.  1.
    9900012    2    1    2    0    0 -0.16715675428E+02  0.15672044546E+02  0.36859149071E+02  0.47787266648E+02  0.19999979954E+02 0.  0.
        -12    1    1    2    0    0  0.16715675428E+02 -0.15672044546E+02 -0.36859149071E+02  0.43400733352E+02  0.00000000000E+00 0.  1.
         11    1    3    3    0    0 -0.85877849601E+01  0.38232628234E+01  0.25011186537E+02  0.26719409451E+02  0.51100000000E-03 0. -1.
        -11    1    3    3    0    0 -0.84942154230E+01  0.11216056985E+02  0.13351337937E+02  0.19396129896E+02  0.51100000000E-03 0.  1.
        -12    1    3    3    0    0  0.36632495482E+00  0.63272473772E+00 -0.15033754036E+01  0.16717273015E+01  0.00000000000E+00 0.  1.
</event>
<event>
 7    1  0.2458979E-009  0.4778727E+02  0.7816164E-02  0.1312668E+00
        -11   -1    0    0    0    0  0.00000000000E+00  0.00000000000E+00  0.45593999997E+02  0.45594000000E+02  0.51100000000E-03 0.  1.
         11   -1    0    0    0    0 -0.00000000000E+00 -0.00000000000E+00 -0.45593999997E+02  0.45594000000E+02  0.51100000000E-03 0. -1.
    9900012    2    1    2    0    0  0.29125011130E+02  0.31494401129E+02  0.65923941603E+01  0.47787271474E+02  0.20000001960E+02 0.  0.
        -12    1    1    2    0    0 -0.29125011130E+02 -0.31494401129E+02 -0.65923941603E+01  0.43400728526E+02  0.00000000000E+00 0.  1.
         11    1    3    3    0    0  0.22882779668E+02  0.22825748083E+02  0.47393996037E+01  0.32666470420E+02  0.51100000000E-03 0. -1.
        -11    1    3    3    0    0  0.46606911426E+01 -0.13423723111E+01  0.22206833746E+00  0.48552363440E+01  0.51100000000E-03 0.  1.
         12    1    3    3    0    0  0.15815403197E+01  0.10011025357E+02  0.16309262191E+01  0.10265564710E+02  0.00000000000E+00 0. -1.
</event>
<event>
 7    1  0.2458979E-009  0.4778727E+02  0.7816164E-02  0.1312668E+00
        -11   -1    0    0    0    0  0.00000000000E+00  0.00000000000E+00  0.45593999997E+02  0.45594000000E+02  0.51100000000E-03 0.  1.
         11   -1    0    0    0    0 -0.00000000000E+00 -0.00000000000E+00 -0.45593999997E+02  0.45594000000E+02  0.51100000000E-03 0. -1.
    9900012    2    1    2    0    0 -0.30781686899E+02  0.11940207512E+00 -0.30595695936E+02  0.47787272875E+02  0.20000008345E+02 0.  0.
        -12    1    1    2    0    0  0.30781686899E+02 -0.11940207512E+00  0.30595695936E+02  0.43400727125E+02  0.00000000000E+00 0.  1.
         11    1    3    3    0    0  0.36949153157E+00 -0.10651382992E+01 -0.62420439624E+01  0.63430400186E+01  0.51100000000E-03 0. -1.
        -11    1    3    3    0    0 -0.22533254921E+02 -0.36436843357E+01 -0.20987847858E+02  0.31008285520E+02  0.51100000000E-03 0.  1.
        -12    1    3    3    0    0 -0.86179235096E+01  0.48282247101E+01 -0.33658041149E+01  0.10435947336E+02  0.00000000000E+00 0.  1.
</event>
<event>
 7    1  0.2458979E-009  0.4778726E+02  0.7816164E-02  0.1312668E+00
        -11   -1    0    0    0    0  0.00000000000E+00  0.00000000000E+00  0.45593999997E+02  0.45594000000E+02  0.51100000000E-03 0.  1.
         11   -1    0    0    0    0 -0.00000000000E+00 -0.00000000000E+00 -0.45593999997E+02  0.45594000000E+02  0.51100000000E-03 0. -1.
    9900012    2    1    2    0    0 -0.31358990425E+02  0.26627863387E+02 -0.13827314455E+02  0.47787262517E+02  0.19999961121E+02 0.  0.
        -12    1    1    2    0    0  0.31358990425E+02 -0.26627863387E+02  0.13827314455E+02  0.43400737483E+02  0.00000000000E+00 0.  1.
         11    1    3    3    0    0 -0.23810665519E+02  0.18005005265E+02 -0.15314634174E+02  0.33550946740E+02  0.51100000000E-03 0. -1.
        -11    1    3    3    0    0 -0.27157651379E+01  0.86747542387E+01 -0.26989193346E+00  0.90939311248E+01  0.51100000000E-03 0.  1.
         12    1    3    3    0    0 -0.48325597680E+01 -0.51896116736E-01  0.17572116520E+01  0.51423846519E+01  0.00000000000E+00 0. -1.
</event>
<event>
 7    1  0.2458979E-009  0.4778727E+02  0.7816164E-02  0.1312668E+00
        -11   -1    0    0    0    0  0.00000000000E+00  0.00000000000E+00  0.45593999997E+02  0.45594000000E+02  0.51100000000E-03 0.  1.
         11   -1    0    0    0    0 -0.00000000000E+00 -0.00000000000E+00 -0.45593999997E+02  0.45594000000E+02  0.51100000000E-03 0. -1.
    9900012    2    1    2    0    0  0.14992060240E+02  0.40639867652E+02  0.26948977053E+01  0.47787272049E+02  0.20000004580E+02 0.  0.
        -12    1    1    2    0    0 -0.14992060240E+02 -0.40639867652E+02 -0.26948977053E+01  0.43400727951E+02  0.00000000000E+00 0.  1.
         11    1    3    3    0    0  0.68412473808E+01  0.18499067425E+02 -0.79076499104E+01  0.21249684437E+02  0.51100000000E-03 0. -1.
        -11    1    3    3    0    0  0.58166842663E+01  0.11970516397E+02  0.87820816196E+01  0.15945282578E+02  0.51100000000E-03 0.  1.
         12    1    3    3    0    0  0.23341285926E+01  0.10170283831E+02  0.18204659961E+01  0.10592305034E+02  0.00000000000E+00 0. -1.
</event>
<event>
 7    1  0.2458979E-009  0.4778727E+02  0.7816164E-02  0.1312668E+00
        -11   -1    0    0    0    0  0.00000000000E+00  0.00000000000E+00  0.45593999997E+02  0.45594000000E+02  0.51100000000E-03 0.  1.
         11   -1    0    0    0    0 -0.00000000000E+00 -0.00000000000E+00 -0.45593999997E+02  0.45594000000E+02  0.51100000000E-03 0. -1.
    9900012    2    1    2    0    0 -0.89997880282E+01  0.19868733743E+02 -0.37521466453E+02  0.47787271782E+02  0.20000003361E+02 0.  0.
        -12    1    1    2    0    0  0.89997880282E+01 -0.19868733743E+02  0.37521466453E+02  0.43400728218E+02  0.00000000000E+00 0.  1.
         11    1    3    3    0    0  0.45369075998E+01  0.13826728976E+01 -0.80020076338E+01  0.93020127576E+01  0.51100000000E-03 0. -1.
        -11    1    3    3    0    0 -0.99323484573E+00  0.83356213333E+01 -0.80738475774E+01  0.11647150443E+02  0.51100000000E-03 0.  1.
         12    1    3    3    0    0 -0.12543460782E+02  0.10150439512E+02 -0.21445611242E+02  0.26838108581E+02  0.00000000000E+00 0. -1.
</event>
<event>
 7    1  0.2458979E-009  0.4778727E+02  0.7816164E-02  0.1312668E+00
        -11   -1    0    0    0    0  0.00000000000E+00  0.00000000000E+00  0.45593999997E+02  0.45594000000E+02  0.51100000000E-03 0. -1.
         11   -1    0    0    0    0 -0.00000000000E+00 -0.00000000000E+00 -0.45593999997E+02  0.45594000000E+02  0.51100000000E-03 0.  1.
    9900012    2    1    2    0    0 -0.31727885166E+02  0.13042201020E+02  0.26586944233E+02  0.47787270649E+02  0.19999998197E+02 0.  0.
        -12    1    1    2    0    0  0.31727885166E+02 -0.13042201020E+02 -0.26586944233E+02  0.43400729351E+02  0.00000000000E+00 0.  1.
         11    1    3    3    0    0 -0.15350188243E+02  0.58872804813E+01  0.23908405958E+02  0.29015516991E+02  0.51100000000E-03 0. -1.
        -11    1    3    3    0    0 -0.15072288344E+02  0.48549059172E+01  0.15996025614E+01  0.15915486672E+02  0.51100000000E-03 0.  1.
        -12    1    3    3    0    0 -0.13054085780E+01  0.23000146220E+01  0.10789357140E+01  0.28562669854E+01  0.00000000000E+00 0.  1.
</event>
<event>
 7    1  0.2458979E-009  0.4778723E+02  0.7816164E-02  0.1312668E+00
        -11   -1    0    0    0    0  0.00000000000E+00  0.00000000000E+00  0.45593999997E+02  0.45594000000E+02  0.51100000000E-03 0. -1.
         11   -1    0    0    0    0 -0.00000000000E+00 -0.00000000000E+00 -0.45593999997E+02  0.45594000000E+02  0.51100000000E-03 0.  1.
    9900012    2    1    2    0    0 -0.26658010099E+02  0.34098109008E+02  0.32087873801E+01  0.47787229767E+02  0.19999811798E+02 0.  0.
        -12    1    1    2    0    0  0.26658010099E+02 -0.34098109008E+02 -0.32087873801E+01  0.43400770233E+02  0.00000000000E+00 0.  1.
         11    1    3    3    0    0 -0.23665202822E+02  0.21939378431E+02 -0.31997839643E+01  0.32428641172E+02  0.51100000000E-03 0. -1.
        -11    1    3    3    0    0 -0.39071331692E+01  0.12165427680E+02  0.50898859754E+01  0.13753917978E+02  0.51100000000E-03 0.  1.
         12    1    3    3    0    0  0.91432589180E+00 -0.66971030589E-02  0.13186853690E+01  0.16046706173E+01  0.00000000000E+00 0. -1.
</event>
<event>
 7    1  0.2458979E-009  0.4778727E+02  0.7816164E-02  0.1312668E+00
        -11   -1    0    0    0    0  0.00000000000E+00  0.00000000000E+00  0.45593999997E+02  0.45594000000E+02  0.51100000000E-03 0. -1.
         11   -1    0    0    0    0 -0.00000000000E+00 -0.00000000000E+00 -0.45593999997E+02  0.45594000000E+02  0.51100000000E-03 0.  1.
    9900012    2    1    2    0    0  0.15516232519E+01 -0.39335250586E+02  0.18274410843E+02  0.47787267690E+02  0.19999984704E+02 0.  0.
        -12    1    1    2    0    0 -0.15516232519E+01  0.39335250586E+02 -0.18274410843E+02  0.43400732310E+02  0.00000000000E+00 0.  1.
         11    1    3    3    0    0  0.10598751932E+01 -0.37044012832E+02  0.13967755193E+02  0.39604045343E+02  0.51100000000E-03 0. -1.
        -11    1    3    3    0    0 -0.22886592019E+01 -0.19513248075E+00  0.40944808370E+01  0.46947642340E+01  0.51100000000E-03 0.  1.
         12    1    3    3    0    0  0.27804072607E+01 -0.20961052738E+01  0.21217481273E+00  0.34884581129E+01  0.00000000000E+00 0. -1.
</event>
<event>
 7    1  0.2458979E-009  0.4778727E+02  0.7816164E-02  0.1312668E+00
        -11   -1    0    0    0    0  0.00000000000E+00  0.00000000000E+00  0.45593999997E+02  0.45594000000E+02  0.51100000000E-03 0.  1.
         11   -1    0    0    0    0 -0.00000000000E+00 -0.00000000000E+00 -0.45593999997E+02  0.45594000000E+02  0.51100000000E-03 0. -1.
    9900012    2    1    2    0    0 -0.31603732145E+02  0.26894693063E+02  0.12708391217E+02  0.47787267198E+02  0.19999982461E+02 0.  0.
        -12    1    1    2    0    0  0.31603732145E+02 -0.26894693063E+02 -0.12708391217E+02  0.43400732802E+02  0.00000000000E+00 0.  1.
         11    1    3    3    0    0 -0.26468989956E+02  0.27329640062E+02  0.10948177838E+02  0.39590140862E+02  0.51100000000E-03 0. -1.
        -11    1    3    3    0    0 -0.64596296325E+01 -0.10240759780E+01  0.16362361149E+01  0.67418703252E+01  0.51100000000E-03 0.  1.
         12    1    3    3    0    0  0.13248874441E+01  0.58912897915E+00  0.12397726443E+00  0.14552560104E+01  0.00000000000E+00 0. -1.
</event>
<event>
 7    1  0.2458979E-009  0.4778727E+02  0.7816164E-02  0.1312668E+00
        -11   -1    0    0    0    0  0.00000000000E+00  0.00000000000E+00  0.45593999997E+02  0.45594000000E+02  0.51100000000E-03 0.  1.
         11   -1    0    0    0    0 -0.00000000000E+00 -0.00000000000E+00 -0.45593999997E+02  0.45594000000E+02  0.51100000000E-03 0. -1.
    9900012    2    1    2    0    0  0.26885548232E+01  0.22466980756E+01 -0.43259068824E+02  0.47787274029E+02  0.20000013608E+02 0.  0.
        -12    1    1    2    0    0 -0.26885548232E+01 -0.22466980756E+01  0.43259068824E+02  0.43400725971E+02  0.00000000000E+00 0.  1.
         11    1    3    3    0    0  0.62145087382E+01  0.90556177258E+00 -0.16268931732E+02  0.17438987956E+02  0.51100000000E-03 0.  1.
        -11    1    3    3    0    0 -0.59040386411E+01 -0.44591728554E+01 -0.11964802172E+02  0.14067636123E+02  0.51100000000E-03 0. -1.
         12    1    3    3    0    0  0.23780847261E+01  0.58003091584E+01 -0.15025334921E+02  0.16280649949E+02  0.00000000000E+00 0. -1.
</event>
<event>
 7    1  0.2458979E-009  0.4778727E+02  0.7816164E-02  0.1312668E+00
        -11   -1    0    0    0    0  0.00000000000E+00  0.00000000000E+00  0.45593999997E+02  0.45594000000E+02  0.51100000000E-03 0.  1.
         11   -1    0    0    0    0 -0.00000000000E+00 -0.00000000000E+00 -0.45593999997E+02  0.45594000000E+02  0.51100000000E-03 0. -1.
    9900012    2    1    2    0    0  0.22439437907E+02  0.33265276429E+02 -0.16538333721E+02  0.47787268765E+02  0.19999989608E+02 0.  0.
        -12    1    1    2    0    0 -0.22439437907E+02 -0.33265276429E+02  0.16538333721E+02  0.43400731235E+02  0.00000000000E+00 0.  1.
         11    1    3    3    0    0  0.20079558291E+02  0.24516159197E+02 -0.12335276201E+02  0.34005731314E+02  0.51100000000E-03 0. -1.
        -11    1    3    3    0    0 -0.14754651876E+01  0.34930252129E+01 -0.59399399803E+01  0.70470639197E+01  0.51100000000E-03 0.  1.
        -12    1    3    3    0    0  0.38353448033E+01  0.52560920187E+01  0.17368824608E+01  0.67344735319E+01  0.00000000000E+00 0.  1.
</event>
<event>
 7    1  0.2458979E-009  0.4778724E+02  0.7816164E-02  0.1312668E+00
        -11   -1    0    0    0    0  0.00000000000E+00  0.00000000000E+00  0.45593999997E+02  0.45594000000E+02  0.51100000000E-03 0. -1.
         11   -1    0    0    0    0 -0.00000000000E+00 -0.00000000000E+00 -0.45593999997E+02  0.45594000000E+02  0.51100000000E-03 0.  1.
    9900012    2    1    2    0    0  0.22532355930E+02  0.74930679078E+01  0.36328672395E+02  0.47787244610E+02  0.19999879475E+02 0.  0.
        -12    1    1    2    0    0 -0.22532355930E+02 -0.74930679078E+01 -0.36328672395E+02  0.43400755390E+02  0.00000000000E+00 0.  1.
         11    1    3    3    0    0  0.11699394249E+02 -0.15168455309E+01  0.24933345399E+02  0.27583479824E+02  0.51100000000E-03 0. -1.
        -11    1    3    3    0    0 -0.25675014275E+00 -0.73298006367E+00 -0.75621501907E+00  0.10839934620E+01  0.51100000000E-03 0.  1.
         12    1    3    3    0    0  0.11089711823E+02  0.97428935023E+01  0.12151542015E+02  0.19119771324E+02  0.00000000000E+00 0. -1.
</event>
<event>
 7    1  0.2458979E-009  0.4778728E+02  0.7816164E-02  0.1312668E+00
        -11   -1    0    0    0    0  0.00000000000E+00  0.00000000000E+00  0.45593999997E+02  0.45594000000E+02  0.51100000000E-03 0. -1.
         11   -1    0    0    0    0 -0.00000000000E+00 -0.00000000000E+00 -0.45593999997E+02  0.45594000000E+02  0.51100000000E-03 0.  1.
    9900012    2    1    2    0    0  0.13344488263E+02 -0.51644479942E+01  0.40974086583E+02  0.47787278101E+02  0.20000032172E+02 0.  0.
        -12    1    1    2    0    0 -0.13344488263E+02  0.51644479942E+01 -0.40974086583E+02  0.43400721899E+02  0.00000000000E+00 0.  1.
         11    1    3    3    0    0 -0.11305169143E+01 -0.18811162247E+00  0.15990209495E+01  0.19673135830E+01  0.51100000000E-03 0. -1.
        -11    1    3    3    0    0 -0.19302297732E+01 -0.29353634671E+01  0.20196268869E+02  0.20499546877E+02  0.51100000000E-03 0.  1.
        -12    1    3    3    0    0  0.16405234951E+02 -0.20409729047E+01  0.19178796764E+02  0.25320417641E+02  0.00000000000E+00 0.  1.
</event>
<event>
 7    1  0.2458979E-009  0.4778727E+02  0.7816164E-02  0.1312668E+00
        -11   -1    0    0    0    0  0.00000000000E+00  0.00000000000E+00  0.45593999997E+02  0.45594000000E+02  0.51100000000E-03 0.  1.
         11   -1    0    0    0    0 -0.00000000000E+00 -0.00000000000E+00 -0.45593999997E+02  0.45594000000E+02  0.51100000000E-03 0. -1.
    9900012    2    1    2    0    0  0.10258539033E+02  0.63986449907E+01 -0.41682645624E+02  0.47787271584E+02  0.20000002461E+02 0.  0.
        -12    1    1    2    0    0 -0.10258539033E+02 -0.63986449907E+01  0.41682645624E+02  0.43400728416E+02  0.00000000000E+00 0.  1.
         11    1    3    3    0    0  0.11304230802E+01 -0.12150325900E+01 -0.75869978275E+01  0.77663824803E+01  0.51100000000E-03 0. -1.
        -11    1    3    3    0    0  0.20012425963E+01 -0.45092230357E+01 -0.17921886002E+02  0.18588492743E+02  0.51100000000E-03 0.  1.
        -12    1    3    3    0    0  0.71268733561E+01  0.12122900616E+02 -0.16173761794E+02  0.21432396361E+02  0.00000000000E+00 0.  1.
</event>
<event>
 7    1  0.2458979E-009  0.4778727E+02  0.7816164E-02  0.1312668E+00
        -11   -1    0    0    0    0  0.00000000000E+00  0.00000000000E+00  0.45593999997E+02  0.45594000000E+02  0.51100000000E-03 0.  1.
         11   -1    0    0    0    0 -0.00000000000E+00 -0.00000000000E+00 -0.45593999997E+02  0.45594000000E+02  0.51100000000E-03 0. -1.
    9900012    2    1    2    0    0  0.17407982125E+02  0.28999364110E+02 -0.27195997953E+02  0.47787271146E+02  0.20000000461E+02 0.  0.
        -12    1    1    2    0    0 -0.17407982125E+02 -0.28999364110E+02  0.27195997953E+02  0.43400728854E+02  0.00000000000E+00 0.  1.
         11    1    3    3    0    0  0.16411495466E+02  0.17392838118E+02 -0.26406747905E+02  0.35625332790E+02  0.51100000000E-03 0. -1.
        -11    1    3    3    0    0 -0.64289085220E+00  0.24859398611E+01  0.94160834323E+00  0.27349281844E+01  0.51100000000E-03 0.  1.
         12    1    3    3    0    0  0.16393775112E+01  0.91205861309E+01 -0.17308583913E+01  0.94270101711E+01  0.00000000000E+00 0. -1.
</event>
<event>
 7    1  0.2458979E-009  0.4778727E+02  0.7816164E-02  0.1312668E+00
        -11   -1    0    0    0    0  0.00000000000E+00  0.00000000000E+00  0.45593999997E+02  0.45594000000E+02  0.51100000000E-03 0.  1.
         11   -1    0    0    0    0 -0.00000000000E+00 -0.00000000000E+00 -0.45593999997E+02  0.45594000000E+02  0.51100000000E-03 0. -1.
    9900012    2    1    2    0    0  0.97456330015E+00 -0.31772995166E+02 -0.29549115514E+02  0.47787271629E+02  0.20000002667E+02 0.  0.
        -12    1    1    2    0    0 -0.97456330015E+00  0.31772995166E+02  0.29549115514E+02  0.43400728371E+02  0.00000000000E+00 0.  1.
         11    1    3    3    0    0  0.30132940649E+01 -0.38622962494E+01 -0.36419344768E+01  0.61041756556E+01  0.51100000000E-03 0. -1.
        -11    1    3    3    0    0  0.18784994978E+01 -0.28053596210E+02 -0.25080342911E+02  0.37677003881E+02  0.51100000000E-03 0.  1.
        -12    1    3    3    0    0 -0.39172302625E+01  0.14289729380E+00 -0.82683812661E+00  0.40060920925E+01  0.00000000000E+00 0.  1.
</event>
<event>
 7    1  0.2458979E-009  0.4778727E+02  0.7816164E-02  0.1312668E+00
        -11   -1    0    0    0    0  0.00000000000E+00  0.00000000000E+00  0.45593999997E+02  0.45594000000E+02  0.51100000000E-03 0. -1.
         11   -1    0    0    0    0 -0.00000000000E+00 -0.00000000000E+00 -0.45593999997E+02  0.45594000000E+02  0.51100000000E-03 0.  1.
    9900012    2    1    2    0    0 -0.42208972752E+02 -0.98057603468E+01 -0.24233772957E+01  0.47787273344E+02  0.20000010483E+02 0.  0.
        -12    1    1    2    0    0  0.42208972752E+02  0.98057603468E+01  0.24233772957E+01  0.43400726656E+02  0.00000000000E+00 0.  1.
         11    1    3    3    0    0 -0.37804021871E+01  0.14459808414E+01  0.48508415553E+01  0.63176708798E+01  0.51100000000E-03 0. -1.
        -11    1    3    3    0    0 -0.29057354172E+02 -0.62207174860E+01 -0.81039335222E+01  0.30800988560E+02  0.51100000000E-03 0.  1.
         12    1    3    3    0    0 -0.93712163936E+01 -0.50310237023E+01  0.82971467129E+00  0.10668613904E+02  0.00000000000E+00 0. -1.
</event>
<event>
 7    1  0.2458979E-009  0.4778727E+02  0.7816164E-02  0.1312668E+00
        -11   -1    0    0    0    0  0.00000000000E+00  0.00000000000E+00  0.45593999997E+02  0.45594000000E+02  0.51100000000E-03 0. -1.
         11   -1    0    0    0    0 -0.00000000000E+00 -0.00000000000E+00 -0.45593999997E+02  0.45594000000E+02  0.51100000000E-03 0.  1.
    9900012    2    1    2    0    0  0.19915763392E+02 -0.31508897842E+02 -0.22230047297E+02  0.47787271002E+02  0.19999999809E+02 0.  0.
        -12    1    1    2    0    0 -0.19915763392E+02  0.31508897842E+02  0.22230047297E+02  0.43400728998E+02  0.00000000000E+00 0.  1.
         11    1    3    3    0    0  0.34920825069E+01 -0.52855378570E-01  0.16180003292E+00  0.34962284590E+01  0.51100000000E-03 0. -1.
        -11    1    3    3    0    0  0.86818132614E+01 -0.92861501257E+01 -0.13925718498E+01  0.12788499610E+02  0.51100000000E-03 0.  1.
        -12    1    3    3    0    0  0.77418676232E+01 -0.22169892338E+02 -0.20999275480E+02  0.31502542933E+02  0.00000000000E+00 0.  1.
</event>
<event>
 7    1  0.2458979E-009  0.4778727E+02  0.7816164E-02  0.1312668E+00
        -11   -1    0    0    0    0  0.00000000000E+00  0.00000000000E+00  0.45593999997E+02  0.45594000000E+02  0.51100000000E-03 0.  1.
         11   -1    0    0    0    0 -0.00000000000E+00 -0.00000000000E+00 -0.45593999997E+02  0.45594000000E+02  0.51100000000E-03 0. -1.
    9900012    2    1    2    0    0  0.30678978727E+02  0.30695250479E+02  0.47468019541E+00  0.47787268912E+02  0.19999990277E+02 0.  0.
        -12    1    1    2    0    0 -0.30678978727E+02 -0.30695250479E+02 -0.47468019541E+00  0.43400731088E+02  0.00000000000E+00 0.  1.
         11    1    3    3    0    0  0.68894304008E+01  0.77275576919E+01 -0.56681735189E+01  0.11802863654E+02  0.51100000000E-03 0. -1.
        -11    1    3    3    0    0  0.10795225336E+02  0.16854587437E+02  0.78976681421E+01  0.21517136660E+02  0.51100000000E-03 0.  1.
         12    1    3    3    0    0  0.12994322991E+02  0.61131053499E+01 -0.17548144278E+01  0.14467268598E+02  0.00000000000E+00 0. -1.
</event>
<event>
 7    1  0.2458979E-009  0.4778722E+02  0.7816164E-02  0.1312668E+00
        -11   -1    0    0    0    0  0.00000000000E+00  0.00000000000E+00  0.45593999997E+02  0.45594000000E+02  0.51100000000E-03 0.  1.
         11   -1    0    0    0    0 -0.00000000000E+00 -0.00000000000E+00 -0.45593999997E+02  0.45594000000E+02  0.51100000000E-03 0. -1.
    9900012    2    1    2    0    0 -0.27517577147E+02 -0.30290396530E+02 -0.14453462641E+02  0.47787219404E+02  0.19999764551E+02 0.  0.
        -12    1    1    2    0    0  0.27517577147E+02  0.30290396530E+02  0.14453462641E+02  0.43400780596E+02  0.00000000000E+00 0.  1.
         11    1    3    3    0    0 -0.16124312716E+02 -0.17127094685E+02 -0.76246420990E+01  0.24727838569E+02  0.51100000000E-03 0. -1.
        -11    1    3    3    0    0  0.51907279306E+00 -0.18931546927E+01 -0.63576751207E+01  0.66538338164E+01  0.51100000000E-03 0.  1.
        -12    1    3    3    0    0 -0.11912337225E+02 -0.11270147152E+02 -0.47114542107E+00  0.16405547019E+02  0.00000000000E+00 0.  1.
</event>
<event>
 7    1  0.2458979E-009  0.4778727E+02  0.7816164E-02  0.1312668E+00
        -11   -1    0    0    0    0  0.00000000000E+00  0.00000000000E+00  0.45593999997E+02  0.45594000000E+02  0.51100000000E-03 0. -1.
         11   -1    0    0    0    0 -0.00000000000E+00 -0.00000000000E+00 -0.45593999997E+02  0.45594000000E+02  0.51100000000E-03 0.  1.
    9900012    2    1    2    0    0 -0.15534645038E+02  0.31762957512E+02  0.25167689305E+02  0.47787271304E+02  0.20000001184E+02 0.  0.
        -12    1    1    2    0    0  0.15534645038E+02 -0.31762957512E+02 -0.25167689305E+02  0.43400728696E+02  0.00000000000E+00 0.  1.
         11    1    3    3    0    0 -0.34305619388E+01  0.64114186094E+01  0.10903775646E+02  0.13106005013E+02  0.51100000000E-03 0. -1.
        -11    1    3    3    0    0 -0.13485774062E+02  0.25926092463E+02  0.11246396961E+02  0.31313093384E+02  0.51100000000E-03 0.  1.
        -12    1    3    3    0    0  0.13816909627E+01 -0.57455355982E+00  0.30175166980E+01  0.33681729071E+01  0.00000000000E+00 0.  1.
</event>
<event>
 7    1  0.2458979E-009  0.4778727E+02  0.7816164E-02  0.1312668E+00
        -11   -1    0    0    0    0  0.00000000000E+00  0.00000000000E+00  0.45593999997E+02  0.45594000000E+02  0.51100000000E-03 0.  1.
         11   -1    0    0    0    0 -0.00000000000E+00 -0.00000000000E+00 -0.45593999997E+02  0.45594000000E+02  0.51100000000E-03 0. -1.
    9900012    2    1    2    0    0  0.38748347787E+02 -0.19454679537E+02  0.19246116911E+01  0.47787272561E+02  0.20000006913E+02 0.  0.
        -12    1    1    2    0    0 -0.38748347787E+02  0.19454679537E+02 -0.19246116911E+01  0.43400727439E+02  0.00000000000E+00 0.  1.
         11    1    3    3    0    0  0.15443890385E+02 -0.15065298386E+02 -0.40681178750E+01  0.21955103028E+02  0.51100000000E-03 0. -1.
        -11    1    3    3    0    0  0.69340627334E+01  0.21526576392E+01  0.15706739874E+00  0.72622194494E+01  0.51100000000E-03 0.  1.
         12    1    3    3    0    0  0.16370394669E+02 -0.65420387900E+01  0.58356621674E+01  0.18569950083E+02  0.00000000000E+00 0. -1.
</event>
<event>
 7    1  0.2458979E-009  0.4778727E+02  0.7816164E-02  0.1312668E+00
        -11   -1    0    0    0    0  0.00000000000E+00  0.00000000000E+00  0.45593999997E+02  0.45594000000E+02  0.51100000000E-03 0. -1.
         11   -1    0    0    0    0 -0.00000000000E+00 -0.00000000000E+00 -0.45593999997E+02  0.45594000000E+02  0.51100000000E-03 0.  1.
    9900012    2    1    2    0    0 -0.20534007046E+02 -0.37000821625E+02 -0.96393408730E+01  0.47787272601E+02  0.20000007095E+02 0.  0.
        -12    1    1    2    0    0  0.20534007046E+02  0.37000821625E+02  0.96393408730E+01  0.43400727399E+02  0.00000000000E+00 0.  1.
         11    1    3    3    0    0 -0.16300693128E+02 -0.30968555095E+02 -0.11775376864E+02  0.36924565017E+02  0.51100000000E-03 0. -1.
        -11    1    3    3    0    0 -0.20610203987E+01 -0.33549157992E+01 -0.28073550308E+01  0.48357530575E+01  0.51100000000E-03 0.  1.
         12    1    3    3    0    0 -0.21722935189E+01 -0.26773507316E+01  0.49433910216E+01  0.60269545265E+01  0.00000000000E+00 0. -1.
</event>
<event>
 7    1  0.2458979E-009  0.4778727E+02  0.7816164E-02  0.1312668E+00
        -11   -1    0    0    0    0  0.00000000000E+00  0.00000000000E+00  0.45593999997E+02  0.45594000000E+02  0.51100000000E-03 0. -1.
         11   -1    0    0    0    0 -0.00000000000E+00 -0.00000000000E+00 -0.45593999997E+02  0.45594000000E+02  0.51100000000E-03 0.  1.
    9900012    2    1    2    0    0 -0.31720500665E+02 -0.73033505169E+01  0.28707039068E+02  0.47787272089E+02  0.20000004761E+02 0.  0.
        -12    1    1    2    0    0  0.31720500665E+02  0.73033505169E+01 -0.28707039068E+02  0.43400727911E+02  0.00000000000E+00 0.  1.
         11    1    3    3    0    0 -0.13903910988E+02 -0.22534891476E+01  0.12267971215E+02  0.18678866992E+02  0.51100000000E-03 0. -1.
        -11    1    3    3    0    0 -0.98832627757E+01 -0.10094985281E+02  0.12678984587E+02  0.18982735876E+02  0.51100000000E-03 0.  1.
        -12    1    3    3    0    0 -0.79333269008E+01  0.50451239118E+01  0.37600832655E+01  0.10125669221E+02  0.00000000000E+00 0.  1.
</event>
<event>
 7    1  0.2458979E-009  0.4778727E+02  0.7816164E-02  0.1312668E+00
        -11   -1    0    0    0    0  0.00000000000E+00  0.00000000000E+00  0.45593999997E+02  0.45594000000E+02  0.51100000000E-03 0.  1.
         11   -1    0    0    0    0 -0.00000000000E+00 -0.00000000000E+00 -0.45593999997E+02  0.45594000000E+02  0.51100000000E-03 0. -1.
    9900012    2    1    2    0    0 -0.14004031301E+01  0.17961023107E+02 -0.39484980015E+02  0.47787272740E+02  0.20000007729E+02 0.  0.
        -12    1    1    2    0    0  0.14004031301E+01 -0.17961023107E+02  0.39484980015E+02  0.43400727260E+02  0.00000000000E+00 0.  1.
         11    1    3    3    0    0  0.23829877943E+01  0.15565610260E+02 -0.29462636995E+02  0.33406793209E+02  0.51100000000E-03 0. -1.
        -11    1    3    3    0    0  0.32323376169E+00 -0.21908332297E+00  0.16700499740E+01  0.17150932172E+01  0.51100000000E-03 0.  1.
         12    1    3    3    0    0 -0.41066246861E+01  0.26144961701E+01 -0.11692392994E+02  0.12665386313E+02  0.00000000000E+00 0. -1.
</event>
<event>
 7    1  0.2458979E-009  0.4778728E+02  0.7816164E-02  0.1312668E+00
        -11   -1    0    0    0    0  0.00000000000E+00  0.00000000000E+00  0.45593999997E+02  0.45594000000E+02  0.51100000000E-03 0.  1.
         11   -1    0    0    0    0 -0.00000000000E+00 -0.00000000000E+00 -0.45593999997E+02  0.45594000000E+02  0.51100000000E-03 0. -1.
    9900012    2    1    2    0    0 -0.34872738381E+02  0.94521897311E+01 -0.24045189192E+02  0.47787275396E+02  0.20000019840E+02 0.  0.
        -12    1    1    2    0    0  0.34872738381E+02 -0.94521897311E+01  0.24045189192E+02  0.43400724604E+02  0.00000000000E+00 0.  1.
         11    1    3    3    0    0 -0.12331746277E+02 -0.13010052889E+01 -0.16896626928E+02  0.20958544387E+02  0.51100000000E-03 0. -1.
        -11    1    3    3    0    0 -0.10770089851E+02  0.53336837706E+01  0.22123127777E-01  0.12018465279E+02  0.51100000000E-03 0.  1.
        -12    1    3    3    0    0 -0.11770902253E+02  0.54195112495E+01 -0.71706853916E+01  0.14810265731E+02  0.00000000000E+00 0.  1.
</event>
<event>
 7    1  0.2458979E-009  0.4778726E+02  0.7816164E-02  0.1312668E+00
        -11   -1    0    0    0    0  0.00000000000E+00  0.00000000000E+00  0.45593999997E+02  0.45594000000E+02  0.51100000000E-03 0.  1.
         11   -1    0    0    0    0 -0.00000000000E+00 -0.00000000000E+00 -0.45593999997E+02  0.45594000000E+02  0.51100000000E-03 0. -1.
    9900012    2    1    2    0    0 -0.31640636289E+02 -0.17896909679E+01 -0.29652847621E+02  0.47787260022E+02  0.19999949746E+02 0.  0.
        -12    1    1    2    0    0  0.31640636289E+02  0.17896909679E+01  0.29652847621E+02  0.43400739978E+02  0.00000000000E+00 0.  1.
         11    1    3    3    0    0 -0.25855255138E+02 -0.21673055554E+01 -0.19821432899E+02  0.32650890249E+02  0.51100000000E-03 0. -1.
        -11    1    3    3    0    0  0.63861954717E+00  0.76943807424E+00  0.16759025410E+01  0.19515428420E+01  0.51100000000E-03 0.  1.
         12    1    3    3    0    0 -0.64240006989E+01 -0.39182348674E+00 -0.11507317263E+02  0.13184826932E+02  0.00000000000E+00 0. -1.
</event>
<event>
 7    1  0.2458979E-009  0.4778722E+02  0.7816164E-02  0.1312668E+00
        -11   -1    0    0    0    0  0.00000000000E+00  0.00000000000E+00  0.45593999997E+02  0.45594000000E+02  0.51100000000E-03 0.  1.
         11   -1    0    0    0    0 -0.00000000000E+00 -0.00000000000E+00 -0.45593999997E+02  0.45594000000E+02  0.51100000000E-03 0. -1.
    9900012    2    1    2    0    0 -0.24173820315E+02  0.25928855924E+02 -0.25038944892E+02  0.47787217525E+02  0.19999755984E+02 0.  0.
        -12    1    1    2    0    0  0.24173820315E+02 -0.25928855924E+02  0.25038944892E+02  0.43400782475E+02  0.00000000000E+00 0.  1.
         11    1    3    3    0    0 -0.78590179512E+01  0.16672786367E+02 -0.16438104484E+02  0.24697312560E+02  0.51100000000E-03 0. -1.
        -11    1    3    3    0    0 -0.67958467012E+01 -0.89882705333E+00 -0.55992406215E+01  0.88511534987E+01  0.51100000000E-03 0.  1.
         12    1    3    3    0    0 -0.95189556623E+01  0.10154896610E+02 -0.30015997868E+01  0.14238751467E+02  0.00000000000E+00 0. -1.
</event>
<event>
 7    1  0.2458979E-009  0.4778727E+02  0.7816164E-02  0.1312668E+00
        -11   -1    0    0    0    0  0.00000000000E+00  0.00000000000E+00  0.45593999997E+02  0.45594000000E+02  0.51100000000E-03 0.  1.
         11   -1    0    0    0    0 -0.00000000000E+00 -0.00000000000E+00 -0.45593999997E+02  0.45594000000E+02  0.51100000000E-03 0. -1.
    9900012    2    1    2    0    0 -0.20517752173E+01 -0.31115619759E+02 -0.30186612668E+02  0.47787272369E+02  0.20000006040E+02 0.  0.
        -12    1    1    2    0    0  0.20517752173E+01  0.31115619759E+02  0.30186612668E+02  0.43400727631E+02  0.00000000000E+00 0.  1.
         11    1    3    3    0    0  0.36450837520E+01 -0.11171018115E+02 -0.10407080071E+02  0.15696674716E+02  0.51100000000E-03 0. -1.
        -11    1    3    3    0    0 -0.54171875586E+01 -0.29003360572E+01 -0.22476530796E+00  0.61488527381E+01  0.51100000000E-03 0.  1.
        -12    1    3    3    0    0 -0.27967141064E+00 -0.17044265587E+02 -0.19554767289E+02  0.25941744915E+02  0.00000000000E+00 0.  1.
</event>
<event>
 7    1  0.2458979E-009  0.4778727E+02  0.7816164E-02  0.1312668E+00
        -11   -1    0    0    0    0  0.00000000000E+00  0.00000000000E+00  0.45593999997E+02  0.45594000000E+02  0.51100000000E-03 0.  1.
         11   -1    0    0    0    0 -0.00000000000E+00 -0.00000000000E+00 -0.45593999997E+02  0.45594000000E+02  0.51100000000E-03 0. -1.
    9900012    2    1    2    0    0 -0.35880527006E+02  0.24190914751E+02 -0.33182538237E+01  0.47787269786E+02  0.19999994261E+02 0.  0.
        -12    1    1    2    0    0  0.35880527006E+02 -0.24190914751E+02  0.33182538237E+01  0.43400730214E+02  0.00000000000E+00 0.  1.
         11    1    3    3    0    0 -0.12647319801E+02  0.43300990847E+01 -0.25607781540E+01  0.13611099928E+02  0.51100000000E-03 0. -1.
        -11    1    3    3    0    0 -0.89585691519E+01  0.11193269269E+02 -0.74836001588E+01  0.16172492380E+02  0.51100000000E-03 0.  1.
        -12    1    3    3    0    0 -0.14274638053E+02  0.86675463966E+01  0.67261244890E+01  0.18003677478E+02  0.00000000000E+00 0.  1.
</event>
<event>
 7    1  0.2458979E-009  0.4778728E+02  0.7816164E-02  0.1312668E+00
        -11   -1    0    0    0    0  0.00000000000E+00  0.00000000000E+00  0.45593999997E+02  0.45594000000E+02  0.51100000000E-03 0. -1.
         11   -1    0    0    0    0 -0.00000000000E+00 -0.00000000000E+00 -0.45593999997E+02  0.45594000000E+02  0.51100000000E-03 0.  1.
    9900012    2    1    2    0    0 -0.19544870448E+02  0.15815874150E+02  0.35376250350E+02  0.47787275066E+02  0.20000018336E+02 0.  0.
        -12    1    1    2    0    0  0.19544870448E+02 -0.15815874150E+02 -0.35376250350E+02  0.43400724934E+02  0.00000000000E+00 0.  1.
         11    1    3    3    0    0 -0.14979618535E+02  0.61045764728E+01  0.30031589392E+02  0.34110866114E+02  0.51100000000E-03 0. -1.
        -11    1    3    3    0    0 -0.20504432877E+01  0.89569875398E+01  0.59951878969E+01  0.10971518657E+02  0.51100000000E-03 0.  1.
         12    1    3    3    0    0 -0.25148086258E+01  0.75431013779E+00 -0.65052693922E+00  0.27048902948E+01  0.00000000000E+00 0. -1.
</event>
<event>
 7    1  0.2458979E-009  0.4778727E+02  0.7816164E-02  0.1312668E+00
        -11   -1    0    0    0    0  0.00000000000E+00  0.00000000000E+00  0.45593999997E+02  0.45594000000E+02  0.51100000000E-03 0.  1.
         11   -1    0    0    0    0 -0.00000000000E+00 -0.00000000000E+00 -0.45593999997E+02  0.45594000000E+02  0.51100000000E-03 0. -1.
    9900012    2    1    2    0    0  0.23659130651E+02 -0.18696230969E+02 -0.31214096536E+02  0.47787270304E+02  0.19999996624E+02 0.  0.
        -12    1    1    2    0    0 -0.23659130651E+02  0.18696230969E+02  0.31214096536E+02  0.43400729696E+02  0.00000000000E+00 0.  1.
         11    1    3    3    0    0  0.10924141881E+02 -0.16700315504E+02 -0.20043493039E+02  0.28283900495E+02  0.51100000000E-03 0. -1.
        -11    1    3    3    0    0  0.10200076064E+02 -0.26206048513E+00 -0.27903758487E+01  0.10578110656E+02  0.51100000000E-03 0.  1.
        -12    1    3    3    0    0  0.25349127061E+01 -0.17338549803E+01 -0.83802276477E+01  0.89252591529E+01  0.00000000000E+00 0.  1.
</event>
<event>
 7    1  0.2458979E-009  0.4778727E+02  0.7816164E-02  0.1312668E+00
        -11   -1    0    0    0    0  0.00000000000E+00  0.00000000000E+00  0.45593999997E+02  0.45594000000E+02  0.51100000000E-03 0.  1.
         11   -1    0    0    0    0 -0.00000000000E+00 -0.00000000000E+00 -0.45593999997E+02  0.45594000000E+02  0.51100000000E-03 0. -1.
    9900012    2    1    2    0    0 -0.18850742880E+02  0.18808631009E+02 -0.34271100549E+02  0.47787269126E+02  0.19999991253E+02 0.  0.
        -12    1    1    2    0    0  0.18850742880E+02 -0.18808631009E+02  0.34271100549E+02  0.43400730874E+02  0.00000000000E+00 0.  1.
         11    1    3    3    0    0 -0.17096534922E+02  0.15047651692E+02 -0.26356468690E+02  0.34833701639E+02  0.51100000000E-03 0. -1.
        -11    1    3    3    0    0  0.77455180690E+00 -0.11384835912E+01  0.15044218843E+01  0.20394511163E+01  0.51100000000E-03 0.  1.
         12    1    3    3    0    0 -0.25287597645E+01  0.48994629085E+01 -0.94190537432E+01  0.10914116371E+02  0.00000000000E+00 0. -1.
</event>
<event>
 7    1  0.2458979E-009  0.4778729E+02  0.7816164E-02  0.1312668E+00
        -11   -1    0    0    0    0  0.00000000000E+00  0.00000000000E+00  0.45593999997E+02  0.45594000000E+02  0.51100000000E-03 0.  1.
         11   -1    0    0    0    0 -0.00000000000E+00 -0.00000000000E+00 -0.45593999997E+02  0.45594000000E+02  0.51100000000E-03 0. -1.
    9900012    2    1    2    0    0 -0.49188438249E+01  0.31275674658E+02 -0.29686009968E+02  0.47787285286E+02  0.20000064931E+02 0.  0.
        -12    1    1    2    0    0  0.49188438249E+01 -0.31275674658E+02  0.29686009968E+02  0.43400714714E+02  0.00000000000E+00 0.  1.
         11    1    3    3    0    0 -0.33260769013E+01  0.29149583581E+02 -0.16076902792E+02  0.33454862339E+02  0.51100000000E-03 0. -1.
        -11    1    3    3    0    0 -0.55758357220E+00  0.20049190499E+01 -0.12911789225E+02  0.13078413554E+02  0.51100000000E-03 0.  1.
         12    1    3    3    0    0 -0.10351833514E+01  0.12117202707E+00 -0.69731795141E+00  0.12540093925E+01  0.00000000000E+00 0. -1.
</event>
<event>
 7    1  0.2458979E-009  0.4778727E+02  0.7816164E-02  0.1312668E+00
        -11   -1    0    0    0    0  0.00000000000E+00  0.00000000000E+00  0.45593999997E+02  0.45594000000E+02  0.51100000000E-03 0. -1.
         11   -1    0    0    0    0 -0.00000000000E+00 -0.00000000000E+00 -0.45593999997E+02  0.45594000000E+02  0.51100000000E-03 0.  1.
    9900012    2    1    2    0    0 -0.99909032192E+01  0.24865362791E+02  0.34139694367E+02  0.47787272525E+02  0.20000006752E+02 0.  0.
        -12    1    1    2    0    0  0.99909032192E+01 -0.24865362791E+02 -0.34139694367E+02  0.43400727475E+02  0.00000000000E+00 0.  1.
         11    1    3    3    0    0 -0.23219400082E+01  0.19638950722E+02  0.11898229978E+02  0.23079160897E+02  0.51100000000E-03 0. -1.
        -11    1    3    3    0    0 -0.67186642892E+01  0.58927032205E+01  0.21614194451E+02  0.23388839285E+02  0.51100000000E-03 0.  1.
         12    1    3    3    0    0 -0.95029892184E+00 -0.66629115173E+00  0.62726993836E+00  0.13192723431E+01  0.00000000000E+00 0. -1.
</event>
<event>
 7    1  0.2458979E-009  0.4778727E+02  0.7816164E-02  0.1312668E+00
        -11   -1    0    0    0    0  0.00000000000E+00  0.00000000000E+00  0.45593999997E+02  0.45594000000E+02  0.51100000000E-03 0.  1.
         11   -1    0    0    0    0 -0.00000000000E+00 -0.00000000000E+00 -0.45593999997E+02  0.45594000000E+02  0.51100000000E-03 0. -1.
    9900012    2    1    2    0    0  0.36033037062E+02  0.14404259856E+02 -0.19436067771E+02  0.47787271984E+02  0.20000004283E+02 0.  0.
        -12    1    1    2    0    0 -0.36033037062E+02 -0.14404259856E+02  0.19436067771E+02  0.43400728016E+02  0.00000000000E+00 0.  1.
         11    1    3    3    0    0 -0.38359019184E+00 -0.13745937267E+01 -0.34454071785E+01  0.37292734193E+01  0.51100000000E-03 0. -1.
        -11    1    3    3    0    0  0.12822832680E+00  0.65947372253E+00  0.10216147819E+01  0.12227203761E+01  0.51100000000E-03 0.  1.
         12    1    3    3    0    0  0.36288398927E+02  0.15119379860E+02 -0.17012275374E+02  0.42835278188E+02  0.00000000000E+00 0. -1.
</event>
<event>
 7    1  0.2458979E-009  0.4778727E+02  0.7816164E-02  0.1312668E+00
        -11   -1    0    0    0    0  0.00000000000E+00  0.00000000000E+00  0.45593999997E+02  0.45594000000E+02  0.51100000000E-03 0. -1.
         11   -1    0    0    0    0 -0.00000000000E+00 -0.00000000000E+00 -0.45593999997E+02  0.45594000000E+02  0.51100000000E-03 0.  1.
    9900012    2    1    2    0    0 -0.20341645224E+02  0.38174568768E+02  0.35416638707E+01  0.47787267126E+02  0.19999982135E+02 0.  0.
        -12    1    1    2    0    0  0.20341645224E+02 -0.38174568768E+02 -0.35416638707E+01  0.43400732874E+02  0.00000000000E+00 0.  1.
         11    1    3    3    0    0 -0.17738960048E+02  0.18916019656E+02  0.10854865257E+00  0.25932571918E+02  0.51100000000E-03 0. -1.
        -11    1    3    3    0    0  0.22932432782E+01  0.76311483331E+00  0.77718573906E+00  0.25387648406E+01  0.51100000000E-03 0.  1.
         12    1    3    3    0    0 -0.48959284540E+01  0.18495434278E+02  0.26559294790E+01  0.19315930368E+02  0.00000000000E+00 0. -1.
</event>
<event>
 7    1  0.2458979E-009  0.4778727E+02  0.7816164E-02  0.1312668E+00
        -11   -1    0    0    0    0  0.00000000000E+00  0.00000000000E+00  0.45593999997E+02  0.45594000000E+02  0.51100000000E-03 0. -1.
         11   -1    0    0    0    0 -0.00000000000E+00 -0.00000000000E+00 -0.45593999997E+02  0.45594000000E+02  0.51100000000E-03 0.  1.
    9900012    2    1    2    0    0 -0.14453167957E+02 -0.20888350016E+01  0.40870112715E+02  0.47787269488E+02  0.19999992905E+02 0.  0.
        -12    1    1    2    0    0  0.14453167957E+02  0.20888350016E+01 -0.40870112715E+02  0.43400730512E+02  0.00000000000E+00 0.  1.
         11    1    3    3    0    0 -0.82561015629E+01 -0.50250125967E+00  0.34191514352E+02  0.35177768185E+02  0.51100000000E-03 0. -1.
        -11    1    3    3    0    0 -0.72095074863E+01  0.27980030465E+00  0.20238236805E+01  0.74934070326E+01  0.51100000000E-03 0.  1.
        -12    1    3    3    0    0  0.10124410922E+01 -0.18661340466E+01  0.46547746820E+01  0.51160942706E+01  0.00000000000E+00 0.  1.
</event>
<event>
 7    1  0.2458979E-009  0.4778728E+02  0.7816164E-02  0.1312668E+00
        -11   -1    0    0    0    0  0.00000000000E+00  0.00000000000E+00  0.45593999997E+02  0.45594000000E+02  0.51100000000E-03 0.  1.
         11   -1    0    0    0    0 -0.00000000000E+00 -0.00000000000E+00 -0.45593999997E+02  0.45594000000E+02  0.51100000000E-03 0. -1.
    9900012    2    1    2    0    0  0.26177653608E+01  0.42253539705E+02 -0.95607827596E+01  0.47787275581E+02  0.20000020686E+02 0.  0.
        -12    1    1    2    0    0 -0.26177653608E+01 -0.42253539705E+02  0.95607827596E+01  0.43400724419E+02  0.00000000000E+00 0.  1.
         11    1    3    3    0    0 -0.45236283071E+01  0.22666646917E+02 -0.49103670599E+01  0.23629468899E+02  0.51100000000E-03 0. -1.
        -11    1    3    3    0    0  0.89362571293E+01  0.82956003124E+01 -0.33888645590E+01  0.12655357730E+02  0.51100000000E-03 0.  1.
        -12    1    3    3    0    0 -0.17948634613E+01  0.11291292475E+02 -0.12615511407E+01  0.11502448952E+02  0.00000000000E+00 0.  1.
</event>
<event>
 7    1  0.2458979E-009  0.4778726E+02  0.7816164E-02  0.1312668E+00
        -11   -1    0    0    0    0  0.00000000000E+00  0.00000000000E+00  0.45593999997E+02  0.45594000000E+02  0.51100000000E-03 0.  1.
         11   -1    0    0    0    0 -0.00000000000E+00 -0.00000000000E+00 -0.45593999997E+02  0.45594000000E+02  0.51100000000E-03 0. -1.
    9900012    2    1    2    0    0 -0.11044783403E+02  0.79917939038E+01 -0.41203979186E+02  0.47787263704E+02  0.19999966533E+02 0.  0.
        -12    1    1    2    0    0  0.11044783403E+02 -0.79917939038E+01  0.41203979186E+02  0.43400736296E+02  0.00000000000E+00 0.  1.
         11    1    3    3    0    0  0.38636358334E+01  0.45034821690E+01 -0.64705503202E+01  0.87793539174E+01  0.51100000000E-03 0. -1.
        -11    1    3    3    0    0 -0.29438672829E+01 -0.14241846438E+01 -0.20532790937E+01  0.38614261324E+01  0.51100000000E-03 0.  1.
         12    1    3    3    0    0 -0.11964551954E+02  0.49124963786E+01 -0.32680149772E+02  0.35146483654E+02  0.00000000000E+00 0. -1.
</event>
<event>
 7    1  0.2458979E-009  0.4778727E+02  0.7816164E-02  0.1312668E+00
        -11   -1    0    0    0    0  0.00000000000E+00  0.00000000000E+00  0.45593999997E+02  0.45594000000E+02  0.51100000000E-03 0.  1.
         11   -1    0    0    0    0 -0.00000000000E+00 -0.00000000000E+00 -0.45593999997E+02  0.45594000000E+02  0.51100000000E-03 0. -1.
    9900012    2    1    2    0    0  0.25696857522E+02 -0.35369971523E+01 -0.34796330335E+02  0.47787269128E+02  0.19999991264E+02 0.  0.
        -12    1    1    2    0    0 -0.25696857522E+02  0.35369971523E+01  0.34796330335E+02  0.43400730872E+02  0.00000000000E+00 0.  1.
         11    1    3    3    0    0  0.13722279159E+02  0.75675364060E+01 -0.13455440380E+02  0.20654719283E+02  0.51100000000E-03 0. -1.
        -11    1    3    3    0    0  0.45751228103E+01 -0.43273214428E+01 -0.11306760535E+02  0.12942190450E+02  0.51100000000E-03 0.  1.
         12    1    3    3    0    0  0.73994555532E+01 -0.67772121155E+01 -0.10034129421E+02  0.14190359396E+02  0.00000000000E+00 0. -1.
</event>
<event>
 7    1  0.2458979E-009  0.4778727E+02  0.7816164E-02  0.1312668E+00
        -11   -1    0    0    0    0  0.00000000000E+00  0.00000000000E+00  0.45593999997E+02  0.45594000000E+02  0.51100000000E-03 0. -1.
         11   -1    0    0    0    0 -0.00000000000E+00 -0.00000000000E+00 -0.45593999997E+02  0.45594000000E+02  0.51100000000E-03 0.  1.
    9900012    2    1    2    0    0 -0.18015642563E+02  0.85365026883E+01  0.38551109123E+02  0.47787271092E+02  0.20000000218E+02 0.  0.
        -12    1    1    2    0    0  0.18015642563E+02 -0.85365026883E+01 -0.38551109123E+02  0.43400728908E+02  0.00000000000E+00 0.  1.
         11    1    3    3    0    0 -0.44243778036E+01  0.40897327038E+01  0.11293746334E+02  0.12800380426E+02  0.51100000000E-03 0. -1.
        -11    1    3    3    0    0  0.26875358029E+01  0.67788838332E+00  0.12144765640E+02  0.12457034722E+02  0.51100000000E-03 0.  1.
        -12    1    3    3    0    0 -0.16278800563E+02  0.37688816012E+01  0.15112597149E+02  0.22529855944E+02  0.00000000000E+00 0.  1.
</event>
<event>
 7    1  0.2458979E-009  0.4778727E+02  0.7816164E-02  0.1312668E+00
        -11   -1    0    0    0    0  0.00000000000E+00  0.00000000000E+00  0.45593999997E+02  0.45594000000E+02  0.51100000000E-03 0.  1.
         11   -1    0    0    0    0 -0.00000000000E+00 -0.00000000000E+00 -0.45593999997E+02  0.45594000000E+02  0.51100000000E-03 0. -1.
    9900012    2    1    2    0    0  0.22304345045E+02 -0.25964880020E+02 -0.26682659834E+02  0.47787272608E+02  0.20000007129E+02 0.  0.
        -12    1    1    2    0    0 -0.22304345045E+02  0.25964880020E+02  0.26682659834E+02  0.43400727392E+02  0.00000000000E+00 0.  1.
         11    1    3    3    0    0  0.77889629252E+01 -0.34085896803E+01 -0.55528099840E+01  0.10154808026E+02  0.51100000000E-03 0. -1.
        -11    1    3    3    0    0  0.72965965493E+01 -0.78012508356E+01 -0.17969999789E+02  0.20905040743E+02  0.51100000000E-03 0.  1.
        -12    1    3    3    0    0  0.72187855710E+01 -0.14755039504E+02 -0.31598500608E+01  0.16727423839E+02  0.00000000000E+00 0.  1.
</event>
<event>
 7    1  0.2458979E-009  0.4778727E+02  0.7816164E-02  0.1312668E+00
        -11   -1    0    0    0    0  0.00000000000E+00  0.00000000000E+00  0.45593999997E+02  0.45594000000E+02  0.51100000000E-03 0. -1.
         11   -1    0    0    0    0 -0.00000000000E+00 -0.00000000000E+00 -0.45593999997E+02  0.45594000000E+02  0.51100000000E-03 0.  1.
    9900012    2    1    2    0    0  0.30103715239E+02 -0.22087984450E+02  0.22124878663E+02  0.47787274382E+02  0.20000015218E+02 0.  0.
        -12    1    1    2    0    0 -0.30103715239E+02  0.22087984450E+02 -0.22124878663E+02  0.43400725618E+02  0.00000000000E+00 0.  1.
         11    1    3    3    0    0  0.41826020511E+01 -0.56793294127E+01  0.25274567981E+01  0.74924615864E+01  0.51100000000E-03 0. -1.
        -11    1    3    3    0    0  0.20873091525E+02 -0.16486355026E+02  0.82074711538E+01  0.27836099491E+02  0.51100000000E-03 0.  1.
        -12    1    3    3    0    0  0.50480216634E+01  0.77699988945E-01  0.11389950711E+02  0.12458713305E+02  0.00000000000E+00 0.  1.
</event>
<event>
 7    1  0.2458979E-009  0.4778727E+02  0.7816164E-02  0.1312668E+00
        -11   -1    0    0    0    0  0.00000000000E+00  0.00000000000E+00  0.45593999997E+02  0.45594000000E+02  0.51100000000E-03 0. -1.
         11   -1    0    0    0    0 -0.00000000000E+00 -0.00000000000E+00 -0.45593999997E+02  0.45594000000E+02  0.51100000000E-03 0.  1.
    9900012    2    1    2    0    0 -0.15152213336E+02  0.22920949232E+02  0.33595587506E+02  0.47787274401E+02  0.20000015303E+02 0.  0.
        -12    1    1    2    0    0  0.15152213336E+02 -0.22920949232E+02 -0.33595587506E+02  0.43400725599E+02  0.00000000000E+00 0.  1.
         11    1    3    3    0    0 -0.43204622138E+01  0.16106822129E+01  0.11958504251E+02  0.12816649918E+02  0.51100000000E-03 0.  1.
        -11    1    3    3    0    0 -0.11587788115E+02  0.22322902813E+02  0.22236831328E+02  0.33571796067E+02  0.51100000000E-03 0. -1.
        -12    1    3    3    0    0  0.75603699296E+00 -0.10126357937E+01 -0.59974807326E+00  0.13988284158E+01  0.00000000000E+00 0.  1.
</event>
<event>
 7    1  0.2458979E-009  0.4778727E+02  0.7816164E-02  0.1312668E+00
        -11   -1    0    0    0    0  0.00000000000E+00  0.00000000000E+00  0.45593999997E+02  0.45594000000E+02  0.51100000000E-03 0.  1.
         11   -1    0    0    0    0 -0.00000000000E+00 -0.00000000000E+00 -0.45593999997E+02  0.45594000000E+02  0.51100000000E-03 0. -1.
    9900012    2    1    2    0    0  0.16235329101E+02 -0.39587763958E+02 -0.72695543743E+01  0.47787269741E+02  0.19999994057E+02 0.  0.
        -12    1    1    2    0    0 -0.16235329101E+02  0.39587763958E+02  0.72695543743E+01  0.43400730259E+02  0.00000000000E+00 0.  1.
         11    1    3    3    0    0  0.72177877237E+01 -0.29576634371E+02 -0.91427099613E+01  0.31787779193E+02  0.51100000000E-03 0. -1.
        -11    1    3    3    0    0  0.70406877520E+01 -0.39345795615E+01  0.43289655103E+01  0.91538048372E+01  0.51100000000E-03 0.  1.
        -12    1    3    3    0    0  0.19768536253E+01 -0.60765500255E+01 -0.24558099233E+01  0.68456857105E+01  0.00000000000E+00 0.  1.
</event>
<event>
 7    1  0.2458979E-009  0.4778727E+02  0.7816164E-02  0.1312668E+00
        -11   -1    0    0    0    0  0.00000000000E+00  0.00000000000E+00  0.45593999997E+02  0.45594000000E+02  0.51100000000E-03 0. -1.
         11   -1    0    0    0    0 -0.00000000000E+00 -0.00000000000E+00 -0.45593999997E+02  0.45594000000E+02  0.51100000000E-03 0.  1.
    9900012    2    1    2    0    0 -0.33244721900E+02  0.16805718013E+02  0.22270607808E+02  0.47787266547E+02  0.19999979493E+02 0.  0.
        -12    1    1    2    0    0  0.33244721900E+02 -0.16805718013E+02 -0.22270607808E+02  0.43400733453E+02  0.00000000000E+00 0.  1.
         11    1    3    3    0    0 -0.19601028778E+02  0.12983944212E+02  0.14395590719E+02  0.27568390756E+02  0.51100000000E-03 0. -1.
        -11    1    3    3    0    0 -0.60621817521E+01  0.59245564518E+00 -0.28242579469E+01  0.67139768021E+01  0.51100000000E-03 0.  1.
         12    1    3    3    0    0 -0.75815113700E+01  0.32293181565E+01  0.10699275035E+02  0.13504898989E+02  0.00000000000E+00 0. -1.
</event>
<event>
 7    1  0.2458979E-009  0.4778727E+02  0.7816164E-02  0.1312668E+00
        -11   -1    0    0    0    0  0.00000000000E+00  0.00000000000E+00  0.45593999997E+02  0.45594000000E+02  0.51100000000E-03 0.  1.
         11   -1    0    0    0    0 -0.00000000000E+00 -0.00000000000E+00 -0.45593999997E+02  0.45594000000E+02  0.51100000000E-03 0. -1.
    9900012    2    1    2    0    0  0.20776601640E+01 -0.19787597900E+02 -0.38571464587E+02  0.47787267485E+02  0.19999983771E+02 0.  0.
        -12    1    1    2    0    0 -0.20776601640E+01  0.19787597900E+02  0.38571464587E+02  0.43400732515E+02  0.00000000000E+00 0.  1.
         11    1    3    3    0    0  0.35834720692E+00 -0.73835508346E+01 -0.83684866891E+01  0.11165876830E+02  0.51100000000E-03 0. -1.
        -11    1    3    3    0    0  0.36787879095E+01 -0.15305139971E+02 -0.28856323532E+02  0.32870476085E+02  0.51100000000E-03 0.  1.
        -12    1    3    3    0    0 -0.19594749524E+01  0.29010929049E+01 -0.13466543663E+01  0.37509145704E+01  0.00000000000E+00 0.  1.
</event>
<event>
 7    1  0.2458979E-009  0.4778727E+02  0.7816164E-02  0.1312668E+00
        -11   -1    0    0    0    0  0.00000000000E+00  0.00000000000E+00  0.45593999997E+02  0.45594000000E+02  0.51100000000E-03 0.  1.
         11   -1    0    0    0    0 -0.00000000000E+00 -0.00000000000E+00 -0.45593999997E+02  0.45594000000E+02  0.51100000000E-03 0. -1.
    9900012    2    1    2    0    0 -0.26124561904E+02  0.28998117992E+02 -0.18979983707E+02  0.47787270014E+02  0.19999995303E+02 0.  0.
        -12    1    1    2    0    0  0.26124561904E+02 -0.28998117992E+02  0.18979983707E+02  0.43400729986E+02  0.00000000000E+00 0.  1.
         11    1    3    3    0    0 -0.18915207052E+02  0.23673871979E+02 -0.13099269202E+02  0.33012544982E+02  0.51100000000E-03 0. -1.
        -11    1    3    3    0    0 -0.41056929635E+01 -0.81785229968E+00 -0.66417872722E+01  0.78510467789E+01  0.51100000000E-03 0.  1.
         12    1    3    3    0    0 -0.31036618890E+01  0.61420983128E+01  0.76107276697E+00  0.69236782538E+01  0.00000000000E+00 0. -1.
</event>
<event>
 7    1  0.2458979E-009  0.4778729E+02  0.7816164E-02  0.1312668E+00
        -11   -1    0    0    0    0  0.00000000000E+00  0.00000000000E+00  0.45593999997E+02  0.45594000000E+02  0.51100000000E-03 0.  1.
         11   -1    0    0    0    0 -0.00000000000E+00 -0.00000000000E+00 -0.45593999997E+02  0.45594000000E+02  0.51100000000E-03 0. -1.
    9900012    2    1    2    0    0  0.30511482634E+02  0.29794110106E+02 -0.80611238966E+01  0.47787293923E+02  0.20000104312E+02 0.  0.
        -12    1    1    2    0    0 -0.30511482634E+02 -0.29794110106E+02  0.80611238966E+01  0.43400706077E+02  0.00000000000E+00 0.  1.
         11    1    3    3    0    0  0.24712668184E+02  0.14013164642E+02 -0.85773981988E+01  0.29675857396E+02  0.51100000000E-03 0. -1.
        -11    1    3    3    0    0 -0.13834415522E+01  0.15446783110E+01  0.62460745264E+00  0.21656584088E+01  0.51100000000E-03 0.  1.
         12    1    3    3    0    0  0.71822560021E+01  0.14236267153E+02 -0.10833315038E+00  0.15945778118E+02  0.00000000000E+00 0. -1.
</event>
<event>
 7    1  0.2458979E-009  0.4778727E+02  0.7816164E-02  0.1312668E+00
        -11   -1    0    0    0    0  0.00000000000E+00  0.00000000000E+00  0.45593999997E+02  0.45594000000E+02  0.51100000000E-03 0.  1.
         11   -1    0    0    0    0 -0.00000000000E+00 -0.00000000000E+00 -0.45593999997E+02  0.45594000000E+02  0.51100000000E-03 0. -1.
    9900012    2    1    2    0    0 -0.31184563175E+02  0.24336920132E+02 -0.17856668085E+02  0.47787271238E+02  0.20000000883E+02 0.  0.
        -12    1    1    2    0    0  0.31184563175E+02 -0.24336920132E+02  0.17856668085E+02  0.43400728762E+02  0.00000000000E+00 0.  1.
         11    1    3    3    0    0  0.12882718422E+01 -0.91628028729E+00 -0.22053690455E+01  0.27134602987E+01  0.51100000000E-03 0. -1.
        -11    1    3    3    0    0 -0.38314411674E+01  0.18177336723E+01 -0.50161001384E+01  0.65685126157E+01  0.51100000000E-03 0.  1.
         12    1    3    3    0    0 -0.28641393850E+02  0.23435466747E+02 -0.10635198901E+02  0.38505298324E+02  0.00000000000E+00 0. -1.
</event>
<event>
 7    1  0.2458979E-009  0.4778727E+02  0.7816164E-02  0.1312668E+00
        -11   -1    0    0    0    0  0.00000000000E+00  0.00000000000E+00  0.45593999997E+02  0.45594000000E+02  0.51100000000E-03 0.  1.
         11   -1    0    0    0    0 -0.00000000000E+00 -0.00000000000E+00 -0.45593999997E+02  0.45594000000E+02  0.51100000000E-03 0. -1.
    9900012    2    1    2    0    0 -0.40505309993E+02 -0.18105408544E+01 -0.15481118029E+02  0.47787271766E+02  0.20000003291E+02 0.  0.
        -12    1    1    2    0    0  0.40505309993E+02  0.18105408544E+01  0.15481118029E+02  0.43400728234E+02  0.00000000000E+00 0.  1.
         11    1    3    3    0    0 -0.19766530338E+02  0.36009980652E+01 -0.13897029085E+02  0.24429701724E+02  0.51100000000E-03 0. -1.
        -11    1    3    3    0    0 -0.13112602887E+02 -0.62144279266E+01  0.24131621973E+01  0.14709956526E+02  0.51100000000E-03 0.  1.
        -12    1    3    3    0    0 -0.76261767672E+01  0.80288900702E+00 -0.39972511411E+01  0.86476135163E+01  0.00000000000E+00 0.  1.
</event>
<event>
 7    1  0.2458979E-009  0.4778727E+02  0.7816164E-02  0.1312668E+00
        -11   -1    0    0    0    0  0.00000000000E+00  0.00000000000E+00  0.45593999997E+02  0.45594000000E+02  0.51100000000E-03 0.  1.
         11   -1    0    0    0    0 -0.00000000000E+00 -0.00000000000E+00 -0.45593999997E+02  0.45594000000E+02  0.51100000000E-03 0. -1.
    9900012    2    1    2    0    0 -0.30693273668E+02 -0.30674447457E+02  0.79020720875E+00  0.47787271864E+02  0.20000003739E+02 0.  0.
        -12    1    1    2    0    0  0.30693273668E+02  0.30674447457E+02 -0.79020720875E+00  0.43400728136E+02  0.00000000000E+00 0.  1.
         11    1    3    3    0    0 -0.26436960349E+02 -0.23921247963E+02  0.59965980766E+01  0.36153812597E+02  0.51100000000E-03 0. -1.
        -11    1    3    3    0    0  0.11293861350E+01  0.28920142604E+00  0.29108136526E+00  0.12016152167E+01  0.51100000000E-03 0.  1.
         12    1    3    3    0    0 -0.53856994543E+01 -0.70424009206E+01 -0.54974722331E+01  0.10431844050E+02  0.00000000000E+00 0. -1.
</event>
<event>
 7    1  0.2458979E-009  0.4778727E+02  0.7816164E-02  0.1312668E+00
        -11   -1    0    0    0    0  0.00000000000E+00  0.00000000000E+00  0.45593999997E+02  0.45594000000E+02  0.51100000000E-03 0.  1.
         11   -1    0    0    0    0 -0.00000000000E+00 -0.00000000000E+00 -0.45593999997E+02  0.45594000000E+02  0.51100000000E-03 0. -1.
    9900012    2    1    2    0    0 -0.24369947282E+02 -0.17351645946E+02 -0.31442793371E+02  0.47787271867E+02  0.20000003749E+02 0.  0.
        -12    1    1    2    0    0  0.24369947282E+02  0.17351645946E+02  0.31442793371E+02  0.43400728133E+02  0.00000000000E+00 0.  1.
         11    1    3    3    0    0 -0.85378252273E+01  0.36830579287E+00 -0.16860785660E+02  0.18902809370E+02  0.51100000000E-03 0. -1.
        -11    1    3    3    0    0 -0.85010992541E+01 -0.12414814124E+02 -0.53824987898E+01  0.15980225022E+02  0.51100000000E-03 0.  1.
         12    1    3    3    0    0 -0.73310228003E+01 -0.53051376151E+01 -0.91995089212E+01  0.12904237475E+02  0.00000000000E+00 0. -1.
</event>
<event>
 7    1  0.2458979E-009  0.4778727E+02  0.7816164E-02  0.1312668E+00
        -11   -1    0    0    0    0  0.00000000000E+00  0.00000000000E+00  0.45593999997E+02  0.45594000000E+02  0.51100000000E-03 0. -1.
         11   -1    0    0    0    0 -0.00000000000E+00 -0.00000000000E+00 -0.45593999997E+02  0.45594000000E+02  0.51100000000E-03 0.  1.
    9900012    2    1    2    0    0 -0.82216421373E-01  0.40205021526E+02  0.16345412796E+02  0.47787273798E+02  0.20000012554E+02 0.  0.
        -12    1    1    2    0    0  0.82216421373E-01 -0.40205021526E+02 -0.16345412796E+02  0.43400726202E+02  0.00000000000E+00 0.  1.
         11    1    3    3    0    0 -0.28181520367E+01  0.38356501564E+02  0.15042222791E+02  0.41296872278E+02  0.51100000000E-03 0. -1.
        -11    1    3    3    0    0  0.16564550574E+01 -0.74404756441E+00 -0.16223859511E+01  0.24350742433E+01  0.51100000000E-03 0.  1.
         12    1    3    3    0    0  0.10794805580E+01  0.25925675257E+01  0.29255759555E+01  0.40553272768E+01  0.00000000000E+00 0. -1.
</event>
<event>
 7    1  0.2458979E-009  0.4778726E+02  0.7816164E-02  0.1312668E+00
        -11   -1    0    0    0    0  0.00000000000E+00  0.00000000000E+00  0.45593999997E+02  0.45594000000E+02  0.51100000000E-03 0.  1.
         11   -1    0    0    0    0 -0.00000000000E+00 -0.00000000000E+00 -0.45593999997E+02  0.45594000000E+02  0.51100000000E-03 0. -1.
    9900012    2    1    2    0    0 -0.55430239975E+01  0.81802547558E+01 -0.42260883893E+02  0.47787262791E+02  0.19999962368E+02 0.  0.
        -12    1    1    2    0    0  0.55430239975E+01 -0.81802547558E+01  0.42260883893E+02  0.43400737209E+02  0.00000000000E+00 0.  1.
         11    1    3    3    0    0 -0.56436931324E+00  0.29211543263E+01 -0.24030111308E+01  0.38244108142E+01  0.51100000000E-03 0.  1.
        -11    1    3    3    0    0  0.61111520971E+01 -0.75884342794E-01 -0.10857990966E+02  0.12459851783E+02  0.51100000000E-03 0. -1.
        -12    1    3    3    0    0 -0.11089806781E+02  0.53349847723E+01 -0.28999881796E+02  0.31503000193E+02  0.00000000000E+00 0.  1.
</event>
<event>
 7    1  0.2458979E-009  0.4778727E+02  0.7816164E-02  0.1312668E+00
        -11   -1    0    0    0    0  0.00000000000E+00  0.00000000000E+00  0.45593999997E+02  0.45594000000E+02  0.51100000000E-03 0. -1.
         11   -1    0    0    0    0 -0.00000000000E+00 -0.00000000000E+00 -0.45593999997E+02  0.45594000000E+02  0.51100000000E-03 0.  1.
    9900012    2    1    2    0    0 -0.90595294910E+01 -0.41480446771E+02  0.89956127511E+01  0.47787267429E+02  0.19999983516E+02 0.  0.
        -12    1    1    2    0    0  0.90595294910E+01  0.41480446771E+02 -0.89956127511E+01  0.43400732571E+02  0.00000000000E+00 0.  1.
         11    1    3    3    0    0 -0.10295363224E+02 -0.26033446068E+02  0.21342625558E+01  0.28076500761E+02  0.51100000000E-03 0. -1.
        -11    1    3    3    0    0 -0.36324556557E+01 -0.25046210478E+01  0.34831129682E+00  0.44259667536E+01  0.51100000000E-03 0.  1.
         12    1    3    3    0    0  0.48682893887E+01 -0.12942379656E+02  0.65130388984E+01  0.15284799914E+02  0.00000000000E+00 0. -1.
</event>
<event>
 7    1  0.2458979E-009  0.4778728E+02  0.7816164E-02  0.1312668E+00
        -11   -1    0    0    0    0  0.00000000000E+00  0.00000000000E+00  0.45593999997E+02  0.45594000000E+02  0.51100000000E-03 0.  1.
         11   -1    0    0    0    0 -0.00000000000E+00 -0.00000000000E+00 -0.45593999997E+02  0.45594000000E+02  0.51100000000E-03 0. -1.
    9900012    2    1    2    0    0  0.23015396096E+02 -0.11990461579E+02 -0.34787112365E+02  0.47787276353E+02  0.20000024205E+02 0.  0.
        -12    1    1    2    0    0 -0.23015396096E+02  0.11990461579E+02  0.34787112365E+02  0.43400723647E+02  0.00000000000E+00 0.  1.
         11    1    3    3    0    0  0.18373337863E+02 -0.43007076209E+01 -0.19123677392E+02  0.26866162128E+02  0.51100000000E-03 0. -1.
        -11    1    3    3    0    0  0.77788348314E+01 -0.50068216493E+01 -0.80600907969E+01  0.12269620951E+02  0.51100000000E-03 0.  1.
         12    1    3    3    0    0 -0.31367765981E+01 -0.26829323092E+01 -0.76033441769E+01  0.86514932742E+01  0.00000000000E+00 0. -1.
</event>
<event>
 7    1  0.2458979E-009  0.4778727E+02  0.7816164E-02  0.1312668E+00
        -11   -1    0    0    0    0  0.00000000000E+00  0.00000000000E+00  0.45593999997E+02  0.45594000000E+02  0.51100000000E-03 0.  1.
         11   -1    0    0    0    0 -0.00000000000E+00 -0.00000000000E+00 -0.45593999997E+02  0.45594000000E+02  0.51100000000E-03 0. -1.
    9900012    2    1    2    0    0  0.30246889158E+02  0.16278121543E+02 -0.26528697444E+02  0.47787270366E+02  0.19999996905E+02 0.  0.
        -12    1    1    2    0    0 -0.30246889158E+02 -0.16278121543E+02  0.26528697444E+02  0.43400729634E+02  0.00000000000E+00 0.  1.
         11    1    3    3    0    0  0.51413268006E+01  0.35106481957E+01 -0.14223551485E+01  0.63859992526E+01  0.51100000000E-03 0. -1.
        -11    1    3    3    0    0  0.15315910480E+02  0.14932113011E+02 -0.10883881193E+02  0.24000082976E+02  0.51100000000E-03 0.  1.
        -12    1    3    3    0    0  0.97896518774E+01 -0.21646396630E+01 -0.14222461103E+02  0.17401188137E+02  0.00000000000E+00 0.  1.
</event>
<event>
 7    1  0.2458979E-009  0.4778730E+02  0.7816164E-02  0.1312668E+00
        -11   -1    0    0    0    0  0.00000000000E+00  0.00000000000E+00  0.45593999997E+02  0.45594000000E+02  0.51100000000E-03 0.  1.
         11   -1    0    0    0    0 -0.00000000000E+00 -0.00000000000E+00 -0.45593999997E+02  0.45594000000E+02  0.51100000000E-03 0. -1.
    9900012    2    1    2    0    0  0.38331821251E+02  0.18669392176E+01  0.20268364254E+02  0.47787302172E+02  0.20000141922E+02 0.  0.
        -12    1    1    2    0    0 -0.38331821251E+02 -0.18669392176E+01 -0.20268364254E+02  0.43400697828E+02  0.00000000000E+00 0.  1.
         11    1    3    3    0    0  0.34831328388E+02  0.49757605491E+01  0.12725777591E+02  0.37415572237E+02  0.51100000000E-03 0. -1.
        -11    1    3    3    0    0 -0.13303386761E+01 -0.12718286483E+01  0.12316795804E+01  0.22145843749E+01  0.51100000000E-03 0.  1.
         12    1    3    3    0    0  0.48308315392E+01 -0.18369926832E+01  0.63109070823E+01  0.81571455595E+01  0.00000000000E+00 0. -1.
</event>
<event>
 7    1  0.2458979E-009  0.4778727E+02  0.7816164E-02  0.1312668E+00
        -11   -1    0    0    0    0  0.00000000000E+00  0.00000000000E+00  0.45593999997E+02  0.45594000000E+02  0.51100000000E-03 0.  1.
         11   -1    0    0    0    0 -0.00000000000E+00 -0.00000000000E+00 -0.45593999997E+02  0.45594000000E+02  0.51100000000E-03 0. -1.
    9900012    2    1    2    0    0  0.40994254695E+02  0.18862668011E+01 -0.14125734607E+02  0.47787270759E+02  0.19999998699E+02 0.  0.
        -12    1    1    2    0    0 -0.40994254695E+02 -0.18862668011E+01  0.14125734607E+02  0.43400729241E+02  0.00000000000E+00 0.  1.
         11    1    3    3    0    0  0.30445709102E+02  0.50756487185E+01 -0.26349135843E+01  0.30978156538E+02  0.51100000000E-03 0. -1.
        -11    1    3    3    0    0  0.33134787335E+01 -0.60898530444E+00 -0.73438542711E+01  0.80797401093E+01  0.51100000000E-03 0.  1.
        -12    1    3    3    0    0  0.72350668592E+01 -0.25803966130E+01 -0.41469667521E+01  0.87293741115E+01  0.00000000000E+00 0.  1.
</event>
<event>
 7    1  0.2458979E-009  0.4778727E+02  0.7816164E-02  0.1312668E+00
        -11   -1    0    0    0    0  0.00000000000E+00  0.00000000000E+00  0.45593999997E+02  0.45594000000E+02  0.51100000000E-03 0.  1.
         11   -1    0    0    0    0 -0.00000000000E+00 -0.00000000000E+00 -0.45593999997E+02  0.45594000000E+02  0.51100000000E-03 0. -1.
    9900012    2    1    2    0    0 -0.68647461710E+01  0.14693966647E+02 -0.40256503080E+02  0.47787269176E+02  0.19999991481E+02 0.  0.
        -12    1    1    2    0    0  0.68647461710E+01 -0.14693966647E+02  0.40256503080E+02  0.43400730824E+02  0.00000000000E+00 0.  1.
         11    1    3    3    0    0 -0.11373391457E+02  0.36310914707E+01 -0.20810133130E+02  0.23991675632E+02  0.51100000000E-03 0. -1.
        -11    1    3    3    0    0  0.60237192982E+01  0.63043070644E+01 -0.12277416588E+02  0.15058699814E+02  0.51100000000E-03 0.  1.
         12    1    3    3    0    0 -0.15150740126E+01  0.47585681123E+01 -0.71689533622E+01  0.87368937302E+01  0.00000000000E+00 0. -1.
</event>
<event>
 7    1  0.2458979E-009  0.4778727E+02  0.7816164E-02  0.1312668E+00
        -11   -1    0    0    0    0  0.00000000000E+00  0.00000000000E+00  0.45593999997E+02  0.45594000000E+02  0.51100000000E-03 0. -1.
         11   -1    0    0    0    0 -0.00000000000E+00 -0.00000000000E+00 -0.45593999997E+02  0.45594000000E+02  0.51100000000E-03 0.  1.
    9900012    2    1    2    0    0 -0.20837801418E+02 -0.24802974402E+02  0.28882896370E+02  0.47787271782E+02  0.20000003365E+02 0.  0.
        -12    1    1    2    0    0  0.20837801418E+02  0.24802974402E+02 -0.28882896370E+02  0.43400728218E+02  0.00000000000E+00 0.  1.
         11    1    3    3    0    0 -0.18873824277E+01 -0.22393146955E+01  0.22766190942E+01  0.37094120147E+01  0.51100000000E-03 0. -1.
        -11    1    3    3    0    0 -0.10879480987E+02 -0.18079733845E+02  0.27655023095E+02  0.34785631877E+02  0.51100000000E-03 0.  1.
        -12    1    3    3    0    0 -0.80709380030E+01 -0.44839258613E+01 -0.10487458190E+01  0.92922278906E+01  0.00000000000E+00 0.  1.
</event>
<event>
 7    1  0.2458979E-009  0.4778727E+02  0.7816164E-02  0.1312668E+00
        -11   -1    0    0    0    0  0.00000000000E+00  0.00000000000E+00  0.45593999997E+02  0.45594000000E+02  0.51100000000E-03 0.  1.
         11   -1    0    0    0    0 -0.00000000000E+00 -0.00000000000E+00 -0.45593999997E+02  0.45594000000E+02  0.51100000000E-03 0. -1.
    9900012    2    1    2    0    0 -0.18677009786E+02 -0.25590875906E+02 -0.29663107046E+02  0.47787267935E+02  0.19999985823E+02 0.  0.
        -12    1    1    2    0    0  0.18677009786E+02  0.25590875906E+02  0.29663107046E+02  0.43400732065E+02  0.00000000000E+00 0.  1.
         11    1    3    3    0    0 -0.69373049151E+00 -0.11858142049E+02 -0.78154794078E+01  0.14218949099E+02  0.51100000000E-03 0. -1.
        -11    1    3    3    0    0 -0.13629068360E+02 -0.63899093943E+01 -0.73671853511E+01  0.16758814597E+02  0.51100000000E-03 0.  1.
        -12    1    3    3    0    0 -0.43542109348E+01 -0.73428244625E+01 -0.14480442287E+02  0.16809504239E+02  0.00000000000E+00 0.  1.
</event>
<event>
 7    1  0.2458979E-009  0.4778725E+02  0.7816164E-02  0.1312668E+00
        -11   -1    0    0    0    0  0.00000000000E+00  0.00000000000E+00  0.45593999997E+02  0.45594000000E+02  0.51100000000E-03 0.  1.
         11   -1    0    0    0    0 -0.00000000000E+00 -0.00000000000E+00 -0.45593999997E+02  0.45594000000E+02  0.51100000000E-03 0. -1.
    9900012    2    1    2    0    0 -0.34050407953E+02 -0.22281689373E+02 -0.15090439457E+02  0.47787247402E+02  0.19999892203E+02 0.  0.
        -12    1    1    2    0    0  0.34050407953E+02  0.22281689373E+02  0.15090439457E+02  0.43400752598E+02  0.00000000000E+00 0.  1.
         11    1    3    3    0    0 -0.18006196181E+02 -0.22000185656E+02 -0.58254212957E+01  0.29020110326E+02  0.51100000000E-03 0. -1.
        -11    1    3    3    0    0 -0.97009432184E+01 -0.16107500220E+01 -0.53372357547E+01  0.11188784595E+02  0.51100000000E-03 0.  1.
         12    1    3    3    0    0 -0.63432685538E+01  0.13292463044E+01 -0.39277824070E+01  0.75783524806E+01  0.00000000000E+00 0. -1.
</event>
<event>
 7    1  0.2458979E-009  0.4778727E+02  0.7816164E-02  0.1312668E+00
        -11   -1    0    0    0    0  0.00000000000E+00  0.00000000000E+00  0.45593999997E+02  0.45594000000E+02  0.51100000000E-03 0. -1.
         11   -1    0    0    0    0 -0.00000000000E+00 -0.00000000000E+00 -0.45593999997E+02  0.45594000000E+02  0.51100000000E-03 0.  1.
    9900012    2    1    2    0    0  0.79867084759E+01  0.39764114025E+02  0.15448343669E+02  0.47787267304E+02  0.19999982944E+02 0.  0.
        -12    1    1    2    0    0 -0.79867084759E+01 -0.39764114025E+02 -0.15448343669E+02  0.43400732696E+02  0.00000000000E+00 0.  1.
         11    1    3    3    0    0 -0.29138989325E+01  0.19518026669E+01 -0.15920011729E+01  0.38515981923E+01  0.51100000000E-03 0. -1.
        -11    1    3    3    0    0  0.37392925474E+01  0.20203498065E+02  0.41323617195E+01  0.20958054692E+02  0.51100000000E-03 0.  1.
         12    1    3    3    0    0  0.71613148611E+01  0.17608813293E+02  0.12907983122E+02  0.22977614420E+02  0.00000000000E+00 0. -1.
</event>
<event>
 7    1  0.2458979E-009  0.4778727E+02  0.7816164E-02  0.1312668E+00
        -11   -1    0    0    0    0  0.00000000000E+00  0.00000000000E+00  0.45593999997E+02  0.45594000000E+02  0.51100000000E-03 0. -1.
         11   -1    0    0    0    0 -0.00000000000E+00 -0.00000000000E+00 -0.45593999997E+02  0.45594000000E+02  0.51100000000E-03 0.  1.
    9900012    2    1    2    0    0 -0.17648701032E+02  0.34529967617E+02  0.19489179638E+02  0.47787269192E+02  0.19999991553E+02 0.  0.
        -12    1    1    2    0    0  0.17648701032E+02 -0.34529967617E+02 -0.19489179638E+02  0.43400730808E+02  0.00000000000E+00 0.  1.
         11    1    3    3    0    0 -0.11721837899E+02  0.30345408265E+02  0.15045218966E+02  0.35841371353E+02  0.51100000000E-03 0. -1.
        -11    1    3    3    0    0 -0.31557739678E-01  0.14860429917E+00  0.47906074888E+01  0.47930157001E+01  0.51100000000E-03 0.  1.
         12    1    3    3    0    0 -0.58953053938E+01  0.40359550526E+01 -0.34664681695E+00  0.71528821386E+01  0.00000000000E+00 0. -1.
</event>
<event>
 7    1  0.2458979E-009  0.4778728E+02  0.7816164E-02  0.1312668E+00
        -11   -1    0    0    0    0  0.00000000000E+00  0.00000000000E+00  0.45593999997E+02  0.45594000000E+02  0.51100000000E-03 0.  1.
         11   -1    0    0    0    0 -0.00000000000E+00 -0.00000000000E+00 -0.45593999997E+02  0.45594000000E+02  0.51100000000E-03 0. -1.
    9900012    2    1    2    0    0 -0.86883333723E+01  0.57244555310E+01 -0.42135094668E+02  0.47787277303E+02  0.20000028535E+02 0.  0.
        -12    1    1    2    0    0  0.86883333723E+01 -0.57244555310E+01  0.42135094668E+02  0.43400722697E+02  0.00000000000E+00 0.  1.
         11    1    3    3    0    0 -0.40425451815E+01  0.11473910527E+02 -0.18157578183E+02  0.21856130491E+02  0.51100000000E-03 0.  1.
        -11    1    3    3    0    0 -0.11959277355E+01 -0.32110651950E+01 -0.19247308838E+02  0.19549938123E+02  0.51100000000E-03 0. -1.
        -12    1    3    3    0    0 -0.34498604553E+01 -0.25383898010E+01 -0.47302076469E+01  0.63812086885E+01  0.00000000000E+00 0.  1.
</event>
<event>
 7    1  0.2458979E-009  0.4778727E+02  0.7816164E-02  0.1312668E+00
        -11   -1    0    0    0    0  0.00000000000E+00  0.00000000000E+00  0.45593999997E+02  0.45594000000E+02  0.51100000000E-03 0.  1.
         11   -1    0    0    0    0 -0.00000000000E+00 -0.00000000000E+00 -0.45593999997E+02  0.45594000000E+02  0.51100000000E-03 0. -1.
    9900012    2    1    2    0    0  0.27293689153E+01  0.10974584981E+02 -0.41901464757E+02  0.47787265916E+02  0.19999976618E+02 0.  0.
        -12    1    1    2    0    0 -0.27293689153E+01 -0.10974584981E+02  0.41901464757E+02  0.43400734084E+02  0.00000000000E+00 0.  1.
         11    1    3    3    0    0 -0.23470417638E+01  0.61037764391E+01 -0.54032416608E+01  0.84829070822E+01  0.51100000000E-03 0. -1.
        -11    1    3    3    0    0  0.18103983222E+01 -0.42600193465E+01 -0.15473762361E+02  0.16151242329E+02  0.51100000000E-03 0.  1.
        -12    1    3    3    0    0  0.32660123569E+01  0.91308278889E+01 -0.21024460736E+02  0.23153116505E+02  0.00000000000E+00 0.  1.
</event>
<event>
 7    1  0.2458979E-009  0.4778727E+02  0.7816164E-02  0.1312668E+00
        -11   -1    0    0    0    0  0.00000000000E+00  0.00000000000E+00  0.45593999997E+02  0.45594000000E+02  0.51100000000E-03 0.  1.
         11   -1    0    0    0    0 -0.00000000000E+00 -0.00000000000E+00 -0.45593999997E+02  0.45594000000E+02  0.51100000000E-03 0. -1.
    9900012    2    1    2    0    0  0.75371883498E+01  0.41729685244E+02 -0.92437872162E+01  0.47787269121E+02  0.19999991229E+02 0.  0.
        -12    1    1    2    0    0 -0.75371883498E+01 -0.41729685244E+02  0.92437872162E+01  0.43400730879E+02  0.00000000000E+00 0.  1.
         11    1    3    3    0    0  0.64296246489E+01  0.32714178891E+02 -0.40133290414E+01  0.33580714464E+02  0.51100000000E-03 0. -1.
        -11    1    3    3    0    0  0.49167311220E+01  0.31209964267E+01 -0.40408578677E+01  0.70882576272E+01  0.51100000000E-03 0.  1.
         12    1    3    3    0    0 -0.38091674212E+01  0.58945099260E+01 -0.11896003071E+01  0.71182970296E+01  0.00000000000E+00 0. -1.
</event>
<event>
 7    1  0.2458979E-009  0.4778727E+02  0.7816164E-02  0.1312668E+00
        -11   -1    0    0    0    0  0.00000000000E+00  0.00000000000E+00  0.45593999997E+02  0.45594000000E+02  0.51100000000E-03 0. -1.
         11   -1    0    0    0    0 -0.00000000000E+00 -0.00000000000E+00 -0.45593999997E+02  0.45594000000E+02  0.51100000000E-03 0.  1.
    9900012    2    1    2    0    0 -0.42356333428E+02  0.90274871160E+01 -0.28406346212E+01  0.47787266018E+02  0.19999977083E+02 0.  0.
        -12    1    1    2    0    0  0.42356333428E+02 -0.90274871160E+01  0.28406346212E+01  0.43400733982E+02  0.00000000000E+00 0.  1.
         11    1    3    3    0    0 -0.17175659902E+02 -0.51069115576E+01  0.19063130650E-01  0.17918822573E+02  0.51100000000E-03 0. -1.
        -11    1    3    3    0    0 -0.25198611364E+02  0.14604791763E+02 -0.31813513197E+01  0.29298309740E+02  0.51100000000E-03 0.  1.
        -12    1    3    3    0    0  0.17937838193E-01 -0.47039308928E+00  0.32165356779E+00  0.57013370551E+00  0.00000000000E+00 0.  1.
</event>
<event>
 7    1  0.2458979E-009  0.4778727E+02  0.7816164E-02  0.1312668E+00
        -11   -1    0    0    0    0  0.00000000000E+00  0.00000000000E+00  0.45593999997E+02  0.45594000000E+02  0.51100000000E-03 0.  1.
         11   -1    0    0    0    0 -0.00000000000E+00 -0.00000000000E+00 -0.45593999997E+02  0.45594000000E+02  0.51100000000E-03 0. -1.
    9900012    2    1    2    0    0  0.33724619997E+00 -0.38810521789E+02 -0.19422998730E+02  0.47787271709E+02  0.20000003031E+02 0.  0.
        -12    1    1    2    0    0 -0.33724619997E+00  0.38810521789E+02  0.19422998730E+02  0.43400728291E+02  0.00000000000E+00 0.  1.
         11    1    3    3    0    0 -0.55379942393E+01 -0.16086193121E+02 -0.12479366578E+02  0.21099042153E+02  0.51100000000E-03 0. -1.
        -11    1    3    3    0    0  0.85899568706E+01 -0.13474059377E+02 -0.57118155042E+01  0.16969457026E+02  0.51100000000E-03 0.  1.
         12    1    3    3    0    0 -0.27147164313E+01 -0.92502692903E+01 -0.12318166483E+01  0.97187725305E+01  0.00000000000E+00 0. -1.
</event>
<event>
 7    1  0.2458979E-009  0.4778727E+02  0.7816164E-02  0.1312668E+00
        -11   -1    0    0    0    0  0.00000000000E+00  0.00000000000E+00  0.45593999997E+02  0.45594000000E+02  0.51100000000E-03 0. -1.
         11   -1    0    0    0    0 -0.00000000000E+00 -0.00000000000E+00 -0.45593999997E+02  0.45594000000E+02  0.51100000000E-03 0.  1.
    9900012    2    1    2    0    0 -0.30760970700E+02  0.30602988538E+02 -0.91820799629E+00  0.47787270377E+02  0.19999996957E+02 0.  0.
        -12    1    1    2    0    0  0.30760970700E+02 -0.30602988538E+02  0.91820799629E+00  0.43400729623E+02  0.00000000000E+00 0.  1.
         11    1    3    3    0    0 -0.10141637670E+02  0.44252866491E+01  0.53235046615E+01  0.12279074831E+02  0.51100000000E-03 0. -1.
        -11    1    3    3    0    0 -0.17618608369E+02  0.20500676011E+02 -0.90410892152E+01  0.28503234417E+02  0.51100000000E-03 0.  1.
         12    1    3    3    0    0 -0.30007246606E+01  0.56770258783E+01  0.27993765574E+01  0.70049611292E+01  0.00000000000E+00 0. -1.
</event>
<event>
 7    1  0.2458979E-009  0.4778727E+02  0.7816164E-02  0.1312668E+00
        -11   -1    0    0    0    0  0.00000000000E+00  0.00000000000E+00  0.45593999997E+02  0.45594000000E+02  0.51100000000E-03 0.  1.
         11   -1    0    0    0    0 -0.00000000000E+00 -0.00000000000E+00 -0.45593999997E+02  0.45594000000E+02  0.51100000000E-03 0. -1.
    9900012    2    1    2    0    0 -0.67452716080E+00  0.74306089443E-01 -0.43395422101E+02  0.47787272269E+02  0.20000005584E+02 0.  0.
        -12    1    1    2    0    0  0.67452716080E+00 -0.74306089443E-01  0.43395422101E+02  0.43400727731E+02  0.00000000000E+00 0.  1.
         11    1    3    3    0    0  0.36391735217E+01 -0.18210698475E+01 -0.16596686461E+02  0.17088296611E+02  0.51100000000E-03 0. -1.
        -11    1    3    3    0    0 -0.91462502512E+00 -0.61569277466E+01 -0.10588065782E+02  0.12282159235E+02  0.51100000000E-03 0.  1.
         12    1    3    3    0    0 -0.33990756574E+01  0.80523036835E+01 -0.16210669857E+02  0.18416816423E+02  0.00000000000E+00 0. -1.
</event>
<event>
 7    1  0.2458979E-009  0.4778726E+02  0.7816164E-02  0.1312668E+00
        -11   -1    0    0    0    0  0.00000000000E+00  0.00000000000E+00  0.45593999997E+02  0.45594000000E+02  0.51100000000E-03 0.  1.
         11   -1    0    0    0    0 -0.00000000000E+00 -0.00000000000E+00 -0.45593999997E+02  0.45594000000E+02  0.51100000000E-03 0. -1.
    9900012    2    1    2    0    0 -0.28384206096E+02 -0.32831747948E+02 -0.19248705284E+00  0.47787264058E+02  0.19999968147E+02 0.  0.
        -12    1    1    2    0    0  0.28384206096E+02  0.32831747948E+02  0.19248705284E+00  0.43400735942E+02  0.00000000000E+00 0.  1.
         11    1    3    3    0    0 -0.23053159844E+01 -0.63360355569E+00 -0.21802396748E+00  0.24007228005E+01  0.51100000000E-03 0.  1.
        -11    1    3    3    0    0 -0.14635092224E+02 -0.43877843050E+01 -0.83354906091E+00  0.15301417575E+02  0.51100000000E-03 0. -1.
        -12    1    3    3    0    0 -0.11443797888E+02 -0.27810360087E+02  0.85908597555E+00  0.30085123683E+02  0.00000000000E+00 0.  1.
</event>
<event>
 7    1  0.2458979E-009  0.4778727E+02  0.7816164E-02  0.1312668E+00
        -11   -1    0    0    0    0  0.00000000000E+00  0.00000000000E+00  0.45593999997E+02  0.45594000000E+02  0.51100000000E-03 0.  1.
         11   -1    0    0    0    0 -0.00000000000E+00 -0.00000000000E+00 -0.45593999997E+02  0.45594000000E+02  0.51100000000E-03 0. -1.
    9900012    2    1    2    0    0 -0.24894678548E+02 -0.30682371361E+02 -0.17957467851E+02  0.47787267472E+02  0.19999983711E+02 0.  0.
        -12    1    1    2    0    0  0.24894678548E+02  0.30682371361E+02  0.17957467851E+02  0.43400732528E+02  0.00000000000E+00 0.  1.
         11    1    3    3    0    0 -0.10372706672E+02 -0.87673041400E+01 -0.13713988266E+02  0.19301091679E+02  0.51100000000E-03 0. -1.
        -11    1    3    3    0    0 -0.15058001821E+02 -0.21498366021E+02 -0.22075432625E+01  0.26340015336E+02  0.51100000000E-03 0.  1.
        -12    1    3    3    0    0  0.53602994549E+00 -0.41670120063E+00 -0.20359363229E+01  0.21461604563E+01  0.00000000000E+00 0.  1.
</event>
<event>
 7    1  0.2458979E-009  0.4778727E+02  0.7816164E-02  0.1312668E+00
        -11   -1    0    0    0    0  0.00000000000E+00  0.00000000000E+00  0.45593999997E+02  0.45594000000E+02  0.51100000000E-03 0.  1.
         11   -1    0    0    0    0 -0.00000000000E+00 -0.00000000000E+00 -0.45593999997E+02  0.45594000000E+02  0.51100000000E-03 0. -1.
    9900012    2    1    2    0    0 -0.60845802542E+01  0.35082724600E+02 -0.24815390800E+02  0.47787270711E+02  0.19999998481E+02 0.  0.
        -12    1    1    2    0    0  0.60845802542E+01 -0.35082724600E+02  0.24815390800E+02  0.43400729289E+02  0.00000000000E+00 0.  1.
         11    1    3    3    0    0 -0.28752491723E+01  0.21002145803E+02 -0.74603820630E+01  0.22472527382E+02  0.51100000000E-03 0. -1.
        -11    1    3    3    0    0 -0.63618370831E+01  0.33127665866E+01 -0.75560070576E+01  0.10418283757E+02  0.51100000000E-03 0.  1.
         12    1    3    3    0    0  0.31525060012E+01  0.10767812211E+02 -0.97990016790E+01  0.14896459573E+02  0.00000000000E+00 0. -1.
</event>
<event>
 7    1  0.2458979E-009  0.4778727E+02  0.7816164E-02  0.1312668E+00
        -11   -1    0    0    0    0  0.00000000000E+00  0.00000000000E+00  0.45593999997E+02  0.45594000000E+02  0.51100000000E-03 0.  1.
         11   -1    0    0    0    0 -0.00000000000E+00 -0.00000000000E+00 -0.45593999997E+02  0.45594000000E+02  0.51100000000E-03 0. -1.
    9900012    2    1    2    0    0  0.19093791024E+02 -0.10729472892E+02 -0.37469039657E+02  0.47787269856E+02  0.19999994580E+02 0.  0.
        -12    1    1    2    0    0 -0.19093791024E+02  0.10729472892E+02  0.37469039657E+02  0.43400730144E+02  0.00000000000E+00 0.  1.
         11    1    3    3    0    0  0.50642845525E-01  0.83628254462E+00  0.74292076176E-01  0.84110211386E+00  0.51100000000E-03 0. -1.
        -11    1    3    3    0    0  0.71739997694E+01 -0.22353774194E+01 -0.28216989211E+02  0.29200370979E+02  0.51100000000E-03 0.  1.
        -12    1    3    3    0    0  0.11869148409E+02 -0.93303780175E+01 -0.93263425223E+01  0.17745796763E+02  0.00000000000E+00 0.  1.
</event>
<event>
 7    1  0.2458979E-009  0.4778727E+02  0.7816164E-02  0.1312668E+00
        -11   -1    0    0    0    0  0.00000000000E+00  0.00000000000E+00  0.45593999997E+02  0.45594000000E+02  0.51100000000E-03 0.  1.
         11   -1    0    0    0    0 -0.00000000000E+00 -0.00000000000E+00 -0.45593999997E+02  0.45594000000E+02  0.51100000000E-03 0. -1.
    9900012    2    1    2    0    0 -0.38765366255E+02  0.14831015938E+01  0.19459450186E+02  0.47787269445E+02  0.19999992706E+02 0.  0.
        -12    1    1    2    0    0  0.38765366255E+02 -0.14831015938E+01 -0.19459450186E+02  0.43400730555E+02  0.00000000000E+00 0.  1.
         11    1    3    3    0    0 -0.62661982537E+01  0.21650049862E+01  0.10233536285E+01  0.67081845574E+01  0.51100000000E-03 0. -1.
        -11    1    3    3    0    0 -0.74834589696E+01 -0.44701340158E+01 -0.15284890404E+01  0.88498889980E+01  0.51100000000E-03 0.  1.
        -12    1    3    3    0    0 -0.25015709031E+02  0.37882306234E+01  0.19964585598E+02  0.32229195889E+02  0.00000000000E+00 0.  1.
</event>
<event>
 7    1  0.2458979E-009  0.4778727E+02  0.7816164E-02  0.1312668E+00
        -11   -1    0    0    0    0  0.00000000000E+00  0.00000000000E+00  0.45593999997E+02  0.45594000000E+02  0.51100000000E-03 0.  1.
         11   -1    0    0    0    0 -0.00000000000E+00 -0.00000000000E+00 -0.45593999997E+02  0.45594000000E+02  0.51100000000E-03 0. -1.
    9900012    2    1    2    0    0  0.48396295998E+01  0.38593369362E+02 -0.19254958142E+02  0.47787267443E+02  0.19999983581E+02 0.  0.
        -12    1    1    2    0    0 -0.48396295998E+01 -0.38593369362E+02  0.19254958142E+02  0.43400732557E+02  0.00000000000E+00 0.  1.
         11    1    3    3    0    0  0.69214465367E+01  0.15027407645E+02  0.12249268177E+00  0.16545223099E+02  0.51100000000E-03 0.  1.
        -11    1    3    3    0    0 -0.26179351533E+01  0.23744035320E+02 -0.19207081378E+02  0.30651994602E+02  0.51100000000E-03 0. -1.
         12    1    3    3    0    0  0.53611821643E+00 -0.17807360284E+00 -0.17036944562E+00  0.59004974198E+00  0.00000000000E+00 0. -1.
</event>
<event>
 7    1  0.2458979E-009  0.4778728E+02  0.7816164E-02  0.1312668E+00
        -11   -1    0    0    0    0  0.00000000000E+00  0.00000000000E+00  0.45593999997E+02  0.45594000000E+02  0.51100000000E-03 0.  1.
         11   -1    0    0    0    0 -0.00000000000E+00 -0.00000000000E+00 -0.45593999997E+02  0.45594000000E+02  0.51100000000E-03 0. -1.
    9900012    2    1    2    0    0 -0.52385606966E+01  0.67641935937E+01 -0.42549101849E+02  0.47787275337E+02  0.20000019570E+02 0.  0.
        -12    1    1    2    0    0  0.52385606966E+01 -0.67641935937E+01  0.42549101849E+02  0.43400724663E+02  0.00000000000E+00 0.  1.
         11    1    3    3    0    0  0.39865031515E+01  0.67378605428E+00 -0.20647164146E+02  0.21039286646E+02  0.51100000000E-03 0. -1.
        -11    1    3    3    0    0  0.20652694750E+01 -0.65709157694E+00 -0.25097209980E+01  0.33159926257E+01  0.51100000000E-03 0.  1.
         12    1    3    3    0    0 -0.11290333323E+02  0.67474991164E+01 -0.19392216705E+02  0.23431996065E+02  0.00000000000E+00 0. -1.
</event>
<event>
 7    1  0.2458979E-009  0.4778727E+02  0.7816164E-02  0.1312668E+00
        -11   -1    0    0    0    0  0.00000000000E+00  0.00000000000E+00  0.45593999997E+02  0.45594000000E+02  0.51100000000E-03 0. -1.
         11   -1    0    0    0    0 -0.00000000000E+00 -0.00000000000E+00 -0.45593999997E+02  0.45594000000E+02  0.51100000000E-03 0.  1.
    9900012    2    1    2    0    0  0.31553312698E+02 -0.24622325918E+02 -0.16785498208E+02  0.47787269293E+02  0.19999992012E+02 0.  0.
        -12    1    1    2    0    0 -0.31553312698E+02  0.24622325918E+02  0.16785498208E+02  0.43400730707E+02  0.00000000000E+00 0.  1.
         11    1    3    3    0    0  0.24528455777E+02 -0.24214865612E+02 -0.18575869344E+02  0.39154409478E+02  0.51100000000E-03 0. -1.
        -11    1    3    3    0    0  0.48226057294E+01  0.14434969134E+01 -0.35152462096E+00  0.50462638834E+01  0.51100000000E-03 0.  1.
         12    1    3    3    0    0  0.22022511912E+01 -0.18509572195E+01  0.21418957569E+01  0.35865959308E+01  0.00000000000E+00 0. -1.
</event>
<event>
 7    1  0.2458979E-009  0.4778728E+02  0.7816164E-02  0.1312668E+00
        -11   -1    0    0    0    0  0.00000000000E+00  0.00000000000E+00  0.45593999997E+02  0.45594000000E+02  0.51100000000E-03 0.  1.
         11   -1    0    0    0    0 -0.00000000000E+00 -0.00000000000E+00 -0.45593999997E+02  0.45594000000E+02  0.51100000000E-03 0. -1.
    9900012    2    1    2    0    0 -0.25749747160E+02 -0.12391357393E+02 -0.32665380525E+02  0.47787282245E+02  0.20000051066E+02 0.  0.
        -12    1    1    2    0    0  0.25749747160E+02  0.12391357393E+02  0.32665380525E+02  0.43400717755E+02  0.00000000000E+00 0.  1.
         11    1    3    3    0    0 -0.12910391997E+02 -0.78355730540E+01 -0.12739933295E+02  0.19758044620E+02  0.51100000000E-03 0. -1.
        -11    1    3    3    0    0 -0.49898246648E+01 -0.46415663999E+01 -0.18926374493E+02  0.20115917591E+02  0.51100000000E-03 0.  1.
        -12    1    3    3    0    0 -0.78495304987E+01  0.85782061015E-01 -0.99907273642E+00  0.79133200330E+01  0.00000000000E+00 0.  1.
</event>
<event>
 7    1  0.2458979E-009  0.4778727E+02  0.7816164E-02  0.1312668E+00
        -11   -1    0    0    0    0  0.00000000000E+00  0.00000000000E+00  0.45593999997E+02  0.45594000000E+02  0.51100000000E-03 0.  1.
         11   -1    0    0    0    0 -0.00000000000E+00 -0.00000000000E+00 -0.45593999997E+02  0.45594000000E+02  0.51100000000E-03 0. -1.
    9900012    2    1    2    0    0  0.15002417065E+02 -0.43762845679E+01 -0.40489490870E+02  0.47787271258E+02  0.20000000974E+02 0.  0.
        -12    1    1    2    0    0 -0.15002417065E+02  0.43762845679E+01  0.40489490870E+02  0.43400728742E+02  0.00000000000E+00 0.  1.
         11    1    3    3    0    0  0.11367914314E+02 -0.84190997860E+01 -0.13778606845E+02  0.19747423222E+02  0.51100000000E-03 0.  1.
        -11    1    3    3    0    0  0.37559026117E+01  0.31582071154E+01 -0.26699661266E+02  0.27146878063E+02  0.51100000000E-03 0. -1.
        -12    1    3    3    0    0 -0.12139986013E+00  0.88460810271E+00 -0.11222758825E-01  0.89296997247E+00  0.00000000000E+00 0.  1.
</event>
<event>
 7    1  0.2458979E-009  0.4778727E+02  0.7816164E-02  0.1312668E+00
        -11   -1    0    0    0    0  0.00000000000E+00  0.00000000000E+00  0.45593999997E+02  0.45594000000E+02  0.51100000000E-03 0.  1.
         11   -1    0    0    0    0 -0.00000000000E+00 -0.00000000000E+00 -0.45593999997E+02  0.45594000000E+02  0.51100000000E-03 0. -1.
    9900012    2    1    2    0    0 -0.29709304310E+02  0.26305291870E+02  0.17578734750E+02  0.47787273527E+02  0.20000011321E+02 0.  0.
        -12    1    1    2    0    0  0.29709304310E+02 -0.26305291870E+02 -0.17578734750E+02  0.43400726473E+02  0.00000000000E+00 0.  1.
         11    1    3    3    0    0 -0.27253813553E+02  0.24465428929E+02  0.11911015174E+02  0.38512333720E+02  0.51100000000E-03 0. -1.
        -11    1    3    3    0    0 -0.25170290460E+01 -0.16656440008E+01  0.54460152995E+00  0.30669848783E+01  0.51100000000E-03 0.  1.
         12    1    3    3    0    0  0.61538288957E-01  0.35055069417E+01  0.51231180465E+01  0.62079549288E+01  0.00000000000E+00 0. -1.
</event>
<event>
 7    1  0.2458979E-009  0.4778727E+02  0.7816164E-02  0.1312668E+00
        -11   -1    0    0    0    0  0.00000000000E+00  0.00000000000E+00  0.45593999997E+02  0.45594000000E+02  0.51100000000E-03 0. -1.
         11   -1    0    0    0    0 -0.00000000000E+00 -0.00000000000E+00 -0.45593999997E+02  0.45594000000E+02  0.51100000000E-03 0.  1.
    9900012    2    1    2    0    0  0.48260670105E+00  0.42384141354E+02  0.93260424046E+01  0.47787269425E+02  0.19999992615E+02 0.  0.
        -12    1    1    2    0    0 -0.48260670105E+00 -0.42384141354E+02 -0.93260424046E+01  0.43400730575E+02  0.00000000000E+00 0.  1.
         11    1    3    3    0    0 -0.18285024043E+01  0.25433722720E+02  0.18816310722E+01  0.25568695864E+02  0.51100000000E-03 0. -1.
        -11    1    3    3    0    0  0.37219980413E+01  0.10145682209E+02  0.10087656352E+02  0.14783401092E+02  0.51100000000E-03 0.  1.
        -12    1    3    3    0    0 -0.14108889360E+01  0.68047364252E+01 -0.26432450199E+01  0.74351724688E+01  0.00000000000E+00 0.  1.
</event>
<event>
 7    1  0.2458979E-009  0.4778730E+02  0.7816164E-02  0.1312668E+00
        -11   -1    0    0    0    0  0.00000000000E+00  0.00000000000E+00  0.45593999997E+02  0.45594000000E+02  0.51100000000E-03 0.  1.
         11   -1    0    0    0    0 -0.00000000000E+00 -0.00000000000E+00 -0.45593999997E+02  0.45594000000E+02  0.51100000000E-03 0. -1.
    9900012    2    1    2    0    0  0.24592869851E+02  0.34999803574E+02 -0.73365582238E+01  0.47787302030E+02  0.20000141275E+02 0.  0.
        -12    1    1    2    0    0 -0.24592869851E+02 -0.34999803574E+02  0.73365582238E+01  0.43400697970E+02  0.00000000000E+00 0.  1.
         11    1    3    3    0    0  0.18400559156E+02  0.19418494021E+02  0.87704650161E+00  0.26766167042E+02  0.51100000000E-03 0. -1.
        -11    1    3    3    0    0 -0.10209351988E+01  0.15020733354E+01  0.15869363731E+01  0.24118250970E+01  0.51100000000E-03 0.  1.
         12    1    3    3    0    0  0.72132458933E+01  0.14079236217E+02 -0.98005410985E+01  0.18609309891E+02  0.00000000000E+00 0. -1.
</event>
<event>
 7    1  0.2458979E-009  0.4778727E+02  0.7816164E-02  0.1312668E+00
        -11   -1    0    0    0    0  0.00000000000E+00  0.00000000000E+00  0.45593999997E+02  0.45594000000E+02  0.51100000000E-03 0.  1.
         11   -1    0    0    0    0 -0.00000000000E+00 -0.00000000000E+00 -0.45593999997E+02  0.45594000000E+02  0.51100000000E-03 0. -1.
    9900012    2    1    2    0    0 -0.17010900009E+02  0.36631238520E+02 -0.15887250765E+02  0.47787273145E+02  0.20000009578E+02 0.  0.
        -12    1    1    2    0    0  0.17010900009E+02 -0.36631238520E+02  0.15887250765E+02  0.43400726855E+02  0.00000000000E+00 0.  1.
         11    1    3    3    0    0 -0.95280919866E-01  0.17368600869E+01  0.16722736402E+01  0.24129361376E+01  0.51100000000E-03 0.  1.
        -11    1    3    3    0    0 -0.12614751137E+02  0.88863566778E+01 -0.75284876039E+01  0.17169082885E+02  0.51100000000E-03 0. -1.
        -12    1    3    3    0    0 -0.43008679520E+01  0.26008021756E+02 -0.10031036802E+02  0.28205254122E+02  0.00000000000E+00 0.  1.
</event>
<event>
 7    1  0.2458979E-009  0.4778727E+02  0.7816164E-02  0.1312668E+00
        -11   -1    0    0    0    0  0.00000000000E+00  0.00000000000E+00  0.45593999997E+02  0.45594000000E+02  0.51100000000E-03 0. -1.
         11   -1    0    0    0    0 -0.00000000000E+00 -0.00000000000E+00 -0.45593999997E+02  0.45594000000E+02  0.51100000000E-03 0.  1.
    9900012    2    1    2    0    0  0.37065573735E+02  0.17086882606E+01  0.22513264077E+02  0.47787269231E+02  0.19999991730E+02 0.  0.
        -12    1    1    2    0    0 -0.37065573735E+02 -0.17086882606E+01 -0.22513264077E+02  0.43400730769E+02  0.00000000000E+00 0.  1.
         11    1    3    3    0    0  0.93647677097E+01 -0.28124353204E+01  0.11194750055E+01  0.98418438942E+01  0.51100000000E-03 0. -1.
        -11    1    3    3    0    0  0.17466988569E+02  0.95668421520E+01  0.14144945588E+02  0.24427436304E+02  0.51100000000E-03 0.  1.
        -12    1    3    3    0    0  0.10233817457E+02 -0.50457185710E+01  0.72488434836E+01  0.13517989033E+02  0.00000000000E+00 0.  1.
</event>
<event>
 7    1  0.2458979E-009  0.4778726E+02  0.7816164E-02  0.1312668E+00
        -11   -1    0    0    0    0  0.00000000000E+00  0.00000000000E+00  0.45593999997E+02  0.45594000000E+02  0.51100000000E-03 0.  1.
         11   -1    0    0    0    0 -0.00000000000E+00 -0.00000000000E+00 -0.45593999997E+02  0.45594000000E+02  0.51100000000E-03 0. -1.
    9900012    2    1    2    0    0  0.15269858846E+02  0.40491865962E+02  0.32960591763E+01  0.47787264933E+02  0.19999972136E+02 0.  0.
        -12    1    1    2    0    0 -0.15269858846E+02 -0.40491865962E+02 -0.32960591763E+01  0.43400735067E+02  0.00000000000E+00 0.  1.
         11    1    3    3    0    0  0.39383276513E+01  0.11338698263E+02 -0.70297144892E+01  0.13910190115E+02  0.51100000000E-03 0. -1.
        -11    1    3    3    0    0  0.77800847366E+01  0.15096642452E+02  0.92497206630E+01  0.19338967512E+02  0.51100000000E-03 0.  1.
         12    1    3    3    0    0  0.35514464585E+01  0.14056525247E+02  0.10760530025E+01  0.14538107306E+02  0.00000000000E+00 0. -1.
</event>
<event>
 7    1  0.2458979E-009  0.4778727E+02  0.7816164E-02  0.1312668E+00
        -11   -1    0    0    0    0  0.00000000000E+00  0.00000000000E+00  0.45593999997E+02  0.45594000000E+02  0.51100000000E-03 0. -1.
         11   -1    0    0    0    0 -0.00000000000E+00 -0.00000000000E+00 -0.45593999997E+02  0.45594000000E+02  0.51100000000E-03 0.  1.
    9900012    2    1    2    0    0  0.15396419143E+02 -0.37136495122E+02 -0.16354031612E+02  0.47787270256E+02  0.19999996403E+02 0.  0.
        -12    1    1    2    0    0 -0.15396419143E+02  0.37136495122E+02  0.16354031612E+02  0.43400729744E+02  0.00000000000E+00 0.  1.
         11    1    3    3    0    0  0.10058928329E+02 -0.10667106711E+02 -0.17443714606E+01  0.14765230671E+02  0.51100000000E-03 0. -1.
        -11    1    3    3    0    0 -0.30165091865E+01 -0.62901310754E+01 -0.70304713413E+01  0.99041710486E+01  0.51100000000E-03 0.  1.
        -12    1    3    3    0    0  0.83540000002E+01 -0.20179257336E+02 -0.75791888097E+01  0.23117868536E+02  0.00000000000E+00 0.  1.
</event>
<event>
 7    1  0.2458979E-009  0.4778727E+02  0.7816164E-02  0.1312668E+00
        -11   -1    0    0    0    0  0.00000000000E+00  0.00000000000E+00  0.45593999997E+02  0.45594000000E+02  0.51100000000E-03 0.  1.
         11   -1    0    0    0    0 -0.00000000000E+00 -0.00000000000E+00 -0.45593999997E+02  0.45594000000E+02  0.51100000000E-03 0. -1.
    9900012    2    1    2    0    0 -0.16524501214E+02  0.18429888498E+02 -0.35649730488E+02  0.47787271731E+02  0.20000003130E+02 0.  0.
        -12    1    1    2    0    0  0.16524501214E+02 -0.18429888498E+02  0.35649730488E+02  0.43400728269E+02  0.00000000000E+00 0.  1.
         11    1    3    3    0    0 -0.18651325689E+02  0.88668944019E+01 -0.24202904646E+02  0.31816259362E+02  0.51100000000E-03 0. -1.
        -11    1    3    3    0    0  0.71144900976E-01  0.80526754460E+01 -0.10538776836E+02  0.13263350289E+02  0.51100000000E-03 0.  1.
         12    1    3    3    0    0  0.20556795740E+01  0.15103186506E+01 -0.90804900643E+00  0.27076620793E+01  0.00000000000E+00 0. -1.
</event>
<event>
 7    1  0.2458979E-009  0.4778727E+02  0.7816164E-02  0.1312668E+00
        -11   -1    0    0    0    0  0.00000000000E+00  0.00000000000E+00  0.45593999997E+02  0.45594000000E+02  0.51100000000E-03 0.  1.
         11   -1    0    0    0    0 -0.00000000000E+00 -0.00000000000E+00 -0.45593999997E+02  0.45594000000E+02  0.51100000000E-03 0. -1.
    9900012    2    1    2    0    0 -0.26348677307E+02 -0.33946075827E+02 -0.60855906039E+01  0.47787271056E+02  0.20000000052E+02 0.  0.
        -12    1    1    2    0    0  0.26348677307E+02  0.33946075827E+02  0.60855906039E+01  0.43400728944E+02  0.00000000000E+00 0.  1.
         11    1    3    3    0    0  0.10951122216E+01 -0.27846297790E+01 -0.53727260148E+01  0.61497657578E+01  0.51100000000E-03 0. -1.
        -11    1    3    3    0    0 -0.17067303824E+02 -0.18163469066E+02  0.80137070426E+00  0.24936853522E+02  0.51100000000E-03 0.  1.
         12    1    3    3    0    0 -0.10376485704E+02 -0.12997976983E+02 -0.15142352933E+01  0.16700651776E+02  0.00000000000E+00 0. -1.
</event>
<event>
 7    1  0.2458979E-009  0.4778727E+02  0.7816164E-02  0.1312668E+00
        -11   -1    0    0    0    0  0.00000000000E+00  0.00000000000E+00  0.45593999997E+02  0.45594000000E+02  0.51100000000E-03 0.  1.
         11   -1    0    0    0    0 -0.00000000000E+00 -0.00000000000E+00 -0.45593999997E+02  0.45594000000E+02  0.51100000000E-03 0. -1.
    9900012    2    1    2    0    0 -0.87265985946E+01  0.56802269291E+01 -0.42133178685E+02  0.47787271353E+02  0.20000001408E+02 0.  0.
        -12    1    1    2    0    0  0.87265985946E+01 -0.56802269291E+01  0.42133178685E+02  0.43400728647E+02  0.00000000000E+00 0.  1.
         11    1    3    3    0    0 -0.33880661016E+01 -0.20155031196E+01 -0.15883816942E+01  0.42502001602E+01  0.51100000000E-03 0. -1.
        -11    1    3    3    0    0 -0.44379306864E+01 -0.27145551314E+01 -0.10321373224E+02  0.11558320978E+02  0.51100000000E-03 0.  1.
         12    1    3    3    0    0 -0.90060180663E+00  0.10410285180E+02 -0.30223423767E+02  0.31978750215E+02  0.00000000000E+00 0. -1.
</event>
<event>
 7    1  0.2458979E-009  0.4778727E+02  0.7816164E-02  0.1312668E+00
        -11   -1    0    0    0    0  0.00000000000E+00  0.00000000000E+00  0.45593999997E+02  0.45594000000E+02  0.51100000000E-03 0. -1.
         11   -1    0    0    0    0 -0.00000000000E+00 -0.00000000000E+00 -0.45593999997E+02  0.45594000000E+02  0.51100000000E-03 0.  1.
    9900012    2    1    2    0    0 -0.33927519365E+02 -0.21574988431E+02  0.16342172122E+02  0.47787270908E+02  0.19999999377E+02 0.  0.
        -12    1    1    2    0    0  0.33927519365E+02  0.21574988431E+02 -0.16342172122E+02  0.43400729092E+02  0.00000000000E+00 0.  1.
         11    1    3    3    0    0 -0.63601198215E+01 -0.43371381208E+01  0.40928164042E+01  0.87185456128E+01  0.51100000000E-03 0. -1.
        -11    1    3    3    0    0 -0.18860849052E+02 -0.18321028635E+01  0.32863462894E+01  0.19232480341E+02  0.51100000000E-03 0.  1.
        -12    1    3    3    0    0 -0.87065504914E+01 -0.15405747447E+02  0.89630094283E+01  0.19836244954E+02  0.00000000000E+00 0.  1.
</event>
<event>
 7    1  0.2458979E-009  0.4778727E+02  0.7816164E-02  0.1312668E+00
        -11   -1    0    0    0    0  0.00000000000E+00  0.00000000000E+00  0.45593999997E+02  0.45594000000E+02  0.51100000000E-03 0.  1.
         11   -1    0    0    0    0 -0.00000000000E+00 -0.00000000000E+00 -0.45593999997E+02  0.45594000000E+02  0.51100000000E-03 0. -1.
    9900012    2    1    2    0    0  0.55374284236E+01 -0.12353213943E+02 -0.41235400856E+02  0.47787270835E+02  0.19999999046E+02 0.  0.
        -12    1    1    2    0    0 -0.55374284236E+01  0.12353213943E+02  0.41235400856E+02  0.43400729165E+02  0.00000000000E+00 0.  1.
         11    1    3    3    0    0  0.85903205598E+01 -0.25275257796E+00 -0.10808840249E+02  0.13809001375E+02  0.51100000000E-03 0. -1.
        -11    1    3    3    0    0  0.28449655116E+00 -0.89683953915E+01 -0.26396741696E+02  0.27880118841E+02  0.51100000000E-03 0.  1.
        -12    1    3    3    0    0 -0.33373886873E+01 -0.31320659735E+01 -0.40298189115E+01  0.60981506190E+01  0.00000000000E+00 0.  1.
</event>
<event>
 7    1  0.2458979E-009  0.4778727E+02  0.7816164E-02  0.1312668E+00
        -11   -1    0    0    0    0  0.00000000000E+00  0.00000000000E+00  0.45593999997E+02  0.45594000000E+02  0.51100000000E-03 0.  1.
         11   -1    0    0    0    0 -0.00000000000E+00 -0.00000000000E+00 -0.45593999997E+02  0.45594000000E+02  0.51100000000E-03 0. -1.
    9900012    2    1    2    0    0  0.32196191791E+02  0.26201282892E+02 -0.12669687567E+02  0.47787274498E+02  0.20000015748E+02 0.  0.
        -12    1    1    2    0    0 -0.32196191791E+02 -0.26201282892E+02  0.12669687567E+02  0.43400725502E+02  0.00000000000E+00 0.  1.
         11    1    3    3    0    0  0.13632476519E+01  0.30275568890E+01 -0.58592350388E+01  0.67346254817E+01  0.51100000000E-03 0. -1.
        -11    1    3    3    0    0  0.91242152148E+01  0.30260155461E+01 -0.61806454507E+01  0.11428405480E+02  0.51100000000E-03 0.  1.
         12    1    3    3    0    0  0.21708728924E+02  0.20147710457E+02 -0.62980707759E+00  0.29624243536E+02  0.00000000000E+00 0. -1.
</event>
<event>
 7    1  0.2458979E-009  0.4778727E+02  0.7816164E-02  0.1312668E+00
        -11   -1    0    0    0    0  0.00000000000E+00  0.00000000000E+00  0.45593999997E+02  0.45594000000E+02  0.51100000000E-03 0. -1.
         11   -1    0    0    0    0 -0.00000000000E+00 -0.00000000000E+00 -0.45593999997E+02  0.45594000000E+02  0.51100000000E-03 0.  1.
    9900012    2    1    2    0    0  0.14560509652E+02 -0.38337556440E+02  0.14207281640E+02  0.47787268131E+02  0.19999986717E+02 0.  0.
        -12    1    1    2    0    0 -0.14560509652E+02  0.38337556440E+02 -0.14207281640E+02  0.43400731869E+02  0.00000000000E+00 0.  1.
         11    1    3    3    0    0  0.13493977616E+02 -0.13911397536E+02  0.28023739795E+01  0.19582331666E+02  0.51100000000E-03 0. -1.
        -11    1    3    3    0    0 -0.65922912550E+00 -0.54819157625E+01  0.65611770703E+01  0.85752567469E+01  0.51100000000E-03 0.  1.
         12    1    3    3    0    0  0.17257611615E+01 -0.18944243142E+02  0.48437305907E+01  0.19629679718E+02  0.00000000000E+00 0. -1.
</event>
<event>
 7    1  0.2458979E-009  0.4778727E+02  0.7816164E-02  0.1312668E+00
        -11   -1    0    0    0    0  0.00000000000E+00  0.00000000000E+00  0.45593999997E+02  0.45594000000E+02  0.51100000000E-03 0.  1.
         11   -1    0    0    0    0 -0.00000000000E+00 -0.00000000000E+00 -0.45593999997E+02  0.45594000000E+02  0.51100000000E-03 0. -1.
    9900012    2    1    2    0    0 -0.19623966793E+02 -0.38289000500E+02  0.56987332947E+01  0.47787271975E+02  0.20000004241E+02 0.  0.
        -12    1    1    2    0    0  0.19623966793E+02  0.38289000500E+02 -0.56987332947E+01  0.43400728025E+02  0.00000000000E+00 0.  1.
         11    1    3    3    0    0 -0.16430967177E+02 -0.26250431990E+02 -0.11768713864E+01  0.30991077563E+02  0.51100000000E-03 0. -1.
        -11    1    3    3    0    0 -0.36351935261E+01 -0.13176167186E+02  0.49915368630E+01  0.14551338571E+02  0.51100000000E-03 0.  1.
         12    1    3    3    0    0  0.44219391023E+00  0.11375986759E+01  0.18840678181E+01  0.22448558405E+01  0.00000000000E+00 0. -1.
</event>
<event>
 7    1  0.2458979E-009  0.4778727E+02  0.7816164E-02  0.1312668E+00
        -11   -1    0    0    0    0  0.00000000000E+00  0.00000000000E+00  0.45593999997E+02  0.45594000000E+02  0.51100000000E-03 0.  1.
         11   -1    0    0    0    0 -0.00000000000E+00 -0.00000000000E+00 -0.45593999997E+02  0.45594000000E+02  0.51100000000E-03 0. -1.
    9900012    2    1    2    0    0 -0.23212506692E+02  0.27635019743E+02 -0.24106189385E+02  0.47787272474E+02  0.20000006517E+02 0.  0.
        -12    1    1    2    0    0  0.23212506692E+02 -0.27635019743E+02  0.24106189385E+02  0.43400727526E+02  0.00000000000E+00 0.  1.
         11    1    3    3    0    0 -0.11552981497E+00  0.17703782619E+01 -0.72206349850E+01  0.74353988579E+01  0.51100000000E-03 0. -1.
        -11    1    3    3    0    0 -0.17933662300E+02  0.20884613400E+02 -0.74858800168E+01  0.28527560713E+02  0.51100000000E-03 0.  1.
        -12    1    3    3    0    0 -0.51633145773E+01  0.49800280820E+01 -0.93996743829E+01  0.11824312903E+02  0.00000000000E+00 0.  1.
</event>
<event>
 7    1  0.2458979E-009  0.4778727E+02  0.7816164E-02  0.1312668E+00
        -11   -1    0    0    0    0  0.00000000000E+00  0.00000000000E+00  0.45593999997E+02  0.45594000000E+02  0.51100000000E-03 0.  1.
         11   -1    0    0    0    0 -0.00000000000E+00 -0.00000000000E+00 -0.45593999997E+02  0.45594000000E+02  0.51100000000E-03 0. -1.
    9900012    2    1    2    0    0 -0.41910902003E+02  0.37657355300E+01 -0.10626326354E+02  0.47787270944E+02  0.19999999542E+02 0.  0.
        -12    1    1    2    0    0  0.41910902003E+02 -0.37657355300E+01  0.10626326354E+02  0.43400729056E+02  0.00000000000E+00 0.  1.
         11    1    3    3    0    0 -0.73412523210E+01  0.59124239836E+01  0.89021150598E-01  0.94264875765E+01  0.51100000000E-03 0.  1.
        -11    1    3    3    0    0 -0.32910871330E+02 -0.52382332735E+01 -0.97361249783E+01  0.34718246923E+02  0.51100000000E-03 0. -1.
         12    1    3    3    0    0 -0.16587783520E+01  0.30915448198E+01 -0.97922252658E+00  0.36425364447E+01  0.00000000000E+00 0. -1.
</event>
<event>
 7    1  0.2458979E-009  0.4778727E+02  0.7816164E-02  0.1312668E+00
        -11   -1    0    0    0    0  0.00000000000E+00  0.00000000000E+00  0.45593999997E+02  0.45594000000E+02  0.51100000000E-03 0.  1.
         11   -1    0    0    0    0 -0.00000000000E+00 -0.00000000000E+00 -0.45593999997E+02  0.45594000000E+02  0.51100000000E-03 0. -1.
    9900012    2    1    2    0    0  0.15065333926E+02 -0.22523861108E+02 -0.33901839308E+02  0.47787270583E+02  0.19999997894E+02 0.  0.
        -12    1    1    2    0    0 -0.15065333926E+02  0.22523861108E+02  0.33901839308E+02  0.43400729417E+02  0.00000000000E+00 0.  1.
         11    1    3    3    0    0  0.73273494562E+01 -0.17052849787E+02 -0.22001528480E+02  0.28784665911E+02  0.51100000000E-03 0. -1.
        -11    1    3    3    0    0  0.32585496769E+01 -0.31477282772E+01  0.14285909652E+01  0.47504959436E+01  0.51100000000E-03 0.  1.
         12    1    3    3    0    0  0.44794347931E+01 -0.23232830436E+01 -0.13328901794E+02  0.14252108728E+02  0.00000000000E+00 0. -1.
</event>
<event>
 7    1  0.2458979E-009  0.4778726E+02  0.7816164E-02  0.1312668E+00
        -11   -1    0    0    0    0  0.00000000000E+00  0.00000000000E+00  0.45593999997E+02  0.45594000000E+02  0.51100000000E-03 0.  1.
         11   -1    0    0    0    0 -0.00000000000E+00 -0.00000000000E+00 -0.45593999997E+02  0.45594000000E+02  0.51100000000E-03 0. -1.
    9900012    2    1    2    0    0 -0.42664638671E+02 -0.52749723641E+01 -0.59604598050E+01  0.47787264897E+02  0.19999971973E+02 0.  0.
        -12    1    1    2    0    0  0.42664638671E+02  0.52749723641E+01  0.59604598050E+01  0.43400735103E+02  0.00000000000E+00 0.  1.
         11    1    3    3    0    0 -0.11434051542E+02  0.13237333954E+01 -0.25208178565E+01  0.11783222297E+02  0.51100000000E-03 0. -1.
        -11    1    3    3    0    0  0.67109505836E+00 -0.75814890237E+00  0.27999170190E+01  0.29773635837E+01  0.51100000000E-03 0.  1.
        -12    1    3    3    0    0 -0.31901682187E+02 -0.58405568572E+01 -0.62395589674E+01  0.33026679017E+02  0.00000000000E+00 0.  1.
</event>
<event>
 7    1  0.2458979E-009  0.4778727E+02  0.7816164E-02  0.1312668E+00
        -11   -1    0    0    0    0  0.00000000000E+00  0.00000000000E+00  0.45593999997E+02  0.45594000000E+02  0.51100000000E-03 0.  1.
         11   -1    0    0    0    0 -0.00000000000E+00 -0.00000000000E+00 -0.45593999997E+02  0.45594000000E+02  0.51100000000E-03 0. -1.
    9900012    2    1    2    0    0 -0.31582498256E+02  0.28362982261E+02 -0.90393569524E+01  0.47787274972E+02  0.20000017907E+02 0.  0.
        -12    1    1    2    0    0  0.31582498256E+02 -0.28362982261E+02  0.90393569524E+01  0.43400725028E+02  0.00000000000E+00 0.  1.
         11    1    3    3    0    0 -0.18675018198E+01  0.10347758676E-02 -0.62709928030E+00  0.19699791588E+01  0.51100000000E-03 0. -1.
        -11    1    3    3    0    0 -0.71302480288E+01  0.86708744919E+01 -0.11032126492E+02  0.15739514497E+02  0.51100000000E-03 0.  1.
        -12    1    3    3    0    0 -0.22584748408E+02  0.19691072993E+02  0.26198688198E+01  0.30077781316E+02  0.00000000000E+00 0.  1.
</event>
<event>
 7    1  0.2458979E-009  0.4778727E+02  0.7816164E-02  0.1312668E+00
        -11   -1    0    0    0    0  0.00000000000E+00  0.00000000000E+00  0.45593999997E+02  0.45594000000E+02  0.51100000000E-03 0. -1.
         11   -1    0    0    0    0 -0.00000000000E+00 -0.00000000000E+00 -0.45593999997E+02  0.45594000000E+02  0.51100000000E-03 0.  1.
    9900012    2    1    2    0    0  0.34211288592E+02  0.70756273588E+01 -0.25751626410E+02  0.47787273826E+02  0.20000012683E+02 0.  0.
        -12    1    1    2    0    0 -0.34211288592E+02 -0.70756273588E+01  0.25751626410E+02  0.43400726174E+02  0.00000000000E+00 0.  1.
         11    1    3    3    0    0  0.15562863886E+02 -0.60611065239E+01 -0.94794044493E+01  0.19204136367E+02  0.51100000000E-03 0. -1.
        -11    1    3    3    0    0  0.13805144906E+01  0.23264865675E+01 -0.39052479044E+01  0.47507179945E+01  0.51100000000E-03 0.  1.
         12    1    3    3    0    0  0.17267910216E+02  0.10810247315E+02 -0.12366974056E+02  0.23832419465E+02  0.00000000000E+00 0. -1.
</event>
<event>
 7    1  0.2458979E-009  0.4778727E+02  0.7816164E-02  0.1312668E+00
        -11   -1    0    0    0    0  0.00000000000E+00  0.00000000000E+00  0.45593999997E+02  0.45594000000E+02  0.51100000000E-03 0.  1.
         11   -1    0    0    0    0 -0.00000000000E+00 -0.00000000000E+00 -0.45593999997E+02  0.45594000000E+02  0.51100000000E-03 0. -1.
    9900012    2    1    2    0    0  0.11945748672E+02  0.13442880411E+02 -0.39499510345E+02  0.47787271174E+02  0.20000000592E+02 0.  0.
        -12    1    1    2    0    0 -0.11945748672E+02 -0.13442880411E+02  0.39499510345E+02  0.43400728826E+02  0.00000000000E+00 0.  1.
         11    1    3    3    0    0  0.70290261445E+01  0.21344736350E+01 -0.14301452581E+02  0.16077771377E+02  0.51100000000E-03 0. -1.
        -11    1    3    3    0    0  0.68721799557E+01 -0.64575661182E+00 -0.68566311915E+01  0.97291957788E+01  0.51100000000E-03 0.  1.
        -12    1    3    3    0    0 -0.19554574282E+01  0.11954163388E+02 -0.18341426572E+02  0.21980304019E+02  0.00000000000E+00 0.  1.
</event>
<event>
 7    1  0.2458979E-009  0.4778725E+02  0.7816164E-02  0.1312668E+00
        -11   -1    0    0    0    0  0.00000000000E+00  0.00000000000E+00  0.45593999997E+02  0.45594000000E+02  0.51100000000E-03 0.  1.
         11   -1    0    0    0    0 -0.00000000000E+00 -0.00000000000E+00 -0.45593999997E+02  0.45594000000E+02  0.51100000000E-03 0. -1.
    9900012    2    1    2    0    0 -0.16048601978E+01 -0.38073696518E+02 -0.20771206506E+02  0.47787251590E+02  0.19999911300E+02 0.  0.
        -12    1    1    2    0    0  0.16048601978E+01  0.38073696518E+02  0.20771206506E+02  0.43400748410E+02  0.00000000000E+00 0.  1.
         11    1    3    3    0    0  0.29559554796E+00 -0.23655167976E+02 -0.19608914089E+02  0.30727249482E+02  0.51100000000E-03 0. -1.
        -11    1    3    3    0    0  0.24485868163E+01 -0.94467681106E+01 -0.29892706620E+01  0.10206505008E+02  0.51100000000E-03 0.  1.
         12    1    3    3    0    0 -0.43490425620E+01 -0.49717604310E+01  0.18269782447E+01  0.68534970997E+01  0.00000000000E+00 0. -1.
</event>
<event>
 7    1  0.2458979E-009  0.4778728E+02  0.7816164E-02  0.1312668E+00
        -11   -1    0    0    0    0  0.00000000000E+00  0.00000000000E+00  0.45593999997E+02  0.45594000000E+02  0.51100000000E-03 0.  1.
         11   -1    0    0    0    0 -0.00000000000E+00 -0.00000000000E+00 -0.45593999997E+02  0.45594000000E+02  0.51100000000E-03 0. -1.
    9900012    2    1    2    0    0 -0.29792396635E+02  0.27446002881E+02 -0.15580527738E+02  0.47787276319E+02  0.20000024050E+02 0.  0.
        -12    1    1    2    0    0  0.29792396635E+02 -0.27446002881E+02  0.15580527738E+02  0.43400723681E+02  0.00000000000E+00 0.  1.
         11    1    3    3    0    0  0.14368598465E+01 -0.18452291853E+01 -0.11227286942E+01  0.25942160563E+01  0.51100000000E-03 0.  1.
        -11    1    3    3    0    0 -0.23484732230E+02  0.21866757285E+02 -0.10955167067E+02  0.33907276620E+02  0.51100000000E-03 0. -1.
        -12    1    3    3    0    0 -0.77445242515E+01  0.74244747815E+01 -0.35026319771E+01  0.11285783643E+02  0.00000000000E+00 0.  1.
</event>
<event>
 7    1  0.2458979E-009  0.4778727E+02  0.7816164E-02  0.1312668E+00
        -11   -1    0    0    0    0  0.00000000000E+00  0.00000000000E+00  0.45593999997E+02  0.45594000000E+02  0.51100000000E-03 0.  1.
         11   -1    0    0    0    0 -0.00000000000E+00 -0.00000000000E+00 -0.45593999997E+02  0.45594000000E+02  0.51100000000E-03 0. -1.
    9900012    2    1    2    0    0  0.25068690565E+02  0.35360583753E+02 -0.21938838321E+01  0.47787271247E+02  0.20000000924E+02 0.  0.
        -12    1    1    2    0    0 -0.25068690565E+02 -0.35360583753E+02  0.21938838321E+01  0.43400728753E+02  0.00000000000E+00 0.  1.
         11    1    3    3    0    0  0.16001961928E+02  0.29278295812E+02  0.14070083620E+01  0.33395524610E+02  0.51100000000E-03 0. -1.
        -11    1    3    3    0    0  0.94391061969E+01  0.26727642644E+01 -0.45775056641E+01  0.10825615593E+02  0.51100000000E-03 0.  1.
         12    1    3    3    0    0 -0.37237755991E+00  0.34095236770E+01  0.97661347001E+00  0.35661310437E+01  0.00000000000E+00 0. -1.
</event>
<event>
 7    1  0.2458979E-009  0.4778726E+02  0.7816164E-02  0.1312668E+00
        -11   -1    0    0    0    0  0.00000000000E+00  0.00000000000E+00  0.45593999997E+02  0.45594000000E+02  0.51100000000E-03 0.  1.
         11   -1    0    0    0    0 -0.00000000000E+00 -0.00000000000E+00 -0.45593999997E+02  0.45594000000E+02  0.51100000000E-03 0. -1.
    9900012    2    1    2    0    0  0.99782852168E+01  0.25938554735E+02 -0.33335401678E+02  0.47787264953E+02  0.19999972225E+02 0.  0.
        -12    1    1    2    0    0 -0.99782852168E+01 -0.25938554735E+02  0.33335401678E+02  0.43400735047E+02  0.00000000000E+00 0.  1.
         11    1    3    3    0    0  0.16968483094E+01  0.68179100958E+01 -0.70738219850E+01  0.99700626877E+01  0.51100000000E-03 0. -1.
        -11    1    3    3    0    0 -0.70422940154E+00  0.10950903587E+02 -0.26859599781E+01  0.11297460320E+02  0.51100000000E-03 0.  1.
        -12    1    3    3    0    0  0.89856663090E+01  0.81697410528E+01 -0.23575619715E+02  0.26519741945E+02  0.00000000000E+00 0.  1.
</event>
