<event>
 7    1  0.3568207E-015  0.9000777E+02  0.7816164E-02  0.1186339E+00
        -11   -1    0    0    0    0  0.00000000000E+00  0.00000000000E+00  0.45593999997E+02  0.45594000000E+02  0.51100000000E-03 0.  1.
         11   -1    0    0    0    0 -0.00000000000E+00 -0.00000000000E+00 -0.45593999997E+02  0.45594000000E+02  0.51100000000E-03 0. -1.
    9900012    2    1    2    0    0  0.66211737620E-01 -0.11244755848E+01  0.35229874945E+00  0.90007769622E+02  0.90000031382E+02 0.  0.
         12    1    1    2    0    0 -0.66211737620E-01  0.11244755848E+01 -0.35229874945E+00  0.11802303775E+01  0.00000000000E+00 0. -1.
         11    1    3    3    0    0  0.29064440171E+02  0.15854402498E+02 -0.18655041558E+02  0.38001504402E+02  0.51100000000E-03 0. -1.
        -11    1    3    3    0    0 -0.11349026378E+01 -0.21371914201E+01 -0.92965813168E+01  0.96063528773E+01  0.51100000000E-03 0.  1.
        -12    1    3    3    0    0 -0.27863325796E+02 -0.14841686663E+02  0.28303921624E+02  0.42399912343E+02  0.00000000000E+00 0.  1.
</event>
<event>
 7    1  0.3568207E-015  0.9000769E+02  0.7816164E-02  0.1186339E+00
        -11   -1    0    0    0    0  0.00000000000E+00  0.00000000000E+00  0.45593999997E+02  0.45594000000E+02  0.51100000000E-03 0. -1.
         11   -1    0    0    0    0 -0.00000000000E+00 -0.00000000000E+00 -0.45593999997E+02  0.45594000000E+02  0.51100000000E-03 0.  1.
    9900012    2    1    2    0    0  0.28177434163E-01 -0.11682753240E+01  0.16577193211E+00  0.90007685833E+02  0.89999946486E+02 0.  0.
         12    1    1    2    0    0 -0.28177434163E-01  0.11682753240E+01 -0.16577193211E+00  0.11803141674E+01  0.00000000000E+00 0. -1.
         11    1    3    3    0    0 -0.10165539710E+02 -0.27802039843E+02 -0.22562094029E+02  0.37220151857E+02  0.51100000000E-03 0. -1.
        -11    1    3    3    0    0 -0.76887081375E+01  0.24003655805E-01 -0.59894796322E+01  0.97463159976E+01  0.51100000000E-03 0.  1.
        -12    1    3    3    0    0  0.17882425281E+02  0.26609760863E+02  0.28717345594E+02  0.43041217978E+02  0.00000000000E+00 0.  1.
</event>
<event>
 7    1  0.3568207E-015  0.9000775E+02  0.7816164E-02  0.1186339E+00
        -11   -1    0    0    0    0  0.00000000000E+00  0.00000000000E+00  0.45593999997E+02  0.45594000000E+02  0.51100000000E-03 0.  1.
         11   -1    0    0    0    0 -0.00000000000E+00 -0.00000000000E+00 -0.45593999997E+02  0.45594000000E+02  0.51100000000E-03 0. -1.
    9900012    2    1    2    0    0  0.77889307705E+00 -0.45936609608E+00  0.75849066789E+00  0.90007745905E+02  0.90000007351E+02 0.  0.
         12    1    1    2    0    0 -0.77889307705E+00  0.45936609608E+00 -0.75849066789E+00  0.11802540951E+01  0.00000000000E+00 0. -1.
         11    1    3    3    0    0  0.30909781821E+02  0.29186979866E+01 -0.24524569186E+02  0.39564983308E+02  0.51100000000E-03 0. -1.
        -11    1    3    3    0    0 -0.49222338142E+01  0.59498287761E+01 -0.55715965763E+01  0.95221603041E+01  0.51100000000E-03 0.  1.
        -12    1    3    3    0    0 -0.25208654930E+02 -0.93278928588E+01  0.30854656430E+02  0.40920602293E+02  0.00000000000E+00 0.  1.
</event>
<event>
 7    1  0.3568207E-015  0.9000773E+02  0.7816164E-02  0.1186339E+00
        -11   -1    0    0    0    0  0.00000000000E+00  0.00000000000E+00  0.45593999997E+02  0.45594000000E+02  0.51100000000E-03 0. -1.
         11   -1    0    0    0    0 -0.00000000000E+00 -0.00000000000E+00 -0.45593999997E+02  0.45594000000E+02  0.51100000000E-03 0.  1.
    9900012    2    1    2    0    0 -0.71873557863E+00 -0.84902812687E+00 -0.39448494027E+00  0.90007725472E+02  0.89999986649E+02 0.  0.
         12    1    1    2    0    0  0.71873557863E+00  0.84902812687E+00  0.39448494027E+00  0.11802745275E+01  0.00000000000E+00 0. -1.
         11    1    3    3    0    0 -0.29023247176E+01  0.32755609559E+01  0.70791960876E+01  0.83227282696E+01  0.51100000000E-03 0. -1.
        -11    1    3    3    0    0  0.26107524784E+02  0.27995112834E+02 -0.14667942251E+02  0.40993630274E+02  0.51100000000E-03 0.  1.
         12    1    3    3    0    0 -0.23923935645E+02 -0.32119701917E+02  0.71942612226E+01  0.40691366929E+02  0.00000000000E+00 0. -1.
</event>
<event>
 7    1  0.3568207E-015  0.9000808E+02  0.7816164E-02  0.1186338E+00
        -11   -1    0    0    0    0  0.00000000000E+00  0.00000000000E+00  0.45593999997E+02  0.45594000000E+02  0.51100000000E-03 0.  1.
         11   -1    0    0    0    0 -0.00000000000E+00 -0.00000000000E+00 -0.45593999997E+02  0.45594000000E+02  0.51100000000E-03 0. -1.
    9900012    2    1    2    0    0  0.10298584900E+01 -0.20929718761E-01  0.57547556421E+00  0.90008076830E+02  0.90000342643E+02 0.  0.
         12    1    1    2    0    0 -0.10298584900E+01  0.20929718761E-01 -0.57547556421E+00  0.11799231702E+01  0.00000000000E+00 0. -1.
         11    1    3    3    0    0 -0.95164483503E+01 -0.12606000462E+01 -0.13355707568E+02  0.16447699735E+02  0.51100000000E-03 0. -1.
        -11    1    3    3    0    0  0.39342186669E+02 -0.95097353369E+01  0.13986053497E+02  0.42823503018E+02  0.51100000000E-03 0.  1.
         12    1    3    3    0    0 -0.28795879828E+02  0.10749405664E+02 -0.54870364161E-01  0.30736874076E+02  0.00000000000E+00 0. -1.
</event>
<event>
 7    1  0.3568207E-015  0.9000744E+02  0.7816164E-02  0.1186340E+00
        -11   -1    0    0    0    0  0.00000000000E+00  0.00000000000E+00  0.45593999997E+02  0.45594000000E+02  0.51100000000E-03 0.  1.
         11   -1    0    0    0    0 -0.00000000000E+00 -0.00000000000E+00 -0.45593999997E+02  0.45594000000E+02  0.51100000000E-03 0. -1.
    9900012    2    1    2    0    0  0.39587738648E+00 -0.33168842171E+00  0.10616009904E+01  0.90007435399E+02  0.89999692746E+02 0.  0.
         12    1    1    2    0    0 -0.39587738648E+00  0.33168842171E+00 -0.10616009904E+01  0.11805646010E+01  0.00000000000E+00 0. -1.
         11    1    3    3    0    0  0.31490797050E+01  0.56252603227E+01  0.96756938154E+01  0.11626663655E+02  0.51100000000E-03 0. -1.
        -11    1    3    3    0    0 -0.21601845048E+02  0.23826202048E+02  0.15473564874E+02  0.35689757966E+02  0.51100000000E-03 0.  1.
         12    1    3    3    0    0  0.18848642729E+02 -0.29783150793E+02 -0.24087657699E+02  0.42691013777E+02  0.00000000000E+00 0. -1.
</event>
<event>
 7    1  0.3568207E-015  0.9000779E+02  0.7816164E-02  0.1186339E+00
        -11   -1    0    0    0    0  0.00000000000E+00  0.00000000000E+00  0.45593999997E+02  0.45594000000E+02  0.51100000000E-03 0. -1.
         11   -1    0    0    0    0 -0.00000000000E+00 -0.00000000000E+00 -0.45593999997E+02  0.45594000000E+02  0.51100000000E-03 0.  1.
    9900012    2    1    2    0    0  0.40300933225E+00  0.10564008835E+01  0.33835890017E+00  0.90007794046E+02  0.90000056127E+02 0.  0.
         12    1    1    2    0    0 -0.40300933225E+00 -0.10564008835E+01 -0.33835890017E+00  0.11802059540E+01  0.00000000000E+00 0. -1.
         11    1    3    3    0    0 -0.32252256168E+02 -0.19394476512E+02  0.68582375951E-01  0.37634538006E+02  0.51100000000E-03 0. -1.
        -11    1    3    3    0    0  0.33340316266E+01 -0.40601149383E+01 -0.11284931814E+02  0.12447890846E+02  0.51100000000E-03 0.  1.
        -12    1    3    3    0    0  0.29321233874E+02  0.24510992334E+02  0.11554708338E+02  0.39925365194E+02  0.00000000000E+00 0.  1.
</event>
<event>
 7    1  0.3568207E-015  0.9000762E+02  0.7816164E-02  0.1186339E+00
        -11   -1    0    0    0    0  0.00000000000E+00  0.00000000000E+00  0.45593999997E+02  0.45594000000E+02  0.51100000000E-03 0. -1.
         11   -1    0    0    0    0 -0.00000000000E+00 -0.00000000000E+00 -0.45593999997E+02  0.45594000000E+02  0.51100000000E-03 0.  1.
    9900012    2    1    2    0    0  0.11513136162E+01 -0.19785889264E+00  0.16922446213E+00  0.90007615273E+02  0.89999874995E+02 0.  0.
         12    1    1    2    0    0 -0.11513136162E+01  0.19785889264E+00 -0.16922446213E+00  0.11803847267E+01  0.00000000000E+00 0. -1.
         11    1    3    3    0    0 -0.11779589220E+02  0.10713428006E+02  0.33387373866E+02  0.36989903971E+02  0.51100000000E-03 0. -1.
        -11    1    3    3    0    0 -0.47955420910E+01  0.59376110106E+01  0.38968501193E+01  0.85695909804E+01  0.51100000000E-03 0.  1.
        -12    1    3    3    0    0  0.17726444927E+02 -0.16848897909E+02 -0.37114999523E+02  0.44448120322E+02  0.00000000000E+00 0.  1.
</event>
<event>
 7    1  0.3568207E-015  0.9000765E+02  0.7816164E-02  0.1186339E+00
        -11   -1    0    0    0    0  0.00000000000E+00  0.00000000000E+00  0.45593999997E+02  0.45594000000E+02  0.51100000000E-03 0.  1.
         11   -1    0    0    0    0 -0.00000000000E+00 -0.00000000000E+00 -0.45593999997E+02  0.45594000000E+02  0.51100000000E-03 0. -1.
    9900012    2    1    2    0    0  0.41547019394E+00  0.10759358697E+01 -0.25095213269E+00  0.90007648167E+02  0.89999908322E+02 0.  0.
         12    1    1    2    0    0 -0.41547019394E+00 -0.10759358697E+01  0.25095213269E+00  0.11803518334E+01  0.00000000000E+00 0. -1.
         11    1    3    3    0    0 -0.28192923440E+02  0.15997501913E+02 -0.89182594444E+01  0.33619880299E+02  0.51100000000E-03 0. -1.
        -11    1    3    3    0    0 -0.47667182580E+01  0.11907200202E+02  0.31966660552E+01  0.13218233381E+02  0.51100000000E-03 0.  1.
        -12    1    3    3    0    0  0.33375111891E+02 -0.26828766245E+02  0.54706412565E+01  0.43169534486E+02  0.00000000000E+00 0.  1.
</event>
<event>
 7    1  0.3568207E-015  0.9000776E+02  0.7816164E-02  0.1186339E+00
        -11   -1    0    0    0    0  0.00000000000E+00  0.00000000000E+00  0.45593999997E+02  0.45594000000E+02  0.51100000000E-03 0. -1.
         11   -1    0    0    0    0 -0.00000000000E+00 -0.00000000000E+00 -0.45593999997E+02  0.45594000000E+02  0.51100000000E-03 0.  1.
    9900012    2    1    2    0    0  0.10762320309E+01  0.46483629805E+00 -0.13647822647E+00  0.90007756604E+02  0.90000018191E+02 0.  0.
         12    1    1    2    0    0 -0.10762320309E+01 -0.46483629805E+00  0.13647822647E+00  0.11802433964E+01  0.00000000000E+00 0. -1.
         11    1    3    3    0    0  0.93335506440E+01 -0.32498455144E+01 -0.23936762403E+01  0.10168891272E+02  0.51100000000E-03 0. -1.
        -11    1    3    3    0    0  0.17336874042E+02  0.33310671114E+02 -0.99554264141E+01  0.38849434062E+02  0.51100000000E-03 0.  1.
         12    1    3    3    0    0 -0.25594192655E+02 -0.29595989302E+02  0.12212624428E+02  0.40989431270E+02  0.00000000000E+00 0. -1.
</event>
<event>
 7    1  0.3568207E-015  0.9000769E+02  0.7816164E-02  0.1186339E+00
        -11   -1    0    0    0    0  0.00000000000E+00  0.00000000000E+00  0.45593999997E+02  0.45594000000E+02  0.51100000000E-03 0. -1.
         11   -1    0    0    0    0 -0.00000000000E+00 -0.00000000000E+00 -0.45593999997E+02  0.45594000000E+02  0.51100000000E-03 0.  1.
    9900012    2    1    2    0    0 -0.61050666073E+00 -0.42383934272E+00 -0.91693847734E+00  0.90007688879E+02  0.89999949572E+02 0.  0.
         12    1    1    2    0    0  0.61050666073E+00  0.42383934272E+00  0.91693847734E+00  0.11803111210E+01  0.00000000000E+00 0. -1.
         11    1    3    3    0    0  0.18107463995E+01  0.20521825627E+02  0.34674542584E+02  0.40332964598E+02  0.51100000000E-03 0. -1.
        -11    1    3    3    0    0  0.71065588736E+01 -0.88680678159E+00  0.62844526259E+00  0.71891966868E+01  0.51100000000E-03 0.  1.
        -12    1    3    3    0    0 -0.95278119338E+01 -0.20058858189E+02 -0.36219926324E+02  0.42485527594E+02  0.00000000000E+00 0.  1.
</event>
<event>
 7    1  0.3732211E-015  0.9000746E+02  0.7816164E-02  0.1186340E+00
        -11   -1    0    0    0    0  0.00000000000E+00  0.00000000000E+00  0.45593999997E+02  0.45594000000E+02  0.51100000000E-03 0.  1.
         11   -1    0    0    0    0 -0.00000000000E+00 -0.00000000000E+00 -0.45593999997E+02  0.45594000000E+02  0.51100000000E-03 0. -1.
    9900012    2    1    2    0    0  0.33719953883E+00 -0.10994250012E+01  0.26691229820E+00  0.90007457312E+02  0.89999714949E+02 0.  0.
         12    1    1    2    0    0 -0.33719953883E+00  0.10994250012E+01 -0.26691229820E+00  0.11805426876E+01  0.00000000000E+00 0. -1.
         11    1    3    3    0    0  0.32425516728E+01 -0.91067071988E+01  0.86625483132E+00  0.97054961258E+01  0.51100000000E-03 0. -1.
        -11    1    3    3    0    0  0.30252769961E+02 -0.15410852394E+02  0.14597211888E+02  0.36956772816E+02  0.51100000000E-03 0.  1.
         12    1    3    3    0    0 -0.33158122095E+02  0.23418134592E+02 -0.15196554421E+02  0.43345188371E+02  0.00000000000E+00 0. -1.
</event>
<event>
 7    1  0.3568207E-015  0.9000814E+02  0.7816164E-02  0.1186338E+00
        -11   -1    0    0    0    0  0.00000000000E+00  0.00000000000E+00  0.45593999997E+02  0.45594000000E+02  0.51100000000E-03 0.  1.
         11   -1    0    0    0    0 -0.00000000000E+00 -0.00000000000E+00 -0.45593999997E+02  0.45594000000E+02  0.51100000000E-03 0. -1.
    9900012    2    1    2    0    0  0.50455979283E-01 -0.88940832592E+00 -0.77361933226E+00  0.90008135666E+02  0.90000402256E+02 0.  0.
         12    1    1    2    0    0 -0.50455979283E-01  0.88940832592E+00  0.77361933226E+00  0.11798643343E+01  0.00000000000E+00 0. -1.
         11    1    3    3    0    0 -0.76713338137E+01 -0.40674069804E+01 -0.43080130330E+02  0.43946453685E+02  0.51100000000E-03 0. -1.
        -11    1    3    3    0    0 -0.19030682356E+01  0.56420110557E+01  0.61304586488E+01  0.85461383658E+01  0.51100000000E-03 0.  1.
        -12    1    3    3    0    0  0.96248580285E+01 -0.24640124012E+01  0.36176052349E+02  0.37515543615E+02  0.00000000000E+00 0.  1.
</event>
<event>
 7    1  0.3568207E-015  0.9000788E+02  0.7816164E-02  0.1186339E+00
        -11   -1    0    0    0    0  0.00000000000E+00  0.00000000000E+00  0.45593999997E+02  0.45594000000E+02  0.51100000000E-03 0. -1.
         11   -1    0    0    0    0 -0.00000000000E+00 -0.00000000000E+00 -0.45593999997E+02  0.45594000000E+02  0.51100000000E-03 0.  1.
    9900012    2    1    2    0    0 -0.84753605515E+00 -0.46314132019E+00  0.67812790525E+00  0.90007883606E+02  0.90000146870E+02 0.  0.
         12    1    1    2    0    0  0.84753605515E+00  0.46314132019E+00 -0.67812790525E+00  0.11801163939E+01  0.00000000000E+00 0. -1.
         11    1    3    3    0    0  0.83164185741E+01 -0.38298851544E+01 -0.11348653816E+01  0.92259827602E+01  0.51100000000E-03 0. -1.
        -11    1    3    3    0    0 -0.14551002368E+01 -0.35163019934E+02 -0.14725774217E+02  0.38149753789E+02  0.51100000000E-03 0.  1.
         12    1    3    3    0    0 -0.77088543925E+01  0.38529763769E+02  0.16538767504E+02  0.42632147057E+02  0.00000000000E+00 0. -1.
</event>
<event>
 7    1  0.3568207E-015  0.9000775E+02  0.7816164E-02  0.1186339E+00
        -11   -1    0    0    0    0  0.00000000000E+00  0.00000000000E+00  0.45593999997E+02  0.45594000000E+02  0.51100000000E-03 0.  1.
         11   -1    0    0    0    0 -0.00000000000E+00 -0.00000000000E+00 -0.45593999997E+02  0.45594000000E+02  0.51100000000E-03 0. -1.
    9900012    2    1    2    0    0 -0.43816346194E+00  0.55272129485E+00 -0.94631420876E+00  0.90007746370E+02  0.90000007822E+02 0.  0.
         12    1    1    2    0    0  0.43816346194E+00 -0.55272129485E+00  0.94631420876E+00  0.11802536299E+01  0.00000000000E+00 0. -1.
         11    1    3    3    0    0  0.58840622154E+01 -0.23000102850E+01 -0.54024387616E+01  0.83125555818E+01  0.51100000000E-03 0. -1.
        -11    1    3    3    0    0  0.34566105908E+02 -0.63353915946E+00  0.17349018782E+02  0.38680815690E+02  0.51100000000E-03 0.  1.
         12    1    3    3    0    0 -0.40888331585E+02  0.34862707393E+01 -0.12892894229E+02  0.43014375098E+02  0.00000000000E+00 0. -1.
</event>
<event>
 7    1  0.3568207E-015  0.9000754E+02  0.7816164E-02  0.1186339E+00
        -11   -1    0    0    0    0  0.00000000000E+00  0.00000000000E+00  0.45593999997E+02  0.45594000000E+02  0.51100000000E-03 0. -1.
         11   -1    0    0    0    0 -0.00000000000E+00 -0.00000000000E+00 -0.45593999997E+02  0.45594000000E+02  0.51100000000E-03 0.  1.
    9900012    2    1    2    0    0 -0.78284384601E+00 -0.29551816821E+00 -0.83265679880E+00  0.90007537032E+02  0.89999795720E+02 0.  0.
         12    1    1    2    0    0  0.78284384601E+00  0.29551816821E+00  0.83265679880E+00  0.11804629683E+01  0.00000000000E+00 0. -1.
         11    1    3    3    0    0 -0.18720781339E+01  0.45460224938E+01 -0.86487872357E+01  0.99484932509E+01  0.51100000000E-03 0. -1.
        -11    1    3    3    0    0  0.23815162498E+02  0.26959784722E+02  0.17183025076E+02  0.39865377310E+02  0.51100000000E-03 0.  1.
         12    1    3    3    0    0 -0.22725928210E+02 -0.31801325384E+02 -0.93668946392E+01  0.40193666471E+02  0.00000000000E+00 0. -1.
</event>
<event>
 7    1  0.3568207E-015  0.9000757E+02  0.7816164E-02  0.1186339E+00
        -11   -1    0    0    0    0  0.00000000000E+00  0.00000000000E+00  0.45593999997E+02  0.45594000000E+02  0.51100000000E-03 0. -1.
         11   -1    0    0    0    0 -0.00000000000E+00 -0.00000000000E+00 -0.45593999997E+02  0.45594000000E+02  0.51100000000E-03 0.  1.
    9900012    2    1    2    0    0 -0.10587699579E+00  0.88438474338E+00 -0.77464099852E+00  0.90007569998E+02  0.89999829122E+02 0.  0.
         12    1    1    2    0    0  0.10587699579E+00 -0.88438474338E+00  0.77464099852E+00  0.11804300018E+01  0.00000000000E+00 0. -1.
         11    1    3    3    0    0 -0.41026685817E+01 -0.15947195553E+02 -0.33523673665E+01  0.16804264421E+02  0.51100000000E-03 0. -1.
        -11    1    3    3    0    0  0.43867519304E+01 -0.40087035479E+01 -0.32153165679E+02  0.32697696556E+02  0.51100000000E-03 0.  1.
         12    1    3    3    0    0 -0.38996034448E+00  0.20840283844E+02  0.34730892047E+02  0.40505609021E+02  0.00000000000E+00 0. -1.
</event>
<event>
 7    1  0.3568207E-015  0.9000764E+02  0.7816164E-02  0.1186339E+00
        -11   -1    0    0    0    0  0.00000000000E+00  0.00000000000E+00  0.45593999997E+02  0.45594000000E+02  0.51100000000E-03 0.  1.
         11   -1    0    0    0    0 -0.00000000000E+00 -0.00000000000E+00 -0.45593999997E+02  0.45594000000E+02  0.51100000000E-03 0. -1.
    9900012    2    1    2    0    0  0.10844040405E+01 -0.40088355377E+00  0.23791009098E+00  0.90007643716E+02  0.89999903813E+02 0.  0.
         12    1    1    2    0    0 -0.10844040405E+01  0.40088355377E+00 -0.23791009098E+00  0.11803562844E+01  0.00000000000E+00 0. -1.
         11    1    3    3    0    0 -0.18006910744E+02  0.28069669926E+00 -0.33158288763E+02  0.37733270984E+02  0.51100000000E-03 0. -1.
        -11    1    3    3    0    0  0.66900376994E+01 -0.12252228182E+01 -0.71514502684E+01  0.98691953358E+01  0.51100000000E-03 0.  1.
        -12    1    3    3    0    0  0.12401277085E+02  0.54364256517E+00  0.40547649123E+02  0.42405177396E+02  0.00000000000E+00 0.  1.
</event>
<event>
 7    1  0.4496689E-015  0.9000774E+02  0.7816164E-02  0.1186339E+00
        -11   -1    0    0    0    0  0.00000000000E+00  0.00000000000E+00  0.45593999997E+02  0.45594000000E+02  0.51100000000E-03 0.  1.
         11   -1    0    0    0    0 -0.00000000000E+00 -0.00000000000E+00 -0.45593999997E+02  0.45594000000E+02  0.51100000000E-03 0. -1.
    9900012    2    1    2    0    0 -0.73504245019E+00  0.51314241014E+00  0.76773295084E+00  0.90007738834E+02  0.90000000186E+02 0.  0.
         12    1    1    2    0    0  0.73504245019E+00 -0.51314241014E+00 -0.76773295084E+00  0.11802611662E+01  0.00000000000E+00 0. -1.
         11    1    3    3    0    0  0.46284105198E+01 -0.40068156344E+01  0.82237676180E+01  0.10252175845E+02  0.51100000000E-03 0. -1.
        -11    1    3    3    0    0  0.77690716792E+01  0.54989666715E+01  0.34496056403E+02  0.35785122842E+02  0.51100000000E-03 0.  1.
         12    1    3    3    0    0 -0.13132524649E+02 -0.97900862704E+00 -0.41952091070E+02  0.43970440147E+02  0.00000000000E+00 0. -1.
</event>
<event>
 7    1  0.3568207E-015  0.9000765E+02  0.7816164E-02  0.1186339E+00
        -11   -1    0    0    0    0  0.00000000000E+00  0.00000000000E+00  0.45593999997E+02  0.45594000000E+02  0.51100000000E-03 0.  1.
         11   -1    0    0    0    0 -0.00000000000E+00 -0.00000000000E+00 -0.45593999997E+02  0.45594000000E+02  0.51100000000E-03 0. -1.
    9900012    2    1    2    0    0 -0.23472836224E+00  0.74595484948E-01  0.11543699438E+01  0.90007647571E+02  0.89999907718E+02 0.  0.
         12    1    1    2    0    0  0.23472836224E+00 -0.74595484948E-01 -0.11543699438E+01  0.11803524294E+01  0.00000000000E+00 0. -1.
         11    1    3    3    0    0 -0.22256992635E+02  0.43732986502E+01  0.14103270543E+02  0.26709580725E+02  0.51100000000E-03 0.  1.
        -11    1    3    3    0    0  0.92194720679E+01 -0.38583099063E+01 -0.35763100854E+02  0.37133335475E+02  0.51100000000E-03 0. -1.
         12    1    3    3    0    0  0.12802792205E+02 -0.44039325895E+00  0.22814200254E+02  0.26164731371E+02  0.00000000000E+00 0. -1.
</event>
<event>
 7    1  0.3568207E-015  0.9000773E+02  0.7816164E-02  0.1186339E+00
        -11   -1    0    0    0    0  0.00000000000E+00  0.00000000000E+00  0.45593999997E+02  0.45594000000E+02  0.51100000000E-03 0. -1.
         11   -1    0    0    0    0 -0.00000000000E+00 -0.00000000000E+00 -0.45593999997E+02  0.45594000000E+02  0.51100000000E-03 0.  1.
    9900012    2    1    2    0    0  0.36809221216E+00  0.10623266070E+01 -0.35916886031E+00  0.90007732248E+02  0.89999993513E+02 0.  0.
         12    1    1    2    0    0 -0.36809221216E+00 -0.10623266070E+01  0.35916886031E+00  0.11802677522E+01  0.00000000000E+00 0. -1.
         11    1    3    3    0    0  0.29287508046E+02 -0.72377492035E+01  0.20709313312E+02  0.36592605800E+02  0.51100000000E-03 0. -1.
        -11    1    3    3    0    0  0.82695806419E+01 -0.40051761614E+01 -0.57536883406E+00  0.92064352294E+01  0.51100000000E-03 0.  1.
        -12    1    3    3    0    0 -0.37188996476E+02  0.12305251972E+02 -0.20493113339E+02  0.44208691219E+02  0.00000000000E+00 0.  1.
</event>
<event>
 7    1  0.3568207E-015  0.9000761E+02  0.7816164E-02  0.1186339E+00
        -11   -1    0    0    0    0  0.00000000000E+00  0.00000000000E+00  0.45593999997E+02  0.45594000000E+02  0.51100000000E-03 0. -1.
         11   -1    0    0    0    0 -0.00000000000E+00 -0.00000000000E+00 -0.45593999997E+02  0.45594000000E+02  0.51100000000E-03 0.  1.
    9900012    2    1    2    0    0  0.78169717812E+00  0.75638137329E+00  0.45843182513E+00  0.90007608964E+02  0.89999868602E+02 0.  0.
         12    1    1    2    0    0 -0.78169717812E+00 -0.75638137329E+00 -0.45843182513E+00  0.11803910362E+01  0.00000000000E+00 0. -1.
         11    1    3    3    0    0 -0.92453179383E+01 -0.95935210122E+01  0.36388787488E+02  0.38751198746E+02  0.51100000000E-03 0. -1.
        -11    1    3    3    0    0  0.27619201163E+01 -0.82104165211E+01  0.15555003083E+01  0.88010637794E+01  0.51100000000E-03 0.  1.
        -12    1    3    3    0    0  0.72650950002E+01  0.18560318907E+02 -0.37485855971E+02  0.42455346438E+02  0.00000000000E+00 0.  1.
</event>
<event>
 7    1  0.3684720E-015  0.9000811E+02  0.7816164E-02  0.1186338E+00
        -11   -1    0    0    0    0  0.00000000000E+00  0.00000000000E+00  0.45593999997E+02  0.45594000000E+02  0.51100000000E-03 0. -1.
         11   -1    0    0    0    0 -0.00000000000E+00 -0.00000000000E+00 -0.45593999997E+02  0.45594000000E+02  0.51100000000E-03 0.  1.
    9900012    2    1    2    0    0  0.20263042690E+00 -0.11430233251E+01 -0.21113809471E+00  0.90008109875E+02  0.90000376125E+02 0.  0.
         12    1    1    2    0    0 -0.20263042690E+00  0.11430233251E+01  0.21113809471E+00  0.11798901249E+01  0.00000000000E+00 0. -1.
         11    1    3    3    0    0  0.13109688681E+01 -0.95491596489E+00 -0.10024818125E+02  0.10155170239E+02  0.51100000000E-03 0. -1.
        -11    1    3    3    0    0  0.30831699742E+02 -0.53647333036E+01 -0.18928349784E+02  0.36573986633E+02  0.51100000000E-03 0.  1.
         12    1    3    3    0    0 -0.31940038183E+02  0.51766259434E+01  0.28742029814E+02  0.43278953004E+02  0.00000000000E+00 0. -1.
</event>
<event>
 7    1  0.3568207E-015  0.9000774E+02  0.7816164E-02  0.1186339E+00
        -11   -1    0    0    0    0  0.00000000000E+00  0.00000000000E+00  0.45593999997E+02  0.45594000000E+02  0.51100000000E-03 0.  1.
         11   -1    0    0    0    0 -0.00000000000E+00 -0.00000000000E+00 -0.45593999997E+02  0.45594000000E+02  0.51100000000E-03 0. -1.
    9900012    2    1    2    0    0  0.95798533755E+00 -0.32026810336E+00  0.61049353934E+00  0.90007741585E+02  0.90000002974E+02 0.  0.
         12    1    1    2    0    0 -0.95798533755E+00  0.32026810336E+00 -0.61049353934E+00  0.11802584152E+01  0.00000000000E+00 0. -1.
         11    1    3    3    0    0  0.21853608756E+02 -0.31841181740E+01 -0.20356722198E+02  0.30035228701E+02  0.51100000000E-03 0. -1.
        -11    1    3    3    0    0  0.59009409233E+01  0.10840098133E+02 -0.11677980301E+02  0.16991293520E+02  0.51100000000E-03 0.  1.
        -12    1    3    3    0    0 -0.26796564342E+02 -0.79762480619E+01  0.32645196038E+02  0.42981219364E+02  0.00000000000E+00 0.  1.
</event>
<event>
 7    1  0.3568207E-015  0.9000799E+02  0.7816164E-02  0.1186339E+00
        -11   -1    0    0    0    0  0.00000000000E+00  0.00000000000E+00  0.45593999997E+02  0.45594000000E+02  0.51100000000E-03 0.  1.
         11   -1    0    0    0    0 -0.00000000000E+00 -0.00000000000E+00 -0.45593999997E+02  0.45594000000E+02  0.51100000000E-03 0. -1.
    9900012    2    1    2    0    0 -0.76520743131E+00  0.22015206329E+00 -0.87087283971E+00  0.90007987777E+02  0.90000252415E+02 0.  0.
         12    1    1    2    0    0  0.76520743131E+00 -0.22015206329E+00  0.87087283971E+00  0.11800122232E+01  0.00000000000E+00 0. -1.
         11    1    3    3    0    0  0.63865127261E+00 -0.71857633137E+01 -0.50125438006E+01  0.87845697369E+01  0.51100000000E-03 0. -1.
        -11    1    3    3    0    0 -0.42688413435E+01 -0.28782094249E+02  0.25854535077E+02  0.38924143409E+02  0.51100000000E-03 0.  1.
         12    1    3    3    0    0  0.28649826396E+01  0.36188009626E+02 -0.21712864117E+02  0.42299274631E+02  0.00000000000E+00 0. -1.
</event>
<event>
 7    1  0.3568207E-015  0.9000772E+02  0.7816164E-02  0.1186339E+00
        -11   -1    0    0    0    0  0.00000000000E+00  0.00000000000E+00  0.45593999997E+02  0.45594000000E+02  0.51100000000E-03 0.  1.
         11   -1    0    0    0    0 -0.00000000000E+00 -0.00000000000E+00 -0.45593999997E+02  0.45594000000E+02  0.51100000000E-03 0. -1.
    9900012    2    1    2    0    0 -0.79089341498E+00  0.30218684476E+00  0.82233906817E+00  0.90007715786E+02  0.89999976834E+02 0.  0.
         12    1    1    2    0    0  0.79089341498E+00 -0.30218684476E+00 -0.82233906817E+00  0.11802842141E+01  0.00000000000E+00 0. -1.
         11    1    3    3    0    0 -0.85916161969E+01  0.93687407462E+01  0.11696196824E+02  0.17273974425E+02  0.51100000000E-03 0. -1.
        -11    1    3    3    0    0 -0.24508668011E+01  0.22617765491E+02  0.17722971594E+02  0.28838754936E+02  0.51100000000E-03 0.  1.
         12    1    3    3    0    0  0.10251589583E+02 -0.31684319393E+02 -0.28596829349E+02  0.43894986424E+02  0.00000000000E+00 0. -1.
</event>
<event>
 7    1  0.3568207E-015  0.9000778E+02  0.7816164E-02  0.1186339E+00
        -11   -1    0    0    0    0  0.00000000000E+00  0.00000000000E+00  0.45593999997E+02  0.45594000000E+02  0.51100000000E-03 0. -1.
         11   -1    0    0    0    0 -0.00000000000E+00 -0.00000000000E+00 -0.45593999997E+02  0.45594000000E+02  0.51100000000E-03 0.  1.
    9900012    2    1    2    0    0 -0.81208630481E+00  0.85634927279E+00  0.96150581675E-02  0.90007783625E+02  0.90000045568E+02 0.  0.
         12    1    1    2    0    0  0.81208630481E+00 -0.85634927279E+00 -0.96150581675E-02  0.11802163754E+01  0.00000000000E+00 0. -1.
         11    1    3    3    0    0 -0.15084498655E+02 -0.30949594586E+02  0.11297064256E+02  0.36235937489E+02  0.51100000000E-03 0. -1.
        -11    1    3    3    0    0  0.49570420774E+00 -0.35068141877E+01  0.97828955401E+01  0.10404254602E+02  0.51100000000E-03 0.  1.
        -12    1    3    3    0    0  0.13776708142E+02  0.35312758046E+02 -0.21070344738E+02  0.43367591533E+02  0.00000000000E+00 0.  1.
</event>
<event>
 7    1  0.3568207E-015  0.9000704E+02  0.7816164E-02  0.1186340E+00
        -11   -1    0    0    0    0  0.00000000000E+00  0.00000000000E+00  0.45593999997E+02  0.45594000000E+02  0.51100000000E-03 0. -1.
         11   -1    0    0    0    0 -0.00000000000E+00 -0.00000000000E+00 -0.45593999997E+02  0.45594000000E+02  0.51100000000E-03 0.  1.
    9900012    2    1    2    0    0 -0.91688946639E+00  0.58697640664E+00  0.45763642199E+00  0.90007043316E+02  0.89999295485E+02 0.  0.
         12    1    1    2    0    0  0.91688946639E+00 -0.58697640664E+00 -0.45763642199E+00  0.11809566843E+01  0.00000000000E+00 0. -1.
         11    1    3    3    0    0 -0.60595836880E+01  0.35718404438E+01  0.64712625001E+01  0.95579201312E+01  0.51100000000E-03 0. -1.
        -11    1    3    3    0    0 -0.64094745632E+01  0.23773226544E+02 -0.32699031720E+02  0.40932558437E+02  0.51100000000E-03 0.  1.
         12    1    3    3    0    0  0.11552168785E+02 -0.26758090581E+02  0.26685405642E+02  0.39516564748E+02  0.00000000000E+00 0. -1.
</event>
<event>
 7    1  0.3568207E-015  0.9000761E+02  0.7816164E-02  0.1186339E+00
        -11   -1    0    0    0    0  0.00000000000E+00  0.00000000000E+00  0.45593999997E+02  0.45594000000E+02  0.51100000000E-03 0. -1.
         11   -1    0    0    0    0 -0.00000000000E+00 -0.00000000000E+00 -0.45593999997E+02  0.45594000000E+02  0.51100000000E-03 0.  1.
    9900012    2    1    2    0    0 -0.65154762681E+00  0.66044404610E+00 -0.72981578947E+00  0.90007605263E+02  0.89999864853E+02 0.  0.
         12    1    1    2    0    0  0.65154762681E+00 -0.66044404610E+00  0.72981578947E+00  0.11803947368E+01  0.00000000000E+00 0. -1.
         11    1    3    3    0    0 -0.23968129140E+02  0.17307256388E+02 -0.21722143031E+02  0.36686016904E+02  0.51100000000E-03 0. -1.
        -11    1    3    3    0    0 -0.47628513592E+01  0.82309153545E+01 -0.14302698685E+01  0.96165686604E+01  0.51100000000E-03 0.  1.
        -12    1    3    3    0    0  0.28079432872E+02 -0.24877727696E+02  0.22422597110E+02  0.43705019699E+02  0.00000000000E+00 0.  1.
</event>
<event>
 7    1  0.3568207E-015  0.9000778E+02  0.7816164E-02  0.1186339E+00
        -11   -1    0    0    0    0  0.00000000000E+00  0.00000000000E+00  0.45593999997E+02  0.45594000000E+02  0.51100000000E-03 0. -1.
         11   -1    0    0    0    0 -0.00000000000E+00 -0.00000000000E+00 -0.45593999997E+02  0.45594000000E+02  0.51100000000E-03 0.  1.
    9900012    2    1    2    0    0 -0.10100770656E+00 -0.17410715663E+00 -0.11629272677E+01  0.90007781508E+02  0.90000043424E+02 0.  0.
         12    1    1    2    0    0  0.10100770656E+00  0.17410715663E+00  0.11629272677E+01  0.11802184919E+01  0.00000000000E+00 0. -1.
         11    1    3    3    0    0 -0.34030832729E+02  0.13872086581E+02  0.72477411861E+01  0.37457470749E+02  0.51100000000E-03 0. -1.
        -11    1    3    3    0    0 -0.12850087072E+01  0.51796631969E+01 -0.11123467656E+02  0.12337410229E+02  0.51100000000E-03 0.  1.
        -12    1    3    3    0    0  0.35214833730E+02 -0.19225856935E+02  0.27127992018E+01  0.40212900530E+02  0.00000000000E+00 0.  1.
</event>
<event>
 7    1  0.3568207E-015  0.9000790E+02  0.7816164E-02  0.1186339E+00
        -11   -1    0    0    0    0  0.00000000000E+00  0.00000000000E+00  0.45593999997E+02  0.45594000000E+02  0.51100000000E-03 0.  1.
         11   -1    0    0    0    0 -0.00000000000E+00 -0.00000000000E+00 -0.45593999997E+02  0.45594000000E+02  0.51100000000E-03 0. -1.
    9900012    2    1    2    0    0  0.99032008722E+00  0.63834237149E+00 -0.66491244131E-01  0.90007900028E+02  0.90000163508E+02 0.  0.
         12    1    1    2    0    0 -0.99032008722E+00 -0.63834237149E+00  0.66491244131E-01  0.11800999720E+01  0.00000000000E+00 0. -1.
         11    1    3    3    0    0  0.66597916838E+01 -0.35286998428E+01  0.97528780900E+01  0.12325712115E+02  0.51100000000E-03 0. -1.
        -11    1    3    3    0    0  0.22070391244E+01  0.12266316923E+02  0.32011704030E+02  0.34352332493E+02  0.51100000000E-03 0.  1.
         12    1    3    3    0    0 -0.78765107210E+01 -0.80992747084E+01 -0.41831073364E+02  0.43329855420E+02  0.00000000000E+00 0. -1.
</event>
<event>
 7    1  0.3826393E-015  0.9000773E+02  0.7816164E-02  0.1186339E+00
        -11   -1    0    0    0    0  0.00000000000E+00  0.00000000000E+00  0.45593999997E+02  0.45594000000E+02  0.51100000000E-03 0.  1.
         11   -1    0    0    0    0 -0.00000000000E+00 -0.00000000000E+00 -0.45593999997E+02  0.45594000000E+02  0.51100000000E-03 0. -1.
    9900012    2    1    2    0    0  0.18906490469E+00 -0.10110001169E+01  0.57894410847E+00  0.90007727550E+02  0.89999988754E+02 0.  0.
         12    1    1    2    0    0 -0.18906490469E+00  0.10110001169E+01 -0.57894410847E+00  0.11802724496E+01  0.00000000000E+00 0. -1.
         11    1    3    3    0    0  0.21691707431E+01  0.26591504623E+00  0.99664573521E+01  0.10203248744E+02  0.51100000000E-03 0. -1.
        -11    1    3    3    0    0  0.23268376093E+02  0.16285680102E+02  0.21950700899E+02  0.35895319648E+02  0.51100000000E-03 0.  1.
         12    1    3    3    0    0 -0.25248481932E+02 -0.17562595266E+02 -0.31338214142E+02  0.43909159158E+02  0.00000000000E+00 0. -1.
</event>
<event>
 7    1  0.3568207E-015  0.9000778E+02  0.7816164E-02  0.1186339E+00
        -11   -1    0    0    0    0  0.00000000000E+00  0.00000000000E+00  0.45593999997E+02  0.45594000000E+02  0.51100000000E-03 0.  1.
         11   -1    0    0    0    0 -0.00000000000E+00 -0.00000000000E+00 -0.45593999997E+02  0.45594000000E+02  0.51100000000E-03 0. -1.
    9900012    2    1    2    0    0 -0.76155379520E+00  0.87782032832E+00  0.20588509924E+00  0.90007779094E+02  0.90000040978E+02 0.  0.
         12    1    1    2    0    0  0.76155379520E+00 -0.87782032832E+00 -0.20588509924E+00  0.11802209055E+01  0.00000000000E+00 0. -1.
         11    1    3    3    0    0  0.14753543422E+02  0.15042857657E+02 -0.29734182007E+02  0.36442779668E+02  0.51100000000E-03 0. -1.
        -11    1    3    3    0    0 -0.72930403540E+01 -0.74920951828E+01 -0.86366051035E+01  0.13561374407E+02  0.51100000000E-03 0.  1.
        -12    1    3    3    0    0 -0.82220568635E+01 -0.66729421460E+01  0.38576672210E+02  0.40003625020E+02  0.00000000000E+00 0.  1.
</event>
<event>
 7    1  0.3568207E-015  0.9000775E+02  0.7816164E-02  0.1186339E+00
        -11   -1    0    0    0    0  0.00000000000E+00  0.00000000000E+00  0.45593999997E+02  0.45594000000E+02  0.51100000000E-03 0. -1.
         11   -1    0    0    0    0 -0.00000000000E+00 -0.00000000000E+00 -0.45593999997E+02  0.45594000000E+02  0.51100000000E-03 0.  1.
    9900012    2    1    2    0    0  0.10248377182E+01 -0.36349511799E+00  0.45886883761E+00  0.90007753560E+02  0.90000015107E+02 0.  0.
         12    1    1    2    0    0 -0.10248377182E+01  0.36349511799E+00 -0.45886883761E+00  0.11802464402E+01  0.00000000000E+00 0. -1.
         11    1    3    3    0    0  0.31853974549E+02 -0.44884581750E+01 -0.22144212527E+02  0.39053656680E+02  0.51100000000E-03 0. -1.
        -11    1    3    3    0    0  0.41510151103E+01  0.90763588197E+01  0.24326557504E+01  0.10272732360E+02  0.51100000000E-03 0.  1.
        -12    1    3    3    0    0 -0.34980151941E+02 -0.49513957626E+01  0.20170425614E+02  0.40681364521E+02  0.00000000000E+00 0.  1.
</event>
<event>
 7    1  0.3568207E-015  0.9000767E+02  0.7816164E-02  0.1186339E+00
        -11   -1    0    0    0    0  0.00000000000E+00  0.00000000000E+00  0.45593999997E+02  0.45594000000E+02  0.51100000000E-03 0.  1.
         11   -1    0    0    0    0 -0.00000000000E+00 -0.00000000000E+00 -0.45593999997E+02  0.45594000000E+02  0.51100000000E-03 0. -1.
    9900012    2    1    2    0    0 -0.10991625754E+01 -0.31570933862E+00  0.29213066853E+00  0.90007673316E+02  0.89999933804E+02 0.  0.
         12    1    1    2    0    0  0.10991625754E+01  0.31570933862E+00 -0.29213066853E+00  0.11803266841E+01  0.00000000000E+00 0. -1.
         11    1    3    3    0    0  0.41939654144E+01 -0.43957661948E+01  0.60712372825E+01  0.85890644856E+01  0.51100000000E-03 0. -1.
        -11    1    3    3    0    0 -0.31922104397E+02 -0.73827532412E+00  0.24913316285E+02  0.40499865779E+02  0.51100000000E-03 0.  1.
         12    1    3    3    0    0  0.26628976407E+02  0.48183321803E+01 -0.30692422899E+02  0.40918743051E+02  0.00000000000E+00 0. -1.
</event>
<event>
 7    1  0.3568207E-015  0.9000764E+02  0.7816164E-02  0.1186339E+00
        -11   -1    0    0    0    0  0.00000000000E+00  0.00000000000E+00  0.45593999997E+02  0.45594000000E+02  0.51100000000E-03 0. -1.
         11   -1    0    0    0    0 -0.00000000000E+00 -0.00000000000E+00 -0.45593999997E+02  0.45594000000E+02  0.51100000000E-03 0.  1.
    9900012    2    1    2    0    0 -0.10280288389E+01 -0.51413732861E+00  0.26846824228E+00  0.90007637478E+02  0.89999897493E+02 0.  0.
         12    1    1    2    0    0  0.10280288389E+01  0.51413732861E+00 -0.26846824228E+00  0.11803625221E+01  0.00000000000E+00 0. -1.
         11    1    3    3    0    0  0.71049335032E+01  0.63987587499E+00 -0.42374322973E+01  0.82973100434E+01  0.51100000000E-03 0. -1.
        -11    1    3    3    0    0 -0.78079877303E+01  0.21473538927E+02 -0.31662347757E+02  0.39045893666E+02  0.51100000000E-03 0.  1.
         12    1    3    3    0    0 -0.32497461193E+00 -0.22627552131E+02  0.36168248297E+02  0.42664433768E+02  0.00000000000E+00 0. -1.
</event>
<event>
 7    1  0.3568207E-015  0.9000780E+02  0.7816164E-02  0.1186339E+00
        -11   -1    0    0    0    0  0.00000000000E+00  0.00000000000E+00  0.45593999997E+02  0.45594000000E+02  0.51100000000E-03 0.  1.
         11   -1    0    0    0    0 -0.00000000000E+00 -0.00000000000E+00 -0.45593999997E+02  0.45594000000E+02  0.51100000000E-03 0. -1.
    9900012    2    1    2    0    0  0.70833244544E+00 -0.67853829918E+00  0.65630246118E+00  0.90007795782E+02  0.90000057886E+02 0.  0.
         12    1    1    2    0    0 -0.70833244544E+00  0.67853829918E+00 -0.65630246118E+00  0.11802042185E+01  0.00000000000E+00 0. -1.
         11    1    3    3    0    0  0.82117109307E+01  0.19729428541E+01  0.70627496428E+01  0.11009411097E+02  0.51100000000E-03 0. -1.
        -11    1    3    3    0    0 -0.50780875063E+01  0.10867994437E+02  0.34141309243E+02  0.36187418710E+02  0.51100000000E-03 0.  1.
         12    1    3    3    0    0 -0.24252909789E+01 -0.13519475591E+02 -0.40547756425E+02  0.42810965975E+02  0.00000000000E+00 0. -1.
</event>
<event>
 7    1  0.3568207E-015  0.9000770E+02  0.7816164E-02  0.1186339E+00
        -11   -1    0    0    0    0  0.00000000000E+00  0.00000000000E+00  0.45593999997E+02  0.45594000000E+02  0.51100000000E-03 0. -1.
         11   -1    0    0    0    0 -0.00000000000E+00 -0.00000000000E+00 -0.45593999997E+02  0.45594000000E+02  0.51100000000E-03 0.  1.
    9900012    2    1    2    0    0 -0.34560231314E+00  0.17407386414E+00 -0.11150623361E+01  0.90007700596E+02  0.89999961444E+02 0.  0.
         12    1    1    2    0    0  0.34560231314E+00 -0.17407386414E+00  0.11150623361E+01  0.11802994037E+01  0.00000000000E+00 0. -1.
         11    1    3    3    0    0 -0.87850833986E-01 -0.91180372390E+01  0.38390774344E+00  0.91265385704E+01  0.51100000000E-03 0. -1.
        -11    1    3    3    0    0 -0.39663443333E+02  0.36984043212E+01  0.62796791990E+01  0.40327426185E+02  0.51100000000E-03 0.  1.
         12    1    3    3    0    0  0.39405691854E+02  0.55937067819E+01 -0.77786492785E+01  0.40553735841E+02  0.00000000000E+00 0. -1.
</event>
<event>
 7    1  0.3568207E-015  0.9000774E+02  0.7816164E-02  0.1186339E+00
        -11   -1    0    0    0    0  0.00000000000E+00  0.00000000000E+00  0.45593999997E+02  0.45594000000E+02  0.51100000000E-03 0.  1.
         11   -1    0    0    0    0 -0.00000000000E+00 -0.00000000000E+00 -0.45593999997E+02  0.45594000000E+02  0.51100000000E-03 0. -1.
    9900012    2    1    2    0    0 -0.11204931822E+01 -0.30216016842E+00  0.21498344096E+00  0.90007735784E+02  0.89999997097E+02 0.  0.
         12    1    1    2    0    0  0.11204931822E+01  0.30216016842E+00 -0.21498344096E+00  0.11802642156E+01  0.00000000000E+00 0. -1.
         11    1    3    3    0    0 -0.61276213445E+01  0.38424720785E+01  0.65273040289E+01  0.97425886274E+01  0.51100000000E-03 0. -1.
        -11    1    3    3    0    0  0.39071821606E+02 -0.31052493091E+01  0.12748865341E+02  0.41216299987E+02  0.51100000000E-03 0.  1.
         12    1    3    3    0    0 -0.34064693444E+02 -0.10393829378E+01 -0.19061185929E+02  0.39048847170E+02  0.00000000000E+00 0. -1.
</event>
<event>
 7    1  0.3568207E-015  0.9000744E+02  0.7816164E-02  0.1186340E+00
        -11   -1    0    0    0    0  0.00000000000E+00  0.00000000000E+00  0.45593999997E+02  0.45594000000E+02  0.51100000000E-03 0.  1.
         11   -1    0    0    0    0 -0.00000000000E+00 -0.00000000000E+00 -0.45593999997E+02  0.45594000000E+02  0.51100000000E-03 0. -1.
    9900012    2    1    2    0    0  0.34929215236E+00 -0.20169590647E+00  0.11095220031E+01  0.90007438557E+02  0.89999695945E+02 0.  0.
         12    1    1    2    0    0 -0.34929215236E+00  0.20169590647E+00 -0.11095220031E+01  0.11805614435E+01  0.00000000000E+00 0. -1.
         11    1    3    3    0    0 -0.20939655116E+00  0.52969981241E+01  0.90007368010E+01  0.10445826883E+02  0.51100000000E-03 0. -1.
        -11    1    3    3    0    0  0.13675783717E+02 -0.39711512004E+02 -0.87861000490E+01  0.42909518761E+02  0.51100000000E-03 0.  1.
         12    1    3    3    0    0 -0.13117095014E+02  0.34212817974E+02  0.89488525113E+00  0.36652092913E+02  0.00000000000E+00 0. -1.
</event>
<event>
 7    1  0.3568207E-015  0.9000764E+02  0.7816164E-02  0.1186339E+00
        -11   -1    0    0    0    0  0.00000000000E+00  0.00000000000E+00  0.45593999997E+02  0.45594000000E+02  0.51100000000E-03 0.  1.
         11   -1    0    0    0    0 -0.00000000000E+00 -0.00000000000E+00 -0.45593999997E+02  0.45594000000E+02  0.51100000000E-03 0. -1.
    9900012    2    1    2    0    0  0.84101456045E+00  0.45194221771E+00  0.69403461628E+00  0.90007643568E+02  0.89999903663E+02 0.  0.
         12    1    1    2    0    0 -0.84101456045E+00 -0.45194221771E+00 -0.69403461628E+00  0.11803564324E+01  0.00000000000E+00 0. -1.
         11    1    3    3    0    0 -0.40082301760E+01  0.17170224323E+02  0.31734555708E+02  0.36303781328E+02  0.51100000000E-03 0. -1.
        -11    1    3    3    0    0 -0.88074531219E+00 -0.79735205766E+00  0.96043595237E+01  0.96775619208E+01  0.51100000000E-03 0.  1.
        -12    1    3    3    0    0  0.57299900486E+01 -0.15920930048E+02 -0.40644880615E+02  0.44026300319E+02  0.00000000000E+00 0.  1.
</event>
<event>
 7    1  0.3568207E-015  0.9000776E+02  0.7816164E-02  0.1186339E+00
        -11   -1    0    0    0    0  0.00000000000E+00  0.00000000000E+00  0.45593999997E+02  0.45594000000E+02  0.51100000000E-03 0. -1.
         11   -1    0    0    0    0 -0.00000000000E+00 -0.00000000000E+00 -0.45593999997E+02  0.45594000000E+02  0.51100000000E-03 0.  1.
    9900012    2    1    2    0    0  0.97004093221E+00  0.34020744096E+00 -0.57987540027E+00  0.90007755960E+02  0.90000017539E+02 0.  0.
         12    1    1    2    0    0 -0.97004093221E+00 -0.34020744096E+00  0.57987540027E+00  0.11802440395E+01  0.00000000000E+00 0. -1.
         11    1    3    3    0    0  0.12423895448E+02  0.13233557566E+02  0.31688562818E+02  0.36519107844E+02  0.51100000000E-03 0. -1.
        -11    1    3    3    0    0  0.11342934943E+02  0.44545254347E+01 -0.30339705051E+01  0.12558262111E+02  0.51100000000E-03 0.  1.
        -12    1    3    3    0    0 -0.22796789458E+02 -0.17347875560E+02 -0.29234467714E+02  0.40930386005E+02  0.00000000000E+00 0.  1.
</event>
<event>
 7    1  0.3568207E-015  0.9000781E+02  0.7816164E-02  0.1186339E+00
        -11   -1    0    0    0    0  0.00000000000E+00  0.00000000000E+00  0.45593999997E+02  0.45594000000E+02  0.51100000000E-03 0. -1.
         11   -1    0    0    0    0 -0.00000000000E+00 -0.00000000000E+00 -0.45593999997E+02  0.45594000000E+02  0.51100000000E-03 0.  1.
    9900012    2    1    2    0    0  0.95725755635E+00  0.59334397928E+00 -0.35277942867E+00  0.90007808307E+02  0.90000070577E+02 0.  0.
         12    1    1    2    0    0 -0.95725755635E+00 -0.59334397928E+00  0.35277942867E+00  0.11801916930E+01  0.00000000000E+00 0. -1.
         11    1    3    3    0    0  0.19317311431E+02  0.10921333480E+02  0.29253616254E+02  0.36717953512E+02  0.51100000000E-03 0. -1.
        -11    1    3    3    0    0 -0.78326671019E-01 -0.39054526282E+01  0.91557688204E+01  0.99542351918E+01  0.51100000000E-03 0.  1.
        -12    1    3    3    0    0 -0.18281727203E+02 -0.64225368721E+01 -0.38762164503E+02  0.43335619603E+02  0.00000000000E+00 0.  1.
</event>
<event>
 7    1  0.3568207E-015  0.9000764E+02  0.7816164E-02  0.1186339E+00
        -11   -1    0    0    0    0  0.00000000000E+00  0.00000000000E+00  0.45593999997E+02  0.45594000000E+02  0.51100000000E-03 0.  1.
         11   -1    0    0    0    0 -0.00000000000E+00 -0.00000000000E+00 -0.45593999997E+02  0.45594000000E+02  0.51100000000E-03 0. -1.
    9900012    2    1    2    0    0  0.11465715998E+01 -0.23380862160E+00  0.15480371716E+00  0.90007636880E+02  0.89999896886E+02 0.  0.
         12    1    1    2    0    0 -0.11465715998E+01  0.23380862160E+00 -0.15480371716E+00  0.11803631204E+01  0.00000000000E+00 0. -1.
         11    1    3    3    0    0  0.18807861218E+02 -0.10851972849E+01 -0.29149228927E+02  0.34707216022E+02  0.51100000000E-03 0. -1.
        -11    1    3    3    0    0  0.10566381092E+02  0.10184074461E+00 -0.42992629355E+01  0.11407999079E+02  0.51100000000E-03 0.  1.
        -12    1    3    3    0    0 -0.28227670710E+02  0.74954791873E+00  0.33603295579E+02  0.43892421779E+02  0.00000000000E+00 0.  1.
</event>
<event>
 7    1  0.3568207E-015  0.9000773E+02  0.7816164E-02  0.1186339E+00
        -11   -1    0    0    0    0  0.00000000000E+00  0.00000000000E+00  0.45593999997E+02  0.45594000000E+02  0.51100000000E-03 0.  1.
         11   -1    0    0    0    0 -0.00000000000E+00 -0.00000000000E+00 -0.45593999997E+02  0.45594000000E+02  0.51100000000E-03 0. -1.
    9900012    2    1    2    0    0 -0.11070385353E+01 -0.39015753842E+00  0.12358549056E+00  0.90007732828E+02  0.89999994101E+02 0.  0.
         12    1    1    2    0    0  0.11070385353E+01  0.39015753842E+00 -0.12358549056E+00  0.11802671718E+01  0.00000000000E+00 0. -1.
         11    1    3    3    0    0 -0.85038375604E+01 -0.65850762705E+01 -0.39912522235E+02  0.41336278427E+02  0.51100000000E-03 0. -1.
        -11    1    3    3    0    0 -0.71966717787E+01  0.38434549306E+01  0.28283700567E+01  0.86350395443E+01  0.51100000000E-03 0.  1.
        -12    1    3    3    0    0  0.14593470804E+02  0.23514638015E+01  0.37207737669E+02  0.40036414857E+02  0.00000000000E+00 0.  1.
</event>
<event>
 7    1  0.3568207E-015  0.9000785E+02  0.7816164E-02  0.1186339E+00
        -11   -1    0    0    0    0  0.00000000000E+00  0.00000000000E+00  0.45593999997E+02  0.45594000000E+02  0.51100000000E-03 0. -1.
         11   -1    0    0    0    0 -0.00000000000E+00 -0.00000000000E+00 -0.45593999997E+02  0.45594000000E+02  0.51100000000E-03 0.  1.
    9900012    2    1    2    0    0  0.64785777360E+00  0.79787483171E+00 -0.58003518318E+00  0.90007845453E+02  0.90000108213E+02 0.  0.
         12    1    1    2    0    0 -0.64785777360E+00 -0.79787483171E+00  0.58003518318E+00  0.11801545473E+01  0.00000000000E+00 0. -1.
         11    1    3    3    0    0 -0.30433472827E+02  0.17426528685E+02  0.31938466170E+01  0.35214781368E+02  0.51100000000E-03 0. -1.
        -11    1    3    3    0    0 -0.18446182397E+01  0.10517256599E+02  0.40281014156E+01  0.11412313705E+02  0.51100000000E-03 0.  1.
        -12    1    3    3    0    0  0.32925948841E+02 -0.27145910453E+02 -0.78019832158E+01  0.43380750379E+02  0.00000000000E+00 0.  1.
</event>
<event>
 7    1  0.3568207E-015  0.9000763E+02  0.7816164E-02  0.1186339E+00
        -11   -1    0    0    0    0  0.00000000000E+00  0.00000000000E+00  0.45593999997E+02  0.45594000000E+02  0.51100000000E-03 0.  1.
         11   -1    0    0    0    0 -0.00000000000E+00 -0.00000000000E+00 -0.45593999997E+02  0.45594000000E+02  0.51100000000E-03 0. -1.
    9900012    2    1    2    0    0  0.10118431467E+01  0.67754672781E-01  0.60402359086E+00  0.90007634909E+02  0.89999894890E+02 0.  0.
         12    1    1    2    0    0 -0.10118431467E+01 -0.67754672781E-01 -0.60402359086E+00  0.11803650908E+01  0.00000000000E+00 0. -1.
         11    1    3    3    0    0  0.14260433935E+02  0.30613301021E+02  0.18905844013E+01  0.33824672726E+02  0.51100000000E-03 0. -1.
        -11    1    3    3    0    0  0.26041937567E+01  0.11115451128E+02 -0.20612097678E+01  0.11601019992E+02  0.51100000000E-03 0.  1.
        -12    1    3    3    0    0 -0.15852784545E+02 -0.41660997475E+02  0.77464895736E+00  0.44581942191E+02  0.00000000000E+00 0.  1.
</event>
<event>
 7    1  0.3568207E-015  0.9000767E+02  0.7816164E-02  0.1186339E+00
        -11   -1    0    0    0    0  0.00000000000E+00  0.00000000000E+00  0.45593999997E+02  0.45594000000E+02  0.51100000000E-03 0.  1.
         11   -1    0    0    0    0 -0.00000000000E+00 -0.00000000000E+00 -0.45593999997E+02  0.45594000000E+02  0.51100000000E-03 0. -1.
    9900012    2    1    2    0    0 -0.11695911950E+01 -0.15579332502E+00 -0.31021374430E-01  0.90007670618E+02  0.89999931070E+02 0.  0.
         12    1    1    2    0    0  0.11695911950E+01  0.15579332502E+00  0.31021374430E-01  0.11803293817E+01  0.00000000000E+00 0. -1.
         11    1    3    3    0    0  0.46209889841E+01 -0.23997485672E+02 -0.30738699713E+02  0.39269587699E+02  0.51100000000E-03 0. -1.
        -11    1    3    3    0    0  0.55981787944E+01 -0.58933840785E+01  0.34775860906E+01  0.88411077920E+01  0.51100000000E-03 0.  1.
        -12    1    3    3    0    0 -0.11388758974E+02  0.29735076425E+02  0.27230092248E+02  0.41896975127E+02  0.00000000000E+00 0.  1.
</event>
<event>
 7    1  0.3568207E-015  0.9000765E+02  0.7816164E-02  0.1186339E+00
        -11   -1    0    0    0    0  0.00000000000E+00  0.00000000000E+00  0.45593999997E+02  0.45594000000E+02  0.51100000000E-03 0. -1.
         11   -1    0    0    0    0 -0.00000000000E+00 -0.00000000000E+00 -0.45593999997E+02  0.45594000000E+02  0.51100000000E-03 0.  1.
    9900012    2    1    2    0    0  0.69418287154E+00 -0.84488447559E-01 -0.95089577964E+00  0.90007647959E+02  0.89999908112E+02 0.  0.
         12    1    1    2    0    0 -0.69418287154E+00  0.84488447559E-01  0.95089577964E+00  0.11803520410E+01  0.00000000000E+00 0. -1.
         11    1    3    3    0    0 -0.31858353056E+02  0.10243898595E+02 -0.16890124347E+02  0.37485576140E+02  0.51100000000E-03 0. -1.
        -11    1    3    3    0    0 -0.81497854557E+01 -0.29641057636E+01  0.23706336571E+01  0.89902630745E+01  0.51100000000E-03 0.  1.
        -12    1    3    3    0    0  0.40702321383E+02 -0.73642812785E+01  0.13568594910E+02  0.43531808744E+02  0.00000000000E+00 0.  1.
</event>
<event>
 7    1  0.3568207E-015  0.9000772E+02  0.7816164E-02  0.1186339E+00
        -11   -1    0    0    0    0  0.00000000000E+00  0.00000000000E+00  0.45593999997E+02  0.45594000000E+02  0.51100000000E-03 0.  1.
         11   -1    0    0    0    0 -0.00000000000E+00 -0.00000000000E+00 -0.45593999997E+02  0.45594000000E+02  0.51100000000E-03 0. -1.
    9900012    2    1    2    0    0 -0.17303107369E+00 -0.69923476730E+00  0.93498399029E+00  0.90007718646E+02  0.89999979732E+02 0.  0.
         12    1    1    2    0    0  0.17303107369E+00  0.69923476730E+00 -0.93498399029E+00  0.11802813539E+01  0.00000000000E+00 0. -1.
         11    1    3    3    0    0 -0.10124622565E+02  0.64609938698E+01 -0.83347899622E+01  0.14619204761E+02  0.51100000000E-03 0. -1.
        -11    1    3    3    0    0 -0.53307182698E+01 -0.31844890674E+02 -0.16775147445E+02  0.36385700370E+02  0.51100000000E-03 0.  1.
         12    1    3    3    0    0  0.15282309761E+02  0.24684662037E+02  0.26044921398E+02  0.39002813516E+02  0.00000000000E+00 0. -1.
</event>
<event>
 7    1  0.3568207E-015  0.9000781E+02  0.7816164E-02  0.1186339E+00
        -11   -1    0    0    0    0  0.00000000000E+00  0.00000000000E+00  0.45593999997E+02  0.45594000000E+02  0.51100000000E-03 0. -1.
         11   -1    0    0    0    0 -0.00000000000E+00 -0.00000000000E+00 -0.45593999997E+02  0.45594000000E+02  0.51100000000E-03 0.  1.
    9900012    2    1    2    0    0  0.89566988014E+00 -0.42585757021E+00 -0.63975048596E+00  0.90007805148E+02  0.90000067376E+02 0.  0.
         12    1    1    2    0    0 -0.89566988014E+00  0.42585757021E+00  0.63975048596E+00  0.11801948520E+01  0.00000000000E+00 0. -1.
         11    1    3    3    0    0  0.81107893117E+01 -0.40360793129E+01 -0.55047897943E+01  0.10600827818E+02  0.51100000000E-03 0. -1.
        -11    1    3    3    0    0 -0.39659118566E+02 -0.14292888370E+02  0.39375987437E+01  0.42339544488E+02  0.51100000000E-03 0.  1.
         12    1    3    3    0    0  0.32443999134E+02  0.17903110113E+02  0.92744056458E+00  0.37067432842E+02  0.00000000000E+00 0. -1.
</event>
<event>
 7    1  0.3568207E-015  0.9000773E+02  0.7816164E-02  0.1186339E+00
        -11   -1    0    0    0    0  0.00000000000E+00  0.00000000000E+00  0.45593999997E+02  0.45594000000E+02  0.51100000000E-03 0.  1.
         11   -1    0    0    0    0 -0.00000000000E+00 -0.00000000000E+00 -0.45593999997E+02  0.45594000000E+02  0.51100000000E-03 0. -1.
    9900012    2    1    2    0    0  0.11472511338E+01  0.75158693817E-01  0.26685709837E+00  0.90007726005E+02  0.89999987188E+02 0.  0.
         12    1    1    2    0    0 -0.11472511338E+01 -0.75158693817E-01 -0.26685709837E+00  0.11802739954E+01  0.00000000000E+00 0. -1.
         11    1    3    3    0    0  0.27383459778E+02  0.16618263738E+02 -0.23751878519E+02  0.39876964434E+02  0.51100000000E-03 0. -1.
        -11    1    3    3    0    0  0.50429700367E+01  0.20910149833E+01  0.94531262413E+01  0.10916294538E+02  0.51100000000E-03 0.  1.
        -12    1    3    3    0    0 -0.31279178680E+02 -0.18634120027E+02  0.14565609376E+02  0.39214467032E+02  0.00000000000E+00 0.  1.
</event>
<event>
 7    1  0.3568207E-015  0.9000775E+02  0.7816164E-02  0.1186339E+00
        -11   -1    0    0    0    0  0.00000000000E+00  0.00000000000E+00  0.45593999997E+02  0.45594000000E+02  0.51100000000E-03 0. -1.
         11   -1    0    0    0    0 -0.00000000000E+00 -0.00000000000E+00 -0.45593999997E+02  0.45594000000E+02  0.51100000000E-03 0.  1.
    9900012    2    1    2    0    0 -0.73063288288E+00  0.91549852728E+00 -0.14501564013E+00  0.90007749391E+02  0.90000010883E+02 0.  0.
         12    1    1    2    0    0  0.73063288288E+00 -0.91549852728E+00  0.14501564013E+00  0.11802506085E+01  0.00000000000E+00 0. -1.
         11    1    3    3    0    0  0.61986335170E+01 -0.66101871340E+01  0.42606337552E+01  0.10013522441E+02  0.51100000000E-03 0. -1.
        -11    1    3    3    0    0  0.13801160375E+02 -0.20157346125E+02 -0.28730019573E+02  0.37712128757E+02  0.51100000000E-03 0.  1.
         12    1    3    3    0    0 -0.20730426775E+02  0.27683031786E+02  0.24324370177E+02  0.42282098193E+02  0.00000000000E+00 0. -1.
</event>
<event>
 7    1  0.3568207E-015  0.9000777E+02  0.7816164E-02  0.1186339E+00
        -11   -1    0    0    0    0  0.00000000000E+00  0.00000000000E+00  0.45593999997E+02  0.45594000000E+02  0.51100000000E-03 0.  1.
         11   -1    0    0    0    0 -0.00000000000E+00 -0.00000000000E+00 -0.45593999997E+02  0.45594000000E+02  0.51100000000E-03 0. -1.
    9900012    2    1    2    0    0 -0.14640230651E+00 -0.34522491488E-01  0.11706100399E+01  0.90007765573E+02  0.90000027278E+02 0.  0.
         12    1    1    2    0    0  0.14640230651E+00  0.34522491488E-01 -0.11706100399E+01  0.11802344273E+01  0.00000000000E+00 0. -1.
         11    1    3    3    0    0 -0.15525618733E+02 -0.29075837976E+02 -0.20531459761E+02  0.38832847323E+02  0.51100000000E-03 0. -1.
        -11    1    3    3    0    0 -0.66033065008E+01  0.10888657468E+02 -0.34101499249E+01  0.13183157474E+02  0.51100000000E-03 0.  1.
        -12    1    3    3    0    0  0.21982522928E+02  0.18152658016E+02  0.25112219726E+02  0.37991760776E+02  0.00000000000E+00 0.  1.
</event>
<event>
 7    1  0.3568207E-015  0.9000779E+02  0.7816164E-02  0.1186339E+00
        -11   -1    0    0    0    0  0.00000000000E+00  0.00000000000E+00  0.45593999997E+02  0.45594000000E+02  0.51100000000E-03 0. -1.
         11   -1    0    0    0    0 -0.00000000000E+00 -0.00000000000E+00 -0.45593999997E+02  0.45594000000E+02  0.51100000000E-03 0.  1.
    9900012    2    1    2    0    0  0.19342299175E+00  0.11223140080E+01  0.30967628573E+00  0.90007787905E+02  0.90000049906E+02 0.  0.
         12    1    1    2    0    0 -0.19342299175E+00 -0.11223140080E+01 -0.30967628573E+00  0.11802120946E+01  0.00000000000E+00 0. -1.
         11    1    3    3    0    0 -0.18409031904E+02 -0.18179984511E+02  0.25923012601E+02  0.36625221843E+02  0.51100000000E-03 0. -1.
        -11    1    3    3    0    0 -0.12905542961E+01 -0.92350070343E-01  0.89467188498E+01  0.90397918872E+01  0.51100000000E-03 0.  1.
        -12    1    3    3    0    0  0.19893009192E+02  0.19394648589E+02 -0.34560055165E+02  0.44342774176E+02  0.00000000000E+00 0.  1.
</event>
<event>
 7    1  0.3568207E-015  0.9000777E+02  0.7816164E-02  0.1186339E+00
        -11   -1    0    0    0    0  0.00000000000E+00  0.00000000000E+00  0.45593999997E+02  0.45594000000E+02  0.51100000000E-03 0.  1.
         11   -1    0    0    0    0 -0.00000000000E+00 -0.00000000000E+00 -0.45593999997E+02  0.45594000000E+02  0.51100000000E-03 0. -1.
    9900012    2    1    2    0    0  0.11257609892E+01 -0.12020946160E+00  0.33339254850E+00  0.90007771755E+02  0.90000033542E+02 0.  0.
         12    1    1    2    0    0 -0.11257609892E+01  0.12020946160E+00 -0.33339254850E+00  0.11802282452E+01  0.00000000000E+00 0. -1.
         11    1    3    3    0    0 -0.23118890059E+01  0.10212460366E+02  0.20188483627E+01  0.10663720105E+02  0.51100000000E-03 0. -1.
        -11    1    3    3    0    0 -0.34660801025E+02  0.94750393659E+01 -0.49890090874E+01  0.36277234054E+02  0.51100000000E-03 0.  1.
         12    1    3    3    0    0  0.38098451020E+02 -0.19807709193E+02  0.33035532732E+01  0.43066817596E+02  0.00000000000E+00 0. -1.
</event>
<event>
 7    1  0.3568207E-015  0.9000776E+02  0.7816164E-02  0.1186339E+00
        -11   -1    0    0    0    0  0.00000000000E+00  0.00000000000E+00  0.45593999997E+02  0.45594000000E+02  0.51100000000E-03 0.  1.
         11   -1    0    0    0    0 -0.00000000000E+00 -0.00000000000E+00 -0.45593999997E+02  0.45594000000E+02  0.51100000000E-03 0. -1.
    9900012    2    1    2    0    0  0.30320491164E+00 -0.10801244535E+01  0.36654968305E+00  0.90007762429E+02  0.90000024093E+02 0.  0.
         12    1    1    2    0    0 -0.30320491164E+00  0.10801244535E+01 -0.36654968305E+00  0.11802375708E+01  0.00000000000E+00 0. -1.
         11    1    3    3    0    0 -0.28571162929E+02 -0.23720166413E+02 -0.91938888997E+01  0.38255525603E+02  0.51100000000E-03 0. -1.
        -11    1    3    3    0    0  0.26625087780E+01 -0.92210246116E+01  0.21207916543E+01  0.98292423606E+01  0.51100000000E-03 0.  1.
        -12    1    3    3    0    0  0.26211859062E+02  0.31861066571E+02  0.74396469285E+01  0.41922994466E+02  0.00000000000E+00 0.  1.
</event>
<event>
 7    1  0.3568207E-015  0.9000782E+02  0.7816164E-02  0.1186339E+00
        -11   -1    0    0    0    0  0.00000000000E+00  0.00000000000E+00  0.45593999997E+02  0.45594000000E+02  0.51100000000E-03 0. -1.
         11   -1    0    0    0    0 -0.00000000000E+00 -0.00000000000E+00 -0.45593999997E+02  0.45594000000E+02  0.51100000000E-03 0.  1.
    9900012    2    1    2    0    0  0.11466412990E+01  0.23192730843E+00 -0.15571332671E+00  0.90007820698E+02  0.90000083131E+02 0.  0.
         12    1    1    2    0    0 -0.11466412990E+01 -0.23192730843E+00  0.15571332671E+00  0.11801793021E+01  0.00000000000E+00 0. -1.
         11    1    3    3    0    0  0.97445000349E+01  0.15900729055E+01 -0.31447988737E+01  0.10362112381E+02  0.51100000000E-03 0. -1.
        -11    1    3    3    0    0  0.19096281213E+01 -0.12667710284E+02 -0.35732879835E+02  0.37959929728E+02  0.51100000000E-03 0.  1.
         12    1    3    3    0    0 -0.10507486857E+02  0.11309564687E+02  0.38721965382E+02  0.41685778589E+02  0.00000000000E+00 0. -1.
</event>
<event>
 7    1  0.3568207E-015  0.9000781E+02  0.7816164E-02  0.1186339E+00
        -11   -1    0    0    0    0  0.00000000000E+00  0.00000000000E+00  0.45593999997E+02  0.45594000000E+02  0.51100000000E-03 0. -1.
         11   -1    0    0    0    0 -0.00000000000E+00 -0.00000000000E+00 -0.45593999997E+02  0.45594000000E+02  0.51100000000E-03 0.  1.
    9900012    2    1    2    0    0  0.45231703663E+00 -0.81341705369E-02 -0.10900403431E+01  0.90007811534E+02  0.90000073846E+02 0.  0.
         12    1    1    2    0    0 -0.45231703663E+00  0.81341705369E-02  0.10900403431E+01  0.11801884663E+01  0.00000000000E+00 0. -1.
         11    1    3    3    0    0  0.19119976816E+01  0.14834437158E+02  0.38477808223E+02  0.41282659639E+02  0.51100000000E-03 0. -1.
        -11    1    3    3    0    0 -0.42884948825E+01  0.49363830077E+01 -0.33158312242E+01  0.73316984747E+01  0.51100000000E-03 0.  1.
        -12    1    3    3    0    0  0.28288142375E+01 -0.19778954336E+02 -0.36252017342E+02  0.41393453420E+02  0.00000000000E+00 0.  1.
</event>
<event>
 7    1  0.3568207E-015  0.9000786E+02  0.7816164E-02  0.1186339E+00
        -11   -1    0    0    0    0  0.00000000000E+00  0.00000000000E+00  0.45593999997E+02  0.45594000000E+02  0.51100000000E-03 0. -1.
         11   -1    0    0    0    0 -0.00000000000E+00 -0.00000000000E+00 -0.45593999997E+02  0.45594000000E+02  0.51100000000E-03 0.  1.
    9900012    2    1    2    0    0  0.43609930959E+00 -0.43992487550E+00 -0.10044992692E+01  0.90007857938E+02  0.90000120863E+02 0.  0.
         12    1    1    2    0    0 -0.43609930959E+00  0.43992487550E+00  0.10044992692E+01  0.11801420617E+01  0.00000000000E+00 0. -1.
         11    1    3    3    0    0  0.12789553641E+02  0.53287527560E+01  0.89037222415E+01  0.16469503887E+02  0.51100000000E-03 0. -1.
        -11    1    3    3    0    0 -0.24532402144E+02  0.27815219162E+02 -0.64841713494E+01  0.37650626161E+02  0.51100000000E-03 0.  1.
         12    1    3    3    0    0  0.12178947812E+02 -0.33583896793E+02 -0.34240501613E+01  0.35887727890E+02  0.00000000000E+00 0. -1.
</event>
<event>
 7    1  0.3568207E-015  0.9000761E+02  0.7816164E-02  0.1186339E+00
        -11   -1    0    0    0    0  0.00000000000E+00  0.00000000000E+00  0.45593999997E+02  0.45594000000E+02  0.51100000000E-03 0.  1.
         11   -1    0    0    0    0 -0.00000000000E+00 -0.00000000000E+00 -0.45593999997E+02  0.45594000000E+02  0.51100000000E-03 0. -1.
    9900012    2    1    2    0    0 -0.65927080862E+00  0.32963827935E+00  0.92196086437E+00  0.90007613949E+02  0.89999873653E+02 0.  0.
         12    1    1    2    0    0  0.65927080862E+00 -0.32963827935E+00 -0.92196086437E+00  0.11803860511E+01  0.00000000000E+00 0. -1.
         11    1    3    3    0    0 -0.89631428339E+01 -0.23700732212E+01 -0.35804863564E+02  0.36985719293E+02  0.51100000000E-03 0. -1.
        -11    1    3    3    0    0 -0.84634615243E+01  0.89386629233E+01  0.15731366118E+00  0.12310752360E+02  0.51100000000E-03 0.  1.
        -12    1    3    3    0    0  0.16767333550E+02 -0.62389514227E+01  0.36569510767E+02  0.40711142295E+02  0.00000000000E+00 0.  1.
</event>
<event>
 7    1  0.3568207E-015  0.9000773E+02  0.7816164E-02  0.1186339E+00
        -11   -1    0    0    0    0  0.00000000000E+00  0.00000000000E+00  0.45593999997E+02  0.45594000000E+02  0.51100000000E-03 0.  1.
         11   -1    0    0    0    0 -0.00000000000E+00 -0.00000000000E+00 -0.45593999997E+02  0.45594000000E+02  0.51100000000E-03 0. -1.
    9900012    2    1    2    0    0  0.29567142845E+00  0.11385947344E+01 -0.95986969892E-01  0.90007731784E+02  0.89999993044E+02 0.  0.
         12    1    1    2    0    0 -0.29567142845E+00 -0.11385947344E+01  0.95986969892E-01  0.11802682158E+01  0.00000000000E+00 0. -1.
         11    1    3    3    0    0  0.30527103072E+01 -0.91433559723E+00 -0.80575538161E+01  0.86648268053E+01  0.51100000000E-03 0. -1.
        -11    1    3    3    0    0  0.39905637279E+01 -0.37183741724E+02  0.16085368352E+02  0.40709879915E+02  0.51100000000E-03 0.  1.
         12    1    3    3    0    0 -0.67476026067E+01  0.39236672055E+02 -0.81238015060E+01  0.40633025064E+02  0.00000000000E+00 0. -1.
</event>
<event>
 7    1  0.3568207E-015  0.9000796E+02  0.7816164E-02  0.1186339E+00
        -11   -1    0    0    0    0  0.00000000000E+00  0.00000000000E+00  0.45593999997E+02  0.45594000000E+02  0.51100000000E-03 0.  1.
         11   -1    0    0    0    0 -0.00000000000E+00 -0.00000000000E+00 -0.45593999997E+02  0.45594000000E+02  0.51100000000E-03 0. -1.
    9900012    2    1    2    0    0  0.96038685727E+00  0.22462038299E+00  0.64783423078E+00  0.90007963381E+02  0.90000227697E+02 0.  0.
         12    1    1    2    0    0 -0.96038685727E+00 -0.22462038299E+00 -0.64783423078E+00  0.11800366192E+01  0.00000000000E+00 0. -1.
         11    1    3    3    0    0 -0.19354510724E+02 -0.33426532629E+02 -0.16986417506E+02  0.42195598691E+02  0.51100000000E-03 0. -1.
        -11    1    3    3    0    0  0.40367150246E+01  0.78081375755E+01 -0.47070960879E+01  0.99708993791E+01  0.51100000000E-03 0.  1.
        -12    1    3    3    0    0  0.16278182557E+02  0.25843015437E+02  0.22341347825E+02  0.37841465310E+02  0.00000000000E+00 0.  1.
</event>
<event>
 7    1  0.3568207E-015  0.9000769E+02  0.7816164E-02  0.1186339E+00
        -11   -1    0    0    0    0  0.00000000000E+00  0.00000000000E+00  0.45593999997E+02  0.45594000000E+02  0.51100000000E-03 0.  1.
         11   -1    0    0    0    0 -0.00000000000E+00 -0.00000000000E+00 -0.45593999997E+02  0.45594000000E+02  0.51100000000E-03 0. -1.
    9900012    2    1    2    0    0  0.10594574973E+01  0.48630544229E+00 -0.18487090577E+00  0.90007694775E+02  0.89999955546E+02 0.  0.
         12    1    1    2    0    0 -0.10594574973E+01 -0.48630544229E+00  0.18487090577E+00  0.11803052247E+01  0.00000000000E+00 0. -1.
         11    1    3    3    0    0 -0.11152001126E+02  0.27465053376E+01 -0.33329136527E+02  0.35252542640E+02  0.51100000000E-03 0. -1.
        -11    1    3    3    0    0 -0.51238504821E+01  0.29410000186E+01 -0.79191584235E+01  0.98801009747E+01  0.51100000000E-03 0.  1.
        -12    1    3    3    0    0  0.17335309106E+02 -0.52011999140E+01  0.41063424045E+02  0.44875051160E+02  0.00000000000E+00 0.  1.
</event>
<event>
 7    1  0.3568207E-015  0.9000767E+02  0.7816164E-02  0.1186339E+00
        -11   -1    0    0    0    0  0.00000000000E+00  0.00000000000E+00  0.45593999997E+02  0.45594000000E+02  0.51100000000E-03 0.  1.
         11   -1    0    0    0    0 -0.00000000000E+00 -0.00000000000E+00 -0.45593999997E+02  0.45594000000E+02  0.51100000000E-03 0. -1.
    9900012    2    1    2    0    0  0.11585108876E+01  0.15765802880E+00 -0.16175434226E+00  0.90007674622E+02  0.89999935127E+02 0.  0.
         12    1    1    2    0    0 -0.11585108876E+01 -0.15765802880E+00  0.16175434226E+00  0.11803253780E+01  0.00000000000E+00 0. -1.
         11    1    3    3    0    0  0.54587174596E+01  0.65069951607E+01 -0.35279498349E+01  0.91970110701E+01  0.51100000000E-03 0. -1.
        -11    1    3    3    0    0 -0.16379201176E+02  0.28906185730E+02  0.21286786374E+02  0.39458498185E+02  0.51100000000E-03 0.  1.
         12    1    3    3    0    0  0.12078994604E+02 -0.35255522862E+02 -0.17920590882E+02  0.41352165366E+02  0.00000000000E+00 0. -1.
</event>
<event>
 7    1  0.3568207E-015  0.9000798E+02  0.7816164E-02  0.1186339E+00
        -11   -1    0    0    0    0  0.00000000000E+00  0.00000000000E+00  0.45593999997E+02  0.45594000000E+02  0.51100000000E-03 0. -1.
         11   -1    0    0    0    0 -0.00000000000E+00 -0.00000000000E+00 -0.45593999997E+02  0.45594000000E+02  0.51100000000E-03 0.  1.
    9900012    2    1    2    0    0 -0.10215547465E+01 -0.58254208697E+00 -0.97577451771E-01  0.90007978499E+02  0.90000243015E+02 0.  0.
         12    1    1    2    0    0  0.10215547465E+01  0.58254208697E+00  0.97577451771E-01  0.11800215008E+01  0.00000000000E+00 0. -1.
         11    1    3    3    0    0 -0.96240073740E+01  0.46671438750E+01  0.96031974923E+00  0.10738992698E+02  0.51100000000E-03 0. -1.
        -11    1    3    3    0    0 -0.28278088673E+02  0.19100371857E+02 -0.65108032925E+01  0.34739963498E+02  0.51100000000E-03 0.  1.
         12    1    3    3    0    0  0.36880541301E+02 -0.24350057819E+02  0.54529060915E+01  0.44529022303E+02  0.00000000000E+00 0. -1.
</event>
<event>
 7    1  0.3568207E-015  0.9000778E+02  0.7816164E-02  0.1186339E+00
        -11   -1    0    0    0    0  0.00000000000E+00  0.00000000000E+00  0.45593999997E+02  0.45594000000E+02  0.51100000000E-03 0. -1.
         11   -1    0    0    0    0 -0.00000000000E+00 -0.00000000000E+00 -0.45593999997E+02  0.45594000000E+02  0.51100000000E-03 0.  1.
    9900012    2    1    2    0    0  0.34380258154E+00 -0.10816463752E+01 -0.32366877741E+00  0.90007779439E+02  0.90000041327E+02 0.  0.
         12    1    1    2    0    0 -0.34380258154E+00  0.10816463752E+01  0.32366877741E+00  0.11802205614E+01  0.00000000000E+00 0. -1.
         11    1    3    3    0    0 -0.51151057682E+01  0.60800404121E+01 -0.35110428163E+00  0.79532680648E+01  0.51100000000E-03 0. -1.
        -11    1    3    3    0    0 -0.57581364994E+01  0.14724999968E+02 -0.35490471684E+02  0.38852996547E+02  0.51100000000E-03 0.  1.
         12    1    3    3    0    0  0.11217044849E+02 -0.21886686756E+02  0.35517907189E+02  0.43201514827E+02  0.00000000000E+00 0. -1.
</event>
<event>
 7    1  0.3568207E-015  0.9000760E+02  0.7816164E-02  0.1186339E+00
        -11   -1    0    0    0    0  0.00000000000E+00  0.00000000000E+00  0.45593999997E+02  0.45594000000E+02  0.51100000000E-03 0. -1.
         11   -1    0    0    0    0 -0.00000000000E+00 -0.00000000000E+00 -0.45593999997E+02  0.45594000000E+02  0.51100000000E-03 0.  1.
    9900012    2    1    2    0    0  0.82411319994E+00  0.84301174721E+00  0.59201662210E-01  0.90007603368E+02  0.89999862932E+02 0.  0.
         12    1    1    2    0    0 -0.82411319994E+00 -0.84301174721E+00 -0.59201662210E-01  0.11803966321E+01  0.00000000000E+00 0. -1.
         11    1    3    3    0    0  0.16197327642E+02  0.28242168097E+02 -0.19016101663E+01  0.32612721491E+02  0.51100000000E-03 0. -1.
        -11    1    3    3    0    0  0.13993423716E+02  0.36793224567E+01  0.22037089701E+01  0.14635902929E+02  0.51100000000E-03 0.  1.
        -12    1    3    3    0    0 -0.29366638158E+02 -0.31078478807E+02 -0.24289714156E+00  0.42758978948E+02  0.00000000000E+00 0.  1.
</event>
<event>
 7    1  0.3568207E-015  0.9000769E+02  0.7816164E-02  0.1186339E+00
        -11   -1    0    0    0    0  0.00000000000E+00  0.00000000000E+00  0.45593999997E+02  0.45594000000E+02  0.51100000000E-03 0. -1.
         11   -1    0    0    0    0 -0.00000000000E+00 -0.00000000000E+00 -0.45593999997E+02  0.45594000000E+02  0.51100000000E-03 0.  1.
    9900012    2    1    2    0    0 -0.18795216696E+00  0.29405871474E+00 -0.11275358170E+01  0.90007689209E+02  0.89999949907E+02 0.  0.
         12    1    1    2    0    0  0.18795216696E+00 -0.29405871474E+00  0.11275358170E+01  0.11803107910E+01  0.00000000000E+00 0. -1.
         11    1    3    3    0    0 -0.14493649086E+01  0.34164191538E+01 -0.84400992638E+01  0.92199704075E+01  0.51100000000E-03 0. -1.
        -11    1    3    3    0    0 -0.17056993159E+02  0.33687672028E+02 -0.44525265187E+01  0.38021378920E+02  0.51100000000E-03 0.  1.
         12    1    3    3    0    0  0.18318405900E+02 -0.36810032467E+02  0.11765089966E+02  0.42766339882E+02  0.00000000000E+00 0. -1.
</event>
<event>
 7    1  0.3568207E-015  0.9000753E+02  0.7816164E-02  0.1186339E+00
        -11   -1    0    0    0    0  0.00000000000E+00  0.00000000000E+00  0.45593999997E+02  0.45594000000E+02  0.51100000000E-03 0. -1.
         11   -1    0    0    0    0 -0.00000000000E+00 -0.00000000000E+00 -0.45593999997E+02  0.45594000000E+02  0.51100000000E-03 0.  1.
    9900012    2    1    2    0    0 -0.75256124947E+00  0.47474498940E+00 -0.77574695797E+00  0.90007527814E+02  0.89999786381E+02 0.  0.
         12    1    1    2    0    0  0.75256124947E+00 -0.47474498940E+00  0.77574695797E+00  0.11804721860E+01  0.00000000000E+00 0. -1.
         11    1    3    3    0    0 -0.13370648286E+02  0.27196032368E+02  0.26237624299E+02  0.40085051344E+02  0.51100000000E-03 0. -1.
        -11    1    3    3    0    0 -0.87020600732E+01 -0.45588157238E+01 -0.14458642873E+01  0.99297116836E+01  0.51100000000E-03 0.  1.
        -12    1    3    3    0    0  0.21320147110E+02 -0.22162471655E+02 -0.25567506969E+02  0.39992764786E+02  0.00000000000E+00 0.  1.
</event>
<event>
 7    1  0.3568207E-015  0.9000825E+02  0.7816164E-02  0.1186338E+00
        -11   -1    0    0    0    0  0.00000000000E+00  0.00000000000E+00  0.45593999997E+02  0.45594000000E+02  0.51100000000E-03 0. -1.
         11   -1    0    0    0    0 -0.00000000000E+00 -0.00000000000E+00 -0.45593999997E+02  0.45594000000E+02  0.51100000000E-03 0.  1.
    9900012    2    1    2    0    0  0.17268857893E+00 -0.36713185774E+00 -0.11077958944E+01  0.90008246259E+02  0.90000514308E+02 0.  0.
         12    1    1    2    0    0 -0.17268857893E+00  0.36713185774E+00  0.11077958944E+01  0.11797537412E+01  0.00000000000E+00 0. -1.
         11    1    3    3    0    0  0.37634681171E+02  0.12612187230E+01 -0.76961636165E+01  0.38434240388E+02  0.51100000000E-03 0. -1.
        -11    1    3    3    0    0  0.43266028194E+01 -0.68661041080E+01 -0.24941635500E+01  0.84902137579E+01  0.51100000000E-03 0.  1.
        -12    1    3    3    0    0 -0.41788595412E+02  0.52377535273E+01  0.90825312721E+01  0.43083792113E+02  0.00000000000E+00 0.  1.
</event>
<event>
 7    1  0.3568207E-015  0.9000774E+02  0.7816164E-02  0.1186339E+00
        -11   -1    0    0    0    0  0.00000000000E+00  0.00000000000E+00  0.45593999997E+02  0.45594000000E+02  0.51100000000E-03 0.  1.
         11   -1    0    0    0    0 -0.00000000000E+00 -0.00000000000E+00 -0.45593999997E+02  0.45594000000E+02  0.51100000000E-03 0. -1.
    9900012    2    1    2    0    0 -0.76305536809E+00  0.48024719165E+00 -0.76165790562E+00  0.90007740018E+02  0.90000001386E+02 0.  0.
         12    1    1    2    0    0  0.76305536809E+00 -0.48024719165E+00  0.76165790562E+00  0.11802599820E+01  0.00000000000E+00 0. -1.
         11    1    3    3    0    0 -0.29321194917E+02  0.10896217920E+02 -0.16778372732E+01  0.31325312042E+02  0.51100000000E-03 0. -1.
        -11    1    3    3    0    0 -0.12953968464E+02 -0.68776943482E+01 -0.70371808787E+01  0.16267448893E+02  0.51100000000E-03 0.  1.
        -12    1    3    3    0    0  0.41512108013E+02 -0.35382763801E+01  0.79533602463E+01  0.42414979083E+02  0.00000000000E+00 0.  1.
</event>
<event>
 7    1  0.3568207E-015  0.9000759E+02  0.7816164E-02  0.1186339E+00
        -11   -1    0    0    0    0  0.00000000000E+00  0.00000000000E+00  0.45593999997E+02  0.45594000000E+02  0.51100000000E-03 0.  1.
         11   -1    0    0    0    0 -0.00000000000E+00 -0.00000000000E+00 -0.45593999997E+02  0.45594000000E+02  0.51100000000E-03 0. -1.
    9900012    2    1    2    0    0  0.33389209768E+00 -0.52059437549E+00  0.10054170272E+01  0.90007590819E+02  0.89999850217E+02 0.  0.
         12    1    1    2    0    0 -0.33389209768E+00  0.52059437549E+00 -0.10054170272E+01  0.11804091813E+01  0.00000000000E+00 0. -1.
         11    1    3    3    0    0  0.86219545875E+00  0.10237143194E+02  0.83964992686E+00  0.10307642507E+02  0.51100000000E-03 0. -1.
        -11    1    3    3    0    0 -0.32110241928E+02  0.14774460448E+02  0.12118343896E+02  0.37365847739E+02  0.51100000000E-03 0.  1.
         12    1    3    3    0    0  0.31581938567E+02 -0.25532198017E+02 -0.11952576796E+02  0.42334100573E+02  0.00000000000E+00 0. -1.
</event>
<event>
 7    1  0.3568207E-015  0.9000777E+02  0.7816164E-02  0.1186339E+00
        -11   -1    0    0    0    0  0.00000000000E+00  0.00000000000E+00  0.45593999997E+02  0.45594000000E+02  0.51100000000E-03 0. -1.
         11   -1    0    0    0    0 -0.00000000000E+00 -0.00000000000E+00 -0.45593999997E+02  0.45594000000E+02  0.51100000000E-03 0.  1.
    9900012    2    1    2    0    0 -0.63144257196E+00  0.95555155892E+00 -0.28485394277E+00  0.90007771093E+02  0.90000032872E+02 0.  0.
         12    1    1    2    0    0  0.63144257196E+00 -0.95555155892E+00  0.28485394277E+00  0.11802289067E+01  0.00000000000E+00 0. -1.
         11    1    3    3    0    0 -0.44532475622E+01 -0.13287221324E+01 -0.75913112298E+01  0.89008383203E+01  0.51100000000E-03 0. -1.
        -11    1    3    3    0    0  0.41359394368E+02  0.40513347713E+01 -0.42925354194E+01  0.41778447512E+02  0.51100000000E-03 0.  1.
         12    1    3    3    0    0 -0.37537589378E+02 -0.17670610800E+01  0.11598992706E+02  0.39328485261E+02  0.00000000000E+00 0. -1.
</event>
<event>
 7    1  0.3568207E-015  0.9000766E+02  0.7816164E-02  0.1186339E+00
        -11   -1    0    0    0    0  0.00000000000E+00  0.00000000000E+00  0.45593999997E+02  0.45594000000E+02  0.51100000000E-03 0.  1.
         11   -1    0    0    0    0 -0.00000000000E+00 -0.00000000000E+00 -0.45593999997E+02  0.45594000000E+02  0.51100000000E-03 0. -1.
    9900012    2    1    2    0    0  0.27662293984E-01  0.12349293315E+00  0.11735352771E+01  0.90007660746E+02  0.89999921068E+02 0.  0.
         12    1    1    2    0    0 -0.27662293984E-01 -0.12349293315E+00 -0.11735352771E+01  0.11803392536E+01  0.00000000000E+00 0. -1.
         11    1    3    3    0    0 -0.38480368049E+02 -0.69102177227E+01 -0.10938751714E+01  0.39111205521E+02  0.51100000000E-03 0. -1.
        -11    1    3    3    0    0 -0.16727349972E+01  0.10364475574E+02 -0.22391450059E+00  0.10500977777E+02  0.51100000000E-03 0.  1.
        -12    1    3    3    0    0  0.40180765340E+02 -0.33307649186E+01  0.24913249491E+01  0.40395477448E+02  0.00000000000E+00 0.  1.
</event>
<event>
 7    1  0.3568207E-015  0.9000776E+02  0.7816164E-02  0.1186339E+00
        -11   -1    0    0    0    0  0.00000000000E+00  0.00000000000E+00  0.45593999997E+02  0.45594000000E+02  0.51100000000E-03 0. -1.
         11   -1    0    0    0    0 -0.00000000000E+00 -0.00000000000E+00 -0.45593999997E+02  0.45594000000E+02  0.51100000000E-03 0.  1.
    9900012    2    1    2    0    0 -0.77305515872E+00 -0.84254467168E+00 -0.29233839083E+00  0.90007763779E+02  0.90000025461E+02 0.  0.
         12    1    1    2    0    0  0.77305515872E+00  0.84254467168E+00  0.29233839083E+00  0.11802362208E+01  0.00000000000E+00 0. -1.
         11    1    3    3    0    0  0.94977056971E+01  0.17729215214E+01  0.31281843784E+01  0.10155550305E+02  0.51100000000E-03 0. -1.
        -11    1    3    3    0    0  0.30760332874E+02  0.14440666037E+02  0.57945045583E+01  0.34471831942E+02  0.51100000000E-03 0.  1.
         12    1    3    3    0    0 -0.41031093730E+02 -0.17056132230E+02 -0.92150273275E+01  0.45380381532E+02  0.00000000000E+00 0. -1.
</event>
<event>
 7    1  0.3568207E-015  0.9000765E+02  0.7816164E-02  0.1186339E+00
        -11   -1    0    0    0    0  0.00000000000E+00  0.00000000000E+00  0.45593999997E+02  0.45594000000E+02  0.51100000000E-03 0. -1.
         11   -1    0    0    0    0 -0.00000000000E+00 -0.00000000000E+00 -0.45593999997E+02  0.45594000000E+02  0.51100000000E-03 0.  1.
    9900012    2    1    2    0    0 -0.55186581921E+00  0.10098203102E+01  0.26253659531E+00  0.90007653269E+02  0.89999913492E+02 0.  0.
         12    1    1    2    0    0  0.55186581921E+00 -0.10098203102E+01 -0.26253659531E+00  0.11803467309E+01  0.00000000000E+00 0. -1.
         11    1    3    3    0    0 -0.62468441388E+01  0.69745718128E+01 -0.42891976049E+01  0.10298782939E+02  0.51100000000E-03 0. -1.
        -11    1    3    3    0    0  0.16921545080E+02 -0.48170067064E+01 -0.34679304929E+02  0.38886969952E+02  0.51100000000E-03 0.  1.
         12    1    3    3    0    0 -0.11226566760E+02 -0.11477447962E+01  0.39231039129E+02  0.40821900378E+02  0.00000000000E+00 0. -1.
</event>
<event>
 7    1  0.3568207E-015  0.9000781E+02  0.7816164E-02  0.1186339E+00
        -11   -1    0    0    0    0  0.00000000000E+00  0.00000000000E+00  0.45593999997E+02  0.45594000000E+02  0.51100000000E-03 0. -1.
         11   -1    0    0    0    0 -0.00000000000E+00 -0.00000000000E+00 -0.45593999997E+02  0.45594000000E+02  0.51100000000E-03 0.  1.
    9900012    2    1    2    0    0 -0.73368573419E+00 -0.82751350332E+00 -0.41202380761E+00  0.90007814857E+02  0.90000077213E+02 0.  0.
         12    1    1    2    0    0  0.73368573419E+00  0.82751350332E+00  0.41202380761E+00  0.11801851434E+01  0.00000000000E+00 0. -1.
         11    1    3    3    0    0 -0.77850612344E+01 -0.14837558608E+02  0.35993560292E+02  0.39702603273E+02  0.51100000000E-03 0. -1.
        -11    1    3    3    0    0  0.79195500113E+01  0.29206744287E+01  0.33059490483E+01  0.90652584558E+01  0.51100000000E-03 0.  1.
        -12    1    3    3    0    0 -0.86817451109E+00  0.11089370676E+02 -0.39711533148E+02  0.41239953128E+02  0.00000000000E+00 0.  1.
</event>
<event>
 7    1  0.3568207E-015  0.9000779E+02  0.7816164E-02  0.1186339E+00
        -11   -1    0    0    0    0  0.00000000000E+00  0.00000000000E+00  0.45593999997E+02  0.45594000000E+02  0.51100000000E-03 0.  1.
         11   -1    0    0    0    0 -0.00000000000E+00 -0.00000000000E+00 -0.45593999997E+02  0.45594000000E+02  0.51100000000E-03 0. -1.
    9900012    2    1    2    0    0 -0.75762623951E+00  0.80877085741E+00 -0.40593887148E+00  0.90007790618E+02  0.90000052654E+02 0.  0.
         12    1    1    2    0    0  0.75762623951E+00 -0.80877085741E+00  0.40593887148E+00  0.11802093823E+01  0.00000000000E+00 0. -1.
         11    1    3    3    0    0  0.79351887637E+01  0.30500904919E+02  0.26474552320E+02  0.41160349153E+02  0.51100000000E-03 0. -1.
        -11    1    3    3    0    0  0.69569355735E+01 -0.55835888336E+01  0.78327559920E+00  0.89548276232E+01  0.51100000000E-03 0.  1.
        -12    1    3    3    0    0 -0.15649750577E+02 -0.24108545228E+02 -0.27663766791E+02  0.39892613842E+02  0.00000000000E+00 0.  1.
</event>
<event>
 7    1  0.3568207E-015  0.9000769E+02  0.7816164E-02  0.1186339E+00
        -11   -1    0    0    0    0  0.00000000000E+00  0.00000000000E+00  0.45593999997E+02  0.45594000000E+02  0.51100000000E-03 0.  1.
         11   -1    0    0    0    0 -0.00000000000E+00 -0.00000000000E+00 -0.45593999997E+02  0.45594000000E+02  0.51100000000E-03 0. -1.
    9900012    2    1    2    0    0  0.53173672545E+00  0.10492816520E+01 -0.96986887356E-01  0.90007685471E+02  0.89999946119E+02 0.  0.
         12    1    1    2    0    0 -0.53173672545E+00 -0.10492816520E+01  0.96986887356E-01  0.11803145287E+01  0.00000000000E+00 0. -1.
         11    1    3    3    0    0 -0.52601775858E+01  0.43447077002E+01 -0.61534541204E+01  0.91875432575E+01  0.51100000000E-03 0. -1.
        -11    1    3    3    0    0  0.33170917816E+02 -0.26365572929E+02  0.13057893759E+02  0.44339167948E+02  0.51100000000E-03 0.  1.
         12    1    3    3    0    0 -0.27379003505E+02  0.23070146880E+02 -0.70014265261E+01  0.36480974266E+02  0.00000000000E+00 0. -1.
</event>
<event>
 7    1  0.3568207E-015  0.9000780E+02  0.7816164E-02  0.1186339E+00
        -11   -1    0    0    0    0  0.00000000000E+00  0.00000000000E+00  0.45593999997E+02  0.45594000000E+02  0.51100000000E-03 0. -1.
         11   -1    0    0    0    0 -0.00000000000E+00 -0.00000000000E+00 -0.45593999997E+02  0.45594000000E+02  0.51100000000E-03 0.  1.
    9900012    2    1    2    0    0  0.72433756637E+00  0.89561171777E+00 -0.25708376077E+00  0.90007797763E+02  0.90000059894E+02 0.  0.
         12    1    1    2    0    0 -0.72433756637E+00 -0.89561171777E+00  0.25708376077E+00  0.11802022365E+01  0.00000000000E+00 0. -1.
         11    1    3    3    0    0  0.13027344851E+00  0.37845807687E+02 -0.93651640711E+01  0.38987541972E+02  0.51100000000E-03 0. -1.
        -11    1    3    3    0    0 -0.34818202131E+01  0.32693468523E+01  0.94554028717E+01  0.10593221633E+02  0.51100000000E-03 0.  1.
        -12    1    3    3    0    0  0.40758843310E+01 -0.40219542822E+02 -0.34732256130E+00  0.40427034158E+02  0.00000000000E+00 0.  1.
</event>
<event>
 7    1  0.3568207E-015  0.9000756E+02  0.7816164E-02  0.1186339E+00
        -11   -1    0    0    0    0  0.00000000000E+00  0.00000000000E+00  0.45593999997E+02  0.45594000000E+02  0.51100000000E-03 0.  1.
         11   -1    0    0    0    0 -0.00000000000E+00 -0.00000000000E+00 -0.45593999997E+02  0.45594000000E+02  0.51100000000E-03 0. -1.
    9900012    2    1    2    0    0 -0.64793055909E-01  0.76490221083E+00  0.89675093343E+00  0.90007561196E+02  0.89999820204E+02 0.  0.
         12    1    1    2    0    0  0.64793055909E-01 -0.76490221083E+00 -0.89675093343E+00  0.11804388035E+01  0.00000000000E+00 0. -1.
         11    1    3    3    0    0 -0.36129523742E+02 -0.60924307799E+00 -0.17153694572E+02  0.39999536256E+02  0.51100000000E-03 0. -1.
        -11    1    3    3    0    0  0.43264461308E+01  0.53851377003E+01 -0.66520380461E+01  0.95899663504E+01  0.51100000000E-03 0.  1.
        -12    1    3    3    0    0  0.31738284555E+02 -0.40109924115E+01  0.24702483551E+02  0.40418058591E+02  0.00000000000E+00 0.  1.
</event>
<event>
 7    1  0.3568207E-015  0.9000776E+02  0.7816164E-02  0.1186339E+00
        -11   -1    0    0    0    0  0.00000000000E+00  0.00000000000E+00  0.45593999997E+02  0.45594000000E+02  0.51100000000E-03 0.  1.
         11   -1    0    0    0    0 -0.00000000000E+00 -0.00000000000E+00 -0.45593999997E+02  0.45594000000E+02  0.51100000000E-03 0. -1.
    9900012    2    1    2    0    0  0.61270792479E+00 -0.10084416570E+01  0.24674179741E-01  0.90007756639E+02  0.90000018226E+02 0.  0.
         12    1    1    2    0    0 -0.61270792479E+00  0.10084416570E+01 -0.24674179741E-01  0.11802433613E+01  0.00000000000E+00 0. -1.
         11    1    3    3    0    0  0.18977415171E+02  0.25222386540E+01 -0.30812969418E+02  0.36275929471E+02  0.51100000000E-03 0. -1.
        -11    1    3    3    0    0  0.38512606924E+01  0.81579866076E+01 -0.47389030124E+01  0.10190297171E+02  0.51100000000E-03 0.  1.
        -12    1    3    3    0    0 -0.22215967939E+02 -0.11688666919E+02  0.35576546610E+02  0.43541529997E+02  0.00000000000E+00 0.  1.
</event>
<event>
 7    1  0.3568207E-015  0.9000773E+02  0.7816164E-02  0.1186339E+00
        -11   -1    0    0    0    0  0.00000000000E+00  0.00000000000E+00  0.45593999997E+02  0.45594000000E+02  0.51100000000E-03 0. -1.
         11   -1    0    0    0    0 -0.00000000000E+00 -0.00000000000E+00 -0.45593999997E+02  0.45594000000E+02  0.51100000000E-03 0.  1.
    9900012    2    1    2    0    0  0.43792633576E+00 -0.61700789042E-01 -0.10942843219E+01  0.90007726879E+02  0.89999988074E+02 0.  0.
         12    1    1    2    0    0 -0.43792633576E+00  0.61700789042E-01  0.10942843219E+01  0.11802731210E+01  0.00000000000E+00 0. -1.
         11    1    3    3    0    0  0.34674872411E+02 -0.24609025985E+01 -0.98549693245E+01  0.36132025116E+02  0.51100000000E-03 0. -1.
        -11    1    3    3    0    0  0.72495585505E+01 -0.62267635486E+01 -0.27905219897E+01  0.99556866515E+01  0.51100000000E-03 0.  1.
        -12    1    3    3    0    0 -0.41486504626E+02  0.86259653580E+01  0.11551206992E+02  0.43920015112E+02  0.00000000000E+00 0.  1.
</event>
<event>
 7    1  0.3568207E-015  0.9000777E+02  0.7816164E-02  0.1186339E+00
        -11   -1    0    0    0    0  0.00000000000E+00  0.00000000000E+00  0.45593999997E+02  0.45594000000E+02  0.51100000000E-03 0.  1.
         11   -1    0    0    0    0 -0.00000000000E+00 -0.00000000000E+00 -0.45593999997E+02  0.45594000000E+02  0.51100000000E-03 0. -1.
    9900012    2    1    2    0    0  0.36085346834E+00 -0.51641430919E+00  0.99801697250E+00  0.90007772547E+02  0.90000034344E+02 0.  0.
         12    1    1    2    0    0 -0.36085346834E+00  0.51641430919E+00 -0.99801697250E+00  0.11802274534E+01  0.00000000000E+00 0. -1.
         11    1    3    3    0    0 -0.46349900691E+01  0.81793823586E+01 -0.33358343755E+02  0.34657820576E+02  0.51100000000E-03 0. -1.
        -11    1    3    3    0    0  0.57333430519E+01 -0.62021505472E+01 -0.87522098676E+01  0.12163020669E+02  0.51100000000E-03 0.  1.
        -12    1    3    3    0    0 -0.73749951444E+00 -0.24936461206E+01  0.43108570595E+02  0.43186931302E+02  0.00000000000E+00 0.  1.
</event>
<event>
 7    1  0.3568207E-015  0.9000776E+02  0.7816164E-02  0.1186339E+00
        -11   -1    0    0    0    0  0.00000000000E+00  0.00000000000E+00  0.45593999997E+02  0.45594000000E+02  0.51100000000E-03 0. -1.
         11   -1    0    0    0    0 -0.00000000000E+00 -0.00000000000E+00 -0.45593999997E+02  0.45594000000E+02  0.51100000000E-03 0.  1.
    9900012    2    1    2    0    0  0.14169677323E+00  0.11599382122E+01 -0.16561553888E+00  0.90007761406E+02  0.90000023057E+02 0.  0.
         12    1    1    2    0    0 -0.14169677323E+00 -0.11599382122E+01  0.16561553888E+00  0.11802385938E+01  0.00000000000E+00 0. -1.
         11    1    3    3    0    0  0.76148520992E+01  0.39928249597E+01 -0.29740575321E+01  0.90980020948E+01  0.51100000000E-03 0. -1.
        -11    1    3    3    0    0  0.36337633588E+02 -0.37384955521E+01 -0.32458004394E+01  0.36673357966E+02  0.51100000000E-03 0.  1.
         12    1    3    3    0    0 -0.43810788914E+02  0.90560880462E+00  0.60542424326E+01  0.44236401345E+02  0.00000000000E+00 0. -1.
</event>
<event>
 7    1  0.5588070E-015  0.9000756E+02  0.7816164E-02  0.1186339E+00
        -11   -1    0    0    0    0  0.00000000000E+00  0.00000000000E+00  0.45593999997E+02  0.45594000000E+02  0.51100000000E-03 0.  1.
         11   -1    0    0    0    0 -0.00000000000E+00 -0.00000000000E+00 -0.45593999997E+02  0.45594000000E+02  0.51100000000E-03 0. -1.
    9900012    2    1    2    0    0  0.13041838229E+00 -0.10891578757E+01 -0.43608122541E+00  0.90007559121E+02  0.89999818102E+02 0.  0.
         12    1    1    2    0    0 -0.13041838229E+00  0.10891578757E+01  0.43608122541E+00  0.11804408785E+01  0.00000000000E+00 0. -1.
         11    1    3    3    0    0 -0.26912272967E+01 -0.65493749974E+01 -0.67892670241E+01  0.98097484272E+01  0.51100000000E-03 0. -1.
        -11    1    3    3    0    0 -0.32113496383E+02  0.21296653536E+02 -0.77964062291E+01  0.39314222009E+02  0.51100000000E-03 0.  1.
         12    1    3    3    0    0  0.34935142062E+02 -0.15836436415E+02  0.14149592028E+02  0.40883588685E+02  0.00000000000E+00 0. -1.
</event>
<event>
 7    1  0.3568207E-015  0.9000783E+02  0.7816164E-02  0.1186339E+00
        -11   -1    0    0    0    0  0.00000000000E+00  0.00000000000E+00  0.45593999997E+02  0.45594000000E+02  0.51100000000E-03 0.  1.
         11   -1    0    0    0    0 -0.00000000000E+00 -0.00000000000E+00 -0.45593999997E+02  0.45594000000E+02  0.51100000000E-03 0. -1.
    9900012    2    1    2    0    0 -0.14947008028E+00  0.98355875036E-01  0.11665228492E+01  0.90007834443E+02  0.90000097058E+02 0.  0.
         12    1    1    2    0    0  0.14947008028E+00 -0.98355875036E-01 -0.11665228492E+01  0.11801655565E+01  0.00000000000E+00 0. -1.
         11    1    3    3    0    0  0.11328309382E+02 -0.38809973421E+01  0.49996294205E+01  0.12976479817E+02  0.51100000000E-03 0. -1.
        -11    1    3    3    0    0  0.31915046019E+02  0.91271092795E+01 -0.35996081563E+00  0.33196443458E+02  0.51100000000E-03 0.  1.
         12    1    3    3    0    0 -0.43392825482E+02 -0.51477560623E+01 -0.34731457557E+01  0.43834911169E+02  0.00000000000E+00 0. -1.
</event>
<event>
 7    1  0.3568207E-015  0.9000772E+02  0.7816164E-02  0.1186339E+00
        -11   -1    0    0    0    0  0.00000000000E+00  0.00000000000E+00  0.45593999997E+02  0.45594000000E+02  0.51100000000E-03 0. -1.
         11   -1    0    0    0    0 -0.00000000000E+00 -0.00000000000E+00 -0.45593999997E+02  0.45594000000E+02  0.51100000000E-03 0.  1.
    9900012    2    1    2    0    0  0.30426428956E+00 -0.96232301909E+00 -0.61189146952E+00  0.90007723117E+02  0.89999984262E+02 0.  0.
         12    1    1    2    0    0 -0.30426428956E+00  0.96232301909E+00  0.61189146952E+00  0.11802768834E+01  0.00000000000E+00 0. -1.
         11    1    3    3    0    0 -0.27131074243E+01 -0.39754145453E+02  0.14108732599E+02  0.42270667944E+02  0.51100000000E-03 0. -1.
        -11    1    3    3    0    0  0.93947178125E+01  0.43007935694E+01 -0.31331296381E+01  0.10796946313E+02  0.51100000000E-03 0.  1.
        -12    1    3    3    0    0 -0.63773460986E+01  0.34491028864E+02 -0.11587494431E+02  0.36940108860E+02  0.00000000000E+00 0.  1.
</event>
<event>
 7    1  0.3568207E-015  0.9000775E+02  0.7816164E-02  0.1186339E+00
        -11   -1    0    0    0    0  0.00000000000E+00  0.00000000000E+00  0.45593999997E+02  0.45594000000E+02  0.51100000000E-03 0. -1.
         11   -1    0    0    0    0 -0.00000000000E+00 -0.00000000000E+00 -0.45593999997E+02  0.45594000000E+02  0.51100000000E-03 0.  1.
    9900012    2    1    2    0    0 -0.38618315069E+00  0.57344086751E+00 -0.95656719419E+00  0.90007748903E+02  0.90000010389E+02 0.  0.
         12    1    1    2    0    0  0.38618315069E+00 -0.57344086751E+00  0.95656719419E+00  0.11802510968E+01  0.00000000000E+00 0. -1.
         11    1    3    3    0    0 -0.29658509998E+02 -0.17526542670E+02  0.59639718468E+00  0.34455226065E+02  0.51100000000E-03 0. -1.
        -11    1    3    3    0    0 -0.76282804391E+01 -0.60337722435E+01 -0.56879222879E+01  0.11267188210E+02  0.51100000000E-03 0.  1.
        -12    1    3    3    0    0  0.36900607287E+02  0.24133755781E+02  0.41349579091E+01  0.44285334629E+02  0.00000000000E+00 0.  1.
</event>
<event>
 7    1  0.3568207E-015  0.9000776E+02  0.7816164E-02  0.1186339E+00
        -11   -1    0    0    0    0  0.00000000000E+00  0.00000000000E+00  0.45593999997E+02  0.45594000000E+02  0.51100000000E-03 0.  1.
         11   -1    0    0    0    0 -0.00000000000E+00 -0.00000000000E+00 -0.45593999997E+02  0.45594000000E+02  0.51100000000E-03 0. -1.
    9900012    2    1    2    0    0  0.81322309753E+00  0.84590185388E+00  0.12683037457E+00  0.90007759475E+02  0.90000021100E+02 0.  0.
         12    1    1    2    0    0 -0.81322309753E+00 -0.84590185388E+00 -0.12683037457E+00  0.11802405249E+01  0.00000000000E+00 0. -1.
         11    1    3    3    0    0 -0.75875932738E+01 -0.33754340645E+02 -0.12170085388E+02  0.36674760568E+02  0.51100000000E-03 0. -1.
        -11    1    3    3    0    0 -0.50658633031E+01 -0.28167356327E+01 -0.70359599075E+01  0.91160135318E+01  0.51100000000E-03 0.  1.
        -12    1    3    3    0    0  0.13466679674E+02  0.37416978132E+02  0.19332875670E+02  0.44216985375E+02  0.00000000000E+00 0.  1.
</event>
<event>
 7    1  0.3568207E-015  0.9000731E+02  0.7816164E-02  0.1186340E+00
        -11   -1    0    0    0    0  0.00000000000E+00  0.00000000000E+00  0.45593999997E+02  0.45594000000E+02  0.51100000000E-03 0. -1.
         11   -1    0    0    0    0 -0.00000000000E+00 -0.00000000000E+00 -0.45593999997E+02  0.45594000000E+02  0.51100000000E-03 0.  1.
    9900012    2    1    2    0    0  0.45146994238E+00  0.65540234342E+00 -0.87215260488E+00  0.90007310580E+02  0.89999566278E+02 0.  0.
         12    1    1    2    0    0 -0.45146994238E+00 -0.65540234342E+00  0.87215260488E+00  0.11806894201E+01  0.00000000000E+00 0. -1.
         11    1    3    3    0    0  0.74069519395E+01 -0.58933880498E+01  0.26740721684E+01  0.98359352358E+01  0.51100000000E-03 0. -1.
        -11    1    3    3    0    0 -0.16074437157E+02 -0.98084881211E+01 -0.37179221558E+02  0.41675994110E+02  0.51100000000E-03 0.  1.
         12    1    3    3    0    0  0.91189551600E+01  0.16357278514E+02  0.33632996785E+02  0.38495381234E+02  0.00000000000E+00 0. -1.
</event>
<event>
 7    1  0.3568207E-015  0.9000771E+02  0.7816164E-02  0.1186339E+00
        -11   -1    0    0    0    0  0.00000000000E+00  0.00000000000E+00  0.45593999997E+02  0.45594000000E+02  0.51100000000E-03 0.  1.
         11   -1    0    0    0    0 -0.00000000000E+00 -0.00000000000E+00 -0.45593999997E+02  0.45594000000E+02  0.51100000000E-03 0. -1.
    9900012    2    1    2    0    0 -0.11066542999E+01  0.35930573598E+00 -0.19826979251E+00  0.90007705434E+02  0.89999966346E+02 0.  0.
         12    1    1    2    0    0  0.11066542999E+01 -0.35930573598E+00  0.19826979251E+00  0.11802945658E+01  0.00000000000E+00 0. -1.
         11    1    3    3    0    0 -0.17338217260E+00 -0.50456943756E+01  0.30769314676E+01  0.59124107289E+01  0.51100000000E-03 0. -1.
        -11    1    3    3    0    0  0.21589693098E+02  0.13676673481E+01  0.34034463452E+02  0.40327782790E+02  0.51100000000E-03 0.  1.
         12    1    3    3    0    0 -0.22522965225E+02  0.40373327635E+01 -0.37309664712E+02  0.43767511916E+02  0.00000000000E+00 0. -1.
</event>
<event>
 7    1  0.3568207E-015  0.9000776E+02  0.7816164E-02  0.1186339E+00
        -11   -1    0    0    0    0  0.00000000000E+00  0.00000000000E+00  0.45593999997E+02  0.45594000000E+02  0.51100000000E-03 0.  1.
         11   -1    0    0    0    0 -0.00000000000E+00 -0.00000000000E+00 -0.45593999997E+02  0.45594000000E+02  0.51100000000E-03 0. -1.
    9900012    2    1    2    0    0 -0.32040422008E+00 -0.75664650831E+00  0.84723015530E+00  0.90007757763E+02  0.90000019365E+02 0.  0.
         12    1    1    2    0    0  0.32040422008E+00  0.75664650831E+00 -0.84723015530E+00  0.11802422374E+01  0.00000000000E+00 0. -1.
         11    1    3    3    0    0 -0.22197527231E+02 -0.65019575852E+01 -0.28166850685E+02  0.36446908585E+02  0.51100000000E-03 0. -1.
        -11    1    3    3    0    0  0.42894173121E+01 -0.41995847454E+01 -0.88204290347E+01  0.10669375873E+02  0.51100000000E-03 0.  1.
        -12    1    3    3    0    0  0.17587705699E+02  0.99448958223E+01  0.37834509875E+02  0.42891473304E+02  0.00000000000E+00 0.  1.
</event>
<event>
 7    1  0.3568207E-015  0.9000793E+02  0.7816164E-02  0.1186339E+00
        -11   -1    0    0    0    0  0.00000000000E+00  0.00000000000E+00  0.45593999997E+02  0.45594000000E+02  0.51100000000E-03 0. -1.
         11   -1    0    0    0    0 -0.00000000000E+00 -0.00000000000E+00 -0.45593999997E+02  0.45594000000E+02  0.51100000000E-03 0.  1.
    9900012    2    1    2    0    0  0.85517815171E+00 -0.62505080856E+00  0.52013671281E+00  0.90007932042E+02  0.90000195945E+02 0.  0.
         12    1    1    2    0    0 -0.85517815171E+00  0.62505080856E+00 -0.52013671281E+00  0.11800679576E+01  0.00000000000E+00 0. -1.
         11    1    3    3    0    0 -0.33165643906E+02  0.22729362912E+01  0.15517730690E+02  0.36686866058E+02  0.51100000000E-03 0. -1.
        -11    1    3    3    0    0  0.29503536623E+01  0.14587529843E+02 -0.67249949715E+00  0.14898082746E+02  0.51100000000E-03 0.  1.
        -12    1    3    3    0    0  0.31070468396E+02 -0.17485516943E+02 -0.14325094480E+02  0.38422983239E+02  0.00000000000E+00 0.  1.
</event>
<event>
 7    1  0.3568207E-015  0.9000768E+02  0.7816164E-02  0.1186339E+00
        -11   -1    0    0    0    0  0.00000000000E+00  0.00000000000E+00  0.45593999997E+02  0.45594000000E+02  0.51100000000E-03 0.  1.
         11   -1    0    0    0    0 -0.00000000000E+00 -0.00000000000E+00 -0.45593999997E+02  0.45594000000E+02  0.51100000000E-03 0. -1.
    9900012    2    1    2    0    0 -0.77603477249E+00 -0.61362946904E+00 -0.64372833798E+00  0.90007679168E+02  0.89999939733E+02 0.  0.
         12    1    1    2    0    0  0.77603477249E+00  0.61362946904E+00  0.64372833798E+00  0.11803208320E+01  0.00000000000E+00 0. -1.
         11    1    3    3    0    0 -0.51844852249E+01  0.15975926880E+01  0.73945367815E+01  0.91711702590E+01  0.51100000000E-03 0. -1.
        -11    1    3    3    0    0 -0.12801288162E+02  0.35097037394E+02  0.50897460142E+01  0.37703852949E+02  0.51100000000E-03 0.  1.
         12    1    3    3    0    0  0.17209738615E+02 -0.37308259551E+02 -0.13128011134E+02  0.43132655960E+02  0.00000000000E+00 0. -1.
</event>
<event>
 7    1  0.3568207E-015  0.9000780E+02  0.7816164E-02  0.1186339E+00
        -11   -1    0    0    0    0  0.00000000000E+00  0.00000000000E+00  0.45593999997E+02  0.45594000000E+02  0.51100000000E-03 0.  1.
         11   -1    0    0    0    0 -0.00000000000E+00 -0.00000000000E+00 -0.45593999997E+02  0.45594000000E+02  0.51100000000E-03 0. -1.
    9900012    2    1    2    0    0 -0.13488807626E+00 -0.10859135703E+01  0.44212528754E+00  0.90007797541E+02  0.90000059668E+02 0.  0.
         12    1    1    2    0    0  0.13488807626E+00  0.10859135703E+01 -0.44212528754E+00  0.11802024594E+01  0.00000000000E+00 0. -1.
         11    1    3    3    0    0 -0.32896999026E+02 -0.49121501704E+01 -0.20750098171E+02  0.39203422536E+02  0.51100000000E-03 0. -1.
        -11    1    3    3    0    0  0.34631505161E+01  0.64041311835E+01 -0.69732559266E+01  0.10081299826E+02  0.51100000000E-03 0.  1.
        -12    1    3    3    0    0  0.29298960433E+02 -0.25778945834E+01  0.28165479385E+02  0.40723075178E+02  0.00000000000E+00 0.  1.
</event>
<event>
 7    1  0.3568207E-015  0.9000773E+02  0.7816164E-02  0.1186339E+00
        -11   -1    0    0    0    0  0.00000000000E+00  0.00000000000E+00  0.45593999997E+02  0.45594000000E+02  0.51100000000E-03 0.  1.
         11   -1    0    0    0    0 -0.00000000000E+00 -0.00000000000E+00 -0.45593999997E+02  0.45594000000E+02  0.51100000000E-03 0. -1.
    9900012    2    1    2    0    0 -0.11287201817E+01 -0.20127682432E+00 -0.28020409411E+00  0.90007730563E+02  0.89999991807E+02 0.  0.
         12    1    1    2    0    0  0.11287201817E+01  0.20127682432E+00  0.28020409411E+00  0.11802694366E+01  0.00000000000E+00 0. -1.
         11    1    3    3    0    0 -0.76160635980E+01  0.25763182883E+01 -0.21837533209E+01  0.83313035883E+01  0.51100000000E-03 0. -1.
        -11    1    3    3    0    0 -0.28045938366E+02 -0.20902029858E+02  0.18174285414E+02  0.39417942128E+02  0.51100000000E-03 0.  1.
         12    1    3    3    0    0  0.34533281783E+02  0.18124434745E+02 -0.16270736187E+02  0.42258484847E+02  0.00000000000E+00 0. -1.
</event>
<event>
 7    1  0.3568207E-015  0.9000772E+02  0.7816164E-02  0.1186339E+00
        -11   -1    0    0    0    0  0.00000000000E+00  0.00000000000E+00  0.45593999997E+02  0.45594000000E+02  0.51100000000E-03 0.  1.
         11   -1    0    0    0    0 -0.00000000000E+00 -0.00000000000E+00 -0.45593999997E+02  0.45594000000E+02  0.51100000000E-03 0. -1.
    9900012    2    1    2    0    0 -0.13777366981E+00 -0.83253198567E+00  0.82521578100E+00  0.90007715214E+02  0.89999976255E+02 0.  0.
         12    1    1    2    0    0  0.13777366981E+00  0.83253198567E+00 -0.82521578100E+00  0.11802847862E+01  0.00000000000E+00 0. -1.
         11    1    3    3    0    0  0.55943434490E+01 -0.35264082655E+01  0.49049173448E+01  0.82334955092E+01  0.51100000000E-03 0. -1.
        -11    1    3    3    0    0 -0.61744667956E+01  0.37653548355E+01  0.38502716074E+02  0.39176026886E+02  0.51100000000E-03 0.  1.
         12    1    3    3    0    0  0.44234967676E+00 -0.10714785557E+01 -0.42582417638E+02  0.42598192819E+02  0.00000000000E+00 0. -1.
</event>
<event>
 7    1  0.3568207E-015  0.9000784E+02  0.7816164E-02  0.1186339E+00
        -11   -1    0    0    0    0  0.00000000000E+00  0.00000000000E+00  0.45593999997E+02  0.45594000000E+02  0.51100000000E-03 0.  1.
         11   -1    0    0    0    0 -0.00000000000E+00 -0.00000000000E+00 -0.45593999997E+02  0.45594000000E+02  0.51100000000E-03 0. -1.
    9900012    2    1    2    0    0 -0.11143364604E+01  0.38713132735E+00 -0.33980633615E-01  0.90007842767E+02  0.90000105491E+02 0.  0.
         12    1    1    2    0    0  0.11143364604E+01 -0.38713132735E+00  0.33980633615E-01  0.11801572332E+01  0.00000000000E+00 0. -1.
         11    1    3    3    0    0  0.80733680843E+01  0.20139871054E+01  0.49525230778E-01  0.83209295932E+01  0.51100000000E-03 0. -1.
        -11    1    3    3    0    0  0.32409202744E+02 -0.95039661943E+01  0.14712934852E+02  0.36839547339E+02  0.51100000000E-03 0.  1.
         12    1    3    3    0    0 -0.41596907288E+02  0.78771104163E+01 -0.14796440716E+02  0.44847365835E+02  0.00000000000E+00 0. -1.
</event>
<event>
 7    1  0.3568207E-015  0.9000828E+02  0.7816164E-02  0.1186338E+00
        -11   -1    0    0    0    0  0.00000000000E+00  0.00000000000E+00  0.45593999997E+02  0.45594000000E+02  0.51100000000E-03 0. -1.
         11   -1    0    0    0    0 -0.00000000000E+00 -0.00000000000E+00 -0.45593999997E+02  0.45594000000E+02  0.51100000000E-03 0.  1.
    9900012    2    1    2    0    0 -0.10243584384E-01 -0.40595700737E+00 -0.11076234167E+01  0.90008281535E+02  0.90000550050E+02 0.  0.
         12    1    1    2    0    0  0.10243584384E-01  0.40595700737E+00  0.11076234167E+01  0.11797184647E+01  0.00000000000E+00 0. -1.
         11    1    3    3    0    0  0.84658819384E+01 -0.37884500482E+01 -0.47845708911E+01  0.10436265119E+02  0.51100000000E-03 0. -1.
        -11    1    3    3    0    0  0.30874172465E+02 -0.15770174581E+02 -0.47861168134E+01  0.34997426279E+02  0.51100000000E-03 0.  1.
         12    1    3    3    0    0 -0.39350297988E+02  0.19152667622E+02  0.84630642878E+01  0.44574590137E+02  0.00000000000E+00 0. -1.
</event>
<event>
 7    1  0.3568207E-015  0.9000769E+02  0.7816164E-02  0.1186339E+00
        -11   -1    0    0    0    0  0.00000000000E+00  0.00000000000E+00  0.45593999997E+02  0.45594000000E+02  0.51100000000E-03 0.  1.
         11   -1    0    0    0    0 -0.00000000000E+00 -0.00000000000E+00 -0.45593999997E+02  0.45594000000E+02  0.51100000000E-03 0. -1.
    9900012    2    1    2    0    0 -0.57340793698E+00 -0.76503285947E-01  0.10288240486E+01  0.90007691423E+02  0.89999952149E+02 0.  0.
         12    1    1    2    0    0  0.57340793698E+00  0.76503285947E-01 -0.10288240486E+01  0.11803085774E+01  0.00000000000E+00 0. -1.
         11    1    3    3    0    0  0.70664205991E+01  0.15064348593E+01 -0.30884971086E+02  0.31718844325E+02  0.51100000000E-03 0. -1.
        -11    1    3    3    0    0 -0.37989201990E+01  0.39171409371E+01 -0.12359348590E+02  0.13510339953E+02  0.51100000000E-03 0.  1.
        -12    1    3    3    0    0 -0.38409083371E+01 -0.55000790823E+01  0.44273143725E+02  0.44778507144E+02  0.00000000000E+00 0.  1.
</event>
<event>
 7    1  0.3568207E-015  0.9000779E+02  0.7816164E-02  0.1186339E+00
        -11   -1    0    0    0    0  0.00000000000E+00  0.00000000000E+00  0.45593999997E+02  0.45594000000E+02  0.51100000000E-03 0. -1.
         11   -1    0    0    0    0 -0.00000000000E+00 -0.00000000000E+00 -0.45593999997E+02  0.45594000000E+02  0.51100000000E-03 0.  1.
    9900012    2    1    2    0    0  0.11292450977E+01 -0.33711809236E+00 -0.63663219163E-01  0.90007789805E+02  0.90000051830E+02 0.  0.
         12    1    1    2    0    0 -0.11292450977E+01  0.33711809236E+00  0.63663219163E-01  0.11802101950E+01  0.00000000000E+00 0. -1.
         11    1    3    3    0    0  0.80338470570E+01  0.46394909764E+01 -0.18578715314E+01  0.94614619348E+01  0.51100000000E-03 0. -1.
        -11    1    3    3    0    0  0.33364489082E+02 -0.27472311529E+01 -0.15218503536E+02  0.36774165671E+02  0.51100000000E-03 0.  1.
         12    1    3    3    0    0 -0.40269091041E+02 -0.22293779158E+01  0.17012711848E+02  0.43772162199E+02  0.00000000000E+00 0. -1.
</event>
<event>
 7    1  0.3568207E-015  0.9000770E+02  0.7816164E-02  0.1186339E+00
        -11   -1    0    0    0    0  0.00000000000E+00  0.00000000000E+00  0.45593999997E+02  0.45594000000E+02  0.51100000000E-03 0.  1.
         11   -1    0    0    0    0 -0.00000000000E+00 -0.00000000000E+00 -0.45593999997E+02  0.45594000000E+02  0.51100000000E-03 0. -1.
    9900012    2    1    2    0    0 -0.13817451299E+00  0.13599585529E+00  0.11642702546E+01  0.90007698219E+02  0.89999959035E+02 0.  0.
         12    1    1    2    0    0  0.13817451299E+00 -0.13599585529E+00 -0.11642702546E+01  0.11803017811E+01  0.00000000000E+00 0. -1.
         11    1    3    3    0    0 -0.20134208481E+02  0.47204938960E+01 -0.30506792434E+02  0.36855580292E+02  0.51100000000E-03 0. -1.
        -11    1    3    3    0    0 -0.10242751082E+01 -0.56596402170E+01 -0.70389418595E+01  0.90899598264E+01  0.51100000000E-03 0.  1.
        -12    1    3    3    0    0  0.21020309076E+02  0.10751421763E+01  0.38710004548E+02  0.44062158101E+02  0.00000000000E+00 0.  1.
</event>
<event>
 7    1  0.3568207E-015  0.9000781E+02  0.7816164E-02  0.1186339E+00
        -11   -1    0    0    0    0  0.00000000000E+00  0.00000000000E+00  0.45593999997E+02  0.45594000000E+02  0.51100000000E-03 0.  1.
         11   -1    0    0    0    0 -0.00000000000E+00 -0.00000000000E+00 -0.45593999997E+02  0.45594000000E+02  0.51100000000E-03 0. -1.
    9900012    2    1    2    0    0 -0.84114610298E+00 -0.73509696069E+00  0.38071521163E+00  0.90007814260E+02  0.90000076608E+02 0.  0.
         12    1    1    2    0    0  0.84114610298E+00  0.73509696069E+00 -0.38071521163E+00  0.11801857399E+01  0.00000000000E+00 0. -1.
         11    1    3    3    0    0 -0.35403617604E+02 -0.13648287177E+02 -0.12152474116E+01  0.37962727891E+02  0.51100000000E-03 0. -1.
        -11    1    3    3    0    0 -0.10123626425E+01 -0.97706864447E+01  0.61258519453E+00  0.98420756247E+01  0.51100000000E-03 0.  1.
        -12    1    3    3    0    0  0.35574834144E+02  0.22683876661E+02  0.98337742874E+00  0.42203010745E+02  0.00000000000E+00 0.  1.
</event>
<event>
 7    1  0.3568207E-015  0.9000776E+02  0.7816164E-02  0.1186339E+00
        -11   -1    0    0    0    0  0.00000000000E+00  0.00000000000E+00  0.45593999997E+02  0.45594000000E+02  0.51100000000E-03 0.  1.
         11   -1    0    0    0    0 -0.00000000000E+00 -0.00000000000E+00 -0.45593999997E+02  0.45594000000E+02  0.51100000000E-03 0. -1.
    9900012    2    1    2    0    0  0.42169750213E+00 -0.42804515719E+00  0.10158304930E+01  0.90007761452E+02  0.90000023103E+02 0.  0.
         12    1    1    2    0    0 -0.42169750213E+00  0.42804515719E+00 -0.10158304930E+01  0.11802385481E+01  0.00000000000E+00 0. -1.
         11    1    3    3    0    0  0.30563114054E+02  0.23784498301E+02  0.56328770965E+01  0.39134838760E+02  0.51100000000E-03 0. -1.
        -11    1    3    3    0    0  0.47461558101E+00  0.40023653825E+00  0.92076552213E+01  0.92285624109E+01  0.51100000000E-03 0.  1.
        -12    1    3    3    0    0 -0.30616032132E+02 -0.24612779997E+02 -0.13824701825E+02  0.41644360281E+02  0.00000000000E+00 0.  1.
</event>
<event>
 7    1  0.3568207E-015  0.9000775E+02  0.7816164E-02  0.1186339E+00
        -11   -1    0    0    0    0  0.00000000000E+00  0.00000000000E+00  0.45593999997E+02  0.45594000000E+02  0.51100000000E-03 0.  1.
         11   -1    0    0    0    0 -0.00000000000E+00 -0.00000000000E+00 -0.45593999997E+02  0.45594000000E+02  0.51100000000E-03 0. -1.
    9900012    2    1    2    0    0  0.85190292516E+00 -0.27608659465E+00 -0.76878525543E+00  0.90007748683E+02  0.90000010166E+02 0.  0.
         12    1    1    2    0    0 -0.85190292516E+00  0.27608659465E+00  0.76878525543E+00  0.11802513167E+01  0.00000000000E+00 0. -1.
         11    1    3    3    0    0 -0.77670355833E+01 -0.31965776372E+01  0.32279430276E+01  0.89980312732E+01  0.51100000000E-03 0. -1.
        -11    1    3    3    0    0  0.76209517940E+01  0.99809847853E+01  0.37167915143E+02  0.39232038947E+02  0.51100000000E-03 0.  1.
         12    1    3    3    0    0  0.99798671449E+00 -0.70604937428E+01 -0.41164643426E+02  0.41777678464E+02  0.00000000000E+00 0. -1.
</event>
<event>
 7    1  0.3568207E-015  0.9000766E+02  0.7816164E-02  0.1186339E+00
        -11   -1    0    0    0    0  0.00000000000E+00  0.00000000000E+00  0.45593999997E+02  0.45594000000E+02  0.51100000000E-03 0.  1.
         11   -1    0    0    0    0 -0.00000000000E+00 -0.00000000000E+00 -0.45593999997E+02  0.45594000000E+02  0.51100000000E-03 0. -1.
    9900012    2    1    2    0    0  0.63691665642E+00  0.85397893088E+00  0.50818455974E+00  0.90007663443E+02  0.89999923800E+02 0.  0.
         12    1    1    2    0    0 -0.63691665642E+00 -0.85397893088E+00 -0.50818455974E+00  0.11803365572E+01  0.00000000000E+00 0. -1.
         11    1    3    3    0    0 -0.54683518137E+01 -0.29499288168E+01  0.60137608768E+01  0.86469804977E+01  0.51100000000E-03 0. -1.
        -11    1    3    3    0    0  0.32574011830E+02  0.98210983224E+01  0.23719507939E+02  0.41474513572E+02  0.51100000000E-03 0.  1.
         12    1    3    3    0    0 -0.26468743360E+02 -0.60171905747E+01 -0.29225084256E+02  0.39886169373E+02  0.00000000000E+00 0. -1.
</event>
<event>
 7    1  0.3568207E-015  0.9000765E+02  0.7816164E-02  0.1186339E+00
        -11   -1    0    0    0    0  0.00000000000E+00  0.00000000000E+00  0.45593999997E+02  0.45594000000E+02  0.51100000000E-03 0.  1.
         11   -1    0    0    0    0 -0.00000000000E+00 -0.00000000000E+00 -0.45593999997E+02  0.45594000000E+02  0.51100000000E-03 0. -1.
    9900012    2    1    2    0    0 -0.26191480946E+00 -0.83341679749E-01  0.11479045495E+01  0.90007648333E+02  0.89999908491E+02 0.  0.
         12    1    1    2    0    0  0.26191480946E+00  0.83341679749E-01 -0.11479045495E+01  0.11803516670E+01  0.00000000000E+00 0. -1.
         11    1    3    3    0    0  0.79969986139E+01  0.39054428865E+01 -0.10183756295E+01  0.89577653550E+01  0.51100000000E-03 0. -1.
        -11    1    3    3    0    0 -0.38176476772E+02  0.18840692419E+02 -0.45758329192E+01  0.42817675284E+02  0.51100000000E-03 0.  1.
         12    1    3    3    0    0  0.29917563349E+02 -0.22829476985E+02  0.67421130982E+01  0.38232207694E+02  0.00000000000E+00 0. -1.
</event>
<event>
 7    1  0.3568207E-015  0.9000791E+02  0.7816164E-02  0.1186339E+00
        -11   -1    0    0    0    0  0.00000000000E+00  0.00000000000E+00  0.45593999997E+02  0.45594000000E+02  0.51100000000E-03 0.  1.
         11   -1    0    0    0    0 -0.00000000000E+00 -0.00000000000E+00 -0.45593999997E+02  0.45594000000E+02  0.51100000000E-03 0. -1.
    9900012    2    1    2    0    0 -0.17453490417E+00  0.83829921892E+00 -0.81204392005E+00  0.90007905368E+02  0.90000168918E+02 0.  0.
         12    1    1    2    0    0  0.17453490417E+00 -0.83829921892E+00  0.81204392005E+00  0.11800946324E+01  0.00000000000E+00 0. -1.
         11    1    3    3    0    0  0.14608446548E+02  0.46336099845E+01 -0.27866668910E+02  0.31802960372E+02  0.51100000000E-03 0. -1.
        -11    1    3    3    0    0 -0.34698947839E+01 -0.74151455578E+01 -0.13587124973E+02  0.15862992112E+02  0.51100000000E-03 0.  1.
        -12    1    3    3    0    0 -0.11313086668E+02  0.36198347922E+01  0.40641749963E+02  0.42341952883E+02  0.00000000000E+00 0.  1.
</event>
<event>
 7    1  0.3568207E-015  0.9000780E+02  0.7816164E-02  0.1186339E+00
        -11   -1    0    0    0    0  0.00000000000E+00  0.00000000000E+00  0.45593999997E+02  0.45594000000E+02  0.51100000000E-03 0. -1.
         11   -1    0    0    0    0 -0.00000000000E+00 -0.00000000000E+00 -0.45593999997E+02  0.45594000000E+02  0.51100000000E-03 0.  1.
    9900012    2    1    2    0    0  0.97358857584E+00 -0.25878736396E+00  0.61484117566E+00  0.90007798625E+02  0.90000060767E+02 0.  0.
         12    1    1    2    0    0 -0.97358857584E+00  0.25878736396E+00 -0.61484117566E+00  0.11802013752E+01  0.00000000000E+00 0. -1.
         11    1    3    3    0    0  0.20501989789E+02 -0.23906880408E+02 -0.18078898903E+02  0.36314144654E+02  0.51100000000E-03 0. -1.
        -11    1    3    3    0    0  0.18249175645E+01 -0.92681626665E+01 -0.15028255465E+01  0.95649175749E+01  0.51100000000E-03 0.  1.
        -12    1    3    3    0    0 -0.21353318778E+02  0.32916255711E+02  0.20196565625E+02  0.44128736396E+02  0.00000000000E+00 0.  1.
</event>
<event>
 7    1  0.3568207E-015  0.9000777E+02  0.7816164E-02  0.1186339E+00
        -11   -1    0    0    0    0  0.00000000000E+00  0.00000000000E+00  0.45593999997E+02  0.45594000000E+02  0.51100000000E-03 0.  1.
         11   -1    0    0    0    0 -0.00000000000E+00 -0.00000000000E+00 -0.45593999997E+02  0.45594000000E+02  0.51100000000E-03 0. -1.
    9900012    2    1    2    0    0 -0.14608700895E+00  0.80469858702E+00 -0.85091594115E+00  0.90007771561E+02  0.90000033345E+02 0.  0.
         12    1    1    2    0    0  0.14608700895E+00 -0.80469858702E+00  0.85091594115E+00  0.11802284393E+01  0.00000000000E+00 0. -1.
         11    1    3    3    0    0  0.34978253029E+02 -0.65361991684E+01 -0.22232659195E+02  0.41958208013E+02  0.51100000000E-03 0. -1.
        -11    1    3    3    0    0 -0.44935021127E+01  0.87605825673E+01 -0.12688736701E+01  0.99272054883E+01  0.51100000000E-03 0.  1.
        -12    1    3    3    0    0 -0.30630837925E+02 -0.14196848119E+01  0.22650616924E+02  0.38122358059E+02  0.00000000000E+00 0.  1.
</event>
<event>
 7    1  0.3568207E-015  0.9000768E+02  0.7816164E-02  0.1186339E+00
        -11   -1    0    0    0    0  0.00000000000E+00  0.00000000000E+00  0.45593999997E+02  0.45594000000E+02  0.51100000000E-03 0. -1.
         11   -1    0    0    0    0 -0.00000000000E+00 -0.00000000000E+00 -0.45593999997E+02  0.45594000000E+02  0.51100000000E-03 0.  1.
    9900012    2    1    2    0    0 -0.53498448708E+00 -0.43887751546E+00  0.95620277258E+00  0.90007684103E+02  0.89999944733E+02 0.  0.
         12    1    1    2    0    0  0.53498448708E+00  0.43887751546E+00 -0.95620277258E+00  0.11803158972E+01  0.00000000000E+00 0. -1.
         11    1    3    3    0    0  0.84715398539E+01 -0.49802047231E-01  0.22487492515E+01  0.87650636733E+01  0.51100000000E-03 0. -1.
        -11    1    3    3    0    0  0.30315908582E+02  0.20083995605E+02  0.40460467661E+01  0.36589502420E+02  0.51100000000E-03 0.  1.
         12    1    3    3    0    0 -0.39322432923E+02 -0.20473071073E+02 -0.53385932450E+01  0.44653118010E+02  0.00000000000E+00 0. -1.
</event>
<event>
 7    1  0.3568207E-015  0.9000752E+02  0.7816164E-02  0.1186339E+00
        -11   -1    0    0    0    0  0.00000000000E+00  0.00000000000E+00  0.45593999997E+02  0.45594000000E+02  0.51100000000E-03 0.  1.
         11   -1    0    0    0    0 -0.00000000000E+00 -0.00000000000E+00 -0.45593999997E+02  0.45594000000E+02  0.51100000000E-03 0. -1.
    9900012    2    1    2    0    0 -0.83906833036E+00  0.82715138937E+00 -0.72972400026E-01  0.90007517025E+02  0.89999775449E+02 0.  0.
         12    1    1    2    0    0  0.83906833036E+00 -0.82715138937E+00  0.72972400026E-01  0.11804829754E+01  0.00000000000E+00 0. -1.
         11    1    3    3    0    0 -0.12162177805E+02  0.33582799781E+02 -0.21534745601E+02  0.41706933218E+02  0.51100000000E-03 0. -1.
        -11    1    3    3    0    0 -0.61223531016E+01 -0.49849362806E+01 -0.17938612480E+01  0.80963408810E+01  0.51100000000E-03 0.  1.
        -12    1    3    3    0    0  0.17445462577E+02 -0.27770712111E+02  0.23255634449E+02  0.40204242926E+02  0.00000000000E+00 0.  1.
</event>
<event>
 7    1  0.3568207E-015  0.9000786E+02  0.7816164E-02  0.1186339E+00
        -11   -1    0    0    0    0  0.00000000000E+00  0.00000000000E+00  0.45593999997E+02  0.45594000000E+02  0.51100000000E-03 0.  1.
         11   -1    0    0    0    0 -0.00000000000E+00 -0.00000000000E+00 -0.45593999997E+02  0.45594000000E+02  0.51100000000E-03 0. -1.
    9900012    2    1    2    0    0  0.25080487826E+00  0.11375303201E+01 -0.18937553014E+00  0.90007855345E+02  0.90000118235E+02 0.  0.
         12    1    1    2    0    0 -0.25080487826E+00 -0.11375303201E+01  0.18937553014E+00  0.11801446553E+01  0.00000000000E+00 0. -1.
         11    1    3    3    0    0 -0.36270230479E+02 -0.10851297367E+02  0.21239382014E+02  0.43409579843E+02  0.51100000000E-03 0. -1.
        -11    1    3    3    0    0  0.10828153179E+02  0.14612468842E+00  0.44376418476E+00  0.10838227743E+02  0.51100000000E-03 0.  1.
        -12    1    3    3    0    0  0.25692882178E+02  0.11842702998E+02 -0.21872521729E+02  0.35760047759E+02  0.00000000000E+00 0.  1.
</event>
<event>
 7    1  0.3568207E-015  0.9000777E+02  0.7816164E-02  0.1186339E+00
        -11   -1    0    0    0    0  0.00000000000E+00  0.00000000000E+00  0.45593999997E+02  0.45594000000E+02  0.51100000000E-03 0. -1.
         11   -1    0    0    0    0 -0.00000000000E+00 -0.00000000000E+00 -0.45593999997E+02  0.45594000000E+02  0.51100000000E-03 0.  1.
    9900012    2    1    2    0    0 -0.53834865587E+00  0.55837698463E+00 -0.88957617409E+00  0.90007767014E+02  0.90000028738E+02 0.  0.
         12    1    1    2    0    0  0.53834865587E+00 -0.55837698463E+00  0.88957617409E+00  0.11802329862E+01  0.00000000000E+00 0. -1.
         11    1    3    3    0    0  0.30471427836E+02  0.24321224332E+01  0.73359657993E+01  0.31436277266E+02  0.51100000000E-03 0. -1.
        -11    1    3    3    0    0  0.99655550663E+01  0.54016306091E+01  0.80318949595E+01  0.13892488543E+02  0.51100000000E-03 0.  1.
        -12    1    3    3    0    0 -0.40975331558E+02 -0.72753760577E+01 -0.16257436933E+02  0.44679001205E+02  0.00000000000E+00 0.  1.
</event>
<event>
 7    1  0.3568207E-015  0.9000768E+02  0.7816164E-02  0.1186339E+00
        -11   -1    0    0    0    0  0.00000000000E+00  0.00000000000E+00  0.45593999997E+02  0.45594000000E+02  0.51100000000E-03 0.  1.
         11   -1    0    0    0    0 -0.00000000000E+00 -0.00000000000E+00 -0.45593999997E+02  0.45594000000E+02  0.51100000000E-03 0. -1.
    9900012    2    1    2    0    0 -0.40257815949E-01 -0.88266384505E-01  0.11763238813E+01  0.90007682449E+02  0.89999943058E+02 0.  0.
         12    1    1    2    0    0  0.40257815949E-01  0.88266384505E-01 -0.11763238813E+01  0.11803175506E+01  0.00000000000E+00 0. -1.
         11    1    3    3    0    0  0.18109830420E+02  0.33933510747E+02  0.75840038914E+01  0.39204160809E+02  0.51100000000E-03 0. -1.
        -11    1    3    3    0    0 -0.56037589309E+01  0.61454259390E+01 -0.10446537601E+01  0.83821045011E+01  0.51100000000E-03 0.  1.
        -12    1    3    3    0    0 -0.12546329305E+02 -0.40167203071E+02 -0.53630262500E+01  0.42421417139E+02  0.00000000000E+00 0.  1.
</event>
<event>
 7    1  0.3568207E-015  0.9000772E+02  0.7816164E-02  0.1186339E+00
        -11   -1    0    0    0    0  0.00000000000E+00  0.00000000000E+00  0.45593999997E+02  0.45594000000E+02  0.51100000000E-03 0.  1.
         11   -1    0    0    0    0 -0.00000000000E+00 -0.00000000000E+00 -0.45593999997E+02  0.45594000000E+02  0.51100000000E-03 0. -1.
    9900012    2    1    2    0    0  0.16191799279E+00 -0.11622176405E+01 -0.12690705062E+00  0.90007715001E+02  0.89999976039E+02 0.  0.
         12    1    1    2    0    0 -0.16191799279E+00  0.11622176405E+01  0.12690705062E+00  0.11802849994E+01  0.00000000000E+00 0. -1.
         11    1    3    3    0    0 -0.18545036091E+02  0.29648226637E+02 -0.16223099162E+02  0.38550287327E+02  0.51100000000E-03 0. -1.
        -11    1    3    3    0    0  0.61776779953E+01  0.67846885963E+01  0.41278943003E+01  0.10061571268E+02  0.51100000000E-03 0.  1.
        -12    1    3    3    0    0  0.12529276088E+02 -0.37595132874E+02  0.11968297811E+02  0.41395856406E+02  0.00000000000E+00 0.  1.
</event>
<event>
 7    1  0.3568207E-015  0.9000796E+02  0.7816164E-02  0.1186339E+00
        -11   -1    0    0    0    0  0.00000000000E+00  0.00000000000E+00  0.45593999997E+02  0.45594000000E+02  0.51100000000E-03 0.  1.
         11   -1    0    0    0    0 -0.00000000000E+00 -0.00000000000E+00 -0.45593999997E+02  0.45594000000E+02  0.51100000000E-03 0. -1.
    9900012    2    1    2    0    0  0.98729666891E+00  0.13478334828E+00  0.63211399087E+00  0.90007962136E+02  0.90000226436E+02 0.  0.
         12    1    1    2    0    0 -0.98729666891E+00 -0.13478334828E+00 -0.63211399087E+00  0.11800378642E+01  0.00000000000E+00 0. -1.
         11    1    3    3    0    0  0.81102453482E+01  0.66670127970E+01  0.46584874204E+01  0.11485932463E+02  0.51100000000E-03 0. -1.
        -11    1    3    3    0    0  0.34984075833E+02 -0.14501913140E+01 -0.80229978162E+01  0.35921541044E+02  0.51100000000E-03 0.  1.
         12    1    3    3    0    0 -0.42107024513E+02 -0.50820381347E+01  0.39966243867E+01  0.42600488629E+02  0.00000000000E+00 0. -1.
</event>
<event>
 7    1  0.5337283E-015  0.9000732E+02  0.7816164E-02  0.1186340E+00
        -11   -1    0    0    0    0  0.00000000000E+00  0.00000000000E+00  0.45593999997E+02  0.45594000000E+02  0.51100000000E-03 0.  1.
         11   -1    0    0    0    0 -0.00000000000E+00 -0.00000000000E+00 -0.45593999997E+02  0.45594000000E+02  0.51100000000E-03 0. -1.
    9900012    2    1    2    0    0  0.11327702256E+01  0.30476878906E+00  0.13401375528E+00  0.90007317111E+02  0.89999572895E+02 0.  0.
         12    1    1    2    0    0 -0.11327702256E+01 -0.30476878906E+00 -0.13401375528E+00  0.11806828894E+01  0.00000000000E+00 0. -1.
         11    1    3    3    0    0 -0.53948543926E+01  0.17079885449E+01  0.79343819763E+01  0.97455680385E+01  0.51100000000E-03 0. -1.
        -11    1    3    3    0    0 -0.62526761705E+01 -0.17181989541E+02  0.31273781607E+02  0.36226594377E+02  0.51100000000E-03 0.  1.
         12    1    3    3    0    0  0.12780300789E+02  0.15778769785E+02 -0.39074149828E+02  0.44035154695E+02  0.00000000000E+00 0. -1.
</event>
<event>
 7    1  0.3568207E-015  0.9000762E+02  0.7816164E-02  0.1186339E+00
        -11   -1    0    0    0    0  0.00000000000E+00  0.00000000000E+00  0.45593999997E+02  0.45594000000E+02  0.51100000000E-03 0.  1.
         11   -1    0    0    0    0 -0.00000000000E+00 -0.00000000000E+00 -0.45593999997E+02  0.45594000000E+02  0.51100000000E-03 0. -1.
    9900012    2    1    2    0    0 -0.67862895907E+00 -0.78405229126E+00  0.56392749814E+00  0.90007623161E+02  0.89999882986E+02 0.  0.
         12    1    1    2    0    0  0.67862895907E+00  0.78405229126E+00 -0.56392749814E+00  0.11803768393E+01  0.00000000000E+00 0. -1.
         11    1    3    3    0    0 -0.23882667000E+02  0.39435463138E+01 -0.26162005358E+01  0.24347029512E+02  0.51100000000E-03 0. -1.
        -11    1    3    3    0    0 -0.14170834021E+02  0.99849019041E+00  0.19791070599E+02  0.24361773237E+02  0.51100000000E-03 0.  1.
        -12    1    3    3    0    0  0.37374872062E+02 -0.57260887955E+01 -0.16610942566E+02  0.41298820412E+02  0.00000000000E+00 0.  1.
</event>
<event>
 7    1  0.3568207E-015  0.9000788E+02  0.7816164E-02  0.1186339E+00
        -11   -1    0    0    0    0  0.00000000000E+00  0.00000000000E+00  0.45593999997E+02  0.45594000000E+02  0.51100000000E-03 0. -1.
         11   -1    0    0    0    0 -0.00000000000E+00 -0.00000000000E+00 -0.45593999997E+02  0.45594000000E+02  0.51100000000E-03 0.  1.
    9900012    2    1    2    0    0  0.69225565309E+00  0.13721860613E+00 -0.94584740658E+00  0.90007883840E+02  0.90000147106E+02 0.  0.
         12    1    1    2    0    0 -0.69225565309E+00 -0.13721860613E+00  0.94584740658E+00  0.11801161602E+01  0.00000000000E+00 0. -1.
         11    1    3    3    0    0 -0.48514906601E+01 -0.33954345502E+01 -0.75052501787E+01  0.95600584682E+01  0.51100000000E-03 0. -1.
        -11    1    3    3    0    0 -0.20400088548E+02  0.34157142867E+02  0.64900525014E+01  0.40311224285E+02  0.51100000000E-03 0.  1.
         12    1    3    3    0    0  0.25943834861E+02 -0.30624489711E+02  0.69350270728E-01  0.40136601087E+02  0.00000000000E+00 0. -1.
</event>
<event>
 7    1  0.3568207E-015  0.9000776E+02  0.7816164E-02  0.1186339E+00
        -11   -1    0    0    0    0  0.00000000000E+00  0.00000000000E+00  0.45593999997E+02  0.45594000000E+02  0.51100000000E-03 0.  1.
         11   -1    0    0    0    0 -0.00000000000E+00 -0.00000000000E+00 -0.45593999997E+02  0.45594000000E+02  0.51100000000E-03 0. -1.
    9900012    2    1    2    0    0  0.54528975055E+00  0.10085596311E+01 -0.28007891834E+00  0.90007755262E+02  0.90000016831E+02 0.  0.
         12    1    1    2    0    0 -0.54528975055E+00 -0.10085596311E+01  0.28007891834E+00  0.11802447382E+01  0.00000000000E+00 0. -1.
         11    1    3    3    0    0  0.50730283290E+01 -0.68020081030E+01 -0.56058821539E+01  0.10169997328E+02  0.51100000000E-03 0. -1.
        -11    1    3    3    0    0 -0.34041813124E+02 -0.14383256953E+02  0.17587994361E+02  0.40927505021E+02  0.51100000000E-03 0.  1.
         12    1    3    3    0    0  0.29514074545E+02  0.22193824688E+02 -0.12262191126E+02  0.38910252913E+02  0.00000000000E+00 0. -1.
</event>
<event>
 7    1  0.3568207E-015  0.9000777E+02  0.7816164E-02  0.1186339E+00
        -11   -1    0    0    0    0  0.00000000000E+00  0.00000000000E+00  0.45593999997E+02  0.45594000000E+02  0.51100000000E-03 0.  1.
         11   -1    0    0    0    0 -0.00000000000E+00 -0.00000000000E+00 -0.45593999997E+02  0.45594000000E+02  0.51100000000E-03 0. -1.
    9900012    2    1    2    0    0  0.44857263424E+00 -0.83215163494E+00  0.70658085913E+00  0.90007766861E+02  0.90000028584E+02 0.  0.
         12    1    1    2    0    0 -0.44857263424E+00  0.83215163494E+00 -0.70658085913E+00  0.11802331389E+01  0.00000000000E+00 0. -1.
         11    1    3    3    0    0  0.26299076324E+02 -0.17529584307E+02  0.13039433540E+02  0.34189977608E+02  0.51100000000E-03 0. -1.
        -11    1    3    3    0    0 -0.14638116734E+02  0.58248360441E+01  0.16632837498E+02  0.22909702311E+02  0.51100000000E-03 0.  1.
         12    1    3    3    0    0 -0.11212386956E+02  0.10872596628E+02 -0.28965690179E+02  0.32908086943E+02  0.00000000000E+00 0. -1.
</event>
<event>
 7    1  0.3568207E-015  0.9000788E+02  0.7816164E-02  0.1186339E+00
        -11   -1    0    0    0    0  0.00000000000E+00  0.00000000000E+00  0.45593999997E+02  0.45594000000E+02  0.51100000000E-03 0.  1.
         11   -1    0    0    0    0 -0.00000000000E+00 -0.00000000000E+00 -0.45593999997E+02  0.45594000000E+02  0.51100000000E-03 0. -1.
    9900012    2    1    2    0    0  0.10341069350E+01 -0.40557697983E+00  0.39852123415E+00  0.90007877543E+02  0.90000140726E+02 0.  0.
         12    1    1    2    0    0 -0.10341069350E+01  0.40557697983E+00 -0.39852123415E+00  0.11801224571E+01  0.00000000000E+00 0. -1.
         11    1    3    3    0    0 -0.26152138767E+02 -0.20187577369E+02 -0.22767394502E+02  0.40122648152E+02  0.51100000000E-03 0. -1.
        -11    1    3    3    0    0 -0.35489871482E+01  0.52485458793E+01 -0.29745654269E+01  0.69993273509E+01  0.51100000000E-03 0.  1.
        -12    1    3    3    0    0  0.30735232850E+02  0.14533454510E+02  0.26140481163E+02  0.42885902040E+02  0.00000000000E+00 0.  1.
</event>
<event>
 7    1  0.3568207E-015  0.9000773E+02  0.7816164E-02  0.1186339E+00
        -11   -1    0    0    0    0  0.00000000000E+00  0.00000000000E+00  0.45593999997E+02  0.45594000000E+02  0.51100000000E-03 0.  1.
         11   -1    0    0    0    0 -0.00000000000E+00 -0.00000000000E+00 -0.45593999997E+02  0.45594000000E+02  0.51100000000E-03 0. -1.
    9900012    2    1    2    0    0 -0.11011970766E+01 -0.22672154232E+00  0.35917424106E+00  0.90007727237E+02  0.89999988437E+02 0.  0.
         12    1    1    2    0    0  0.11011970766E+01  0.22672154232E+00 -0.35917424106E+00  0.11802727628E+01  0.00000000000E+00 0. -1.
         11    1    3    3    0    0 -0.17953966428E+02 -0.32944212105E+02 -0.22664666356E+01  0.37587270358E+02  0.51100000000E-03 0. -1.
        -11    1    3    3    0    0  0.32071428149E+01 -0.81822442729E+01 -0.21305241731E+01  0.90428988654E+01  0.51100000000E-03 0.  1.
        -12    1    3    3    0    0  0.13645626536E+02  0.40899734836E+02  0.47561650498E+01  0.43377558013E+02  0.00000000000E+00 0.  1.
</event>
<event>
 7    1  0.3568207E-015  0.9000776E+02  0.7816164E-02  0.1186339E+00
        -11   -1    0    0    0    0  0.00000000000E+00  0.00000000000E+00  0.45593999997E+02  0.45594000000E+02  0.51100000000E-03 0.  1.
         11   -1    0    0    0    0 -0.00000000000E+00 -0.00000000000E+00 -0.45593999997E+02  0.45594000000E+02  0.51100000000E-03 0. -1.
    9900012    2    1    2    0    0 -0.23471979383E+00 -0.95811769632E+00  0.64798863998E+00  0.90007757576E+02  0.90000019176E+02 0.  0.
         12    1    1    2    0    0  0.23471979383E+00  0.95811769632E+00 -0.64798863998E+00  0.11802424239E+01  0.00000000000E+00 0. -1.
         11    1    3    3    0    0 -0.24358172522E+02 -0.27228063211E+02 -0.79104138565E+01  0.37379976492E+02  0.51100000000E-03 0. -1.
        -11    1    3    3    0    0 -0.88214407690E+01  0.11998651616E+01  0.67803382702E+01  0.11190642563E+02  0.51100000000E-03 0.  1.
        -12    1    3    3    0    0  0.32944893497E+02  0.25070080353E+02  0.17780642263E+01  0.41437138522E+02  0.00000000000E+00 0.  1.
</event>
<event>
 7    1  0.3568207E-015  0.9000778E+02  0.7816164E-02  0.1186339E+00
        -11   -1    0    0    0    0  0.00000000000E+00  0.00000000000E+00  0.45593999997E+02  0.45594000000E+02  0.51100000000E-03 0.  1.
         11   -1    0    0    0    0 -0.00000000000E+00 -0.00000000000E+00 -0.45593999997E+02  0.45594000000E+02  0.51100000000E-03 0. -1.
    9900012    2    1    2    0    0 -0.47123401752E+00 -0.13825118851E+00  0.10731896952E+01  0.90007783489E+02  0.90000045431E+02 0.  0.
         12    1    1    2    0    0  0.47123401752E+00  0.13825118851E+00 -0.10731896952E+01  0.11802165108E+01  0.00000000000E+00 0. -1.
         11    1    3    3    0    0  0.70860554457E+01  0.33988921442E+02 -0.15806074794E+02  0.38148276019E+02  0.51100000000E-03 0. -1.
        -11    1    3    3    0    0 -0.11941107433E+02  0.66841920660E+00 -0.18483860053E+01  0.12101791688E+02  0.51100000000E-03 0.  1.
        -12    1    3    3    0    0  0.43838179699E+01 -0.34795591837E+02  0.18727650494E+02  0.39757715783E+02  0.00000000000E+00 0.  1.
</event>
<event>
 7    1  0.3568207E-015  0.9000748E+02  0.7816164E-02  0.1186340E+00
        -11   -1    0    0    0    0  0.00000000000E+00  0.00000000000E+00  0.45593999997E+02  0.45594000000E+02  0.51100000000E-03 0. -1.
         11   -1    0    0    0    0 -0.00000000000E+00 -0.00000000000E+00 -0.45593999997E+02  0.45594000000E+02  0.51100000000E-03 0.  1.
    9900012    2    1    2    0    0 -0.14460420299E+00 -0.11383041748E+00 -0.11660876380E+01  0.90007479725E+02  0.89999737657E+02 0.  0.
         12    1    1    2    0    0  0.14460420299E+00  0.11383041748E+00  0.11660876380E+01  0.11805202747E+01  0.00000000000E+00 0. -1.
         11    1    3    3    0    0  0.33152767550E+01 -0.99675113565E+01 -0.22182890920E+01  0.10736067686E+02  0.51100000000E-03 0. -1.
        -11    1    3    3    0    0 -0.24289329321E+02  0.19896629336E+02 -0.28048489079E+02  0.42101842212E+02  0.51100000000E-03 0.  1.
         12    1    3    3    0    0  0.20829448363E+02 -0.10042948397E+02  0.29100690533E+02  0.37169569827E+02  0.00000000000E+00 0. -1.
</event>
<event>
 7    1  0.3568207E-015  0.9000775E+02  0.7816164E-02  0.1186339E+00
        -11   -1    0    0    0    0  0.00000000000E+00  0.00000000000E+00  0.45593999997E+02  0.45594000000E+02  0.51100000000E-03 0.  1.
         11   -1    0    0    0    0 -0.00000000000E+00 -0.00000000000E+00 -0.45593999997E+02  0.45594000000E+02  0.51100000000E-03 0. -1.
    9900012    2    1    2    0    0 -0.84168876857E+00 -0.27059477089E+00  0.78186815691E+00  0.90007754548E+02  0.90000016108E+02 0.  0.
         12    1    1    2    0    0  0.84168876857E+00  0.27059477089E+00 -0.78186815691E+00  0.11802454524E+01  0.00000000000E+00 0. -1.
         11    1    3    3    0    0  0.20553988072E+01  0.35815918289E+02 -0.84893866082E+00  0.35884890473E+02  0.51100000000E-03 0. -1.
        -11    1    3    3    0    0 -0.38252556046E+01  0.67024146503E+01 -0.70497277605E+01  0.10452444898E+02  0.51100000000E-03 0.  1.
        -12    1    3    3    0    0  0.92816802889E+00 -0.42788927710E+02  0.86805345782E+01  0.43670419177E+02  0.00000000000E+00 0.  1.
</event>
<event>
 7    1  0.3568207E-015  0.9000781E+02  0.7816164E-02  0.1186339E+00
        -11   -1    0    0    0    0  0.00000000000E+00  0.00000000000E+00  0.45593999997E+02  0.45594000000E+02  0.51100000000E-03 0.  1.
         11   -1    0    0    0    0 -0.00000000000E+00 -0.00000000000E+00 -0.45593999997E+02  0.45594000000E+02  0.51100000000E-03 0. -1.
    9900012    2    1    2    0    0  0.47572232191E+00  0.99897587699E+00  0.41059588433E+00  0.90007807850E+02  0.90000070114E+02 0.  0.
         12    1    1    2    0    0 -0.47572232191E+00 -0.99897587699E+00 -0.41059588433E+00  0.11801921499E+01  0.00000000000E+00 0. -1.
         11    1    3    3    0    0  0.73951542391E+01 -0.37603720519E+00  0.64891002448E+01  0.98457164517E+01  0.51100000000E-03 0. -1.
        -11    1    3    3    0    0  0.53095838880E-01 -0.38585662555E+02  0.26235019504E+01  0.38674784249E+02  0.51100000000E-03 0.  1.
         12    1    3    3    0    0 -0.69725277560E+01  0.39960675637E+02 -0.87020063108E+01  0.41487307149E+02  0.00000000000E+00 0. -1.
</event>
<event>
 7    1  0.3568207E-015  0.9000784E+02  0.7816164E-02  0.1186339E+00
        -11   -1    0    0    0    0  0.00000000000E+00  0.00000000000E+00  0.45593999997E+02  0.45594000000E+02  0.51100000000E-03 0.  1.
         11   -1    0    0    0    0 -0.00000000000E+00 -0.00000000000E+00 -0.45593999997E+02  0.45594000000E+02  0.51100000000E-03 0. -1.
    9900012    2    1    2    0    0  0.83925444624E+00 -0.62889901375E-01  0.82733211360E+00  0.90007838320E+02  0.90000100986E+02 0.  0.
         12    1    1    2    0    0 -0.83925444624E+00  0.62889901375E-01 -0.82733211360E+00  0.11801616802E+01  0.00000000000E+00 0. -1.
         11    1    3    3    0    0 -0.25006860451E+02 -0.30840503280E+02 -0.69643492662E+01  0.40311063905E+02  0.51100000000E-03 0. -1.
        -11    1    3    3    0    0 -0.48557385704E+01  0.37579067404E+01  0.62618826161E+01  0.87699050333E+01  0.51100000000E-03 0.  1.
        -12    1    3    3    0    0  0.30701853467E+02  0.27019706638E+02  0.15297987637E+01  0.40926869382E+02  0.00000000000E+00 0.  1.
</event>
<event>
 7    1  0.3568207E-015  0.9000764E+02  0.7816164E-02  0.1186339E+00
        -11   -1    0    0    0    0  0.00000000000E+00  0.00000000000E+00  0.45593999997E+02  0.45594000000E+02  0.51100000000E-03 0. -1.
         11   -1    0    0    0    0 -0.00000000000E+00 -0.00000000000E+00 -0.45593999997E+02  0.45594000000E+02  0.51100000000E-03 0.  1.
    9900012    2    1    2    0    0  0.72590343298E+00  0.75129075840E-01 -0.92772285271E+00  0.90007639943E+02  0.89999899990E+02 0.  0.
         12    1    1    2    0    0 -0.72590343298E+00 -0.75129075840E-01  0.92772285271E+00  0.11803600567E+01  0.00000000000E+00 0. -1.
         11    1    3    3    0    0 -0.34248334492E+01  0.56396521144E+01 -0.82552056531E+01  0.10568045267E+02  0.51100000000E-03 0. -1.
        -11    1    3    3    0    0  0.25507484462E+02  0.21267777622E+02 -0.17081324502E+02  0.37345974021E+02  0.51100000000E-03 0.  1.
         12    1    3    3    0    0 -0.21356747580E+02 -0.26832300661E+02  0.24408807303E+02  0.42093620655E+02  0.00000000000E+00 0. -1.
</event>
<event>
 7    1  0.3568207E-015  0.9000776E+02  0.7816164E-02  0.1186339E+00
        -11   -1    0    0    0    0  0.00000000000E+00  0.00000000000E+00  0.45593999997E+02  0.45594000000E+02  0.51100000000E-03 0.  1.
         11   -1    0    0    0    0 -0.00000000000E+00 -0.00000000000E+00 -0.45593999997E+02  0.45594000000E+02  0.51100000000E-03 0. -1.
    9900012    2    1    2    0    0 -0.28229125764E+00 -0.82814967988E+00  0.79211711764E+00  0.90007758595E+02  0.90000020208E+02 0.  0.
         12    1    1    2    0    0  0.28229125764E+00  0.82814967988E+00 -0.79211711764E+00  0.11802414052E+01  0.00000000000E+00 0. -1.
         11    1    3    3    0    0  0.20685021289E+02  0.18976334985E+02 -0.31301496620E+02  0.42044679641E+02  0.51100000000E-03 0. -1.
        -11    1    3    3    0    0 -0.35032737316E+01  0.39541052727E+01  0.92919785824E+01  0.10688720297E+02  0.51100000000E-03 0.  1.
        -12    1    3    3    0    0 -0.17464038815E+02 -0.23758589938E+02  0.22801635155E+02  0.37274358657E+02  0.00000000000E+00 0.  1.
</event>
<event>
 7    1  0.3568207E-015  0.9000775E+02  0.7816164E-02  0.1186339E+00
        -11   -1    0    0    0    0  0.00000000000E+00  0.00000000000E+00  0.45593999997E+02  0.45594000000E+02  0.51100000000E-03 0. -1.
         11   -1    0    0    0    0 -0.00000000000E+00 -0.00000000000E+00 -0.45593999997E+02  0.45594000000E+02  0.51100000000E-03 0.  1.
    9900012    2    1    2    0    0 -0.31078477676E+00 -0.67385981859E+00 -0.91777671555E+00  0.90007750733E+02  0.90000012243E+02 0.  0.
         12    1    1    2    0    0  0.31078477676E+00  0.67385981859E+00  0.91777671555E+00  0.11802492670E+01  0.00000000000E+00 0. -1.
         11    1    3    3    0    0  0.27291974840E+02  0.11385000402E+01  0.29496868337E+02  0.40202155600E+02  0.51100000000E-03 0. -1.
        -11    1    3    3    0    0  0.52907592039E+01  0.12946744055E+01 -0.87144578475E+01  0.10276677022E+02  0.51100000000E-03 0.  1.
        -12    1    3    3    0    0 -0.32893518820E+02 -0.31070342643E+01 -0.21700187205E+02  0.39528918111E+02  0.00000000000E+00 0.  1.
</event>
<event>
 7    1  0.3568207E-015  0.9000773E+02  0.7816164E-02  0.1186339E+00
        -11   -1    0    0    0    0  0.00000000000E+00  0.00000000000E+00  0.45593999997E+02  0.45594000000E+02  0.51100000000E-03 0.  1.
         11   -1    0    0    0    0 -0.00000000000E+00 -0.00000000000E+00 -0.45593999997E+02  0.45594000000E+02  0.51100000000E-03 0. -1.
    9900012    2    1    2    0    0  0.92580323648E+00 -0.67435852239E+00  0.28488063191E+00  0.90007733918E+02  0.89999995206E+02 0.  0.
         12    1    1    2    0    0 -0.92580323648E+00  0.67435852239E+00 -0.28488063191E+00  0.11802660818E+01  0.00000000000E+00 0. -1.
         11    1    3    3    0    0 -0.79056591853E+01  0.30094536320E+02 -0.20185106094E+02  0.37089339058E+02  0.51100000000E-03 0. -1.
        -11    1    3    3    0    0  0.59281031158E+01  0.53863623511E+00  0.20634684089E+02  0.21476096555E+02  0.51100000000E-03 0.  1.
        -12    1    3    3    0    0  0.29033593060E+01 -0.31307531078E+02 -0.16469736317E+00  0.31442298305E+02  0.00000000000E+00 0.  1.
</event>
<event>
 7    1  0.3568207E-015  0.9000806E+02  0.7816164E-02  0.1186338E+00
        -11   -1    0    0    0    0  0.00000000000E+00  0.00000000000E+00  0.45593999997E+02  0.45594000000E+02  0.51100000000E-03 0.  1.
         11   -1    0    0    0    0 -0.00000000000E+00 -0.00000000000E+00 -0.45593999997E+02  0.45594000000E+02  0.51100000000E-03 0. -1.
    9900012    2    1    2    0    0 -0.68340270937E-01  0.10366373267E+01  0.55943320662E+00  0.90008062352E+02  0.90000327975E+02 0.  0.
         12    1    1    2    0    0  0.68340270937E-01 -0.10366373267E+01 -0.55943320662E+00  0.11799376477E+01  0.00000000000E+00 0. -1.
         11    1    3    3    0    0 -0.17681182192E+02 -0.15571570125E+02 -0.12765120424E+02  0.26796385942E+02  0.51100000000E-03 0. -1.
        -11    1    3    3    0    0  0.98041164215E+01 -0.20948779705E+02  0.80514051780E+01  0.24490757350E+02  0.51100000000E-03 0.  1.
         12    1    3    3    0    0  0.78087254993E+01  0.37556987158E+02  0.52731484526E+01  0.38720919060E+02  0.00000000000E+00 0. -1.
</event>
<event>
 7    1  0.3568207E-015  0.9000769E+02  0.7816164E-02  0.1186339E+00
        -11   -1    0    0    0    0  0.00000000000E+00  0.00000000000E+00  0.45593999997E+02  0.45594000000E+02  0.51100000000E-03 0.  1.
         11   -1    0    0    0    0 -0.00000000000E+00 -0.00000000000E+00 -0.45593999997E+02  0.45594000000E+02  0.51100000000E-03 0. -1.
    9900012    2    1    2    0    0 -0.11443432246E+01 -0.23670764174E+00 -0.16610576719E+00  0.90007685191E+02  0.89999945835E+02 0.  0.
         12    1    1    2    0    0  0.11443432246E+01  0.23670764174E+00  0.16610576719E+00  0.11803148094E+01  0.00000000000E+00 0. -1.
         11    1    3    3    0    0  0.52133985720E+01 -0.32057002242E+02 -0.27337944060E+02  0.42452256750E+02  0.51100000000E-03 0. -1.
        -11    1    3    3    0    0  0.77781930938E+01  0.10375892876E+02  0.60876134347E+01  0.14325448627E+02  0.51100000000E-03 0.  1.
        -12    1    3    3    0    0 -0.14135934890E+02  0.21444401725E+02  0.21084224859E+02  0.33229979814E+02  0.00000000000E+00 0.  1.
</event>
<event>
 7    1  0.3568207E-015  0.9000769E+02  0.7816164E-02  0.1186339E+00
        -11   -1    0    0    0    0  0.00000000000E+00  0.00000000000E+00  0.45593999997E+02  0.45594000000E+02  0.51100000000E-03 0. -1.
         11   -1    0    0    0    0 -0.00000000000E+00 -0.00000000000E+00 -0.45593999997E+02  0.45594000000E+02  0.51100000000E-03 0.  1.
    9900012    2    1    2    0    0  0.48755528647E+00 -0.83388974490E+00 -0.67826247601E+00  0.90007694001E+02  0.89999954762E+02 0.  0.
         12    1    1    2    0    0 -0.48755528647E+00  0.83388974490E+00  0.67826247601E+00  0.11803059986E+01  0.00000000000E+00 0. -1.
         11    1    3    3    0    0 -0.17765918599E+02 -0.70027288932E+01  0.34734662603E+02  0.39637896791E+02  0.51100000000E-03 0. -1.
        -11    1    3    3    0    0 -0.42164725623E+01  0.79020761076E+01 -0.70161731056E+00  0.89840811879E+01  0.51100000000E-03 0.  1.
        -12    1    3    3    0    0  0.22469946448E+02 -0.17332369593E+01 -0.34711307768E+02  0.41385716023E+02  0.00000000000E+00 0.  1.
</event>
<event>
 7    1  0.3568207E-015  0.9000769E+02  0.7816164E-02  0.1186339E+00
        -11   -1    0    0    0    0  0.00000000000E+00  0.00000000000E+00  0.45593999997E+02  0.45594000000E+02  0.51100000000E-03 0.  1.
         11   -1    0    0    0    0 -0.00000000000E+00 -0.00000000000E+00 -0.45593999997E+02  0.45594000000E+02  0.51100000000E-03 0. -1.
    9900012    2    1    2    0    0  0.47303663523E+00  0.10774764497E+01  0.91750232740E-01  0.90007687642E+02  0.89999948319E+02 0.  0.
         12    1    1    2    0    0 -0.47303663523E+00 -0.10774764497E+01 -0.91750232740E-01  0.11803123583E+01  0.00000000000E+00 0. -1.
         11    1    3    3    0    0 -0.19279757820E+02 -0.67822276991E+00 -0.33902566289E+02  0.39007089727E+02  0.51100000000E-03 0. -1.
        -11    1    3    3    0    0  0.46015592735E+01 -0.76785201900E+01 -0.33915796348E+01  0.95727129246E+01  0.51100000000E-03 0.  1.
        -12    1    3    3    0    0  0.15151235182E+02  0.94342194096E+01  0.37385896156E+02  0.41427884991E+02  0.00000000000E+00 0.  1.
</event>
<event>
 7    1  0.3568207E-015  0.9000799E+02  0.7816164E-02  0.1186339E+00
        -11   -1    0    0    0    0  0.00000000000E+00  0.00000000000E+00  0.45593999997E+02  0.45594000000E+02  0.51100000000E-03 0.  1.
         11   -1    0    0    0    0 -0.00000000000E+00 -0.00000000000E+00 -0.45593999997E+02  0.45594000000E+02  0.51100000000E-03 0. -1.
    9900012    2    1    2    0    0 -0.10765240827E+01  0.42397025897E+00 -0.23189293937E+00  0.90007987620E+02  0.90000252256E+02 0.  0.
         12    1    1    2    0    0  0.10765240827E+01 -0.42397025897E+00  0.23189293937E+00  0.11800123798E+01  0.00000000000E+00 0. -1.
         11    1    3    3    0    0 -0.18449110124E+00 -0.52779394869E+01  0.10737820074E+02  0.11966263510E+02  0.51100000000E-03 0. -1.
        -11    1    3    3    0    0 -0.26392389864E+02  0.22247522423E+02  0.15402216100E+02  0.37798660793E+02  0.51100000000E-03 0.  1.
         12    1    3    3    0    0  0.25500356882E+02 -0.16545612677E+02 -0.26371929114E+02  0.40243063317E+02  0.00000000000E+00 0. -1.
</event>
<event>
 7    1  0.3568207E-015  0.9000717E+02  0.7816164E-02  0.1186340E+00
        -11   -1    0    0    0    0  0.00000000000E+00  0.00000000000E+00  0.45593999997E+02  0.45594000000E+02  0.51100000000E-03 0.  1.
         11   -1    0    0    0    0 -0.00000000000E+00 -0.00000000000E+00 -0.45593999997E+02  0.45594000000E+02  0.51100000000E-03 0. -1.
    9900012    2    1    2    0    0  0.27234215515E-01 -0.44261855373E+00  0.10943968466E+01  0.90007170908E+02  0.89999424762E+02 0.  0.
         12    1    1    2    0    0 -0.27234215515E-01  0.44261855373E+00 -0.10943968466E+01  0.11808290919E+01  0.00000000000E+00 0. -1.
         11    1    3    3    0    0  0.27814042306E+01  0.66081352984E+01  0.53530151155E+01  0.89475378012E+01  0.51100000000E-03 0. -1.
        -11    1    3    3    0    0 -0.29173225418E+02 -0.32337005404E+02  0.34423924832E+01  0.43687630584E+02  0.51100000000E-03 0.  1.
         12    1    3    3    0    0  0.26419055403E+02  0.25286251552E+02 -0.77010107522E+01  0.37372002522E+02  0.00000000000E+00 0. -1.
</event>
<event>
 7    1  0.3568207E-015  0.9000776E+02  0.7816164E-02  0.1186339E+00
        -11   -1    0    0    0    0  0.00000000000E+00  0.00000000000E+00  0.45593999997E+02  0.45594000000E+02  0.51100000000E-03 0.  1.
         11   -1    0    0    0    0 -0.00000000000E+00 -0.00000000000E+00 -0.45593999997E+02  0.45594000000E+02  0.51100000000E-03 0. -1.
    9900012    2    1    2    0    0 -0.87103823907E-01 -0.98631412176E+00  0.64231774887E+00  0.90007756502E+02  0.90000018088E+02 0.  0.
         12    1    1    2    0    0  0.87103823907E-01  0.98631412176E+00 -0.64231774887E+00  0.11802434975E+01  0.00000000000E+00 0. -1.
         11    1    3    3    0    0 -0.87353456038E+01  0.13573352278E+01  0.16757737565E+01  0.89976018851E+01  0.51100000000E-03 0. -1.
        -11    1    3    3    0    0  0.14952590831E+02 -0.36363825891E+02  0.15995496366E+02  0.42447187307E+02  0.51100000000E-03 0.  1.
         12    1    3    3    0    0 -0.63043490512E+01  0.34020176541E+02 -0.17028952374E+02  0.38562967311E+02  0.00000000000E+00 0. -1.
</event>
<event>
 7    1  0.3568207E-015  0.9000790E+02  0.7816164E-02  0.1186339E+00
        -11   -1    0    0    0    0  0.00000000000E+00  0.00000000000E+00  0.45593999997E+02  0.45594000000E+02  0.51100000000E-03 0.  1.
         11   -1    0    0    0    0 -0.00000000000E+00 -0.00000000000E+00 -0.45593999997E+02  0.45594000000E+02  0.51100000000E-03 0. -1.
    9900012    2    1    2    0    0 -0.10650680280E+00  0.46382810247E+00  0.10798922858E+01  0.90007895108E+02  0.90000158523E+02 0.  0.
         12    1    1    2    0    0  0.10650680280E+00 -0.46382810247E+00 -0.10798922858E+01  0.11801048922E+01  0.00000000000E+00 0. -1.
         11    1    3    3    0    0 -0.74994193349E+01 -0.31221848723E+01 -0.39464811448E+01  0.90312813280E+01  0.51100000000E-03 0. -1.
        -11    1    3    3    0    0  0.11026784849E+01  0.31215802824E+02 -0.24764509977E+02  0.39861299532E+02  0.51100000000E-03 0.  1.
         12    1    3    3    0    0  0.62902340472E+01 -0.27629789849E+02  0.29790883407E+02  0.41115314247E+02  0.00000000000E+00 0. -1.
</event>
<event>
 7    1  0.3568207E-015  0.9000773E+02  0.7816164E-02  0.1186339E+00
        -11   -1    0    0    0    0  0.00000000000E+00  0.00000000000E+00  0.45593999997E+02  0.45594000000E+02  0.51100000000E-03 0. -1.
         11   -1    0    0    0    0 -0.00000000000E+00 -0.00000000000E+00 -0.45593999997E+02  0.45594000000E+02  0.51100000000E-03 0.  1.
    9900012    2    1    2    0    0 -0.24547020763E+00 -0.56055182796E-01 -0.11531014225E+01  0.90007728550E+02  0.89999989766E+02 0.  0.
         12    1    1    2    0    0  0.24547020763E+00  0.56055182796E-01  0.11531014225E+01  0.11802714505E+01  0.00000000000E+00 0. -1.
         11    1    3    3    0    0  0.49497590578E+01 -0.29298494215E+01  0.10290950801E+02  0.11789308759E+02  0.51100000000E-03 0. -1.
        -11    1    3    3    0    0 -0.48901220676E+01  0.33171811255E+02 -0.28006090345E+02  0.43687795234E+02  0.51100000000E-03 0.  1.
         12    1    3    3    0    0 -0.30510719782E+00 -0.30298017016E+02  0.16562038122E+02  0.34530624557E+02  0.00000000000E+00 0. -1.
</event>
<event>
 7    1  0.3568207E-015  0.9000775E+02  0.7816164E-02  0.1186339E+00
        -11   -1    0    0    0    0  0.00000000000E+00  0.00000000000E+00  0.45593999997E+02  0.45594000000E+02  0.51100000000E-03 0.  1.
         11   -1    0    0    0    0 -0.00000000000E+00 -0.00000000000E+00 -0.45593999997E+02  0.45594000000E+02  0.51100000000E-03 0. -1.
    9900012    2    1    2    0    0  0.80313142857E+00 -0.76823687211E+00 -0.39721998817E+00  0.90007749305E+02  0.90000010796E+02 0.  0.
         12    1    1    2    0    0 -0.80313142857E+00  0.76823687211E+00  0.39721998817E+00  0.11802506947E+01  0.00000000000E+00 0. -1.
         11    1    3    3    0    0 -0.15851819274E+02 -0.25258878948E+02 -0.21157902385E+02  0.36564299167E+02  0.51100000000E-03 0. -1.
        -11    1    3    3    0    0 -0.65212612100E+01  0.41759975407E+00 -0.73075744573E+01  0.98031567382E+01  0.51100000000E-03 0.  1.
        -12    1    3    3    0    0  0.23176211912E+02  0.24073042322E+02  0.28068256854E+02  0.43640293400E+02  0.00000000000E+00 0.  1.
</event>
<event>
 7    1  0.3568207E-015  0.9000775E+02  0.7816164E-02  0.1186339E+00
        -11   -1    0    0    0    0  0.00000000000E+00  0.00000000000E+00  0.45593999997E+02  0.45594000000E+02  0.51100000000E-03 0.  1.
         11   -1    0    0    0    0 -0.00000000000E+00 -0.00000000000E+00 -0.45593999997E+02  0.45594000000E+02  0.51100000000E-03 0. -1.
    9900012    2    1    2    0    0  0.11085049491E+01  0.36724000507E+00 -0.17128527002E+00  0.90007751260E+02  0.90000012777E+02 0.  0.
         12    1    1    2    0    0 -0.11085049491E+01 -0.36724000507E+00  0.17128527002E+00  0.11802487396E+01  0.00000000000E+00 0. -1.
         11    1    3    3    0    0  0.13646411517E+02 -0.34918341416E+02 -0.12509926476E+02  0.39522314902E+02  0.51100000000E-03 0. -1.
        -11    1    3    3    0    0  0.87440613374E+01  0.29383121011E+01 -0.15413893674E+01  0.93524418266E+01  0.51100000000E-03 0.  1.
        -12    1    3    3    0    0 -0.21281967906E+02  0.32347269320E+02  0.13880030574E+02  0.41132994531E+02  0.00000000000E+00 0.  1.
</event>
<event>
 7    1  0.3626299E-015  0.9000784E+02  0.7816164E-02  0.1186339E+00
        -11   -1    0    0    0    0  0.00000000000E+00  0.00000000000E+00  0.45593999997E+02  0.45594000000E+02  0.51100000000E-03 0.  1.
         11   -1    0    0    0    0 -0.00000000000E+00 -0.00000000000E+00 -0.45593999997E+02  0.45594000000E+02  0.51100000000E-03 0. -1.
    9900012    2    1    2    0    0 -0.79813221868E-01  0.10122739555E+01  0.60142627651E+00  0.90007838029E+02  0.90000100691E+02 0.  0.
         12    1    1    2    0    0  0.79813221868E-01 -0.10122739555E+01 -0.60142627651E+00  0.11801619709E+01  0.00000000000E+00 0. -1.
         11    1    3    3    0    0 -0.36412040261E+01 -0.78082939806E+01  0.32039883075E+01  0.91920271422E+01  0.51100000000E-03 0. -1.
        -11    1    3    3    0    0  0.24315982159E+02  0.31348620142E+02  0.18342171465E+02  0.43708560117E+02  0.51100000000E-03 0.  1.
         12    1    3    3    0    0 -0.20754591355E+02 -0.22528052206E+02 -0.20944733496E+02  0.37107250770E+02  0.00000000000E+00 0. -1.
</event>
<event>
 7    1  0.3568207E-015  0.9000735E+02  0.7816164E-02  0.1186340E+00
        -11   -1    0    0    0    0  0.00000000000E+00  0.00000000000E+00  0.45593999997E+02  0.45594000000E+02  0.51100000000E-03 0. -1.
         11   -1    0    0    0    0 -0.00000000000E+00 -0.00000000000E+00 -0.45593999997E+02  0.45594000000E+02  0.51100000000E-03 0.  1.
    9900012    2    1    2    0    0  0.84634878260E+00 -0.32083683602E+00 -0.75808205126E+00  0.90007351478E+02  0.89999607716E+02 0.  0.
         12    1    1    2    0    0 -0.84634878260E+00  0.32083683602E+00  0.75808205126E+00  0.11806485225E+01  0.00000000000E+00 0. -1.
         11    1    3    3    0    0 -0.67271916121E+01 -0.25047049373E+01 -0.75667999735E+01  0.10430010350E+02  0.51100000000E-03 0. -1.
        -11    1    3    3    0    0 -0.16512055893E+01 -0.49829329590E+01 -0.35397374424E+02  0.35784496883E+02  0.51100000000E-03 0.  1.
         12    1    3    3    0    0  0.92247459840E+01  0.71668010603E+01  0.42206092346E+02  0.43792844245E+02  0.00000000000E+00 0. -1.
</event>
<event>
 7    1  0.3568207E-015  0.9000777E+02  0.7816164E-02  0.1186339E+00
        -11   -1    0    0    0    0  0.00000000000E+00  0.00000000000E+00  0.45593999997E+02  0.45594000000E+02  0.51100000000E-03 0.  1.
         11   -1    0    0    0    0 -0.00000000000E+00 -0.00000000000E+00 -0.45593999997E+02  0.45594000000E+02  0.51100000000E-03 0. -1.
    9900012    2    1    2    0    0 -0.10655086693E+01  0.25566949358E+00  0.43847892528E+00  0.90007771470E+02  0.90000033254E+02 0.  0.
         12    1    1    2    0    0  0.10655086693E+01 -0.25566949358E+00 -0.43847892528E+00  0.11802285296E+01  0.00000000000E+00 0. -1.
         11    1    3    3    0    0  0.35637296485E-01  0.57359848782E+00  0.11416048218E+02  0.11430504907E+02  0.51100000000E-03 0. -1.
        -11    1    3    3    0    0 -0.19942406437E+02  0.12674174608E+02  0.25972998906E+02  0.35113116480E+02  0.51100000000E-03 0.  1.
         12    1    3    3    0    0  0.18841260472E+02 -0.12992103602E+02 -0.36950568200E+02  0.43464150083E+02  0.00000000000E+00 0. -1.
</event>
<event>
 7    1  0.3568207E-015  0.9000731E+02  0.7816164E-02  0.1186340E+00
        -11   -1    0    0    0    0  0.00000000000E+00  0.00000000000E+00  0.45593999997E+02  0.45594000000E+02  0.51100000000E-03 0.  1.
         11   -1    0    0    0    0 -0.00000000000E+00 -0.00000000000E+00 -0.45593999997E+02  0.45594000000E+02  0.51100000000E-03 0. -1.
    9900012    2    1    2    0    0 -0.10283831991E+01 -0.12982931118E+00  0.56534181018E+00  0.90007305706E+02  0.89999561340E+02 0.  0.
         12    1    1    2    0    0  0.10283831991E+01  0.12982931118E+00 -0.56534181018E+00  0.11806942943E+01  0.00000000000E+00 0. -1.
         11    1    3    3    0    0 -0.30266675301E+02  0.22519054307E+02 -0.33290781082E+01  0.37871654334E+02  0.51100000000E-03 0. -1.
        -11    1    3    3    0    0 -0.25937864297E+01  0.72053356606E+01 -0.24395966487E+01  0.80371774955E+01  0.51100000000E-03 0.  1.
        -12    1    3    3    0    0  0.31832078531E+02 -0.29854219279E+02  0.63340165671E+01  0.44098473877E+02  0.00000000000E+00 0.  1.
</event>
<event>
 7    1  0.3568207E-015  0.9000761E+02  0.7816164E-02  0.1186339E+00
        -11   -1    0    0    0    0  0.00000000000E+00  0.00000000000E+00  0.45593999997E+02  0.45594000000E+02  0.51100000000E-03 0. -1.
         11   -1    0    0    0    0 -0.00000000000E+00 -0.00000000000E+00 -0.45593999997E+02  0.45594000000E+02  0.51100000000E-03 0.  1.
    9900012    2    1    2    0    0 -0.57662665244E+00  0.10022575428E+00 -0.10250702303E+01  0.90007613421E+02  0.89999873118E+02 0.  0.
         12    1    1    2    0    0  0.57662665244E+00 -0.10022575428E+00  0.10250702303E+01  0.11803865787E+01  0.00000000000E+00 0. -1.
         11    1    3    3    0    0  0.10131456881E+02  0.30206819788E+01 -0.88487221180E+01  0.13786617480E+02  0.51100000000E-03 0. -1.
        -11    1    3    3    0    0  0.22490914219E+02  0.13304356453E+02 -0.17477541486E+02  0.31437423236E+02  0.51100000000E-03 0.  1.
         12    1    3    3    0    0 -0.33198997752E+02 -0.16224812678E+02  0.25301193374E+02  0.44783572706E+02  0.00000000000E+00 0. -1.
</event>
<event>
 7    1  0.3568207E-015  0.9000771E+02  0.7816164E-02  0.1186339E+00
        -11   -1    0    0    0    0  0.00000000000E+00  0.00000000000E+00  0.45593999997E+02  0.45594000000E+02  0.51100000000E-03 0.  1.
         11   -1    0    0    0    0 -0.00000000000E+00 -0.00000000000E+00 -0.45593999997E+02  0.45594000000E+02  0.51100000000E-03 0. -1.
    9900012    2    1    2    0    0  0.78388416924E+00  0.36653317818E+00 -0.80266637011E+00  0.90007705857E+02  0.89999966775E+02 0.  0.
         12    1    1    2    0    0 -0.78388416924E+00 -0.36653317818E+00  0.80266637011E+00  0.11802941427E+01  0.00000000000E+00 0. -1.
         11    1    3    3    0    0  0.23315426605E+02 -0.28879238908E+02 -0.56815522337E+01  0.37548629718E+02  0.51100000000E-03 0. -1.
        -11    1    3    3    0    0  0.92371629596E+01  0.15315353623E+01  0.42833142041E+01  0.10296482940E+02  0.51100000000E-03 0.  1.
        -12    1    3    3    0    0 -0.31768705395E+02  0.27714236724E+02  0.59557165948E+00  0.42162593199E+02  0.00000000000E+00 0.  1.
</event>
<event>
 7    1  0.3568207E-015  0.9000778E+02  0.7816164E-02  0.1186339E+00
        -11   -1    0    0    0    0  0.00000000000E+00  0.00000000000E+00  0.45593999997E+02  0.45594000000E+02  0.51100000000E-03 0. -1.
         11   -1    0    0    0    0 -0.00000000000E+00 -0.00000000000E+00 -0.45593999997E+02  0.45594000000E+02  0.51100000000E-03 0.  1.
    9900012    2    1    2    0    0  0.73059912649E+00 -0.73489591779E+00 -0.56487476032E+00  0.90007775196E+02  0.90000037028E+02 0.  0.
         12    1    1    2    0    0 -0.73059912649E+00  0.73489591779E+00  0.56487476032E+00  0.11802248042E+01  0.00000000000E+00 0. -1.
         11    1    3    3    0    0  0.29046370657E+02  0.10400123061E+02  0.24410440936E+02  0.39341121425E+02  0.51100000000E-03 0. -1.
        -11    1    3    3    0    0  0.95650142394E+00 -0.97302245230E+01  0.29231711129E+01  0.10204758393E+02  0.51100000000E-03 0.  1.
        -12    1    3    3    0    0 -0.29272272954E+02 -0.14047944556E+01 -0.27898486809E+02  0.40461895378E+02  0.00000000000E+00 0.  1.
</event>
<event>
 7    1  0.3568207E-015  0.9000785E+02  0.7816164E-02  0.1186339E+00
        -11   -1    0    0    0    0  0.00000000000E+00  0.00000000000E+00  0.45593999997E+02  0.45594000000E+02  0.51100000000E-03 0. -1.
         11   -1    0    0    0    0 -0.00000000000E+00 -0.00000000000E+00 -0.45593999997E+02  0.45594000000E+02  0.51100000000E-03 0.  1.
    9900012    2    1    2    0    0  0.30767006424E+00 -0.54356549497E+00 -0.10013098136E+01  0.90007853544E+02  0.90000116410E+02 0.  0.
         12    1    1    2    0    0 -0.30767006424E+00  0.54356549497E+00  0.10013098136E+01  0.11801464564E+01  0.00000000000E+00 0. -1.
         11    1    3    3    0    0  0.21793608727E+02  0.54992322364E+01 -0.31856615033E+02  0.38987778317E+02  0.51100000000E-03 0. -1.
        -11    1    3    3    0    0 -0.65081797116E+01 -0.10539804688E+02 -0.38354285712E+01  0.12967436084E+02  0.51100000000E-03 0.  1.
         12    1    3    3    0    0 -0.14977758951E+02  0.44970069565E+01  0.34690733790E+02  0.38052639142E+02  0.00000000000E+00 0. -1.
</event>
<event>
 7    1  0.3568207E-015  0.9000772E+02  0.7816164E-02  0.1186339E+00
        -11   -1    0    0    0    0  0.00000000000E+00  0.00000000000E+00  0.45593999997E+02  0.45594000000E+02  0.51100000000E-03 0. -1.
         11   -1    0    0    0    0 -0.00000000000E+00 -0.00000000000E+00 -0.45593999997E+02  0.45594000000E+02  0.51100000000E-03 0.  1.
    9900012    2    1    2    0    0  0.48974669091E+00 -0.81572268061E+00 -0.69843026014E+00  0.90007720312E+02  0.89999981420E+02 0.  0.
         12    1    1    2    0    0 -0.48974669091E+00  0.81572268061E+00  0.69843026014E+00  0.11802796877E+01  0.00000000000E+00 0. -1.
         11    1    3    3    0    0 -0.26589091299E+02  0.14747876493E+02 -0.18045855197E+02  0.35357213227E+02  0.51100000000E-03 0. -1.
        -11    1    3    3    0    0 -0.34621214599E+01  0.82749699298E+01 -0.46442034387E+01  0.10100991941E+02  0.51100000000E-03 0.  1.
        -12    1    3    3    0    0  0.30540959450E+02 -0.23838569103E+02  0.21991628376E+02  0.44549515144E+02  0.00000000000E+00 0.  1.
</event>
<event>
 7    1  0.3568207E-015  0.9000768E+02  0.7816164E-02  0.1186339E+00
        -11   -1    0    0    0    0  0.00000000000E+00  0.00000000000E+00  0.45593999997E+02  0.45594000000E+02  0.51100000000E-03 0. -1.
         11   -1    0    0    0    0 -0.00000000000E+00 -0.00000000000E+00 -0.45593999997E+02  0.45594000000E+02  0.51100000000E-03 0.  1.
    9900012    2    1    2    0    0  0.25430297493E+00 -0.73160149846E+00 -0.89063832134E+00  0.90007683358E+02  0.89999943978E+02 0.  0.
         12    1    1    2    0    0 -0.25430297493E+00  0.73160149846E+00  0.89063832134E+00  0.11803166419E+01  0.00000000000E+00 0. -1.
         11    1    3    3    0    0  0.24193060122E+02  0.21084732346E+02  0.23836697051E+02  0.39975720415E+02  0.51100000000E-03 0. -1.
        -11    1    3    3    0    0  0.67929625039E+01 -0.50449255384E+01 -0.41816012515E+01  0.94382944727E+01  0.51100000000E-03 0.  1.
        -12    1    3    3    0    0 -0.30731719651E+02 -0.16771408306E+02 -0.20545734121E+02  0.40593668470E+02  0.00000000000E+00 0.  1.
</event>
<event>
 7    1  0.3568207E-015  0.9000772E+02  0.7816164E-02  0.1186339E+00
        -11   -1    0    0    0    0  0.00000000000E+00  0.00000000000E+00  0.45593999997E+02  0.45594000000E+02  0.51100000000E-03 0.  1.
         11   -1    0    0    0    0 -0.00000000000E+00 -0.00000000000E+00 -0.45593999997E+02  0.45594000000E+02  0.51100000000E-03 0. -1.
    9900012    2    1    2    0    0  0.47501837198E+00 -0.16001035674E+00  0.10685569007E+01  0.90007720534E+02  0.89999981645E+02 0.  0.
         12    1    1    2    0    0 -0.47501837198E+00  0.16001035674E+00 -0.10685569007E+01  0.11802794660E+01  0.00000000000E+00 0. -1.
         11    1    3    3    0    0 -0.27513171897E+02  0.11925397235E+02 -0.27403649321E+02  0.40622034949E+02  0.51100000000E-03 0. -1.
        -11    1    3    3    0    0  0.18739843353E+01 -0.94821676158E+01 -0.12379402588E+01  0.97445275067E+01  0.51100000000E-03 0.  1.
        -12    1    3    3    0    0  0.26114205934E+02 -0.26032399755E+01  0.29710146480E+02  0.39641158078E+02  0.00000000000E+00 0.  1.
</event>
<event>
 7    1  0.3568207E-015  0.9000776E+02  0.7816164E-02  0.1186339E+00
        -11   -1    0    0    0    0  0.00000000000E+00  0.00000000000E+00  0.45593999997E+02  0.45594000000E+02  0.51100000000E-03 0.  1.
         11   -1    0    0    0    0 -0.00000000000E+00 -0.00000000000E+00 -0.45593999997E+02  0.45594000000E+02  0.51100000000E-03 0. -1.
    9900012    2    1    2    0    0 -0.10605152788E+01 -0.47787863743E+00 -0.19975706738E+00  0.90007761238E+02  0.90000022887E+02 0.  0.
         12    1    1    2    0    0  0.10605152788E+01  0.47787863743E+00  0.19975706738E+00  0.11802387618E+01  0.00000000000E+00 0. -1.
         11    1    3    3    0    0 -0.67659518229E+01 -0.71976270961E+01 -0.44529830559E+00  0.98884898102E+01  0.51100000000E-03 0. -1.
        -11    1    3    3    0    0 -0.19181115497E+02  0.70401792736E+01  0.33102190539E+02  0.38900312784E+02  0.51100000000E-03 0.  1.
         12    1    3    3    0    0  0.24886552042E+02 -0.32043081492E+00 -0.32856649301E+02  0.41218958644E+02  0.00000000000E+00 0. -1.
</event>
<event>
 7    1  0.3568207E-015  0.9000774E+02  0.7816164E-02  0.1186339E+00
        -11   -1    0    0    0    0  0.00000000000E+00  0.00000000000E+00  0.45593999997E+02  0.45594000000E+02  0.51100000000E-03 0.  1.
         11   -1    0    0    0    0 -0.00000000000E+00 -0.00000000000E+00 -0.45593999997E+02  0.45594000000E+02  0.51100000000E-03 0. -1.
    9900012    2    1    2    0    0  0.90111159724E+00  0.72435420750E+00  0.23734405360E+00  0.90007735907E+02  0.89999997221E+02 0.  0.
         12    1    1    2    0    0 -0.90111159724E+00 -0.72435420750E+00 -0.23734405360E+00  0.11802640926E+01  0.00000000000E+00 0. -1.
         11    1    3    3    0    0  0.55604907393E+00 -0.53832630189E+01  0.88665999100E+01  0.10387747856E+02  0.51100000000E-03 0. -1.
        -11    1    3    3    0    0 -0.38597456385E+02 -0.42225948637E+01 -0.30706606841E+01  0.38948978216E+02  0.51100000000E-03 0.  1.
         12    1    3    3    0    0  0.38942518908E+02  0.10330212090E+02 -0.55585951722E+01  0.40671009835E+02  0.00000000000E+00 0. -1.
</event>
<event>
 7    1  0.3568207E-015  0.9000783E+02  0.7816164E-02  0.1186339E+00
        -11   -1    0    0    0    0  0.00000000000E+00  0.00000000000E+00  0.45593999997E+02  0.45594000000E+02  0.51100000000E-03 0. -1.
         11   -1    0    0    0    0 -0.00000000000E+00 -0.00000000000E+00 -0.45593999997E+02  0.45594000000E+02  0.51100000000E-03 0.  1.
    9900012    2    1    2    0    0 -0.30126350959E-01  0.11793825129E+01  0.30807254134E-01  0.90007830607E+02  0.90000093171E+02 0.  0.
         12    1    1    2    0    0  0.30126350959E-01 -0.11793825129E+01 -0.30807254134E-01  0.11801693927E+01  0.00000000000E+00 0. -1.
         11    1    3    3    0    0  0.96883914907E+01  0.79957660839E+00 -0.46210079081E+01  0.10763733868E+02  0.51100000000E-03 0. -1.
        -11    1    3    3    0    0  0.22440660865E+01 -0.37852344845E+02  0.89305894436E+01  0.38956273833E+02  0.51100000000E-03 0.  1.
         12    1    3    3    0    0 -0.11962583928E+02  0.38232150750E+02 -0.42787742814E+01  0.40287822906E+02  0.00000000000E+00 0. -1.
</event>
<event>
 7    1  0.3568207E-015  0.9000733E+02  0.7816164E-02  0.1186340E+00
        -11   -1    0    0    0    0  0.00000000000E+00  0.00000000000E+00  0.45593999997E+02  0.45594000000E+02  0.51100000000E-03 0.  1.
         11   -1    0    0    0    0 -0.00000000000E+00 -0.00000000000E+00 -0.45593999997E+02  0.45594000000E+02  0.51100000000E-03 0. -1.
    9900012    2    1    2    0    0 -0.70492864572E+00 -0.63684643139E+00  0.70105200974E+00  0.90007334216E+02  0.89999590227E+02 0.  0.
         12    1    1    2    0    0  0.70492864572E+00  0.63684643139E+00 -0.70105200974E+00  0.11806657838E+01  0.00000000000E+00 0. -1.
         11    1    3    3    0    0  0.30405883979E+02 -0.20445199592E-01 -0.20924831371E+02  0.36910252867E+02  0.51100000000E-03 0. -1.
        -11    1    3    3    0    0  0.31299470547E+01  0.91977716742E+01 -0.25539541186E+01  0.10045807794E+02  0.51100000000E-03 0.  1.
        -12    1    3    3    0    0 -0.34240759679E+02 -0.98141729060E+01  0.24179837499E+02  0.43051273555E+02  0.00000000000E+00 0.  1.
</event>
<event>
 7    1  0.3568207E-015  0.9000760E+02  0.7816164E-02  0.1186339E+00
        -11   -1    0    0    0    0  0.00000000000E+00  0.00000000000E+00  0.45593999997E+02  0.45594000000E+02  0.51100000000E-03 0.  1.
         11   -1    0    0    0    0 -0.00000000000E+00 -0.00000000000E+00 -0.45593999997E+02  0.45594000000E+02  0.51100000000E-03 0. -1.
    9900012    2    1    2    0    0  0.89732488126E+00 -0.40973342716E+00  0.64829132813E+00  0.90007595379E+02  0.89999854838E+02 0.  0.
         12    1    1    2    0    0 -0.89732488126E+00  0.40973342716E+00 -0.64829132813E+00  0.11804046213E+01  0.00000000000E+00 0. -1.
         11    1    3    3    0    0  0.11645348472E+02 -0.19633218463E+00 -0.11190483188E+01  0.11700639160E+02  0.51100000000E-03 0. -1.
        -11    1    3    3    0    0 -0.31898530970E+01 -0.38269048695E+02  0.73790256905E+01  0.39104287120E+02  0.51100000000E-03 0.  1.
         12    1    3    3    0    0 -0.75581704935E+01  0.38055647452E+02 -0.56116860435E+01  0.39202669099E+02  0.00000000000E+00 0. -1.
</event>
<event>
 7    1  0.3843002E-015  0.9000774E+02  0.7816164E-02  0.1186339E+00
        -11   -1    0    0    0    0  0.00000000000E+00  0.00000000000E+00  0.45593999997E+02  0.45594000000E+02  0.51100000000E-03 0.  1.
         11   -1    0    0    0    0 -0.00000000000E+00 -0.00000000000E+00 -0.45593999997E+02  0.45594000000E+02  0.51100000000E-03 0. -1.
    9900012    2    1    2    0    0 -0.52748977319E+00 -0.52526758069E+00  0.91589379463E+00  0.90007740310E+02  0.90000001682E+02 0.  0.
         12    1    1    2    0    0  0.52748977319E+00  0.52526758069E+00 -0.91589379463E+00  0.11802596897E+01  0.00000000000E+00 0. -1.
         11    1    3    3    0    0  0.42184521993E+01  0.69223406718E+01 -0.47266061016E+01  0.93837596322E+01  0.51100000000E-03 0. -1.
        -11    1    3    3    0    0 -0.20757480621E+02  0.75927053192E+01  0.36545003025E+02  0.42709008677E+02  0.51100000000E-03 0.  1.
         12    1    3    3    0    0  0.16011538649E+02 -0.15040313572E+02 -0.30902503129E+02  0.37914972001E+02  0.00000000000E+00 0. -1.
</event>
<event>
 7    1  0.3568207E-015  0.9000778E+02  0.7816164E-02  0.1186339E+00
        -11   -1    0    0    0    0  0.00000000000E+00  0.00000000000E+00  0.45593999997E+02  0.45594000000E+02  0.51100000000E-03 0.  1.
         11   -1    0    0    0    0 -0.00000000000E+00 -0.00000000000E+00 -0.45593999997E+02  0.45594000000E+02  0.51100000000E-03 0. -1.
    9900012    2    1    2    0    0  0.11069907799E+01 -0.38253734999E+00  0.14543255268E+00  0.90007782207E+02  0.90000044132E+02 0.  0.
         12    1    1    2    0    0 -0.11069907799E+01  0.38253734999E+00 -0.14543255268E+00  0.11802177928E+01  0.00000000000E+00 0. -1.
         11    1    3    3    0    0 -0.33597125333E+01  0.24244776181E+02 -0.27329874777E+02  0.36688130178E+02  0.51100000000E-03 0. -1.
        -11    1    3    3    0    0 -0.77754820241E+01  0.21175556684E+01 -0.50159891463E+01  0.94922236643E+01  0.51100000000E-03 0.  1.
        -12    1    3    3    0    0  0.12242185337E+02 -0.26744869200E+02  0.32491296476E+02  0.43827428365E+02  0.00000000000E+00 0.  1.
</event>
<event>
 7    1  0.3568207E-015  0.9000772E+02  0.7816164E-02  0.1186339E+00
        -11   -1    0    0    0    0  0.00000000000E+00  0.00000000000E+00  0.45593999997E+02  0.45594000000E+02  0.51100000000E-03 0.  1.
         11   -1    0    0    0    0 -0.00000000000E+00 -0.00000000000E+00 -0.45593999997E+02  0.45594000000E+02  0.51100000000E-03 0. -1.
    9900012    2    1    2    0    0  0.69841666739E+00 -0.95086638742E+00  0.33541982765E-01  0.90007721307E+02  0.89999982428E+02 0.  0.
         12    1    1    2    0    0 -0.69841666739E+00  0.95086638742E+00 -0.33541982765E-01  0.11802786928E+01  0.00000000000E+00 0. -1.
         11    1    3    3    0    0 -0.93124458511E+01  0.34012042575E+01 -0.17225060356E+01  0.10062647039E+02  0.51100000000E-03 0. -1.
        -11    1    3    3    0    0 -0.17751141749E+01  0.21506819890E+02  0.31902406703E+02  0.38515683634E+02  0.51100000000E-03 0.  1.
         12    1    3    3    0    0  0.11785976693E+02 -0.25858890535E+02 -0.30146358684E+02  0.41429390634E+02  0.00000000000E+00 0. -1.
</event>
<event>
 7    1  0.3568207E-015  0.9000750E+02  0.7816164E-02  0.1186340E+00
        -11   -1    0    0    0    0  0.00000000000E+00  0.00000000000E+00  0.45593999997E+02  0.45594000000E+02  0.51100000000E-03 0.  1.
         11   -1    0    0    0    0 -0.00000000000E+00 -0.00000000000E+00 -0.45593999997E+02  0.45594000000E+02  0.51100000000E-03 0. -1.
    9900012    2    1    2    0    0 -0.87445698267E+00  0.64680247104E+00  0.45885060869E+00  0.90007503354E+02  0.89999761598E+02 0.  0.
         12    1    1    2    0    0  0.87445698267E+00 -0.64680247104E+00 -0.45885060869E+00  0.11804966464E+01  0.00000000000E+00 0. -1.
         11    1    3    3    0    0  0.28800489523E+02 -0.25739055390E+02 -0.13917039062E+02  0.41056682107E+02  0.51100000000E-03 0. -1.
        -11    1    3    3    0    0  0.20335021678E+01  0.10960862685E+02  0.83551103934E+00  0.11179164586E+02  0.51100000000E-03 0.  1.
        -12    1    3    3    0    0 -0.31708448673E+02  0.15424995176E+02  0.13540378631E+02  0.37771656661E+02  0.00000000000E+00 0.  1.
</event>
<event>
 7    1  0.6688029E-015  0.9000772E+02  0.7816164E-02  0.1186339E+00
        -11   -1    0    0    0    0  0.00000000000E+00  0.00000000000E+00  0.45593999997E+02  0.45594000000E+02  0.51100000000E-03 0. -1.
         11   -1    0    0    0    0 -0.00000000000E+00 -0.00000000000E+00 -0.45593999997E+02  0.45594000000E+02  0.51100000000E-03 0.  1.
    9900012    2    1    2    0    0 -0.42853986448E+00 -0.33962307382E+00 -0.10459776351E+01  0.90007720601E+02  0.89999981712E+02 0.  0.
         12    1    1    2    0    0  0.42853986448E+00  0.33962307382E+00  0.10459776351E+01  0.11802793995E+01  0.00000000000E+00 0. -1.
         11    1    3    3    0    0 -0.97253888926E+01 -0.10271877603E+00 -0.14029770304E+01  0.98266008908E+01  0.51100000000E-03 0. -1.
        -11    1    3    3    0    0  0.23271896308E+01 -0.35072478475E+02 -0.18755325648E+02  0.39840391544E+02  0.51100000000E-03 0.  1.
         12    1    3    3    0    0  0.69696593973E+01  0.34835574177E+02  0.19112325043E+02  0.40340728166E+02  0.00000000000E+00 0. -1.
</event>
<event>
 7    1  0.3568207E-015  0.9000792E+02  0.7816164E-02  0.1186339E+00
        -11   -1    0    0    0    0  0.00000000000E+00  0.00000000000E+00  0.45593999997E+02  0.45594000000E+02  0.51100000000E-03 0.  1.
         11   -1    0    0    0    0 -0.00000000000E+00 -0.00000000000E+00 -0.45593999997E+02  0.45594000000E+02  0.51100000000E-03 0. -1.
    9900012    2    1    2    0    0 -0.13178194705E+00  0.50852952048E+00  0.10567001531E+01  0.90007922050E+02  0.90000185821E+02 0.  0.
         12    1    1    2    0    0  0.13178194705E+00 -0.50852952048E+00 -0.10567001531E+01  0.11800779501E+01  0.00000000000E+00 0. -1.
         11    1    3    3    0    0  0.71779924974E+01  0.80051426830E+01 -0.10830268970E+00  0.10752563201E+02  0.51100000000E-03 0. -1.
        -11    1    3    3    0    0 -0.22486987544E+01  0.28662788577E+02  0.22906710453E+02  0.36760433609E+02  0.51100000000E-03 0.  1.
         12    1    3    3    0    0 -0.50610756900E+01 -0.36159401739E+02 -0.21741707610E+02  0.42494925239E+02  0.00000000000E+00 0. -1.
</event>
<event>
 7    1  0.3568207E-015  0.9000771E+02  0.7816164E-02  0.1186339E+00
        -11   -1    0    0    0    0  0.00000000000E+00  0.00000000000E+00  0.45593999997E+02  0.45594000000E+02  0.51100000000E-03 0.  1.
         11   -1    0    0    0    0 -0.00000000000E+00 -0.00000000000E+00 -0.45593999997E+02  0.45594000000E+02  0.51100000000E-03 0. -1.
    9900012    2    1    2    0    0  0.57802597386E+00 -0.35910719218E+00  0.96436673324E+00  0.90007713934E+02  0.89999974958E+02 0.  0.
         12    1    1    2    0    0 -0.57802597386E+00  0.35910719218E+00 -0.96436673324E+00  0.11802860662E+01  0.00000000000E+00 0. -1.
         11    1    3    3    0    0  0.21037217798E+02  0.92280444079E+01  0.58428641986E+01  0.23703594634E+02  0.51100000000E-03 0. -1.
        -11    1    3    3    0    0 -0.11859061738E+02  0.24101160269E+02  0.97605862690E+01  0.28579228755E+02  0.51100000000E-03 0.  1.
        -12    1    3    3    0    0 -0.86001300857E+01 -0.33688311869E+02 -0.14639083734E+02  0.37724890546E+02  0.00000000000E+00 0.  1.
</event>
<event>
 7    1  0.3568207E-015  0.9000779E+02  0.7816164E-02  0.1186339E+00
        -11   -1    0    0    0    0  0.00000000000E+00  0.00000000000E+00  0.45593999997E+02  0.45594000000E+02  0.51100000000E-03 0.  1.
         11   -1    0    0    0    0 -0.00000000000E+00 -0.00000000000E+00 -0.45593999997E+02  0.45594000000E+02  0.51100000000E-03 0. -1.
    9900012    2    1    2    0    0 -0.76195760746E+00  0.51953003718E-01  0.89978478755E+00  0.90007791894E+02  0.90000053947E+02 0.  0.
         12    1    1    2    0    0  0.76195760746E+00 -0.51953003718E-01 -0.89978478755E+00  0.11802081063E+01  0.00000000000E+00 0. -1.
         11    1    3    3    0    0 -0.36228611467E+02  0.15069996365E+01 -0.12973766421E+02  0.38511062724E+02  0.51100000000E-03 0. -1.
        -11    1    3    3    0    0 -0.32106394666E+01  0.56533808574E+01  0.10072317517E+02  0.11988348566E+02  0.51100000000E-03 0.  1.
        -12    1    3    3    0    0  0.38677293326E+02 -0.71084274902E+01  0.38012336914E+01  0.39508380604E+02  0.00000000000E+00 0.  1.
</event>
<event>
 7    1  0.3568207E-015  0.9000775E+02  0.7816164E-02  0.1186339E+00
        -11   -1    0    0    0    0  0.00000000000E+00  0.00000000000E+00  0.45593999997E+02  0.45594000000E+02  0.51100000000E-03 0.  1.
         11   -1    0    0    0    0 -0.00000000000E+00 -0.00000000000E+00 -0.45593999997E+02  0.45594000000E+02  0.51100000000E-03 0. -1.
    9900012    2    1    2    0    0 -0.24153045923E+00  0.53046054716E+00  0.10262845978E+01  0.90007751962E+02  0.90000013488E+02 0.  0.
         12    1    1    2    0    0  0.24153045923E+00 -0.53046054716E+00 -0.10262845978E+01  0.11802480377E+01  0.00000000000E+00 0. -1.
         11    1    3    3    0    0  0.14562849686E+02  0.33059457231E+02 -0.53810736456E+01  0.36523420667E+02  0.51100000000E-03 0. -1.
        -11    1    3    3    0    0 -0.16597886400E+02  0.31660471355E+01 -0.12139369228E+01  0.16940700415E+02  0.51100000000E-03 0.  1.
        -12    1    3    3    0    0  0.17935062550E+01 -0.35695043819E+02  0.76212951661E+01  0.36543630881E+02  0.00000000000E+00 0.  1.
</event>
<event>
 7    1  0.3568207E-015  0.9000779E+02  0.7816164E-02  0.1186339E+00
        -11   -1    0    0    0    0  0.00000000000E+00  0.00000000000E+00  0.45593999997E+02  0.45594000000E+02  0.51100000000E-03 0.  1.
         11   -1    0    0    0    0 -0.00000000000E+00 -0.00000000000E+00 -0.45593999997E+02  0.45594000000E+02  0.51100000000E-03 0. -1.
    9900012    2    1    2    0    0  0.51600185065E+00 -0.81832445671E+00 -0.67600906381E+00  0.90007787697E+02  0.90000049694E+02 0.  0.
         12    1    1    2    0    0 -0.51600185065E+00  0.81832445671E+00  0.67600906381E+00  0.11802123032E+01  0.00000000000E+00 0. -1.
         11    1    3    3    0    0  0.10306492683E+02 -0.14887896139E+02  0.16817714330E+01  0.18185202729E+02  0.51100000000E-03 0. -1.
        -11    1    3    3    0    0 -0.38907548563E+02  0.10475300194E+02  0.72730726166E+01  0.40944191711E+02  0.51100000000E-03 0.  1.
         12    1    3    3    0    0  0.29117057731E+02  0.35942714892E+01 -0.96308531134E+01  0.30878393257E+02  0.00000000000E+00 0. -1.
</event>
<event>
 7    1  0.3568207E-015  0.9000777E+02  0.7816164E-02  0.1186339E+00
        -11   -1    0    0    0    0  0.00000000000E+00  0.00000000000E+00  0.45593999997E+02  0.45594000000E+02  0.51100000000E-03 0.  1.
         11   -1    0    0    0    0 -0.00000000000E+00 -0.00000000000E+00 -0.45593999997E+02  0.45594000000E+02  0.51100000000E-03 0. -1.
    9900012    2    1    2    0    0  0.50505519032E+00  0.10433032874E+01  0.22220170522E+00  0.90007772864E+02  0.90000034666E+02 0.  0.
         12    1    1    2    0    0 -0.50505519032E+00 -0.10433032874E+01 -0.22220170522E+00  0.11802271360E+01  0.00000000000E+00 0. -1.
         11    1    3    3    0    0  0.32970727580E+01 -0.91003836605E+01 -0.46325989766E+00  0.96903189593E+01  0.51100000000E-03 0. -1.
        -11    1    3    3    0    0  0.11951559218E+02 -0.27275918008E+01  0.37047426094E+02  0.39022958694E+02  0.51100000000E-03 0.  1.
         12    1    3    3    0    0 -0.14743576786E+02  0.12871278749E+02 -0.36361964491E+02  0.41294495211E+02  0.00000000000E+00 0. -1.
</event>
<event>
 7    1  0.3568207E-015  0.9000782E+02  0.7816164E-02  0.1186339E+00
        -11   -1    0    0    0    0  0.00000000000E+00  0.00000000000E+00  0.45593999997E+02  0.45594000000E+02  0.51100000000E-03 0. -1.
         11   -1    0    0    0    0 -0.00000000000E+00 -0.00000000000E+00 -0.45593999997E+02  0.45594000000E+02  0.51100000000E-03 0.  1.
    9900012    2    1    2    0    0  0.70046259100E+00  0.52776157817E-01 -0.94836692080E+00  0.90007816548E+02  0.90000078926E+02 0.  0.
         12    1    1    2    0    0 -0.70046259100E+00 -0.52776157817E-01  0.94836692080E+00  0.11801834521E+01  0.00000000000E+00 0. -1.
         11    1    3    3    0    0 -0.33079858830E+01 -0.93415506859E+01  0.39051782594E+01  0.10651655145E+02  0.51100000000E-03 0. -1.
        -11    1    3    3    0    0 -0.46553634046E+01 -0.23840638200E+02 -0.28658016895E+02  0.37567677208E+02  0.51100000000E-03 0.  1.
         12    1    3    3    0    0  0.86638118786E+01  0.33234965044E+02  0.23804471714E+02  0.41788484195E+02  0.00000000000E+00 0. -1.
</event>
<event>
 7    1  0.3568207E-015  0.9000777E+02  0.7816164E-02  0.1186339E+00
        -11   -1    0    0    0    0  0.00000000000E+00  0.00000000000E+00  0.45593999997E+02  0.45594000000E+02  0.51100000000E-03 0.  1.
         11   -1    0    0    0    0 -0.00000000000E+00 -0.00000000000E+00 -0.45593999997E+02  0.45594000000E+02  0.51100000000E-03 0. -1.
    9900012    2    1    2    0    0  0.26881526999E+00  0.80830502632E-01  0.11463597231E+01  0.90007772973E+02  0.90000034777E+02 0.  0.
         12    1    1    2    0    0 -0.26881526999E+00 -0.80830502632E-01 -0.11463597231E+01  0.11802270265E+01  0.00000000000E+00 0. -1.
         11    1    3    3    0    0  0.92630669021E+01  0.13496200293E+01 -0.44624290305E+01  0.10370108764E+02  0.51100000000E-03 0. -1.
        -11    1    3    3    0    0 -0.55478518125E+01  0.36779672165E+02 -0.97649561628E+01  0.38456173931E+02  0.51100000000E-03 0.  1.
         12    1    3    3    0    0 -0.34463998196E+01 -0.38048461692E+02  0.15373744916E+02  0.41181490279E+02  0.00000000000E+00 0. -1.
</event>
<event>
 7    1  0.3568207E-015  0.9000769E+02  0.7816164E-02  0.1186339E+00
        -11   -1    0    0    0    0  0.00000000000E+00  0.00000000000E+00  0.45593999997E+02  0.45594000000E+02  0.51100000000E-03 0. -1.
         11   -1    0    0    0    0 -0.00000000000E+00 -0.00000000000E+00 -0.45593999997E+02  0.45594000000E+02  0.51100000000E-03 0.  1.
    9900012    2    1    2    0    0  0.51040636180E+00 -0.10431333578E+01  0.21092525839E+00  0.90007690159E+02  0.89999950869E+02 0.  0.
         12    1    1    2    0    0 -0.51040636180E+00  0.10431333578E+01 -0.21092525839E+00  0.11803098411E+01  0.00000000000E+00 0. -1.
         11    1    3    3    0    0  0.12980548259E+02 -0.84440943513E+01  0.34647608401E+02  0.37950680240E+02  0.51100000000E-03 0. -1.
        -11    1    3    3    0    0 -0.12144801560E+01 -0.83218489257E+01  0.37850197004E+01  0.92224999856E+01  0.51100000000E-03 0.  1.
        -12    1    3    3    0    0 -0.11255661741E+02  0.15722809919E+02 -0.38221702843E+02  0.42834509933E+02  0.00000000000E+00 0.  1.
</event>
<event>
 7    1  0.3568207E-015  0.9000774E+02  0.7816164E-02  0.1186339E+00
        -11   -1    0    0    0    0  0.00000000000E+00  0.00000000000E+00  0.45593999997E+02  0.45594000000E+02  0.51100000000E-03 0.  1.
         11   -1    0    0    0    0 -0.00000000000E+00 -0.00000000000E+00 -0.45593999997E+02  0.45594000000E+02  0.51100000000E-03 0. -1.
    9900012    2    1    2    0    0  0.10710157723E+01 -0.27162693675E+00 -0.41492996188E+00  0.90007736110E+02  0.89999997426E+02 0.  0.
         12    1    1    2    0    0 -0.10710157723E+01  0.27162693675E+00  0.41492996188E+00  0.11802638902E+01  0.00000000000E+00 0. -1.
         11    1    3    3    0    0 -0.38013627210E+02  0.82598423402E+01 -0.34417596417E+01  0.39052612702E+02  0.51100000000E-03 0. -1.
        -11    1    3    3    0    0  0.90858915483E+00 -0.96972682438E+00 -0.98677418400E+01  0.99568184501E+01  0.51100000000E-03 0.  1.
        -12    1    3    3    0    0  0.38176053827E+02 -0.75617424526E+01  0.12894571520E+02  0.40998304958E+02  0.00000000000E+00 0.  1.
</event>
<event>
 7    1  0.3568207E-015  0.9000778E+02  0.7816164E-02  0.1186339E+00
        -11   -1    0    0    0    0  0.00000000000E+00  0.00000000000E+00  0.45593999997E+02  0.45594000000E+02  0.51100000000E-03 0.  1.
         11   -1    0    0    0    0 -0.00000000000E+00 -0.00000000000E+00 -0.45593999997E+02  0.45594000000E+02  0.51100000000E-03 0. -1.
    9900012    2    1    2    0    0 -0.92247631543E+00  0.71642780963E+00 -0.16939865397E+00  0.90007776605E+02  0.90000038456E+02 0.  0.
         12    1    1    2    0    0  0.92247631543E+00 -0.71642780963E+00  0.16939865397E+00  0.11802233953E+01  0.00000000000E+00 0. -1.
         11    1    3    3    0    0  0.94655829253E+01 -0.62970868573E+01 -0.17969047742E+02  0.21263518994E+02  0.51100000000E-03 0. -1.
        -11    1    3    3    0    0  0.17159601903E+02 -0.14411970878E+02 -0.95960376971E+01  0.24377054412E+02  0.51100000000E-03 0.  1.
        -12    1    3    3    0    0 -0.27547661143E+02  0.21425485545E+02  0.27395686785E+02  0.44367203199E+02  0.00000000000E+00 0.  1.
</event>
<event>
 7    1  0.3568207E-015  0.9000775E+02  0.7816164E-02  0.1186339E+00
        -11   -1    0    0    0    0  0.00000000000E+00  0.00000000000E+00  0.45593999997E+02  0.45594000000E+02  0.51100000000E-03 0.  1.
         11   -1    0    0    0    0 -0.00000000000E+00 -0.00000000000E+00 -0.45593999997E+02  0.45594000000E+02  0.51100000000E-03 0. -1.
    9900012    2    1    2    0    0 -0.82404032338E+00  0.80621949006E-01  0.84110019911E+00  0.90007749222E+02  0.90000010712E+02 0.  0.
         12    1    1    2    0    0  0.82404032338E+00 -0.80621949006E-01 -0.84110019911E+00  0.11802507777E+01  0.00000000000E+00 0. -1.
         11    1    3    3    0    0  0.19985363684E+01  0.35730536031E+02  0.17638567527E+02  0.39897173050E+02  0.51100000000E-03 0. -1.
        -11    1    3    3    0    0  0.57451858468E+01  0.29266730129E+01 -0.67543102604E+01  0.93377343448E+01  0.51100000000E-03 0.  1.
        -12    1    3    3    0    0 -0.85677625386E+01 -0.38576587095E+02 -0.10043157068E+02  0.40772841828E+02  0.00000000000E+00 0.  1.
</event>
<event>
 7    1  0.3568207E-015  0.9000779E+02  0.7816164E-02  0.1186339E+00
        -11   -1    0    0    0    0  0.00000000000E+00  0.00000000000E+00  0.45593999997E+02  0.45594000000E+02  0.51100000000E-03 0. -1.
         11   -1    0    0    0    0 -0.00000000000E+00 -0.00000000000E+00 -0.45593999997E+02  0.45594000000E+02  0.51100000000E-03 0.  1.
    9900012    2    1    2    0    0 -0.11867963819E+00 -0.12713659187E+00 -0.11673289977E+01  0.90007785800E+02  0.90000047772E+02 0.  0.
         12    1    1    2    0    0  0.11867963819E+00  0.12713659187E+00  0.11673289977E+01  0.11802142002E+01  0.00000000000E+00 0. -1.
         11    1    3    3    0    0  0.26558864889E+01  0.88954208661E+01 -0.33722201641E+01  0.98769486443E+01  0.51100000000E-03 0. -1.
        -11    1    3    3    0    0  0.35417535165E+02 -0.48452764530E+01  0.16192672098E+02  0.39243867432E+02  0.51100000000E-03 0.  1.
         12    1    3    3    0    0 -0.38192101293E+02 -0.41772810049E+01 -0.13987780932E+02  0.40886969723E+02  0.00000000000E+00 0. -1.
</event>
<event>
 7    1  0.3568207E-015  0.9000774E+02  0.7816164E-02  0.1186339E+00
        -11   -1    0    0    0    0  0.00000000000E+00  0.00000000000E+00  0.45593999997E+02  0.45594000000E+02  0.51100000000E-03 0.  1.
         11   -1    0    0    0    0 -0.00000000000E+00 -0.00000000000E+00 -0.45593999997E+02  0.45594000000E+02  0.51100000000E-03 0. -1.
    9900012    2    1    2    0    0  0.18091425474E+00  0.86609668946E+00  0.78112907037E+00  0.90007738983E+02  0.90000000338E+02 0.  0.
         12    1    1    2    0    0 -0.18091425474E+00 -0.86609668946E+00 -0.78112907037E+00  0.11802610167E+01  0.00000000000E+00 0. -1.
         11    1    3    3    0    0 -0.80715206132E+01 -0.23170345583E+02 -0.17667631916E+02  0.30235071973E+02  0.51100000000E-03 0. -1.
        -11    1    3    3    0    0  0.31542994374E+01 -0.15796096269E+02  0.14751716096E+01  0.16175363792E+02  0.51100000000E-03 0.  1.
        -12    1    3    3    0    0  0.50981354305E+01  0.39832538541E+02  0.16973589377E+02  0.43597303218E+02  0.00000000000E+00 0.  1.
</event>
<event>
 7    1  0.3568207E-015  0.9000772E+02  0.7816164E-02  0.1186339E+00
        -11   -1    0    0    0    0  0.00000000000E+00  0.00000000000E+00  0.45593999997E+02  0.45594000000E+02  0.51100000000E-03 0. -1.
         11   -1    0    0    0    0 -0.00000000000E+00 -0.00000000000E+00 -0.45593999997E+02  0.45594000000E+02  0.51100000000E-03 0.  1.
    9900012    2    1    2    0    0 -0.72474037153E-01 -0.11757644811E+01 -0.73317127115E-01  0.90007724607E+02  0.89999985772E+02 0.  0.
         12    1    1    2    0    0  0.72474037153E-01  0.11757644811E+01  0.73317127115E-01  0.11802753925E+01  0.00000000000E+00 0. -1.
         11    1    3    3    0    0 -0.67929884522E+01 -0.28145286193E+01 -0.36867143852E+01  0.82254560165E+01  0.51100000000E-03 0. -1.
        -11    1    3    3    0    0  0.83731489114E+01  0.17952773323E+02 -0.34784528682E+02  0.40029678097E+02  0.51100000000E-03 0.  1.
         12    1    3    3    0    0 -0.16526344964E+01 -0.16314009185E+02  0.38397925940E+02  0.41752590494E+02  0.00000000000E+00 0. -1.
</event>
<event>
 7    1  0.3568207E-015  0.9000771E+02  0.7816164E-02  0.1186339E+00
        -11   -1    0    0    0    0  0.00000000000E+00  0.00000000000E+00  0.45593999997E+02  0.45594000000E+02  0.51100000000E-03 0. -1.
         11   -1    0    0    0    0 -0.00000000000E+00 -0.00000000000E+00 -0.45593999997E+02  0.45594000000E+02  0.51100000000E-03 0.  1.
    9900012    2    1    2    0    0 -0.18752610952E+00 -0.66280355722E+00 -0.95844042497E+00  0.90007710779E+02  0.89999971761E+02 0.  0.
         12    1    1    2    0    0  0.18752610952E+00  0.66280355722E+00  0.95844042497E+00  0.11802892211E+01  0.00000000000E+00 0. -1.
         11    1    3    3    0    0 -0.49924205570E+01 -0.12249758053E+02 -0.20904699164E+01  0.13392195493E+02  0.51100000000E-03 0. -1.
        -11    1    3    3    0    0 -0.29406806237E+02 -0.10393826053E+02 -0.12681177931E+02  0.33669038404E+02  0.51100000000E-03 0.  1.
         12    1    3    3    0    0  0.34211700685E+02  0.21980780549E+02  0.13813207422E+02  0.42946476882E+02  0.00000000000E+00 0. -1.
</event>
<event>
 7    1  0.3568207E-015  0.9000723E+02  0.7816164E-02  0.1186340E+00
        -11   -1    0    0    0    0  0.00000000000E+00  0.00000000000E+00  0.45593999997E+02  0.45594000000E+02  0.51100000000E-03 0.  1.
         11   -1    0    0    0    0 -0.00000000000E+00 -0.00000000000E+00 -0.45593999997E+02  0.45594000000E+02  0.51100000000E-03 0. -1.
    9900012    2    1    2    0    0  0.11114278853E+01  0.20778616185E+00  0.34024871209E+00  0.90007230666E+02  0.89999485310E+02 0.  0.
         12    1    1    2    0    0 -0.11114278853E+01 -0.20778616185E+00 -0.34024871209E+00  0.11807693337E+01  0.00000000000E+00 0. -1.
         11    1    3    3    0    0 -0.13516629216E+02 -0.39613200465E+01  0.48649307160E+01  0.14901639944E+02  0.51100000000E-03 0. -1.
        -11    1    3    3    0    0 -0.18565645810E+02  0.15005941884E+02  0.21047277364E+02  0.31825294671E+02  0.51100000000E-03 0.  1.
         12    1    3    3    0    0  0.33193702911E+02 -0.10836835676E+02 -0.25571959368E+02  0.43280296052E+02  0.00000000000E+00 0. -1.
</event>
<event>
 7    1  0.3568207E-015  0.9000774E+02  0.7816164E-02  0.1186339E+00
        -11   -1    0    0    0    0  0.00000000000E+00  0.00000000000E+00  0.45593999997E+02  0.45594000000E+02  0.51100000000E-03 0. -1.
         11   -1    0    0    0    0 -0.00000000000E+00 -0.00000000000E+00 -0.45593999997E+02  0.45594000000E+02  0.51100000000E-03 0.  1.
    9900012    2    1    2    0    0 -0.17497180568E+00 -0.25405517748E+00 -0.11392330024E+01  0.90007741130E+02  0.90000002513E+02 0.  0.
         12    1    1    2    0    0  0.17497180568E+00  0.25405517748E+00  0.11392330024E+01  0.11802588698E+01  0.00000000000E+00 0. -1.
         11    1    3    3    0    0 -0.25660501413E+02 -0.28445518919E+02  0.10323570319E+02  0.39676000097E+02  0.51100000000E-03 0. -1.
        -11    1    3    3    0    0 -0.71440602860E+01  0.42217331194E+01 -0.37937111431E+01  0.91243012006E+01  0.51100000000E-03 0.  1.
        -12    1    3    3    0    0  0.32629589893E+02  0.23969730622E+02 -0.76690921782E+01  0.41207439832E+02  0.00000000000E+00 0.  1.
</event>
<event>
 7    1  0.3568207E-015  0.9000767E+02  0.7816164E-02  0.1186339E+00
        -11   -1    0    0    0    0  0.00000000000E+00  0.00000000000E+00  0.45593999997E+02  0.45594000000E+02  0.51100000000E-03 0. -1.
         11   -1    0    0    0    0 -0.00000000000E+00 -0.00000000000E+00 -0.45593999997E+02  0.45594000000E+02  0.51100000000E-03 0.  1.
    9900012    2    1    2    0    0 -0.51683479394E+00  0.70357936024E+00 -0.79437518200E+00  0.90007672058E+02  0.89999932529E+02 0.  0.
         12    1    1    2    0    0  0.51683479394E+00 -0.70357936024E+00  0.79437518200E+00  0.11803279418E+01  0.00000000000E+00 0. -1.
         11    1    3    3    0    0  0.25118439076E+02  0.31296285934E+02  0.21254541130E+01  0.40185955884E+02  0.51100000000E-03 0. -1.
        -11    1    3    3    0    0 -0.27258888411E+01  0.11787495509E+01 -0.96334433776E+01  0.10080830921E+02  0.51100000000E-03 0.  1.
        -12    1    3    3    0    0 -0.22909385029E+02 -0.31771456125E+02  0.67136140826E+01  0.39740885254E+02  0.00000000000E+00 0.  1.
</event>
<event>
 7    1  0.3568207E-015  0.9000783E+02  0.7816164E-02  0.1186339E+00
        -11   -1    0    0    0    0  0.00000000000E+00  0.00000000000E+00  0.45593999997E+02  0.45594000000E+02  0.51100000000E-03 0. -1.
         11   -1    0    0    0    0 -0.00000000000E+00 -0.00000000000E+00 -0.45593999997E+02  0.45594000000E+02  0.51100000000E-03 0.  1.
    9900012    2    1    2    0    0  0.46524641343E+00  0.34019695794E+00  0.10298567096E+01  0.90007833470E+02  0.90000096072E+02 0.  0.
         12    1    1    2    0    0 -0.46524641343E+00 -0.34019695794E+00 -0.10298567096E+01  0.11801665297E+01  0.00000000000E+00 0. -1.
         11    1    3    3    0    0 -0.52246914377E+01  0.27935520805E+02 -0.22695411494E+02  0.36369938499E+02  0.51100000000E-03 0. -1.
        -11    1    3    3    0    0  0.34628193629E+01  0.55556650819E+01 -0.61306000425E+01  0.89688789480E+01  0.51100000000E-03 0.  1.
        -12    1    3    3    0    0  0.22271184883E+01 -0.33150988929E+02  0.29855868247E+02  0.44669016023E+02  0.00000000000E+00 0.  1.
</event>
<event>
 7    1  0.3568207E-015  0.9000784E+02  0.7816164E-02  0.1186339E+00
        -11   -1    0    0    0    0  0.00000000000E+00  0.00000000000E+00  0.45593999997E+02  0.45594000000E+02  0.51100000000E-03 0.  1.
         11   -1    0    0    0    0 -0.00000000000E+00 -0.00000000000E+00 -0.45593999997E+02  0.45594000000E+02  0.51100000000E-03 0. -1.
    9900012    2    1    2    0    0  0.31355339249E+00 -0.46717369563E+00  0.10374000495E+01  0.90007844987E+02  0.90000107741E+02 0.  0.
         12    1    1    2    0    0 -0.31355339249E+00  0.46717369563E+00 -0.10374000495E+01  0.11801550129E+01  0.00000000000E+00 0. -1.
         11    1    3    3    0    0 -0.91182902611E+00 -0.65800762886E+01 -0.45166330091E+01  0.80329826426E+01  0.51100000000E-03 0. -1.
        -11    1    3    3    0    0 -0.20954210461E+02  0.36873597016E+02 -0.47505164560E+01  0.42676791114E+02  0.51100000000E-03 0.  1.
         12    1    3    3    0    0  0.22179592880E+02 -0.30760694423E+02  0.10304549515E+02  0.39298071230E+02  0.00000000000E+00 0. -1.
</event>
<event>
 7    1  0.3568207E-015  0.9000773E+02  0.7816164E-02  0.1186339E+00
        -11   -1    0    0    0    0  0.00000000000E+00  0.00000000000E+00  0.45593999997E+02  0.45594000000E+02  0.51100000000E-03 0.  1.
         11   -1    0    0    0    0 -0.00000000000E+00 -0.00000000000E+00 -0.45593999997E+02  0.45594000000E+02  0.51100000000E-03 0. -1.
    9900012    2    1    2    0    0  0.72437658570E+00 -0.27080579264E+00  0.89161653859E+00  0.90007730002E+02  0.89999991238E+02 0.  0.
         12    1    1    2    0    0 -0.72437658570E+00  0.27080579264E+00 -0.89161653859E+00  0.11802699976E+01  0.00000000000E+00 0. -1.
         11    1    3    3    0    0  0.14295615446E+02 -0.27610571726E+02 -0.31404399046E+02  0.44192132464E+02  0.51100000000E-03 0. -1.
        -11    1    3    3    0    0 -0.65696454151E+01  0.32989666602E+01  0.58386071158E+01  0.93879047300E+01  0.51100000000E-03 0.  1.
        -12    1    3    3    0    0 -0.70015934454E+01  0.24040799273E+02  0.26457408469E+02  0.36427692808E+02  0.00000000000E+00 0.  1.
</event>
<event>
 7    1  0.3568207E-015  0.9000773E+02  0.7816164E-02  0.1186339E+00
        -11   -1    0    0    0    0  0.00000000000E+00  0.00000000000E+00  0.45593999997E+02  0.45594000000E+02  0.51100000000E-03 0. -1.
         11   -1    0    0    0    0 -0.00000000000E+00 -0.00000000000E+00 -0.45593999997E+02  0.45594000000E+02  0.51100000000E-03 0.  1.
    9900012    2    1    2    0    0  0.15695210520E+00  0.11670208931E+01  0.80345027538E-01  0.90007734330E+02  0.89999995623E+02 0.  0.
         12    1    1    2    0    0 -0.15695210520E+00 -0.11670208931E+01 -0.80345027538E-01  0.11802656700E+01  0.00000000000E+00 0. -1.
         11    1    3    3    0    0 -0.21903666072E+01  0.18321562912E+01 -0.91874630224E+01  0.96210175968E+01  0.51100000000E-03 0. -1.
        -11    1    3    3    0    0 -0.17535031282E+02  0.23076090581E+02 -0.21994664261E+02  0.36383355188E+02  0.51100000000E-03 0.  1.
         12    1    3    3    0    0  0.19882349995E+02 -0.23741225979E+02  0.31262472311E+02  0.44003361545E+02  0.00000000000E+00 0. -1.
</event>
<event>
 7    1  0.3568207E-015  0.9000778E+02  0.7816164E-02  0.1186339E+00
        -11   -1    0    0    0    0  0.00000000000E+00  0.00000000000E+00  0.45593999997E+02  0.45594000000E+02  0.51100000000E-03 0. -1.
         11   -1    0    0    0    0 -0.00000000000E+00 -0.00000000000E+00 -0.45593999997E+02  0.45594000000E+02  0.51100000000E-03 0.  1.
    9900012    2    1    2    0    0  0.10943954291E+01 -0.10580540106E+00  0.42897974848E+00  0.90007779782E+02  0.90000041675E+02 0.  0.
         12    1    1    2    0    0 -0.10943954291E+01  0.10580540106E+00 -0.42897974848E+00  0.11802202179E+01  0.00000000000E+00 0. -1.
         11    1    3    3    0    0 -0.32762718360E+02 -0.18074669584E+02 -0.40593262911E+01  0.37637315594E+02  0.51100000000E-03 0. -1.
        -11    1    3    3    0    0  0.71700282113E+00 -0.60803880859E+01  0.93079701081E+01  0.11141073562E+02  0.51100000000E-03 0.  1.
        -12    1    3    3    0    0  0.33140110968E+02  0.24049252269E+02 -0.48196640686E+01  0.41229390626E+02  0.00000000000E+00 0.  1.
</event>
<event>
 7    1  0.3568207E-015  0.9000800E+02  0.7816164E-02  0.1186339E+00
        -11   -1    0    0    0    0  0.00000000000E+00  0.00000000000E+00  0.45593999997E+02  0.45594000000E+02  0.51100000000E-03 0.  1.
         11   -1    0    0    0    0 -0.00000000000E+00 -0.00000000000E+00 -0.45593999997E+02  0.45594000000E+02  0.51100000000E-03 0. -1.
    9900012    2    1    2    0    0  0.59029468776E+00  0.63954322855E+00 -0.79682245588E+00  0.90008004498E+02  0.90000269357E+02 0.  0.
         12    1    1    2    0    0 -0.59029468776E+00 -0.63954322855E+00  0.79682245588E+00  0.11799955024E+01  0.00000000000E+00 0. -1.
         11    1    3    3    0    0 -0.21834390972E+02 -0.24342203990E+02  0.19636288788E+02  0.38142723576E+02  0.51100000000E-03 0. -1.
        -11    1    3    3    0    0 -0.19800998359E+01  0.52276556233E+01  0.78298606915E+01  0.96205975586E+01  0.51100000000E-03 0.  1.
        -12    1    3    3    0    0  0.24404785495E+02  0.19754091595E+02 -0.28262971935E+02  0.42244683363E+02  0.00000000000E+00 0.  1.
</event>
<event>
 7    1  0.3568207E-015  0.9000780E+02  0.7816164E-02  0.1186339E+00
        -11   -1    0    0    0    0  0.00000000000E+00  0.00000000000E+00  0.45593999997E+02  0.45594000000E+02  0.51100000000E-03 0. -1.
         11   -1    0    0    0    0 -0.00000000000E+00 -0.00000000000E+00 -0.45593999997E+02  0.45594000000E+02  0.51100000000E-03 0.  1.
    9900012    2    1    2    0    0 -0.17061855259E+00 -0.13945058826E+00 -0.11594463766E+01  0.90007799569E+02  0.90000061723E+02 0.  0.
         12    1    1    2    0    0  0.17061855259E+00  0.13945058826E+00  0.11594463766E+01  0.11802004309E+01  0.00000000000E+00 0. -1.
         11    1    3    3    0    0 -0.11560313404E+02 -0.23965537718E+02  0.29257942562E+02  0.39547630111E+02  0.51100000000E-03 0. -1.
        -11    1    3    3    0    0  0.98238349338E+01  0.76136444232E+00  0.25659885885E+01  0.10181930383E+02  0.51100000000E-03 0.  1.
        -12    1    3    3    0    0  0.15658599179E+01  0.23064722688E+02 -0.32983377527E+02  0.40278239076E+02  0.00000000000E+00 0.  1.
</event>
<event>
 7    1  0.3568207E-015  0.9000775E+02  0.7816164E-02  0.1186339E+00
        -11   -1    0    0    0    0  0.00000000000E+00  0.00000000000E+00  0.45593999997E+02  0.45594000000E+02  0.51100000000E-03 0.  1.
         11   -1    0    0    0    0 -0.00000000000E+00 -0.00000000000E+00 -0.45593999997E+02  0.45594000000E+02  0.51100000000E-03 0. -1.
    9900012    2    1    2    0    0 -0.63377884794E+00 -0.35531722287E+00  0.93008899313E+00  0.90007749394E+02  0.90000010886E+02 0.  0.
         12    1    1    2    0    0  0.63377884794E+00  0.35531722287E+00 -0.93008899313E+00  0.11802506056E+01  0.00000000000E+00 0. -1.
         11    1    3    3    0    0 -0.22288004031E+02  0.38567669973E+01 -0.52173502948E+01  0.23213154023E+02  0.51100000000E-03 0. -1.
        -11    1    3    3    0    0  0.42877654976E+01  0.17626085810E+02  0.26602156135E+02  0.32198424577E+02  0.51100000000E-03 0.  1.
         12    1    3    3    0    0  0.17366459685E+02 -0.21838170031E+02 -0.20454716847E+02  0.34596170794E+02  0.00000000000E+00 0. -1.
</event>
<event>
 7    1  0.3568207E-015  0.9000764E+02  0.7816164E-02  0.1186339E+00
        -11   -1    0    0    0    0  0.00000000000E+00  0.00000000000E+00  0.45593999997E+02  0.45594000000E+02  0.51100000000E-03 0. -1.
         11   -1    0    0    0    0 -0.00000000000E+00 -0.00000000000E+00 -0.45593999997E+02  0.45594000000E+02  0.51100000000E-03 0.  1.
    9900012    2    1    2    0    0 -0.62074117780E+00 -0.22641561844E+00 -0.97809589927E+00  0.90007637670E+02  0.89999897687E+02 0.  0.
         12    1    1    2    0    0  0.62074117780E+00  0.22641561844E+00  0.97809589927E+00  0.11803623301E+01  0.00000000000E+00 0. -1.
         11    1    3    3    0    0 -0.36120222038E+02  0.20963588289E+02 -0.10862501393E+01  0.41777056068E+02  0.51100000000E-03 0. -1.
        -11    1    3    3    0    0  0.10093098005E+00 -0.58029168750E+01 -0.68841120970E+01  0.90041674210E+01  0.51100000000E-03 0.  1.
        -12    1    3    3    0    0  0.35398549881E+02 -0.15387087032E+02  0.69922663370E+01  0.39226414181E+02  0.00000000000E+00 0.  1.
</event>
<event>
 7    1  0.3568207E-015  0.9000776E+02  0.7816164E-02  0.1186339E+00
        -11   -1    0    0    0    0  0.00000000000E+00  0.00000000000E+00  0.45593999997E+02  0.45594000000E+02  0.51100000000E-03 0.  1.
         11   -1    0    0    0    0 -0.00000000000E+00 -0.00000000000E+00 -0.45593999997E+02  0.45594000000E+02  0.51100000000E-03 0. -1.
    9900012    2    1    2    0    0  0.24811483710E+00 -0.92029053933E+00  0.69604064841E+00  0.90007759248E+02  0.90000020870E+02 0.  0.
         12    1    1    2    0    0 -0.24811483710E+00  0.92029053933E+00 -0.69604064841E+00  0.11802407523E+01  0.00000000000E+00 0. -1.
         11    1    3    3    0    0 -0.31171435793E+02 -0.75824310086E+01  0.88981454713E+01  0.33291570442E+02  0.51100000000E-03 0. -1.
        -11    1    3    3    0    0 -0.11566386199E+02  0.65978064175E+00  0.28449697094E+01  0.11929394499E+02  0.51100000000E-03 0.  1.
        -12    1    3    3    0    0  0.42985936829E+02  0.60023598275E+01 -0.11047074532E+02  0.44786794307E+02  0.00000000000E+00 0.  1.
</event>
<event>
 7    1  0.3568207E-015  0.9000761E+02  0.7816164E-02  0.1186339E+00
        -11   -1    0    0    0    0  0.00000000000E+00  0.00000000000E+00  0.45593999997E+02  0.45594000000E+02  0.51100000000E-03 0.  1.
         11   -1    0    0    0    0 -0.00000000000E+00 -0.00000000000E+00 -0.45593999997E+02  0.45594000000E+02  0.51100000000E-03 0. -1.
    9900012    2    1    2    0    0  0.10535992664E+01  0.39121830168E+00  0.36081875534E+00  0.90007613052E+02  0.89999872744E+02 0.  0.
         12    1    1    2    0    0 -0.10535992664E+01 -0.39121830168E+00 -0.36081875534E+00  0.11803869484E+01  0.00000000000E+00 0. -1.
         11    1    3    3    0    0  0.70690355269E+01  0.72134988067E+01 -0.49452913373E+01  0.11245520663E+02  0.51100000000E-03 0. -1.
        -11    1    3    3    0    0  0.14696900232E+02  0.31639176828E+02  0.16390911387E+01  0.34924533022E+02  0.51100000000E-03 0.  1.
         12    1    3    3    0    0 -0.20712336492E+02 -0.38461457333E+02  0.36670189540E+01  0.43837559366E+02  0.00000000000E+00 0. -1.
</event>
<event>
 7    1  0.4398036E-015  0.9000769E+02  0.7816164E-02  0.1186339E+00
        -11   -1    0    0    0    0  0.00000000000E+00  0.00000000000E+00  0.45593999997E+02  0.45594000000E+02  0.51100000000E-03 0. -1.
         11   -1    0    0    0    0 -0.00000000000E+00 -0.00000000000E+00 -0.45593999997E+02  0.45594000000E+02  0.51100000000E-03 0.  1.
    9900012    2    1    2    0    0 -0.61105060103E+00  0.78929464591E+00 -0.62988574510E+00  0.90007692868E+02  0.89999953613E+02 0.  0.
         12    1    1    2    0    0  0.61105060103E+00 -0.78929464591E+00  0.62988574510E+00  0.11803071325E+01  0.00000000000E+00 0. -1.
         11    1    3    3    0    0  0.83956214162E+01  0.42631122587E+01  0.25356780890E+01  0.97514229078E+01  0.51100000000E-03 0. -1.
        -11    1    3    3    0    0  0.21691560855E+02 -0.11817353768E+02 -0.29842394193E+02  0.38739413442E+02  0.51100000000E-03 0.  1.
         12    1    3    3    0    0 -0.30698232873E+02  0.83435361548E+01  0.26676830359E+02  0.41516856517E+02  0.00000000000E+00 0. -1.
</event>
<event>
 7    1  0.3568207E-015  0.9000776E+02  0.7816164E-02  0.1186339E+00
        -11   -1    0    0    0    0  0.00000000000E+00  0.00000000000E+00  0.45593999997E+02  0.45594000000E+02  0.51100000000E-03 0.  1.
         11   -1    0    0    0    0 -0.00000000000E+00 -0.00000000000E+00 -0.45593999997E+02  0.45594000000E+02  0.51100000000E-03 0. -1.
    9900012    2    1    2    0    0  0.41649240220E+00  0.33164327053E+00  0.10533379917E+01  0.90007756760E+02  0.90000018350E+02 0.  0.
         12    1    1    2    0    0 -0.41649240220E+00 -0.33164327053E+00 -0.10533379917E+01  0.11802432396E+01  0.00000000000E+00 0. -1.
         11    1    3    3    0    0 -0.56834714644E+01 -0.79497332655E+00  0.75687505056E+01  0.94984111805E+01  0.51100000000E-03 0. -1.
        -11    1    3    3    0    0 -0.35448042148E+02 -0.46867148332E+01 -0.13024261142E+02  0.38054702293E+02  0.51100000000E-03 0.  1.
         12    1    3    3    0    0  0.41548006015E+02  0.58133314302E+01  0.65088486279E+01  0.42454643287E+02  0.00000000000E+00 0. -1.
</event>
<event>
 7    1  0.3568207E-015  0.9000745E+02  0.7816164E-02  0.1186340E+00
        -11   -1    0    0    0    0  0.00000000000E+00  0.00000000000E+00  0.45593999997E+02  0.45594000000E+02  0.51100000000E-03 0.  1.
         11   -1    0    0    0    0 -0.00000000000E+00 -0.00000000000E+00 -0.45593999997E+02  0.45594000000E+02  0.51100000000E-03 0. -1.
    9900012    2    1    2    0    0 -0.11310332500E+01 -0.66208452847E-02  0.33826917115E+00  0.90007446706E+02  0.89999704202E+02 0.  0.
         12    1    1    2    0    0  0.11310332500E+01  0.66208452847E-02 -0.33826917115E+00  0.11805532942E+01  0.00000000000E+00 0. -1.
         11    1    3    3    0    0  0.18054586793E+02  0.20698541620E+02 -0.33231006210E+02  0.43112614203E+02  0.51100000000E-03 0. -1.
        -11    1    3    3    0    0 -0.71247701398E+01  0.16756348244E+01  0.77239773946E+01  0.10640955251E+02  0.51100000000E-03 0.  1.
        -12    1    3    3    0    0 -0.12060849904E+02 -0.22380797290E+02  0.25845297986E+02  0.36253877251E+02  0.00000000000E+00 0.  1.
</event>
<event>
 7    1  0.3568207E-015  0.9000772E+02  0.7816164E-02  0.1186339E+00
        -11   -1    0    0    0    0  0.00000000000E+00  0.00000000000E+00  0.45593999997E+02  0.45594000000E+02  0.51100000000E-03 0.  1.
         11   -1    0    0    0    0 -0.00000000000E+00 -0.00000000000E+00 -0.45593999997E+02  0.45594000000E+02  0.51100000000E-03 0. -1.
    9900012    2    1    2    0    0  0.12023132687E+00  0.85472973139E+00  0.80501453604E+00  0.90007717454E+02  0.89999978524E+02 0.  0.
         12    1    1    2    0    0 -0.12023132687E+00 -0.85472973139E+00 -0.80501453604E+00  0.11802825462E+01  0.00000000000E+00 0. -1.
         11    1    3    3    0    0 -0.66058297884E+01  0.23187418642E+01  0.88494510219E+01  0.11283897140E+02  0.51100000000E-03 0. -1.
        -11    1    3    3    0    0  0.14927001636E+02  0.31829727636E+02  0.14130250322E+02  0.37889456497E+02  0.51100000000E-03 0.  1.
         12    1    3    3    0    0 -0.82009405209E+01 -0.33293739769E+02 -0.22174686808E+02  0.40834363816E+02  0.00000000000E+00 0. -1.
</event>
<event>
 7    1  0.3568207E-015  0.9000776E+02  0.7816164E-02  0.1186339E+00
        -11   -1    0    0    0    0  0.00000000000E+00  0.00000000000E+00  0.45593999997E+02  0.45594000000E+02  0.51100000000E-03 0. -1.
         11   -1    0    0    0    0 -0.00000000000E+00 -0.00000000000E+00 -0.45593999997E+02  0.45594000000E+02  0.51100000000E-03 0.  1.
    9900012    2    1    2    0    0 -0.45014253684E+00  0.47596769599E+00 -0.98173318293E+00  0.90007756977E+02  0.90000018569E+02 0.  0.
         12    1    1    2    0    0  0.45014253684E+00 -0.47596769599E+00  0.98173318293E+00  0.11802430231E+01  0.00000000000E+00 0. -1.
         11    1    3    3    0    0 -0.13475464260E+02  0.35285014301E+02  0.96737916576E+00  0.37783014623E+02  0.51100000000E-03 0. -1.
        -11    1    3    3    0    0  0.14381745675E+02  0.27006002217E+01 -0.12140022617E+01  0.14683380127E+02  0.51100000000E-03 0.  1.
        -12    1    3    3    0    0 -0.13564239513E+01 -0.37509646827E+02 -0.73511008700E+00  0.37541362227E+02  0.00000000000E+00 0.  1.
</event>
<event>
 7    1  0.3568207E-015  0.9000757E+02  0.7816164E-02  0.1186339E+00
        -11   -1    0    0    0    0  0.00000000000E+00  0.00000000000E+00  0.45593999997E+02  0.45594000000E+02  0.51100000000E-03 0. -1.
         11   -1    0    0    0    0 -0.00000000000E+00 -0.00000000000E+00 -0.45593999997E+02  0.45594000000E+02  0.51100000000E-03 0.  1.
    9900012    2    1    2    0    0  0.97038546935E+00  0.67212785107E+00 -0.42829012764E-02  0.90007566965E+02  0.89999826049E+02 0.  0.
         12    1    1    2    0    0 -0.97038546935E+00 -0.67212785107E+00  0.42829012764E-02  0.11804330352E+01  0.00000000000E+00 0. -1.
         11    1    3    3    0    0  0.33204037314E+02  0.22583484700E+02  0.22362993781E+01  0.40218439929E+02  0.51100000000E-03 0. -1.
        -11    1    3    3    0    0 -0.85400014369E+00  0.36574048084E+01 -0.80629924518E+01  0.88948172391E+01  0.51100000000E-03 0.  1.
        -12    1    3    3    0    0 -0.31379651701E+02 -0.25568761657E+02  0.58224101725E+01  0.40894309797E+02  0.00000000000E+00 0.  1.
</event>
<event>
 7    1  0.3568207E-015  0.9000774E+02  0.7816164E-02  0.1186339E+00
        -11   -1    0    0    0    0  0.00000000000E+00  0.00000000000E+00  0.45593999997E+02  0.45594000000E+02  0.51100000000E-03 0. -1.
         11   -1    0    0    0    0 -0.00000000000E+00 -0.00000000000E+00 -0.45593999997E+02  0.45594000000E+02  0.51100000000E-03 0.  1.
    9900012    2    1    2    0    0  0.59112873336E+00  0.13867776212E+00 -0.10121069815E+01  0.90007735096E+02  0.89999996399E+02 0.  0.
         12    1    1    2    0    0 -0.59112873336E+00 -0.13867776212E+00  0.10121069815E+01  0.11802649038E+01  0.00000000000E+00 0. -1.
         11    1    3    3    0    0  0.91105492638E+01  0.29358349524E+02 -0.30427234903E+02  0.43251952774E+02  0.51100000000E-03 0.  1.
        -11    1    3    3    0    0  0.42477618092E+01 -0.12660263550E+02  0.41998770095E+01  0.13998739969E+02  0.51100000000E-03 0. -1.
        -12    1    3    3    0    0 -0.12767182340E+02 -0.16559408211E+02  0.25215250912E+02  0.32757042354E+02  0.00000000000E+00 0.  1.
</event>
<event>
 7    1  0.3568207E-015  0.9000778E+02  0.7816164E-02  0.1186339E+00
        -11   -1    0    0    0    0  0.00000000000E+00  0.00000000000E+00  0.45593999997E+02  0.45594000000E+02  0.51100000000E-03 0. -1.
         11   -1    0    0    0    0 -0.00000000000E+00 -0.00000000000E+00 -0.45593999997E+02  0.45594000000E+02  0.51100000000E-03 0.  1.
    9900012    2    1    2    0    0 -0.10595068976E+01  0.51572980425E+00  0.66277201203E-01  0.90007777663E+02  0.90000039528E+02 0.  0.
         12    1    1    2    0    0  0.10595068976E+01 -0.51572980425E+00 -0.66277201203E-01  0.11802223369E+01  0.00000000000E+00 0. -1.
         11    1    3    3    0    0  0.29345350119E+02  0.20226371405E+02  0.15804527615E+02  0.38987674555E+02  0.51100000000E-03 0. -1.
        -11    1    3    3    0    0 -0.24921420776E+01  0.57509473219E+01  0.49125864423E+01  0.79635213975E+01  0.51100000000E-03 0.  1.
        -12    1    3    3    0    0 -0.27912714939E+02 -0.25461588923E+02 -0.20650836856E+02  0.43056581710E+02  0.00000000000E+00 0.  1.
</event>
<event>
 7    1  0.3568207E-015  0.9000772E+02  0.7816164E-02  0.1186339E+00
        -11   -1    0    0    0    0  0.00000000000E+00  0.00000000000E+00  0.45593999997E+02  0.45594000000E+02  0.51100000000E-03 0.  1.
         11   -1    0    0    0    0 -0.00000000000E+00 -0.00000000000E+00 -0.45593999997E+02  0.45594000000E+02  0.51100000000E-03 0. -1.
    9900012    2    1    2    0    0 -0.54333234298E-01 -0.10364733602E+01 -0.56198394798E+00  0.90007722454E+02  0.89999983591E+02 0.  0.
         12    1    1    2    0    0  0.54333234298E-01  0.10364733602E+01  0.56198394798E+00  0.11802775456E+01  0.00000000000E+00 0. -1.
         11    1    3    3    0    0 -0.32564152948E+02  0.84682881203E+01 -0.11272702268E+02  0.35485345956E+02  0.51100000000E-03 0. -1.
        -11    1    3    3    0    0 -0.67041027373E+01  0.78412594997E+01  0.42571319820E+01  0.11160354700E+02  0.51100000000E-03 0.  1.
        -12    1    3    3    0    0  0.39213922451E+02 -0.17346020980E+02  0.64535863383E+01  0.43362021799E+02  0.00000000000E+00 0.  1.
</event>
<event>
 7    1  0.3568207E-015  0.9000775E+02  0.7816164E-02  0.1186339E+00
        -11   -1    0    0    0    0  0.00000000000E+00  0.00000000000E+00  0.45593999997E+02  0.45594000000E+02  0.51100000000E-03 0.  1.
         11   -1    0    0    0    0 -0.00000000000E+00 -0.00000000000E+00 -0.45593999997E+02  0.45594000000E+02  0.51100000000E-03 0. -1.
    9900012    2    1    2    0    0  0.10056634487E+00 -0.45867432726E+00  0.10828206592E+01  0.90007747354E+02  0.90000008819E+02 0.  0.
         12    1    1    2    0    0 -0.10056634487E+00  0.45867432726E+00 -0.10828206592E+01  0.11802526459E+01  0.00000000000E+00 0. -1.
         11    1    3    3    0    0 -0.10007147823E+02  0.14512253960E+01  0.14421222658E+00  0.10112856180E+02  0.51100000000E-03 0. -1.
        -11    1    3    3    0    0 -0.34028910102E+01 -0.26253557555E+02  0.29754168603E+02  0.39826366908E+02  0.51100000000E-03 0.  1.
         12    1    3    3    0    0  0.13510605178E+02  0.24343657832E+02 -0.28815560171E+02  0.40068524266E+02  0.00000000000E+00 0. -1.
</event>
<event>
 7    1  0.3568207E-015  0.9000772E+02  0.7816164E-02  0.1186339E+00
        -11   -1    0    0    0    0  0.00000000000E+00  0.00000000000E+00  0.45593999997E+02  0.45594000000E+02  0.51100000000E-03 0.  1.
         11   -1    0    0    0    0 -0.00000000000E+00 -0.00000000000E+00 -0.45593999997E+02  0.45594000000E+02  0.51100000000E-03 0. -1.
    9900012    2    1    2    0    0 -0.88413835852E-01 -0.33446907013E+00  0.11284412776E+01  0.90007717711E+02  0.89999978785E+02 0.  0.
         12    1    1    2    0    0  0.88413835852E-01  0.33446907013E+00 -0.11284412776E+01  0.11802822893E+01  0.00000000000E+00 0. -1.
         11    1    3    3    0    0 -0.21902226677E+02 -0.15471851174E+02  0.34046745021E+01  0.27031047351E+02  0.51100000000E-03 0. -1.
        -11    1    3    3    0    0 -0.64049678443E+01  0.17802177898E+02  0.19547745003E+02  0.27203960851E+02  0.51100000000E-03 0.  1.
         12    1    3    3    0    0  0.28218780685E+02 -0.26647957934E+01 -0.21823978228E+02  0.35772709510E+02  0.00000000000E+00 0. -1.
</event>
<event>
 7    1  0.3568207E-015  0.9000770E+02  0.7816164E-02  0.1186339E+00
        -11   -1    0    0    0    0  0.00000000000E+00  0.00000000000E+00  0.45593999997E+02  0.45594000000E+02  0.51100000000E-03 0. -1.
         11   -1    0    0    0    0 -0.00000000000E+00 -0.00000000000E+00 -0.45593999997E+02  0.45594000000E+02  0.51100000000E-03 0.  1.
    9900012    2    1    2    0    0 -0.10279100772E+00  0.56789202327E+00 -0.10295847169E+01  0.90007698331E+02  0.89999959149E+02 0.  0.
         12    1    1    2    0    0  0.10279100772E+00 -0.56789202327E+00  0.10295847169E+01  0.11803016693E+01  0.00000000000E+00 0. -1.
         11    1    3    3    0    0 -0.27701401506E+01  0.57183773238E+01 -0.76708108526E+01  0.99606653929E+01  0.51100000000E-03 0. -1.
        -11    1    3    3    0    0  0.64251318800E+01  0.36877634526E+02  0.55063915025E+01  0.37835996029E+02  0.51100000000E-03 0.  1.
         12    1    3    3    0    0 -0.37577827371E+01 -0.42028119826E+02  0.11348346332E+01  0.42211036908E+02  0.00000000000E+00 0. -1.
</event>
<event>
 7    1  0.3568207E-015  0.9000769E+02  0.7816164E-02  0.1186339E+00
        -11   -1    0    0    0    0  0.00000000000E+00  0.00000000000E+00  0.45593999997E+02  0.45594000000E+02  0.51100000000E-03 0. -1.
         11   -1    0    0    0    0 -0.00000000000E+00 -0.00000000000E+00 -0.45593999997E+02  0.45594000000E+02  0.51100000000E-03 0.  1.
    9900012    2    1    2    0    0  0.42946541800E-01 -0.30617488985E+00  0.11390974887E+01  0.90007690482E+02  0.89999951197E+02 0.  0.
         12    1    1    2    0    0 -0.42946541800E-01  0.30617488985E+00 -0.11390974887E+01  0.11803095176E+01  0.00000000000E+00 0. -1.
         11    1    3    3    0    0 -0.34452425168E+02 -0.15041460763E+02  0.15352042859E+02  0.40606654159E+02  0.51100000000E-03 0. -1.
        -11    1    3    3    0    0  0.59251066980E+01 -0.99556183778E-01  0.82419130271E+01  0.10151154192E+02  0.51100000000E-03 0.  1.
        -12    1    3    3    0    0  0.28570265012E+02  0.14834842057E+02 -0.22454858397E+02  0.39249882131E+02  0.00000000000E+00 0.  1.
</event>
<event>
 7    1  0.3568207E-015  0.9000776E+02  0.7816164E-02  0.1186339E+00
        -11   -1    0    0    0    0  0.00000000000E+00  0.00000000000E+00  0.45593999997E+02  0.45594000000E+02  0.51100000000E-03 0. -1.
         11   -1    0    0    0    0 -0.00000000000E+00 -0.00000000000E+00 -0.45593999997E+02  0.45594000000E+02  0.51100000000E-03 0.  1.
    9900012    2    1    2    0    0 -0.11039216910E+01  0.27191582580E+00 -0.31682264129E+00  0.90007763624E+02  0.90000025304E+02 0.  0.
         12    1    1    2    0    0  0.11039216910E+01 -0.27191582580E+00  0.31682264129E+00  0.11802363756E+01  0.00000000000E+00 0. -1.
         11    1    3    3    0    0 -0.75881673317E+01 -0.58552558812E+01  0.90126339462E+00  0.96268676554E+01  0.51100000000E-03 0. -1.
        -11    1    3    3    0    0 -0.13287167023E+02 -0.21623284161E+02 -0.27446200507E+02  0.37381936118E+02  0.51100000000E-03 0.  1.
         12    1    3    3    0    0  0.19771412664E+02  0.27750455868E+02  0.26228114471E+02  0.42998959851E+02  0.00000000000E+00 0. -1.
</event>
<event>
 7    1  0.3568207E-015  0.9000778E+02  0.7816164E-02  0.1186339E+00
        -11   -1    0    0    0    0  0.00000000000E+00  0.00000000000E+00  0.45593999997E+02  0.45594000000E+02  0.51100000000E-03 0.  1.
         11   -1    0    0    0    0 -0.00000000000E+00 -0.00000000000E+00 -0.45593999997E+02  0.45594000000E+02  0.51100000000E-03 0. -1.
    9900012    2    1    2    0    0  0.67208475542E+00  0.63329659180E+00  0.73495926583E+00  0.90007776456E+02  0.90000038305E+02 0.  0.
         12    1    1    2    0    0 -0.67208475542E+00 -0.63329659180E+00 -0.73495926583E+00  0.11802235441E+01  0.00000000000E+00 0. -1.
         11    1    3    3    0    0 -0.15437883645E+01  0.54484152906E+01 -0.55970947875E+01  0.79621593814E+01  0.51100000000E-03 0. -1.
        -11    1    3    3    0    0 -0.79211733291E+01  0.11428810301E+01  0.42896697501E+02  0.43636886011E+02  0.51100000000E-03 0.  1.
         12    1    3    3    0    0  0.10137046449E+02 -0.59579997288E+01 -0.36564643448E+02  0.38408731064E+02  0.00000000000E+00 0. -1.
</event>
<event>
 7    1  0.3568207E-015  0.9000777E+02  0.7816164E-02  0.1186339E+00
        -11   -1    0    0    0    0  0.00000000000E+00  0.00000000000E+00  0.45593999997E+02  0.45594000000E+02  0.51100000000E-03 0.  1.
         11   -1    0    0    0    0 -0.00000000000E+00 -0.00000000000E+00 -0.45593999997E+02  0.45594000000E+02  0.51100000000E-03 0. -1.
    9900012    2    1    2    0    0  0.67401452450E+00 -0.89317708558E+00  0.37532793052E+00  0.90007774623E+02  0.90000036448E+02 0.  0.
         12    1    1    2    0    0 -0.67401452450E+00  0.89317708558E+00 -0.37532793052E+00  0.11802253772E+01  0.00000000000E+00 0. -1.
         11    1    3    3    0    0  0.33328437843E+00 -0.95879052292E+01  0.22225565072E+01  0.98477795898E+01  0.51100000000E-03 0. -1.
        -11    1    3    3    0    0 -0.16123141948E+02 -0.25078098655E+02  0.20742665986E+02  0.36319759511E+02  0.51100000000E-03 0.  1.
         12    1    3    3    0    0  0.16463872094E+02  0.33772826799E+02 -0.22589894563E+02  0.43840235522E+02  0.00000000000E+00 0. -1.
</event>
<event>
 7    1  0.3620125E-015  0.9000802E+02  0.7816164E-02  0.1186338E+00
        -11   -1    0    0    0    0  0.00000000000E+00  0.00000000000E+00  0.45593999997E+02  0.45594000000E+02  0.51100000000E-03 0.  1.
         11   -1    0    0    0    0 -0.00000000000E+00 -0.00000000000E+00 -0.45593999997E+02  0.45594000000E+02  0.51100000000E-03 0. -1.
    9900012    2    1    2    0    0 -0.64932951207E+00  0.84096161526E+00  0.51332969051E+00  0.90008020074E+02  0.90000285139E+02 0.  0.
         12    1    1    2    0    0  0.64932951207E+00 -0.84096161526E+00 -0.51332969051E+00  0.11799799256E+01  0.00000000000E+00 0. -1.
         11    1    3    3    0    0  0.55166241310E+01  0.65671695028E+01 -0.35742990623E+01  0.92917420934E+01  0.51100000000E-03 0. -1.
        -11    1    3    3    0    0 -0.90721535235E+01  0.32522876218E+02  0.19937309367E+02  0.39211449247E+02  0.51100000000E-03 0.  1.
         12    1    3    3    0    0  0.29061998804E+01 -0.38249084105E+02 -0.15849680614E+02  0.41504828734E+02  0.00000000000E+00 0. -1.
</event>
<event>
 7    1  0.3568207E-015  0.9000774E+02  0.7816164E-02  0.1186339E+00
        -11   -1    0    0    0    0  0.00000000000E+00  0.00000000000E+00  0.45593999997E+02  0.45594000000E+02  0.51100000000E-03 0.  1.
         11   -1    0    0    0    0 -0.00000000000E+00 -0.00000000000E+00 -0.45593999997E+02  0.45594000000E+02  0.51100000000E-03 0. -1.
    9900012    2    1    2    0    0 -0.11730861406E+01  0.12950619194E+00  0.10509829940E-01  0.90007740112E+02  0.90000001481E+02 0.  0.
         12    1    1    2    0    0  0.11730861406E+01 -0.12950619194E+00 -0.10509829940E-01  0.11802598881E+01  0.00000000000E+00 0. -1.
         11    1    3    3    0    0 -0.73093680539E+01 -0.23966934215E+01 -0.11810215027E+02  0.14094402433E+02  0.51100000000E-03 0. -1.
        -11    1    3    3    0    0 -0.28502618758E+02  0.17092673407E+02 -0.68808454884E+01  0.33939722968E+02  0.51100000000E-03 0.  1.
         12    1    3    3    0    0  0.34638900671E+02 -0.14566473793E+02  0.18701570345E+02  0.41973614711E+02  0.00000000000E+00 0. -1.
</event>
<event>
 7    1  0.3568207E-015  0.9000772E+02  0.7816164E-02  0.1186339E+00
        -11   -1    0    0    0    0  0.00000000000E+00  0.00000000000E+00  0.45593999997E+02  0.45594000000E+02  0.51100000000E-03 0.  1.
         11   -1    0    0    0    0 -0.00000000000E+00 -0.00000000000E+00 -0.45593999997E+02  0.45594000000E+02  0.51100000000E-03 0. -1.
    9900012    2    1    2    0    0 -0.86123777217E+00  0.52439612607E+00  0.61346382485E+00  0.90007720515E+02  0.89999981626E+02 0.  0.
         12    1    1    2    0    0  0.86123777217E+00 -0.52439612607E+00 -0.61346382485E+00  0.11802794845E+01  0.00000000000E+00 0. -1.
         11    1    3    3    0    0 -0.11376345109E+02 -0.23287872696E+02 -0.18776241781E+02  0.32004585584E+02  0.51100000000E-03 0. -1.
        -11    1    3    3    0    0 -0.16435416256E+02 -0.29168315898E+01  0.65810578048E+01  0.17942718193E+02  0.51100000000E-03 0.  1.
        -12    1    3    3    0    0  0.26950523593E+02  0.26729100412E+02  0.12808647801E+02  0.40060416739E+02  0.00000000000E+00 0.  1.
</event>
<event>
 7    1  0.3568207E-015  0.9000798E+02  0.7816164E-02  0.1186339E+00
        -11   -1    0    0    0    0  0.00000000000E+00  0.00000000000E+00  0.45593999997E+02  0.45594000000E+02  0.51100000000E-03 0. -1.
         11   -1    0    0    0    0 -0.00000000000E+00 -0.00000000000E+00 -0.45593999997E+02  0.45594000000E+02  0.51100000000E-03 0.  1.
    9900012    2    1    2    0    0  0.81291479401E+00  0.53768870156E+00 -0.66521437410E+00  0.90007978913E+02  0.90000243434E+02 0.  0.
         12    1    1    2    0    0 -0.81291479401E+00 -0.53768870156E+00  0.66521437410E+00  0.11800210869E+01  0.00000000000E+00 0. -1.
         11    1    3    3    0    0 -0.24169238329E+01  0.59011766295E+00  0.10677882326E+02  0.10963892142E+02  0.51100000000E-03 0. -1.
        -11    1    3    3    0    0  0.79776110455E+00 -0.28301608300E+02 -0.32915294029E+02  0.43416978665E+02  0.51100000000E-03 0.  1.
         12    1    3    3    0    0  0.24320775224E+01  0.28249179339E+02  0.21572197329E+02  0.35627108106E+02  0.00000000000E+00 0. -1.
</event>
<event>
 7    1  0.3568207E-015  0.9000763E+02  0.7816164E-02  0.1186339E+00
        -11   -1    0    0    0    0  0.00000000000E+00  0.00000000000E+00  0.45593999997E+02  0.45594000000E+02  0.51100000000E-03 0.  1.
         11   -1    0    0    0    0 -0.00000000000E+00 -0.00000000000E+00 -0.45593999997E+02  0.45594000000E+02  0.51100000000E-03 0. -1.
    9900012    2    1    2    0    0 -0.32378457822E+00 -0.70264377104E+00 -0.89147573136E+00  0.90007629845E+02  0.89999889759E+02 0.  0.
         12    1    1    2    0    0  0.32378457822E+00  0.70264377104E+00  0.89147573136E+00  0.11803701545E+01  0.00000000000E+00 0. -1.
         11    1    3    3    0    0 -0.68211931038E+01  0.26368392496E+01  0.63949188427E+01  0.97147611321E+01  0.51100000000E-03 0. -1.
        -11    1    3    3    0    0 -0.32203322128E+02 -0.19162856730E+02 -0.86542157837E+01  0.38459907504E+02  0.51100000000E-03 0.  1.
         12    1    3    3    0    0  0.38700730654E+02  0.15823373709E+02  0.13678212096E+01  0.41832961209E+02  0.00000000000E+00 0. -1.
</event>
<event>
 7    1  0.3568207E-015  0.9000754E+02  0.7816164E-02  0.1186339E+00
        -11   -1    0    0    0    0  0.00000000000E+00  0.00000000000E+00  0.45593999997E+02  0.45594000000E+02  0.51100000000E-03 0.  1.
         11   -1    0    0    0    0 -0.00000000000E+00 -0.00000000000E+00 -0.45593999997E+02  0.45594000000E+02  0.51100000000E-03 0. -1.
    9900012    2    1    2    0    0 -0.56285938295E+00 -0.85972483439E+00  0.58098787375E+00  0.90007540604E+02  0.89999799340E+02 0.  0.
         12    1    1    2    0    0  0.56285938295E+00  0.85972483439E+00 -0.58098787375E+00  0.11804593959E+01  0.00000000000E+00 0. -1.
         11    1    3    3    0    0 -0.65215762336E+01 -0.41644774329E+01  0.74459653000E+01  0.10738539396E+02  0.51100000000E-03 0. -1.
        -11    1    3    3    0    0 -0.31996218096E+02 -0.15652923366E+02  0.28868372309E+01  0.35736617240E+02  0.51100000000E-03 0.  1.
         12    1    3    3    0    0  0.37954934946E+02  0.18957675965E+02 -0.97518146571E+01  0.43532383967E+02  0.00000000000E+00 0. -1.
</event>
<event>
 7    1  0.3568207E-015  0.9000798E+02  0.7816164E-02  0.1186339E+00
        -11   -1    0    0    0    0  0.00000000000E+00  0.00000000000E+00  0.45593999997E+02  0.45594000000E+02  0.51100000000E-03 0.  1.
         11   -1    0    0    0    0 -0.00000000000E+00 -0.00000000000E+00 -0.45593999997E+02  0.45594000000E+02  0.51100000000E-03 0. -1.
    9900012    2    1    2    0    0 -0.64583184149E+00  0.71800661288E+00  0.67809175194E+00  0.90007982760E+02  0.90000247332E+02 0.  0.
         12    1    1    2    0    0  0.64583184149E+00 -0.71800661288E+00 -0.67809175194E+00  0.11800172404E+01  0.00000000000E+00 0. -1.
         11    1    3    3    0    0 -0.36361561878E+01 -0.71880076030E+01 -0.47257264136E+01  0.93392491946E+01  0.51100000000E-03 0. -1.
        -11    1    3    3    0    0 -0.20392594251E+02  0.37000912068E+02 -0.31799563400E+01  0.42367883080E+02  0.51100000000E-03 0.  1.
         12    1    3    3    0    0  0.23382918597E+02 -0.29094897852E+02  0.85837745055E+01  0.38300850485E+02  0.00000000000E+00 0. -1.
</event>
<event>
 7    1  0.3568207E-015  0.9000772E+02  0.7816164E-02  0.1186339E+00
        -11   -1    0    0    0    0  0.00000000000E+00  0.00000000000E+00  0.45593999997E+02  0.45594000000E+02  0.51100000000E-03 0. -1.
         11   -1    0    0    0    0 -0.00000000000E+00 -0.00000000000E+00 -0.45593999997E+02  0.45594000000E+02  0.51100000000E-03 0.  1.
    9900012    2    1    2    0    0  0.95270185822E+00 -0.27393588907E+00  0.64060555161E+00  0.90007721569E+02  0.89999982694E+02 0.  0.
         12    1    1    2    0    0 -0.95270185822E+00  0.27393588907E+00 -0.64060555161E+00  0.11802784310E+01  0.00000000000E+00 0. -1.
         11    1    3    3    0    0 -0.35307777746E+00  0.29662296147E+01 -0.41077935554E+01  0.50790895049E+01  0.51100000000E-03 0. -1.
        -11    1    3    3    0    0 -0.36324511326E+02  0.10659257334E+02 -0.14368353157E+02  0.40491226984E+02  0.51100000000E-03 0.  1.
         12    1    3    3    0    0  0.37630290962E+02 -0.13899422837E+02  0.19116752264E+02  0.44437405080E+02  0.00000000000E+00 0. -1.
</event>
<event>
 7    1  0.3568207E-015  0.9000779E+02  0.7816164E-02  0.1186339E+00
        -11   -1    0    0    0    0  0.00000000000E+00  0.00000000000E+00  0.45593999997E+02  0.45594000000E+02  0.51100000000E-03 0. -1.
         11   -1    0    0    0    0 -0.00000000000E+00 -0.00000000000E+00 -0.45593999997E+02  0.45594000000E+02  0.51100000000E-03 0.  1.
    9900012    2    1    2    0    0 -0.36285874799E+00 -0.91568246455E+00  0.65020187026E+00  0.90007786749E+02  0.90000048734E+02 0.  0.
         12    1    1    2    0    0  0.36285874799E+00  0.91568246455E+00 -0.65020187026E+00  0.11802132515E+01  0.00000000000E+00 0. -1.
         11    1    3    3    0    0 -0.74909749755E+01  0.13195673181E+01 -0.81094109312E+01  0.11118386120E+02  0.51100000000E-03 0. -1.
        -11    1    3    3    0    0  0.13900178601E+01 -0.46923792545E+01 -0.34669897680E+02  0.35013602758E+02  0.51100000000E-03 0.  1.
         12    1    3    3    0    0  0.57380983674E+01  0.24571294718E+01  0.43429510482E+02  0.43875797871E+02  0.00000000000E+00 0. -1.
</event>
<event>
 7    1  0.3568207E-015  0.9000783E+02  0.7816164E-02  0.1186339E+00
        -11   -1    0    0    0    0  0.00000000000E+00  0.00000000000E+00  0.45593999997E+02  0.45594000000E+02  0.51100000000E-03 0.  1.
         11   -1    0    0    0    0 -0.00000000000E+00 -0.00000000000E+00 -0.45593999997E+02  0.45594000000E+02  0.51100000000E-03 0. -1.
    9900012    2    1    2    0    0 -0.20451189485E+00 -0.49841476533E+00  0.10500236320E+01  0.90007833901E+02  0.90000096508E+02 0.  0.
         12    1    1    2    0    0  0.20451189485E+00  0.49841476533E+00 -0.10500236320E+01  0.11801660990E+01  0.00000000000E+00 0. -1.
         11    1    3    3    0    0  0.97053425166E+01 -0.60746264189E+01 -0.39242819532E+01  0.12103501502E+02  0.51100000000E-03 0. -1.
        -11    1    3    3    0    0 -0.26150064188E+02 -0.25634017115E+02  0.17464728905E+02  0.40570253221E+02  0.51100000000E-03 0.  1.
         12    1    3    3    0    0  0.16240209776E+02  0.31210228768E+02 -0.12490423320E+02  0.37334079178E+02  0.00000000000E+00 0. -1.
</event>
<event>
 7    1  0.3568207E-015  0.9000774E+02  0.7816164E-02  0.1186339E+00
        -11   -1    0    0    0    0  0.00000000000E+00  0.00000000000E+00  0.45593999997E+02  0.45594000000E+02  0.51100000000E-03 0.  1.
         11   -1    0    0    0    0 -0.00000000000E+00 -0.00000000000E+00 -0.45593999997E+02  0.45594000000E+02  0.51100000000E-03 0. -1.
    9900012    2    1    2    0    0  0.98620955043E+00  0.55010255219E+00  0.34321965772E+00  0.90007736543E+02  0.89999997865E+02 0.  0.
         12    1    1    2    0    0 -0.98620955043E+00 -0.55010255219E+00 -0.34321965772E+00  0.11802634573E+01  0.00000000000E+00 0. -1.
         11    1    3    3    0    0  0.66548912127E-01  0.11520833505E+01 -0.40494187251E+02  0.40510627324E+02  0.51100000000E-03 0. -1.
        -11    1    3    3    0    0  0.88009995657E+01  0.31727519971E+01  0.18426168172E+01  0.95351552471E+01  0.51100000000E-03 0.  1.
        -12    1    3    3    0    0 -0.78813389274E+01 -0.37747327953E+01  0.38994790091E+02  0.39961953972E+02  0.00000000000E+00 0.  1.
</event>
<event>
 7    1  0.3568207E-015  0.9000773E+02  0.7816164E-02  0.1186339E+00
        -11   -1    0    0    0    0  0.00000000000E+00  0.00000000000E+00  0.45593999997E+02  0.45594000000E+02  0.51100000000E-03 0.  1.
         11   -1    0    0    0    0 -0.00000000000E+00 -0.00000000000E+00 -0.45593999997E+02  0.45594000000E+02  0.51100000000E-03 0. -1.
    9900012    2    1    2    0    0  0.58991419600E+00 -0.91867963037E+00  0.44841468346E+00  0.90007725985E+02  0.89999987168E+02 0.  0.
         12    1    1    2    0    0 -0.58991419600E+00  0.91867963037E+00 -0.44841468346E+00  0.11802740149E+01  0.00000000000E+00 0. -1.
         11    1    3    3    0    0 -0.31467622501E+01 -0.10864168697E+02  0.79537462015E+00  0.11338646092E+02  0.51100000000E-03 0. -1.
        -11    1    3    3    0    0  0.25711836425E+02  0.24635789786E+02  0.23829583037E+02  0.42847050059E+02  0.51100000000E-03 0.  1.
         12    1    3    3    0    0 -0.21975159979E+02 -0.14690300719E+02 -0.24176542974E+02  0.35822029835E+02  0.00000000000E+00 0. -1.
</event>
<event>
 7    1  0.3568207E-015  0.9000768E+02  0.7816164E-02  0.1186339E+00
        -11   -1    0    0    0    0  0.00000000000E+00  0.00000000000E+00  0.45593999997E+02  0.45594000000E+02  0.51100000000E-03 0.  1.
         11   -1    0    0    0    0 -0.00000000000E+00 -0.00000000000E+00 -0.45593999997E+02  0.45594000000E+02  0.51100000000E-03 0. -1.
    9900012    2    1    2    0    0  0.87340230931E+00  0.43632866294E+00 -0.66328669648E+00  0.90007676511E+02  0.89999937041E+02 0.  0.
         12    1    1    2    0    0 -0.87340230931E+00 -0.43632866294E+00  0.66328669648E+00  0.11803234886E+01  0.00000000000E+00 0. -1.
         11    1    3    3    0    0  0.59601264889E+01  0.37503160734E+00  0.13576186744E+01  0.61242865051E+01  0.51100000000E-03 0. -1.
        -11    1    3    3    0    0  0.17383732259E+02  0.72822503687E+01  0.35131503872E+02  0.39867880333E+02  0.51100000000E-03 0.  1.
         12    1    3    3    0    0 -0.22470456438E+02 -0.72209533131E+01 -0.37152409243E+02  0.44015509674E+02  0.00000000000E+00 0. -1.
</event>
<event>
 7    1  0.3568207E-015  0.9000773E+02  0.7816164E-02  0.1186339E+00
        -11   -1    0    0    0    0  0.00000000000E+00  0.00000000000E+00  0.45593999997E+02  0.45594000000E+02  0.51100000000E-03 0. -1.
         11   -1    0    0    0    0 -0.00000000000E+00 -0.00000000000E+00 -0.45593999997E+02  0.45594000000E+02  0.51100000000E-03 0.  1.
    9900012    2    1    2    0    0 -0.67880072182E-01  0.11218143073E+01  0.36051362754E+00  0.90007726676E+02  0.89999987868E+02 0.  0.
         12    1    1    2    0    0  0.67880072182E-01 -0.11218143073E+01 -0.36051362754E+00  0.11802733243E+01  0.00000000000E+00 0. -1.
         11    1    3    3    0    0  0.56830539170E+01  0.70701240383E+01 -0.49263217263E+01  0.10322422281E+02  0.51100000000E-03 0. -1.
        -11    1    3    3    0    0  0.15640752710E+02 -0.35733254796E+02 -0.94981829447E+01  0.40146159507E+02  0.51100000000E-03 0.  1.
         12    1    3    3    0    0 -0.21391686699E+02  0.29784945065E+02  0.14785018299E+02  0.39539144888E+02  0.00000000000E+00 0. -1.
</event>
<event>
 7    1  0.3568207E-015  0.9000776E+02  0.7816164E-02  0.1186339E+00
        -11   -1    0    0    0    0  0.00000000000E+00  0.00000000000E+00  0.45593999997E+02  0.45594000000E+02  0.51100000000E-03 0.  1.
         11   -1    0    0    0    0 -0.00000000000E+00 -0.00000000000E+00 -0.45593999997E+02  0.45594000000E+02  0.51100000000E-03 0. -1.
    9900012    2    1    2    0    0 -0.22550835097E+00  0.50750418295E+00  0.10414227457E+01  0.90007756022E+02  0.90000017602E+02 0.  0.
         12    1    1    2    0    0  0.22550835097E+00 -0.50750418295E+00 -0.10414227457E+01  0.11802439779E+01  0.00000000000E+00 0. -1.
         11    1    3    3    0    0 -0.28250381094E+01  0.34938178190E+00 -0.89419323137E+01  0.93840855555E+01  0.51100000000E-03 0. -1.
        -11    1    3    3    0    0  0.22192870078E+02 -0.24749097296E+02  0.28615312704E+02  0.43862027092E+02  0.51100000000E-03 0.  1.
         12    1    3    3    0    0 -0.19593340319E+02  0.24907219697E+02 -0.18631957644E+02  0.36761643374E+02  0.00000000000E+00 0. -1.
</event>
<event>
 7    1  0.3568207E-015  0.9000779E+02  0.7816164E-02  0.1186339E+00
        -11   -1    0    0    0    0  0.00000000000E+00  0.00000000000E+00  0.45593999997E+02  0.45594000000E+02  0.51100000000E-03 0. -1.
         11   -1    0    0    0    0 -0.00000000000E+00 -0.00000000000E+00 -0.45593999997E+02  0.45594000000E+02  0.51100000000E-03 0.  1.
    9900012    2    1    2    0    0  0.34647965465E+00 -0.19084351651E+00 -0.11119443162E+01  0.90007792577E+02  0.90000054639E+02 0.  0.
         12    1    1    2    0    0 -0.34647965465E+00  0.19084351651E+00  0.11119443162E+01  0.11802074230E+01  0.00000000000E+00 0. -1.
         11    1    3    3    0    0 -0.21350760984E+02 -0.12986209787E+02  0.25455487298E+02  0.35671816229E+02  0.51100000000E-03 0. -1.
        -11    1    3    3    0    0 -0.21365813410E+01 -0.10668760239E+02  0.10914030878E+01  0.10935199395E+02  0.51100000000E-03 0.  1.
        -12    1    3    3    0    0  0.23833821979E+02  0.23464126509E+02 -0.27658834702E+02  0.43400776953E+02  0.00000000000E+00 0.  1.
</event>
<event>
 7    1  0.3568207E-015  0.9000766E+02  0.7816164E-02  0.1186339E+00
        -11   -1    0    0    0    0  0.00000000000E+00  0.00000000000E+00  0.45593999997E+02  0.45594000000E+02  0.51100000000E-03 0.  1.
         11   -1    0    0    0    0 -0.00000000000E+00 -0.00000000000E+00 -0.45593999997E+02  0.45594000000E+02  0.51100000000E-03 0. -1.
    9900012    2    1    2    0    0  0.11046796637E+01 -0.34819356510E+00 -0.22728235993E+00  0.90007655479E+02  0.89999915731E+02 0.  0.
         12    1    1    2    0    0 -0.11046796637E+01  0.34819356510E+00  0.22728235993E+00  0.11803445215E+01  0.00000000000E+00 0. -1.
         11    1    3    3    0    0  0.58497667604E+01  0.79309008526E+01  0.33665744498E+01  0.10414066606E+02  0.51100000000E-03 0. -1.
        -11    1    3    3    0    0 -0.16313443405E+01  0.30723878271E+02  0.17237367541E+02  0.35266766514E+02  0.51100000000E-03 0.  1.
         12    1    3    3    0    0 -0.31137427562E+01 -0.39002972688E+02 -0.20831224350E+02  0.44326822359E+02  0.00000000000E+00 0. -1.
</event>
<event>
 7    1  0.3568207E-015  0.9000776E+02  0.7816164E-02  0.1186339E+00
        -11   -1    0    0    0    0  0.00000000000E+00  0.00000000000E+00  0.45593999997E+02  0.45594000000E+02  0.51100000000E-03 0. -1.
         11   -1    0    0    0    0 -0.00000000000E+00 -0.00000000000E+00 -0.45593999997E+02  0.45594000000E+02  0.51100000000E-03 0.  1.
    9900012    2    1    2    0    0 -0.37679480804E+00  0.10675455911E+01  0.33366685933E+00  0.90007762105E+02  0.90000023764E+02 0.  0.
         12    1    1    2    0    0  0.37679480804E+00 -0.10675455911E+01 -0.33366685933E+00  0.11802378953E+01  0.00000000000E+00 0. -1.
         11    1    3    3    0    0  0.84724749842E+01  0.36758193656E+01  0.38566126905E+01  0.10008393581E+02  0.51100000000E-03 0. -1.
        -11    1    3    3    0    0  0.39912136891E+00 -0.21271518173E+02 -0.35764951440E+02  0.41614523126E+02  0.51100000000E-03 0.  1.
         12    1    3    3    0    0 -0.92483911611E+01  0.18663244399E+02  0.32242005608E+02  0.38384845398E+02  0.00000000000E+00 0. -1.
</event>
<event>
 7    1  0.3568207E-015  0.9000776E+02  0.7816164E-02  0.1186339E+00
        -11   -1    0    0    0    0  0.00000000000E+00  0.00000000000E+00  0.45593999997E+02  0.45594000000E+02  0.51100000000E-03 0.  1.
         11   -1    0    0    0    0 -0.00000000000E+00 -0.00000000000E+00 -0.45593999997E+02  0.45594000000E+02  0.51100000000E-03 0. -1.
    9900012    2    1    2    0    0  0.14121921213E+00 -0.11685654015E+01 -0.86415284943E-01  0.90007764615E+02  0.90000026308E+02 0.  0.
         12    1    1    2    0    0 -0.14121921213E+00  0.11685654015E+01  0.86415284943E-01  0.11802353854E+01  0.00000000000E+00 0. -1.
         11    1    3    3    0    0  0.23470986902E+02 -0.12820288900E+02 -0.32219575878E+02  0.41872999697E+02  0.51100000000E-03 0. -1.
        -11    1    3    3    0    0 -0.99349285788E+01 -0.16405962609E+01 -0.88095682044E+00  0.10107939807E+02  0.51100000000E-03 0.  1.
        -12    1    3    3    0    0 -0.13394839111E+02  0.13292319759E+02  0.33014117413E+02  0.38026825110E+02  0.00000000000E+00 0.  1.
</event>
<event>
 7    1  0.3568207E-015  0.9000801E+02  0.7816164E-02  0.1186339E+00
        -11   -1    0    0    0    0  0.00000000000E+00  0.00000000000E+00  0.45593999997E+02  0.45594000000E+02  0.51100000000E-03 0.  1.
         11   -1    0    0    0    0 -0.00000000000E+00 -0.00000000000E+00 -0.45593999997E+02  0.45594000000E+02  0.51100000000E-03 0. -1.
    9900012    2    1    2    0    0  0.54621472901E+00  0.71524953945E+00 -0.76318184981E+00  0.90008008911E+02  0.90000273828E+02 0.  0.
         12    1    1    2    0    0 -0.54621472901E+00 -0.71524953945E+00  0.76318184981E+00  0.11799910888E+01  0.00000000000E+00 0. -1.
         11    1    3    3    0    0 -0.27354565772E+01 -0.29073418353E+02 -0.24298290631E+02  0.37988857646E+02  0.51100000000E-03 0. -1.
        -11    1    3    3    0    0  0.63588648653E+01  0.76912224393E+00 -0.72001516484E+01  0.96368509079E+01  0.51100000000E-03 0.  1.
        -12    1    3    3    0    0 -0.30771935591E+01  0.29019545649E+02  0.30735260430E+02  0.42382300357E+02  0.00000000000E+00 0.  1.
</event>
<event>
 7    1  0.3568207E-015  0.9000783E+02  0.7816164E-02  0.1186339E+00
        -11   -1    0    0    0    0  0.00000000000E+00  0.00000000000E+00  0.45593999997E+02  0.45594000000E+02  0.51100000000E-03 0.  1.
         11   -1    0    0    0    0 -0.00000000000E+00 -0.00000000000E+00 -0.45593999997E+02  0.45594000000E+02  0.51100000000E-03 0. -1.
    9900012    2    1    2    0    0  0.37972567327E+00 -0.68468022753E+00  0.88308227623E+00  0.90007825052E+02  0.90000087543E+02 0.  0.
         12    1    1    2    0    0 -0.37972567327E+00  0.68468022753E+00 -0.88308227623E+00  0.11801749478E+01  0.00000000000E+00 0. -1.
         11    1    3    3    0    0 -0.25428273639E+02 -0.95434577736E+01 -0.28942337765E+02  0.39690472435E+02  0.51100000000E-03 0. -1.
        -11    1    3    3    0    0 -0.41871777925E+01 -0.57880047385E+01  0.51189346946E+01  0.87884554608E+01  0.51100000000E-03 0.  1.
        -12    1    3    3    0    0  0.29995177104E+02  0.14646782285E+02  0.24706485347E+02  0.41528897156E+02  0.00000000000E+00 0.  1.
</event>
<event>
 7    1  0.3568207E-015  0.9000771E+02  0.7816164E-02  0.1186339E+00
        -11   -1    0    0    0    0  0.00000000000E+00  0.00000000000E+00  0.45593999997E+02  0.45594000000E+02  0.51100000000E-03 0.  1.
         11   -1    0    0    0    0 -0.00000000000E+00 -0.00000000000E+00 -0.45593999997E+02  0.45594000000E+02  0.51100000000E-03 0. -1.
    9900012    2    1    2    0    0  0.81226371043E+00  0.57682441906E+00  0.63291941037E+00  0.90007709474E+02  0.89999970439E+02 0.  0.
         12    1    1    2    0    0 -0.81226371043E+00 -0.57682441906E+00 -0.63291941037E+00  0.11802905260E+01  0.00000000000E+00 0. -1.
         11    1    3    3    0    0  0.33884553174E+02  0.19592135578E+02 -0.13706158044E+02  0.41471357452E+02  0.51100000000E-03 0. -1.
        -11    1    3    3    0    0 -0.73722098810E+01  0.20648233061E+01 -0.58595964838E+01  0.96409462725E+01  0.51100000000E-03 0.  1.
        -12    1    3    3    0    0 -0.25700079583E+02 -0.21080134465E+02  0.20198673938E+02  0.38895405750E+02  0.00000000000E+00 0.  1.
</event>
<event>
 7    1  0.3568207E-015  0.9000775E+02  0.7816164E-02  0.1186339E+00
        -11   -1    0    0    0    0  0.00000000000E+00  0.00000000000E+00  0.45593999997E+02  0.45594000000E+02  0.51100000000E-03 0.  1.
         11   -1    0    0    0    0 -0.00000000000E+00 -0.00000000000E+00 -0.45593999997E+02  0.45594000000E+02  0.51100000000E-03 0. -1.
    9900012    2    1    2    0    0 -0.57955247715E+00  0.35447554094E+00  0.96511778646E+00  0.90007751584E+02  0.90000013104E+02 0.  0.
         12    1    1    2    0    0  0.57955247715E+00 -0.35447554094E+00 -0.96511778646E+00  0.11802484165E+01  0.00000000000E+00 0. -1.
         11    1    3    3    0    0 -0.15511822164E+02  0.13404345764E+02  0.26200175781E+01  0.20667791478E+02  0.51100000000E-03 0. -1.
        -11    1    3    3    0    0 -0.46590153101E+01  0.22253232150E+02  0.13234545178E+02  0.26307146388E+02  0.51100000000E-03 0.  1.
         12    1    3    3    0    0  0.19591284997E+02 -0.35303102372E+02 -0.14889444970E+02  0.43032813718E+02  0.00000000000E+00 0. -1.
</event>
<event>
 7    1  0.3568207E-015  0.9000774E+02  0.7816164E-02  0.1186339E+00
        -11   -1    0    0    0    0  0.00000000000E+00  0.00000000000E+00  0.45593999997E+02  0.45594000000E+02  0.51100000000E-03 0.  1.
         11   -1    0    0    0    0 -0.00000000000E+00 -0.00000000000E+00 -0.45593999997E+02  0.45594000000E+02  0.51100000000E-03 0. -1.
    9900012    2    1    2    0    0 -0.85009395926E+00 -0.78495166689E+00 -0.23282832631E+00  0.90007738212E+02  0.89999999556E+02 0.  0.
         12    1    1    2    0    0  0.85009395926E+00  0.78495166689E+00  0.23282832631E+00  0.11802617881E+01  0.00000000000E+00 0. -1.
         11    1    3    3    0    0  0.22849196129E+02  0.29410283005E+02  0.91194475981E+01  0.38343380588E+02  0.51100000000E-03 0. -1.
        -11    1    3    3    0    0  0.56956531147E+01 -0.46974701441E+01 -0.10380357120E+02  0.12738073023E+02  0.51100000000E-03 0.  1.
        -12    1    3    3    0    0 -0.29394943203E+02 -0.25497764528E+02  0.10280811952E+01  0.38926284600E+02  0.00000000000E+00 0.  1.
</event>
<event>
 7    1  0.3568207E-015  0.9000778E+02  0.7816164E-02  0.1186339E+00
        -11   -1    0    0    0    0  0.00000000000E+00  0.00000000000E+00  0.45593999997E+02  0.45594000000E+02  0.51100000000E-03 0.  1.
         11   -1    0    0    0    0 -0.00000000000E+00 -0.00000000000E+00 -0.45593999997E+02  0.45594000000E+02  0.51100000000E-03 0. -1.
    9900012    2    1    2    0    0  0.33652754471E+00  0.10712043600E+01  0.36357311302E+00  0.90007781809E+02  0.90000043729E+02 0.  0.
         12    1    1    2    0    0 -0.33652754471E+00 -0.10712043600E+01 -0.36357311302E+00  0.11802181908E+01  0.00000000000E+00 0. -1.
         11    1    3    3    0    0 -0.29124543204E+02  0.44521283883E+01 -0.17358026633E+02  0.34195928893E+02  0.51100000000E-03 0. -1.
        -11    1    3    3    0    0 -0.10119229717E+02 -0.41013601408E+01  0.11289561884E+02  0.15705864283E+02  0.51100000000E-03 0.  1.
        -12    1    3    3    0    0  0.39580300466E+02  0.72043611261E+00  0.64320378623E+01  0.40105988633E+02  0.00000000000E+00 0.  1.
</event>
<event>
 7    1  0.3568207E-015  0.9000808E+02  0.7816164E-02  0.1186338E+00
        -11   -1    0    0    0    0  0.00000000000E+00  0.00000000000E+00  0.45593999997E+02  0.45594000000E+02  0.51100000000E-03 0. -1.
         11   -1    0    0    0    0 -0.00000000000E+00 -0.00000000000E+00 -0.45593999997E+02  0.45594000000E+02  0.51100000000E-03 0.  1.
    9900012    2    1    2    0    0  0.33187606032E+00  0.11252684972E+01  0.12588647544E+00  0.90008076988E+02  0.90000342803E+02 0.  0.
         12    1    1    2    0    0 -0.33187606032E+00 -0.11252684972E+01 -0.12588647544E+00  0.11799230122E+01  0.00000000000E+00 0. -1.
         11    1    3    3    0    0  0.16524409661E+01 -0.51300821532E+01 -0.50836442130E+01  0.74088961924E+01  0.51100000000E-03 0. -1.
        -11    1    3    3    0    0 -0.39179733337E+02 -0.85397643162E-01 -0.11353709605E+02  0.40791733466E+02  0.51100000000E-03 0.  1.
         12    1    3    3    0    0  0.37859168431E+02  0.63407482935E+01  0.16563240293E+02  0.41807447330E+02  0.00000000000E+00 0. -1.
</event>
<event>
 7    1  0.3568207E-015  0.9000768E+02  0.7816164E-02  0.1186339E+00
        -11   -1    0    0    0    0  0.00000000000E+00  0.00000000000E+00  0.45593999997E+02  0.45594000000E+02  0.51100000000E-03 0.  1.
         11   -1    0    0    0    0 -0.00000000000E+00 -0.00000000000E+00 -0.45593999997E+02  0.45594000000E+02  0.51100000000E-03 0. -1.
    9900012    2    1    2    0    0 -0.95580893698E+00 -0.47972116536E+00  0.49944591680E+00  0.90007682524E+02  0.89999943133E+02 0.  0.
         12    1    1    2    0    0  0.95580893698E+00  0.47972116536E+00 -0.49944591680E+00  0.11803174761E+01  0.00000000000E+00 0. -1.
         11    1    3    3    0    0  0.16796205591E+02 -0.35423832186E+02 -0.17058993555E+02  0.42754761961E+02  0.51100000000E-03 0. -1.
        -11    1    3    3    0    0 -0.78239082491E+01  0.21015061771E+01 -0.11353578261E+01  0.81803976772E+01  0.51100000000E-03 0.  1.
        -12    1    3    3    0    0 -0.99281062790E+01  0.32842604844E+02  0.18693797298E+02  0.39072522885E+02  0.00000000000E+00 0.  1.
</event>
<event>
 7    1  0.3568207E-015  0.9000773E+02  0.7816164E-02  0.1186339E+00
        -11   -1    0    0    0    0  0.00000000000E+00  0.00000000000E+00  0.45593999997E+02  0.45594000000E+02  0.51100000000E-03 0. -1.
         11   -1    0    0    0    0 -0.00000000000E+00 -0.00000000000E+00 -0.45593999997E+02  0.45594000000E+02  0.51100000000E-03 0.  1.
    9900012    2    1    2    0    0  0.10605192827E+01 -0.37417645160E+00 -0.35821673800E+00  0.90007733760E+02  0.89999995046E+02 0.  0.
         12    1    1    2    0    0 -0.10605192827E+01  0.37417645160E+00  0.35821673800E+00  0.11802662400E+01  0.00000000000E+00 0. -1.
         11    1    3    3    0    0 -0.33434898035E+02  0.47348633237E+01  0.25093633867E+02  0.42071389307E+02  0.51100000000E-03 0. -1.
        -11    1    3    3    0    0  0.62970271444E+01  0.74469513193E+01 -0.62853379987E+01  0.11602375137E+02  0.51100000000E-03 0.  1.
        -12    1    3    3    0    0  0.28198390173E+02 -0.12555991095E+02 -0.19166512607E+02  0.36333969316E+02  0.00000000000E+00 0.  1.
</event>
<event>
 7    1  0.4088500E-015  0.9000784E+02  0.7816164E-02  0.1186339E+00
        -11   -1    0    0    0    0  0.00000000000E+00  0.00000000000E+00  0.45593999997E+02  0.45594000000E+02  0.51100000000E-03 0. -1.
         11   -1    0    0    0    0 -0.00000000000E+00 -0.00000000000E+00 -0.45593999997E+02  0.45594000000E+02  0.51100000000E-03 0.  1.
    9900012    2    1    2    0    0  0.10268464071E+01 -0.57942324522E+00  0.51410001944E-01  0.90007835677E+02  0.90000098308E+02 0.  0.
         12    1    1    2    0    0 -0.10268464071E+01  0.57942324522E+00 -0.51410001944E-01  0.11801643229E+01  0.00000000000E+00 0. -1.
         11    1    3    3    0    0 -0.72156661596E+01 -0.45255976482E+00  0.60145796553E+01  0.94045636347E+01  0.51100000000E-03 0. -1.
        -11    1    3    3    0    0 -0.12104507417E+02  0.30312442206E+02 -0.23289612589E+02  0.40096998730E+02  0.51100000000E-03 0.  1.
         12    1    3    3    0    0  0.20347019984E+02 -0.30439305686E+02  0.17326442936E+02  0.40506273313E+02  0.00000000000E+00 0. -1.
</event>
<event>
 7    1  0.3568207E-015  0.9000773E+02  0.7816164E-02  0.1186339E+00
        -11   -1    0    0    0    0  0.00000000000E+00  0.00000000000E+00  0.45593999997E+02  0.45594000000E+02  0.51100000000E-03 0.  1.
         11   -1    0    0    0    0 -0.00000000000E+00 -0.00000000000E+00 -0.45593999997E+02  0.45594000000E+02  0.51100000000E-03 0. -1.
    9900012    2    1    2    0    0  0.50274420117E+00  0.42555412417E-01  0.10669892998E+01  0.90007733564E+02  0.89999994847E+02 0.  0.
         12    1    1    2    0    0 -0.50274420117E+00 -0.42555412417E-01 -0.10669892998E+01  0.11802664363E+01  0.00000000000E+00 0. -1.
         11    1    3    3    0    0  0.26895621530E+02 -0.81460661200E+01 -0.16424551122E+02  0.32549942097E+02  0.51100000000E-03 0. -1.
        -11    1    3    3    0    0  0.43947250370E+01 -0.28530930978E+01 -0.12203619867E+02  0.13280891781E+02  0.51100000000E-03 0.  1.
        -12    1    3    3    0    0 -0.30787602365E+02  0.11041714630E+02  0.29695160288E+02  0.44176899686E+02  0.00000000000E+00 0.  1.
</event>
<event>
 7    1  0.3568207E-015  0.9000781E+02  0.7816164E-02  0.1186339E+00
        -11   -1    0    0    0    0  0.00000000000E+00  0.00000000000E+00  0.45593999997E+02  0.45594000000E+02  0.51100000000E-03 0.  1.
         11   -1    0    0    0    0 -0.00000000000E+00 -0.00000000000E+00 -0.45593999997E+02  0.45594000000E+02  0.51100000000E-03 0. -1.
    9900012    2    1    2    0    0  0.10712120290E+01 -0.27661003174E+00  0.41090216098E+00  0.90007809801E+02  0.90000072090E+02 0.  0.
         12    1    1    2    0    0 -0.10712120290E+01  0.27661003174E+00 -0.41090216098E+00  0.11801901994E+01  0.00000000000E+00 0. -1.
         11    1    3    3    0    0 -0.28727942631E+01  0.34478049408E+02  0.48265195496E+01  0.34932565453E+02  0.51100000000E-03 0. -1.
        -11    1    3    3    0    0  0.40629883821E+01  0.91859027027E+01 -0.48011679037E+01  0.11132829674E+02  0.51100000000E-03 0.  1.
        -12    1    3    3    0    0 -0.11898208998E+00 -0.43940562143E+02  0.38555051507E+00  0.43942414674E+02  0.00000000000E+00 0.  1.
</event>
<event>
 7    1  0.3568207E-015  0.9000780E+02  0.7816164E-02  0.1186339E+00
        -11   -1    0    0    0    0  0.00000000000E+00  0.00000000000E+00  0.45593999997E+02  0.45594000000E+02  0.51100000000E-03 0. -1.
         11   -1    0    0    0    0 -0.00000000000E+00 -0.00000000000E+00 -0.45593999997E+02  0.45594000000E+02  0.51100000000E-03 0.  1.
    9900012    2    1    2    0    0  0.61684623628E+00 -0.99816608208E+00  0.12660601567E+00  0.90007803453E+02  0.90000065658E+02 0.  0.
         12    1    1    2    0    0 -0.61684623628E+00  0.99816608208E+00 -0.12660601567E+00  0.11801965471E+01  0.00000000000E+00 0. -1.
         11    1    3    3    0    0  0.49213970255E+01 -0.86345669861E+01 -0.12421493703E+01  0.10015928866E+02  0.51100000000E-03 0. -1.
        -11    1    3    3    0    0 -0.70580459104E+01 -0.34255034091E+02 -0.10224907622E+02  0.36438607394E+02  0.51100000000E-03 0.  1.
         12    1    3    3    0    0  0.27534951212E+01  0.41891434995E+02  0.11593663008E+02  0.43553267194E+02  0.00000000000E+00 0. -1.
</event>
<event>
 7    1  0.3568207E-015  0.9000779E+02  0.7816164E-02  0.1186339E+00
        -11   -1    0    0    0    0  0.00000000000E+00  0.00000000000E+00  0.45593999997E+02  0.45594000000E+02  0.51100000000E-03 0.  1.
         11   -1    0    0    0    0 -0.00000000000E+00 -0.00000000000E+00 -0.45593999997E+02  0.45594000000E+02  0.51100000000E-03 0. -1.
    9900012    2    1    2    0    0 -0.70094324259E+00 -0.29557792603E+00  0.90233692977E+00  0.90007788293E+02  0.90000050298E+02 0.  0.
         12    1    1    2    0    0  0.70094324259E+00  0.29557792603E+00 -0.90233692977E+00  0.11802117075E+01  0.00000000000E+00 0. -1.
         11    1    3    3    0    0 -0.39453043353E+01  0.43529066103E+01 -0.71246902591E+01  0.92344157263E+01  0.51100000000E-03 0. -1.
        -11    1    3    3    0    0 -0.93492979642E+01  0.34908185692E+02  0.14152484477E+02  0.38810869841E+02  0.51100000000E-03 0.  1.
         12    1    3    3    0    0  0.12593659057E+02 -0.39556670228E+02 -0.61254572878E+01  0.41962502725E+02  0.00000000000E+00 0. -1.
</event>
<event>
 7    1  0.3568207E-015  0.9000770E+02  0.7816164E-02  0.1186339E+00
        -11   -1    0    0    0    0  0.00000000000E+00  0.00000000000E+00  0.45593999997E+02  0.45594000000E+02  0.51100000000E-03 0.  1.
         11   -1    0    0    0    0 -0.00000000000E+00 -0.00000000000E+00 -0.45593999997E+02  0.45594000000E+02  0.51100000000E-03 0. -1.
    9900012    2    1    2    0    0  0.60397710672E-01 -0.10236678476E+01  0.58444195606E+00  0.90007696587E+02  0.89999957382E+02 0.  0.
         12    1    1    2    0    0 -0.60397710672E-01  0.10236678476E+01 -0.58444195606E+00  0.11803034126E+01  0.00000000000E+00 0. -1.
         11    1    3    3    0    0  0.56019586174E+01 -0.40949169211E+01  0.50015046540E+01  0.85536737141E+01  0.51100000000E-03 0. -1.
        -11    1    3    3    0    0 -0.29402980628E+01  0.94738418165E+00  0.38390677517E+02  0.38514763532E+02  0.51100000000E-03 0.  1.
         12    1    3    3    0    0 -0.26012628439E+01  0.21238648918E+01 -0.42807740215E+02  0.42939259341E+02  0.00000000000E+00 0. -1.
</event>
<event>
 7    1  0.3568207E-015  0.9000776E+02  0.7816164E-02  0.1186339E+00
        -11   -1    0    0    0    0  0.00000000000E+00  0.00000000000E+00  0.45593999997E+02  0.45594000000E+02  0.51100000000E-03 0.  1.
         11   -1    0    0    0    0 -0.00000000000E+00 -0.00000000000E+00 -0.45593999997E+02  0.45594000000E+02  0.51100000000E-03 0. -1.
    9900012    2    1    2    0    0  0.29769035870E+00  0.79519082552E+00  0.81977187297E+00  0.90007756838E+02  0.90000018428E+02 0.  0.
         12    1    1    2    0    0 -0.29769035870E+00 -0.79519082552E+00 -0.81977187297E+00  0.11802431624E+01  0.00000000000E+00 0. -1.
         11    1    3    3    0    0 -0.31134416805E+01  0.15548704186E+02 -0.20026749397E+02  0.25544596544E+02  0.51100000000E-03 0. -1.
        -11    1    3    3    0    0 -0.27750926506E+02 -0.51570225898E+01  0.72989536205E+01  0.29154476983E+02  0.51100000000E-03 0.  1.
        -12    1    3    3    0    0  0.31162058545E+02 -0.95964907707E+01  0.13547567649E+02  0.35308683310E+02  0.00000000000E+00 0.  1.
</event>
<event>
 7    1  0.3568207E-015  0.9000784E+02  0.7816164E-02  0.1186339E+00
        -11   -1    0    0    0    0  0.00000000000E+00  0.00000000000E+00  0.45593999997E+02  0.45594000000E+02  0.51100000000E-03 0.  1.
         11   -1    0    0    0    0 -0.00000000000E+00 -0.00000000000E+00 -0.45593999997E+02  0.45594000000E+02  0.51100000000E-03 0. -1.
    9900012    2    1    2    0    0  0.10957972980E+01  0.28457882284E-01 -0.43726305225E+00  0.90007838763E+02  0.90000101434E+02 0.  0.
         12    1    1    2    0    0 -0.10957972980E+01 -0.28457882284E-01  0.43726305225E+00  0.11801612374E+01  0.00000000000E+00 0. -1.
         11    1    3    3    0    0 -0.11356116657E+02 -0.17606602775E+02 -0.30401132903E+02  0.36921304539E+02  0.51100000000E-03 0. -1.
        -11    1    3    3    0    0  0.33166926195E+01  0.19320760641E+01 -0.91702953377E+01  0.99412114298E+01  0.51100000000E-03 0.  1.
        -12    1    3    3    0    0  0.91352213354E+01  0.15702984593E+02  0.39134165189E+02  0.43145322794E+02  0.00000000000E+00 0.  1.
</event>
<event>
 7    1  0.3568207E-015  0.9000771E+02  0.7816164E-02  0.1186339E+00
        -11   -1    0    0    0    0  0.00000000000E+00  0.00000000000E+00  0.45593999997E+02  0.45594000000E+02  0.51100000000E-03 0. -1.
         11   -1    0    0    0    0 -0.00000000000E+00 -0.00000000000E+00 -0.45593999997E+02  0.45594000000E+02  0.51100000000E-03 0.  1.
    9900012    2    1    2    0    0 -0.85653243822E+00 -0.81176459057E+00 -0.21855828958E-01  0.90007708830E+02  0.89999969787E+02 0.  0.
         12    1    1    2    0    0  0.85653243822E+00  0.81176459057E+00  0.21855828958E-01  0.11802911698E+01  0.00000000000E+00 0. -1.
         11    1    3    3    0    0  0.75360020456E+01  0.49134508790E+00  0.59987312464E+01  0.96445592773E+01  0.51100000000E-03 0. -1.
        -11    1    3    3    0    0 -0.22662480232E+01  0.32047961185E+02 -0.25713148696E+02  0.41150622260E+02  0.51100000000E-03 0.  1.
         12    1    3    3    0    0 -0.61262864605E+01 -0.33351070863E+02  0.19692561621E+02  0.39212527293E+02  0.00000000000E+00 0. -1.
</event>
<event>
 7    1  0.3568207E-015  0.9000774E+02  0.7816164E-02  0.1186339E+00
        -11   -1    0    0    0    0  0.00000000000E+00  0.00000000000E+00  0.45593999997E+02  0.45594000000E+02  0.51100000000E-03 0.  1.
         11   -1    0    0    0    0 -0.00000000000E+00 -0.00000000000E+00 -0.45593999997E+02  0.45594000000E+02  0.51100000000E-03 0. -1.
    9900012    2    1    2    0    0  0.41837873722E+00 -0.10557249581E+01  0.32159195132E+00  0.90007738445E+02  0.89999999793E+02 0.  0.
         12    1    1    2    0    0 -0.41837873722E+00  0.10557249581E+01 -0.32159195132E+00  0.11802615550E+01  0.00000000000E+00 0. -1.
         11    1    3    3    0    0  0.54176285287E+01 -0.43083246750E+01 -0.59501707662E+01  0.91278087616E+01  0.51100000000E-03 0. -1.
        -11    1    3    3    0    0  0.34267278520E+02 -0.13326990728E+02  0.99733537705E+01  0.38096231371E+02  0.51100000000E-03 0.  1.
         12    1    3    3    0    0 -0.39266528311E+02  0.16579590445E+02 -0.37015910530E+01  0.42783698312E+02  0.00000000000E+00 0. -1.
</event>
<event>
 7    1  0.3568207E-015  0.9000773E+02  0.7816164E-02  0.1186339E+00
        -11   -1    0    0    0    0  0.00000000000E+00  0.00000000000E+00  0.45593999997E+02  0.45594000000E+02  0.51100000000E-03 0. -1.
         11   -1    0    0    0    0 -0.00000000000E+00 -0.00000000000E+00 -0.45593999997E+02  0.45594000000E+02  0.51100000000E-03 0.  1.
    9900012    2    1    2    0    0  0.11755732968E+01 -0.90244467369E-01 -0.54044765038E-01  0.90007729914E+02  0.89999991149E+02 0.  0.
         12    1    1    2    0    0 -0.11755732968E+01  0.90244467369E-01  0.54044765038E-01  0.11802700863E+01  0.00000000000E+00 0. -1.
         11    1    3    3    0    0  0.16029253254E+02 -0.18738591196E+02  0.27420605900E+02  0.36877654319E+02  0.51100000000E-03 0. -1.
        -11    1    3    3    0    0  0.62932666870E+01  0.12055916019E+01  0.67324798628E+01  0.92943500079E+01  0.51100000000E-03 0.  1.
        -12    1    3    3    0    0 -0.21146946644E+02  0.17442755126E+02 -0.34207130528E+02  0.43835725587E+02  0.00000000000E+00 0.  1.
</event>
<event>
 7    1  0.3568207E-015  0.9000764E+02  0.7816164E-02  0.1186339E+00
        -11   -1    0    0    0    0  0.00000000000E+00  0.00000000000E+00  0.45593999997E+02  0.45594000000E+02  0.51100000000E-03 0. -1.
         11   -1    0    0    0    0 -0.00000000000E+00 -0.00000000000E+00 -0.45593999997E+02  0.45594000000E+02  0.51100000000E-03 0.  1.
    9900012    2    1    2    0    0 -0.11562196968E+01  0.21030624114E+00  0.11040210066E+00  0.90007635088E+02  0.89999895071E+02 0.  0.
         12    1    1    2    0    0  0.11562196968E+01 -0.21030624114E+00 -0.11040210066E+00  0.11803649123E+01  0.00000000000E+00 0. -1.
         11    1    3    3    0    0 -0.37914991954E+02 -0.11992252912E+02  0.12036965536E+02  0.41548156208E+02  0.51100000000E-03 0. -1.
        -11    1    3    3    0    0 -0.53666389451E+00  0.92675918422E+01 -0.31613265892E+00  0.92884986305E+01  0.51100000000E-03 0.  1.
        -12    1    3    3    0    0  0.37295436152E+02  0.29349673106E+01 -0.11610430776E+02  0.39170980249E+02  0.00000000000E+00 0.  1.
</event>
<event>
 7    1  0.3568207E-015  0.9000767E+02  0.7816164E-02  0.1186339E+00
        -11   -1    0    0    0    0  0.00000000000E+00  0.00000000000E+00  0.45593999997E+02  0.45594000000E+02  0.51100000000E-03 0.  1.
         11   -1    0    0    0    0 -0.00000000000E+00 -0.00000000000E+00 -0.45593999997E+02  0.45594000000E+02  0.51100000000E-03 0. -1.
    9900012    2    1    2    0    0 -0.90197820233E-01 -0.83427767838E+00  0.83007824712E+00  0.90007667510E+02  0.89999927921E+02 0.  0.
         12    1    1    2    0    0  0.90197820233E-01  0.83427767838E+00 -0.83007824712E+00  0.11803324903E+01  0.00000000000E+00 0. -1.
         11    1    3    3    0    0  0.27205935283E+02 -0.12052713782E+01 -0.23548684030E+02  0.36002168178E+02  0.51100000000E-03 0. -1.
        -11    1    3    3    0    0  0.61313256139E+01 -0.55174690592E+01 -0.45392579875E+01  0.94149074314E+01  0.51100000000E-03 0.  1.
        -12    1    3    3    0    0 -0.33427458717E+02  0.58884627591E+01  0.28918020265E+02  0.44590591900E+02  0.00000000000E+00 0.  1.
</event>
<event>
 7    1  0.3568207E-015  0.9000778E+02  0.7816164E-02  0.1186339E+00
        -11   -1    0    0    0    0  0.00000000000E+00  0.00000000000E+00  0.45593999997E+02  0.45594000000E+02  0.51100000000E-03 0.  1.
         11   -1    0    0    0    0 -0.00000000000E+00 -0.00000000000E+00 -0.45593999997E+02  0.45594000000E+02  0.51100000000E-03 0. -1.
    9900012    2    1    2    0    0  0.14207736306E+00  0.10548021681E+01  0.51003351398E+00  0.90007776387E+02  0.90000038235E+02 0.  0.
         12    1    1    2    0    0 -0.14207736306E+00 -0.10548021681E+01 -0.51003351398E+00  0.11802236128E+01  0.00000000000E+00 0. -1.
         11    1    3    3    0    0 -0.30351800131E+02 -0.78762984298E+01 -0.13390354330E+02  0.34096472508E+02  0.51100000000E-03 0. -1.
        -11    1    3    3    0    0 -0.87726482788E+01  0.62313285692E+01 -0.54394880951E+01  0.12057232044E+02  0.51100000000E-03 0.  1.
        -12    1    3    3    0    0  0.39266525772E+02  0.26997720286E+01  0.19339875939E+02  0.43854071836E+02  0.00000000000E+00 0.  1.
</event>
<event>
 7    1  0.3568207E-015  0.9000769E+02  0.7816164E-02  0.1186339E+00
        -11   -1    0    0    0    0  0.00000000000E+00  0.00000000000E+00  0.45593999997E+02  0.45594000000E+02  0.51100000000E-03 0.  1.
         11   -1    0    0    0    0 -0.00000000000E+00 -0.00000000000E+00 -0.45593999997E+02  0.45594000000E+02  0.51100000000E-03 0. -1.
    9900012    2    1    2    0    0  0.10452404694E+01 -0.13904051098E+00 -0.53034130671E+00  0.90007694190E+02  0.89999954954E+02 0.  0.
         12    1    1    2    0    0 -0.10452404694E+01  0.13904051098E+00  0.53034130671E+00  0.11803058096E+01  0.00000000000E+00 0. -1.
         11    1    3    3    0    0 -0.28724467112E-02  0.34362955592E+01  0.11126868249E+02  0.11645399638E+02  0.51100000000E-03 0. -1.
        -11    1    3    3    0    0 -0.11960429978E+01  0.33311070626E+02  0.10897187600E+02  0.35068599102E+02  0.51100000000E-03 0.  1.
         12    1    3    3    0    0  0.22441559139E+01 -0.36886406696E+02 -0.22554397156E+02  0.43293695451E+02  0.00000000000E+00 0. -1.
</event>
<event>
 7    1  0.3568207E-015  0.9000784E+02  0.7816164E-02  0.1186339E+00
        -11   -1    0    0    0    0  0.00000000000E+00  0.00000000000E+00  0.45593999997E+02  0.45594000000E+02  0.51100000000E-03 0.  1.
         11   -1    0    0    0    0 -0.00000000000E+00 -0.00000000000E+00 -0.45593999997E+02  0.45594000000E+02  0.51100000000E-03 0. -1.
    9900012    2    1    2    0    0  0.24198090295E+00  0.10126677426E+01  0.55562742894E+00  0.90007842149E+02  0.90000104865E+02 0.  0.
         12    1    1    2    0    0 -0.24198090295E+00 -0.10126677426E+01 -0.55562742894E+00  0.11801578513E+01  0.00000000000E+00 0. -1.
         11    1    3    3    0    0  0.48063288979E+01 -0.39850357101E+01 -0.76937094599E+01  0.99083032150E+01  0.51100000000E-03 0. -1.
        -11    1    3    3    0    0  0.20259460204E+02  0.34641388872E+02  0.10128361492E+02  0.41389071716E+02  0.51100000000E-03 0.  1.
         12    1    3    3    0    0 -0.24823808199E+02 -0.29643685419E+02 -0.18790246030E+01  0.38710467218E+02  0.00000000000E+00 0. -1.
</event>
<event>
 7    1  0.3568207E-015  0.9000770E+02  0.7816164E-02  0.1186339E+00
        -11   -1    0    0    0    0  0.00000000000E+00  0.00000000000E+00  0.45593999997E+02  0.45594000000E+02  0.51100000000E-03 0.  1.
         11   -1    0    0    0    0 -0.00000000000E+00 -0.00000000000E+00 -0.45593999997E+02  0.45594000000E+02  0.51100000000E-03 0. -1.
    9900012    2    1    2    0    0  0.59368095752E+00 -0.38874808456E+00  0.94314955939E+00  0.90007697817E+02  0.89999958628E+02 0.  0.
         12    1    1    2    0    0 -0.59368095752E+00  0.38874808456E+00 -0.94314955939E+00  0.11803021833E+01  0.00000000000E+00 0. -1.
         11    1    3    3    0    0  0.52968489058E+01  0.88702146733E+01  0.22059509567E+01  0.10564257502E+02  0.51100000000E-03 0. -1.
        -11    1    3    3    0    0  0.17955646712E+02 -0.26102345660E+02  0.25402669869E+02  0.40608291451E+02  0.51100000000E-03 0.  1.
         12    1    3    3    0    0 -0.22658814661E+02  0.16843382902E+02 -0.26665471267E+02  0.38835148864E+02  0.00000000000E+00 0. -1.
</event>
<event>
 7    1  0.3568207E-015  0.9000779E+02  0.7816164E-02  0.1186339E+00
        -11   -1    0    0    0    0  0.00000000000E+00  0.00000000000E+00  0.45593999997E+02  0.45594000000E+02  0.51100000000E-03 0.  1.
         11   -1    0    0    0    0 -0.00000000000E+00 -0.00000000000E+00 -0.45593999997E+02  0.45594000000E+02  0.51100000000E-03 0. -1.
    9900012    2    1    2    0    0 -0.19165759785E-01  0.14437401009E+00  0.11711918803E+01  0.90007787476E+02  0.90000049471E+02 0.  0.
         12    1    1    2    0    0  0.19165759785E-01 -0.14437401009E+00 -0.11711918803E+01  0.11802125239E+01  0.00000000000E+00 0. -1.
         11    1    3    3    0    0 -0.68339398016E+01  0.33495867484E+01 -0.19365291134E+01  0.78531910626E+01  0.51100000000E-03 0. -1.
        -11    1    3    3    0    0 -0.14427152263E+02 -0.10227364845E+02  0.37307713294E+02  0.41286888786E+02  0.51100000000E-03 0.  1.
         12    1    3    3    0    0  0.21241926305E+02  0.70221521069E+01 -0.34199992301E+02  0.40867707628E+02  0.00000000000E+00 0. -1.
</event>
<event>
 7    1  0.3568207E-015  0.9000778E+02  0.7816164E-02  0.1186339E+00
        -11   -1    0    0    0    0  0.00000000000E+00  0.00000000000E+00  0.45593999997E+02  0.45594000000E+02  0.51100000000E-03 0.  1.
         11   -1    0    0    0    0 -0.00000000000E+00 -0.00000000000E+00 -0.45593999997E+02  0.45594000000E+02  0.51100000000E-03 0. -1.
    9900012    2    1    2    0    0  0.11217085033E+01 -0.12146856150E+00  0.34632416358E+00  0.90007777562E+02  0.90000039425E+02 0.  0.
         12    1    1    2    0    0 -0.11217085033E+01  0.12146856150E+00 -0.34632416358E+00  0.11802224384E+01  0.00000000000E+00 0. -1.
         11    1    3    3    0    0  0.48638623086E+01 -0.68502082641E+01  0.82188893728E+01  0.11752984838E+02  0.51100000000E-03 0. -1.
        -11    1    3    3    0    0 -0.19814005278E+02 -0.30904634310E+02 -0.75388961571E+00  0.36718654344E+02  0.51100000000E-03 0.  1.
         12    1    3    3    0    0  0.16071851473E+02  0.37633374012E+02 -0.71186755935E+01  0.41536138380E+02  0.00000000000E+00 0. -1.
</event>
<event>
 7    1  0.3568207E-015  0.9000772E+02  0.7816164E-02  0.1186339E+00
        -11   -1    0    0    0    0  0.00000000000E+00  0.00000000000E+00  0.45593999997E+02  0.45594000000E+02  0.51100000000E-03 0. -1.
         11   -1    0    0    0    0 -0.00000000000E+00 -0.00000000000E+00 -0.45593999997E+02  0.45594000000E+02  0.51100000000E-03 0.  1.
    9900012    2    1    2    0    0 -0.14418254803E+00  0.16344713553E-01 -0.11713223298E+01  0.90007723864E+02  0.89999985019E+02 0.  0.
         12    1    1    2    0    0  0.14418254803E+00 -0.16344713553E-01  0.11713223298E+01  0.11802761359E+01  0.00000000000E+00 0. -1.
         11    1    3    3    0    0  0.33826489240E+02 -0.15123068045E+02 -0.18432704975E+02  0.41384818163E+02  0.51100000000E-03 0. -1.
        -11    1    3    3    0    0 -0.28817208843E+01 -0.58255419331E+01  0.74031852560E+01  0.98513149510E+01  0.51100000000E-03 0.  1.
        -12    1    3    3    0    0 -0.31088950904E+02  0.20964954691E+02  0.98581973896E+01  0.38771590750E+02  0.00000000000E+00 0.  1.
</event>
<event>
 7    1  0.3568207E-015  0.9000778E+02  0.7816164E-02  0.1186339E+00
        -11   -1    0    0    0    0  0.00000000000E+00  0.00000000000E+00  0.45593999997E+02  0.45594000000E+02  0.51100000000E-03 0. -1.
         11   -1    0    0    0    0 -0.00000000000E+00 -0.00000000000E+00 -0.45593999997E+02  0.45594000000E+02  0.51100000000E-03 0.  1.
    9900012    2    1    2    0    0  0.28172010002E+00  0.32751797355E+00 -0.10983135441E+01  0.90007776767E+02  0.90000038621E+02 0.  0.
         12    1    1    2    0    0 -0.28172010002E+00 -0.32751797355E+00  0.10983135441E+01  0.11802232327E+01  0.00000000000E+00 0. -1.
         11    1    3    3    0    0  0.80971245889E+01 -0.29433319789E+02  0.11195613695E+01  0.30547293797E+02  0.51100000000E-03 0. -1.
        -11    1    3    3    0    0 -0.25444790508E+02  0.88390271487E+01 -0.13178820807E+02  0.29987448758E+02  0.51100000000E-03 0.  1.
        -12    1    3    3    0    0  0.17629386019E+02  0.20921810614E+02  0.10960945893E+02  0.29473034212E+02  0.00000000000E+00 0.  1.
</event>
<event>
 7    1  0.3568207E-015  0.9000778E+02  0.7816164E-02  0.1186339E+00
        -11   -1    0    0    0    0  0.00000000000E+00  0.00000000000E+00  0.45593999997E+02  0.45594000000E+02  0.51100000000E-03 0. -1.
         11   -1    0    0    0    0 -0.00000000000E+00 -0.00000000000E+00 -0.45593999997E+02  0.45594000000E+02  0.51100000000E-03 0.  1.
    9900012    2    1    2    0    0  0.89169161187E+00  0.40874897924E+00  0.65630667220E+00  0.90007776247E+02  0.90000038094E+02 0.  0.
         12    1    1    2    0    0 -0.89169161187E+00 -0.40874897924E+00 -0.65630667220E+00  0.11802237528E+01  0.00000000000E+00 0. -1.
         11    1    3    3    0    0  0.22786955466E+01 -0.93696853360E+01  0.41454945556E+01  0.10496122239E+02  0.51100000000E-03 0. -1.
        -11    1    3    3    0    0 -0.22351835865E+02  0.35848113537E+01  0.31176799100E+02  0.38528538012E+02  0.51100000000E-03 0.  1.
         12    1    3    3    0    0  0.20964831930E+02  0.61936229616E+01 -0.34665986983E+02  0.40983115996E+02  0.00000000000E+00 0. -1.
</event>
<event>
 7    1  0.3827519E-015  0.9000819E+02  0.7816164E-02  0.1186338E+00
        -11   -1    0    0    0    0  0.00000000000E+00  0.00000000000E+00  0.45593999997E+02  0.45594000000E+02  0.51100000000E-03 0.  1.
         11   -1    0    0    0    0 -0.00000000000E+00 -0.00000000000E+00 -0.45593999997E+02  0.45594000000E+02  0.51100000000E-03 0. -1.
    9900012    2    1    2    0    0 -0.63737233209E-02 -0.92175574618E+00 -0.73640213694E+00  0.90008185444E+02  0.90000452690E+02 0.  0.
         12    1    1    2    0    0  0.63737233210E-02  0.92175574618E+00  0.73640213694E+00  0.11798145563E+01  0.00000000000E+00 0. -1.
         11    1    3    3    0    0  0.78949928755E+01 -0.30705733834E+01 -0.49208135948E+01  0.97966188097E+01  0.51100000000E-03 0. -1.
        -11    1    3    3    0    0  0.23640524848E+00  0.36839829865E+02 -0.14959347284E+02  0.39761929321E+02  0.51100000000E-03 0.  1.
         12    1    3    3    0    0 -0.81377718473E+01 -0.34691012227E+02  0.19143758742E+02  0.40449637313E+02  0.00000000000E+00 0. -1.
</event>
<event>
 7    1  0.3568207E-015  0.9000773E+02  0.7816164E-02  0.1186339E+00
        -11   -1    0    0    0    0  0.00000000000E+00  0.00000000000E+00  0.45593999997E+02  0.45594000000E+02  0.51100000000E-03 0.  1.
         11   -1    0    0    0    0 -0.00000000000E+00 -0.00000000000E+00 -0.45593999997E+02  0.45594000000E+02  0.51100000000E-03 0. -1.
    9900012    2    1    2    0    0  0.29231528424E+00  0.11313814650E+01 -0.16603668668E+00  0.90007728664E+02  0.89999989883E+02 0.  0.
         12    1    1    2    0    0 -0.29231528424E+00 -0.11313814650E+01  0.16603668668E+00  0.11802713358E+01  0.00000000000E+00 0. -1.
         11    1    3    3    0    0  0.33577991833E+02 -0.26614757626E+02 -0.46165104675E+01  0.43094535943E+02  0.51100000000E-03 0. -1.
        -11    1    3    3    0    0  0.93944495559E-01 -0.76777689253E+00 -0.23637741618E+01  0.24871138844E+01  0.51100000000E-03 0.  1.
        -12    1    3    3    0    0 -0.33379621044E+02  0.28513915984E+02  0.68142479427E+01  0.44426078836E+02  0.00000000000E+00 0.  1.
</event>
<event>
 7    1  0.3568207E-015  0.9000769E+02  0.7816164E-02  0.1186339E+00
        -11   -1    0    0    0    0  0.00000000000E+00  0.00000000000E+00  0.45593999997E+02  0.45594000000E+02  0.51100000000E-03 0.  1.
         11   -1    0    0    0    0 -0.00000000000E+00 -0.00000000000E+00 -0.45593999997E+02  0.45594000000E+02  0.51100000000E-03 0. -1.
    9900012    2    1    2    0    0  0.66981326604E+00  0.14915275205E+00 -0.96033598417E+00  0.90007685823E+02  0.89999946475E+02 0.  0.
         12    1    1    2    0    0 -0.66981326604E+00 -0.14915275205E+00  0.96033598417E+00  0.11803141774E+01  0.00000000000E+00 0. -1.
         11    1    3    3    0    0 -0.89874718314E+01 -0.17629542789E+01  0.27740695408E+01  0.95696457504E+01  0.51100000000E-03 0. -1.
        -11    1    3    3    0    0 -0.21067922192E+02 -0.12486552591E+02  0.25713466116E+02  0.35509909618E+02  0.51100000000E-03 0.  1.
         12    1    3    3    0    0  0.30725207290E+02  0.14398659622E+02 -0.29447871641E+02  0.44928130454E+02  0.00000000000E+00 0. -1.
</event>
<event>
 7    1  0.3568207E-015  0.9000775E+02  0.7816164E-02  0.1186339E+00
        -11   -1    0    0    0    0  0.00000000000E+00  0.00000000000E+00  0.45593999997E+02  0.45594000000E+02  0.51100000000E-03 0.  1.
         11   -1    0    0    0    0 -0.00000000000E+00 -0.00000000000E+00 -0.45593999997E+02  0.45594000000E+02  0.51100000000E-03 0. -1.
    9900012    2    1    2    0    0  0.20186816767E+00  0.11504905753E+01 -0.16912089600E+00  0.90007753755E+02  0.90000015305E+02 0.  0.
         12    1    1    2    0    0 -0.20186816767E+00 -0.11504905753E+01  0.16912089600E+00  0.11802462449E+01  0.00000000000E+00 0. -1.
         11    1    3    3    0    0  0.42378050692E+01  0.49549309889E+01 -0.72206065985E+01  0.97286943020E+01  0.51100000000E-03 0. -1.
        -11    1    3    3    0    0 -0.21514131750E+02 -0.18093568638E+02 -0.27291797215E+02  0.39180062359E+02  0.51100000000E-03 0.  1.
         12    1    3    3    0    0  0.17478194848E+02  0.14289128225E+02  0.34343282917E+02  0.41098997094E+02  0.00000000000E+00 0. -1.
</event>
<event>
 7    1  0.3568207E-015  0.9000747E+02  0.7816164E-02  0.1186340E+00
        -11   -1    0    0    0    0  0.00000000000E+00  0.00000000000E+00  0.45593999997E+02  0.45594000000E+02  0.51100000000E-03 0.  1.
         11   -1    0    0    0    0 -0.00000000000E+00 -0.00000000000E+00 -0.45593999997E+02  0.45594000000E+02  0.51100000000E-03 0. -1.
    9900012    2    1    2    0    0  0.75519520835E+00  0.12745839545E-01  0.90728895572E+00  0.90007468125E+02  0.89999725904E+02 0.  0.
         12    1    1    2    0    0 -0.75519520835E+00 -0.12745839545E-01 -0.90728895572E+00  0.11805318752E+01  0.00000000000E+00 0. -1.
         11    1    3    3    0    0  0.17370914558E+02 -0.12896311764E+01 -0.31890485965E+02  0.36337513901E+02  0.51100000000E-03 0. -1.
        -11    1    3    3    0    0 -0.41580757590E+01  0.30094916891E+01 -0.88141189390E+01  0.10199770937E+02  0.51100000000E-03 0.  1.
        -12    1    3    3    0    0 -0.12457643590E+02 -0.17071146732E+01  0.41611893860E+02  0.43470183286E+02  0.00000000000E+00 0.  1.
</event>
<event>
 7    1  0.3568207E-015  0.9000774E+02  0.7816164E-02  0.1186339E+00
        -11   -1    0    0    0    0  0.00000000000E+00  0.00000000000E+00  0.45593999997E+02  0.45594000000E+02  0.51100000000E-03 0. -1.
         11   -1    0    0    0    0 -0.00000000000E+00 -0.00000000000E+00 -0.45593999997E+02  0.45594000000E+02  0.51100000000E-03 0.  1.
    9900012    2    1    2    0    0  0.95911900138E+00  0.43937071110E+00 -0.52920782782E+00  0.90007738671E+02  0.90000000021E+02 0.  0.
         12    1    1    2    0    0 -0.95911900138E+00 -0.43937071110E+00  0.52920782782E+00  0.11802613294E+01  0.00000000000E+00 0. -1.
         11    1    3    3    0    0  0.18704720299E+02  0.35544067550E+02  0.11964353868E+02  0.41909343388E+02  0.51100000000E-03 0. -1.
        -11    1    3    3    0    0  0.59959254788E+01 -0.52629574522E+01 -0.44150386764E+01  0.91182460082E+01  0.51100000000E-03 0.  1.
        -12    1    3    3    0    0 -0.23741526777E+02 -0.29841739387E+02 -0.80785230194E+01  0.38980149275E+02  0.00000000000E+00 0.  1.
</event>
<event>
 7    1  0.3568207E-015  0.9000760E+02  0.7816164E-02  0.1186339E+00
        -11   -1    0    0    0    0  0.00000000000E+00  0.00000000000E+00  0.45593999997E+02  0.45594000000E+02  0.51100000000E-03 0.  1.
         11   -1    0    0    0    0 -0.00000000000E+00 -0.00000000000E+00 -0.45593999997E+02  0.45594000000E+02  0.51100000000E-03 0. -1.
    9900012    2    1    2    0    0 -0.89011520913E+00  0.74636609333E+00 -0.20969881467E+00  0.90007601329E+02  0.89999860866E+02 0.  0.
         12    1    1    2    0    0  0.89011520913E+00 -0.74636609333E+00  0.20969881467E+00  0.11803986715E+01  0.00000000000E+00 0. -1.
         11    1    3    3    0    0 -0.48779038719E+01  0.64397797121E+01  0.80424819948E+01  0.11399395853E+02  0.51100000000E-03 0. -1.
        -11    1    3    3    0    0 -0.31563303293E+02 -0.82413642592E+00  0.15902537835E+02  0.35352680598E+02  0.51100000000E-03 0.  1.
         12    1    3    3    0    0  0.35551091956E+02 -0.48692771929E+01 -0.24154718644E+02  0.43255524877E+02  0.00000000000E+00 0. -1.
</event>
<event>
 7    1  0.3568207E-015  0.9000781E+02  0.7816164E-02  0.1186339E+00
        -11   -1    0    0    0    0  0.00000000000E+00  0.00000000000E+00  0.45593999997E+02  0.45594000000E+02  0.51100000000E-03 0. -1.
         11   -1    0    0    0    0 -0.00000000000E+00 -0.00000000000E+00 -0.45593999997E+02  0.45594000000E+02  0.51100000000E-03 0.  1.
    9900012    2    1    2    0    0 -0.10392242124E+01  0.37753720350E+00 -0.41271733103E+00  0.90007806415E+02  0.90000068659E+02 0.  0.
         12    1    1    2    0    0  0.10392242124E+01 -0.37753720350E+00  0.41271733103E+00  0.11801935854E+01  0.00000000000E+00 0. -1.
         11    1    3    3    0    0  0.41615526826E+00  0.25439748245E+02  0.27949666880E+02  0.37796003161E+02  0.51100000000E-03 0. -1.
        -11    1    3    3    0    0 -0.87037766923E+01  0.31869319125E+01  0.26501675451E+01  0.96403138955E+01  0.51100000000E-03 0.  1.
        -12    1    3    3    0    0  0.72483972117E+01 -0.28249142954E+02 -0.31012551756E+02  0.42571489358E+02  0.00000000000E+00 0.  1.
</event>
<event>
 7    1  0.3568207E-015  0.9000765E+02  0.7816164E-02  0.1186339E+00
        -11   -1    0    0    0    0  0.00000000000E+00  0.00000000000E+00  0.45593999997E+02  0.45594000000E+02  0.51100000000E-03 0.  1.
         11   -1    0    0    0    0 -0.00000000000E+00 -0.00000000000E+00 -0.45593999997E+02  0.45594000000E+02  0.51100000000E-03 0. -1.
    9900012    2    1    2    0    0  0.61983109325E-01  0.85829324269E+00  0.80790262972E+00  0.90007654349E+02  0.89999914587E+02 0.  0.
         12    1    1    2    0    0 -0.61983109325E-01 -0.85829324269E+00 -0.80790262972E+00  0.11803456508E+01  0.00000000000E+00 0. -1.
         11    1    3    3    0    0 -0.22297332549E+02  0.33869507996E+02 -0.10552401636E+02  0.41900689627E+02  0.51100000000E-03 0. -1.
        -11    1    3    3    0    0  0.73521526656E+01  0.21261758746E+01 -0.14876436864E+01  0.77966567621E+01  0.51100000000E-03 0.  1.
        -12    1    3    3    0    0  0.15007162992E+02 -0.35137390628E+02  0.12847947952E+02  0.40310307960E+02  0.00000000000E+00 0.  1.
</event>
<event>
 7    1  0.3568207E-015  0.9000777E+02  0.7816164E-02  0.1186339E+00
        -11   -1    0    0    0    0  0.00000000000E+00  0.00000000000E+00  0.45593999997E+02  0.45594000000E+02  0.51100000000E-03 0.  1.
         11   -1    0    0    0    0 -0.00000000000E+00 -0.00000000000E+00 -0.45593999997E+02  0.45594000000E+02  0.51100000000E-03 0. -1.
    9900012    2    1    2    0    0  0.50737429677E+00 -0.10414364534E+01  0.22566467883E+00  0.90007769891E+02  0.90000031653E+02 0.  0.
         12    1    1    2    0    0 -0.50737429677E+00  0.10414364534E+01 -0.22566467883E+00  0.11802301092E+01  0.00000000000E+00 0. -1.
         11    1    3    3    0    0  0.76201085164E+01  0.10138076108E+01  0.39937987783E+01  0.86628106649E+01  0.51100000000E-03 0. -1.
        -11    1    3    3    0    0 -0.35233135591E+01  0.39422452008E+02 -0.47848514813E+00  0.39582476034E+02  0.51100000000E-03 0.  1.
         12    1    3    3    0    0 -0.35894206606E+01 -0.41477696072E+02 -0.32896489513E+01  0.41762483191E+02  0.00000000000E+00 0. -1.
</event>
<event>
 7    1  0.3568207E-015  0.9000771E+02  0.7816164E-02  0.1186339E+00
        -11   -1    0    0    0    0  0.00000000000E+00  0.00000000000E+00  0.45593999997E+02  0.45594000000E+02  0.51100000000E-03 0.  1.
         11   -1    0    0    0    0 -0.00000000000E+00 -0.00000000000E+00 -0.45593999997E+02  0.45594000000E+02  0.51100000000E-03 0. -1.
    9900012    2    1    2    0    0  0.65648077266E-01  0.25179813184E+00  0.11512453901E+01  0.90007712782E+02  0.89999973790E+02 0.  0.
         12    1    1    2    0    0 -0.65648077266E-01 -0.25179813184E+00 -0.11512453901E+01  0.11802872182E+01  0.00000000000E+00 0. -1.
         11    1    3    3    0    0 -0.88536633070E+01 -0.25338946802E+00 -0.50145625068E+01  0.10178280679E+02  0.51100000000E-03 0. -1.
        -11    1    3    3    0    0 -0.26483270107E+02 -0.19287910437E+02  0.18256399249E+02  0.37505775534E+02  0.51100000000E-03 0.  1.
         12    1    3    3    0    0  0.35402581491E+02  0.19793098037E+02 -0.12090591352E+02  0.42323656569E+02  0.00000000000E+00 0. -1.
</event>
<event>
 7    1  0.3568207E-015  0.9000776E+02  0.7816164E-02  0.1186339E+00
        -11   -1    0    0    0    0  0.00000000000E+00  0.00000000000E+00  0.45593999997E+02  0.45594000000E+02  0.51100000000E-03 0. -1.
         11   -1    0    0    0    0 -0.00000000000E+00 -0.00000000000E+00 -0.45593999997E+02  0.45594000000E+02  0.51100000000E-03 0.  1.
    9900012    2    1    2    0    0 -0.29891878301E+00  0.11332496932E+01  0.13914634736E+00  0.90007758918E+02  0.90000020536E+02 0.  0.
         12    1    1    2    0    0  0.29891878301E+00 -0.11332496932E+01 -0.13914634736E+00  0.11802410821E+01  0.00000000000E+00 0. -1.
         11    1    3    3    0    0 -0.24769150070E+02  0.25903120319E+02 -0.13445964791E+02  0.38278929019E+02  0.51100000000E-03 0. -1.
        -11    1    3    3    0    0  0.33713084918E+01  0.90634705848E+01  0.21056836638E+00  0.96724639719E+01  0.51100000000E-03 0.  1.
        -12    1    3    3    0    0  0.21098922795E+02 -0.33833341211E+02  0.13374542772E+02  0.42056365927E+02  0.00000000000E+00 0.  1.
</event>
<event>
 7    1  0.3568207E-015  0.9000773E+02  0.7816164E-02  0.1186339E+00
        -11   -1    0    0    0    0  0.00000000000E+00  0.00000000000E+00  0.45593999997E+02  0.45594000000E+02  0.51100000000E-03 0.  1.
         11   -1    0    0    0    0 -0.00000000000E+00 -0.00000000000E+00 -0.45593999997E+02  0.45594000000E+02  0.51100000000E-03 0. -1.
    9900012    2    1    2    0    0  0.10629997932E+01 -0.31212268800E+00  0.40700190849E+00  0.90007728978E+02  0.89999990200E+02 0.  0.
         12    1    1    2    0    0 -0.10629997932E+01  0.31212268800E+00 -0.40700190849E+00  0.11802710224E+01  0.00000000000E+00 0. -1.
         11    1    3    3    0    0 -0.33930656695E+02  0.23246380684E+01 -0.66161558489E+01  0.34647754969E+02  0.51100000000E-03 0. -1.
        -11    1    3    3    0    0 -0.81880046352E+01 -0.38595159846E+01 -0.52333056277E+01  0.10455944319E+02  0.51100000000E-03 0.  1.
        -12    1    3    3    0    0  0.43181661123E+02  0.12227552282E+01  0.12256463385E+02  0.44904029690E+02  0.00000000000E+00 0.  1.
</event>
<event>
 7    1  0.3568207E-015  0.9000779E+02  0.7816164E-02  0.1186339E+00
        -11   -1    0    0    0    0  0.00000000000E+00  0.00000000000E+00  0.45593999997E+02  0.45594000000E+02  0.51100000000E-03 0.  1.
         11   -1    0    0    0    0 -0.00000000000E+00 -0.00000000000E+00 -0.45593999997E+02  0.45594000000E+02  0.51100000000E-03 0. -1.
    9900012    2    1    2    0    0  0.83500430293E+00  0.73844214561E+00  0.38776896169E+00  0.90007790800E+02  0.90000052838E+02 0.  0.
         12    1    1    2    0    0 -0.83500430293E+00 -0.73844214561E+00 -0.38776896169E+00  0.11802092001E+01  0.00000000000E+00 0. -1.
         11    1    3    3    0    0  0.15253931927E+01 -0.82397306590E+01 -0.28121915411E+01  0.88390275059E+01  0.51100000000E-03 0. -1.
        -11    1    3    3    0    0 -0.30786490408E+02 -0.21955163024E+02 -0.83291438555E+00  0.37822360076E+02  0.51100000000E-03 0.  1.
         12    1    3    3    0    0  0.30096101519E+02  0.30933335828E+02  0.40328748883E+01  0.43346403218E+02  0.00000000000E+00 0. -1.
</event>
<event>
 7    1  0.3568207E-015  0.9000779E+02  0.7816164E-02  0.1186339E+00
        -11   -1    0    0    0    0  0.00000000000E+00  0.00000000000E+00  0.45593999997E+02  0.45594000000E+02  0.51100000000E-03 0.  1.
         11   -1    0    0    0    0 -0.00000000000E+00 -0.00000000000E+00 -0.45593999997E+02  0.45594000000E+02  0.51100000000E-03 0. -1.
    9900012    2    1    2    0    0 -0.11170665384E+01  0.21552054106E+00  0.31401666145E+00  0.90007791028E+02  0.90000053069E+02 0.  0.
         12    1    1    2    0    0  0.11170665384E+01 -0.21552054106E+00 -0.31401666145E+00  0.11802089723E+01  0.00000000000E+00 0. -1.
         11    1    3    3    0    0 -0.30450739620E+01 -0.30420023377E+02 -0.52429266161E+01  0.31018358716E+02  0.51100000000E-03 0. -1.
        -11    1    3    3    0    0  0.24080778541E+01 -0.10592389817E+02  0.13159435147E+02  0.17063654199E+02  0.51100000000E-03 0.  1.
        -12    1    3    3    0    0 -0.48007043044E+00  0.41227933735E+02 -0.76024918691E+01  0.41925778112E+02  0.00000000000E+00 0.  1.
</event>
<event>
 7    1  0.3568207E-015  0.9000792E+02  0.7816164E-02  0.1186339E+00
        -11   -1    0    0    0    0  0.00000000000E+00  0.00000000000E+00  0.45593999997E+02  0.45594000000E+02  0.51100000000E-03 0.  1.
         11   -1    0    0    0    0 -0.00000000000E+00 -0.00000000000E+00 -0.45593999997E+02  0.45594000000E+02  0.51100000000E-03 0. -1.
    9900012    2    1    2    0    0  0.81080170979E+00  0.81168543964E+00  0.27634639296E+00  0.90007915260E+02  0.90000178941E+02 0.  0.
         12    1    1    2    0    0 -0.81080170979E+00 -0.81168543964E+00 -0.27634639296E+00  0.11800847404E+01  0.00000000000E+00 0. -1.
         11    1    3    3    0    0  0.38964045061E+02  0.30811367127E+01 -0.43080293371E+01  0.39322376938E+02  0.51100000000E-03 0. -1.
        -11    1    3    3    0    0  0.18829050148E+01  0.87357034526E+01  0.26411205579E+00  0.89402237973E+01  0.51100000000E-03 0.  1.
        -12    1    3    3    0    0 -0.40036148366E+02 -0.11005154726E+02  0.43202636742E+01  0.41745314525E+02  0.00000000000E+00 0.  1.
</event>
<event>
 7    1  0.3568207E-015  0.9000769E+02  0.7816164E-02  0.1186339E+00
        -11   -1    0    0    0    0  0.00000000000E+00  0.00000000000E+00  0.45593999997E+02  0.45594000000E+02  0.51100000000E-03 0.  1.
         11   -1    0    0    0    0 -0.00000000000E+00 -0.00000000000E+00 -0.45593999997E+02  0.45594000000E+02  0.51100000000E-03 0. -1.
    9900012    2    1    2    0    0  0.66474998731E-01 -0.74464395273E+00  0.91335067529E+00  0.90007693685E+02  0.89999954441E+02 0.  0.
         12    1    1    2    0    0 -0.66474998731E-01  0.74464395273E+00 -0.91335067529E+00  0.11803063153E+01  0.00000000000E+00 0. -1.
         11    1    3    3    0    0 -0.62681403908E+01  0.67930139084E+01  0.41569776427E+01  0.10134845105E+02  0.51100000000E-03 0. -1.
        -11    1    3    3    0    0  0.52890405523E+01  0.34252569543E+02  0.99125589054E+01  0.36048180184E+02  0.51100000000E-03 0.  1.
         12    1    3    3    0    0  0.10455748372E+01 -0.41790227404E+02 -0.13156185873E+02  0.43824668396E+02  0.00000000000E+00 0. -1.
</event>
<event>
 7    1  0.3568207E-015  0.9000780E+02  0.7816164E-02  0.1186339E+00
        -11   -1    0    0    0    0  0.00000000000E+00  0.00000000000E+00  0.45593999997E+02  0.45594000000E+02  0.51100000000E-03 0.  1.
         11   -1    0    0    0    0 -0.00000000000E+00 -0.00000000000E+00 -0.45593999997E+02  0.45594000000E+02  0.51100000000E-03 0. -1.
    9900012    2    1    2    0    0 -0.10032478868E+00  0.76973293964E+00  0.88899479571E+00  0.90007802725E+02  0.90000064921E+02 0.  0.
         12    1    1    2    0    0  0.10032478868E+00 -0.76973293964E+00 -0.88899479571E+00  0.11801972752E+01  0.00000000000E+00 0. -1.
         11    1    3    3    0    0 -0.19045380516E+02 -0.45661927093E+01 -0.29357566134E+02  0.35290839101E+02  0.51100000000E-03 0. -1.
        -11    1    3    3    0    0 -0.12259295434E+02 -0.16121070836E-01  0.22710704488E+01  0.12467892591E+02  0.51100000000E-03 0.  1.
        -12    1    3    3    0    0  0.31204351161E+02  0.53520467198E+01  0.27975490481E+02  0.42249071033E+02  0.00000000000E+00 0.  1.
</event>
<event>
 7    1  0.3568207E-015  0.9000768E+02  0.7816164E-02  0.1186339E+00
        -11   -1    0    0    0    0  0.00000000000E+00  0.00000000000E+00  0.45593999997E+02  0.45594000000E+02  0.51100000000E-03 0.  1.
         11   -1    0    0    0    0 -0.00000000000E+00 -0.00000000000E+00 -0.45593999997E+02  0.45594000000E+02  0.51100000000E-03 0. -1.
    9900012    2    1    2    0    0 -0.30817819409E+00  0.36520498256E-01  0.11387908666E+01  0.90007681321E+02  0.89999941914E+02 0.  0.
         12    1    1    2    0    0  0.30817819409E+00 -0.36520498256E-01 -0.11387908666E+01  0.11803186790E+01  0.00000000000E+00 0. -1.
         11    1    3    3    0    0  0.93730070964E+01  0.33103703473E+02  0.21218915739E+02  0.40422157675E+02  0.51100000000E-03 0. -1.
        -11    1    3    3    0    0  0.43344722684E+01 -0.52218267517E+01  0.59097271465E+01  0.89988888024E+01  0.51100000000E-03 0.  1.
        -12    1    3    3    0    0 -0.14015657559E+02 -0.27845356223E+02 -0.25989852019E+02  0.40586634844E+02  0.00000000000E+00 0.  1.
</event>
<event>
 7    1  0.3568207E-015  0.9000823E+02  0.7816164E-02  0.1186338E+00
        -11   -1    0    0    0    0  0.00000000000E+00  0.00000000000E+00  0.45593999997E+02  0.45594000000E+02  0.51100000000E-03 0.  1.
         11   -1    0    0    0    0 -0.00000000000E+00 -0.00000000000E+00 -0.45593999997E+02  0.45594000000E+02  0.51100000000E-03 0. -1.
    9900012    2    1    2    0    0 -0.83448306957E+00  0.41279028548E+00  0.72462965648E+00  0.90008234789E+02  0.90000502687E+02 0.  0.
         12    1    1    2    0    0  0.83448306957E+00 -0.41279028548E+00 -0.72462965648E+00  0.11797652106E+01  0.00000000000E+00 0. -1.
         11    1    3    3    0    0  0.12095018017E+01 -0.55160320415E+01  0.92502191220E+01  0.10837714619E+02  0.51100000000E-03 0. -1.
        -11    1    3    3    0    0  0.25322433381E+02 -0.12347295723E+02  0.20857926585E+02  0.35053308627E+02  0.51100000000E-03 0.  1.
         12    1    3    3    0    0 -0.27366418252E+02  0.18276118050E+02 -0.29383516050E+02  0.44117211544E+02  0.00000000000E+00 0. -1.
</event>
<event>
 7    1  0.3568207E-015  0.9000770E+02  0.7816164E-02  0.1186339E+00
        -11   -1    0    0    0    0  0.00000000000E+00  0.00000000000E+00  0.45593999997E+02  0.45594000000E+02  0.51100000000E-03 0. -1.
         11   -1    0    0    0    0 -0.00000000000E+00 -0.00000000000E+00 -0.45593999997E+02  0.45594000000E+02  0.51100000000E-03 0.  1.
    9900012    2    1    2    0    0 -0.30207357369E+00 -0.48746095911E+00  0.10316238672E+01  0.90007697313E+02  0.89999958117E+02 0.  0.
         12    1    1    2    0    0  0.30207357369E+00  0.48746095911E+00 -0.10316238672E+01  0.11803026874E+01  0.00000000000E+00 0. -1.
         11    1    3    3    0    0  0.10881325232E+02 -0.81776814401E-01 -0.71746021814E+00  0.10905259083E+02  0.51100000000E-03 0. -1.
        -11    1    3    3    0    0  0.56113327495E+01 -0.37274387321E+02  0.67070484952E+01  0.38286440226E+02  0.51100000000E-03 0.  1.
         12    1    3    3    0    0 -0.16794731555E+02  0.36868703176E+02 -0.49579644098E+01  0.40815998003E+02  0.00000000000E+00 0. -1.
</event>
<event>
 7    1  0.3568207E-015  0.9000768E+02  0.7816164E-02  0.1186339E+00
        -11   -1    0    0    0    0  0.00000000000E+00  0.00000000000E+00  0.45593999997E+02  0.45594000000E+02  0.51100000000E-03 0.  1.
         11   -1    0    0    0    0 -0.00000000000E+00 -0.00000000000E+00 -0.45593999997E+02  0.45594000000E+02  0.51100000000E-03 0. -1.
    9900012    2    1    2    0    0  0.85453674931E-01  0.38089004525E+00  0.11138970076E+01  0.90007683898E+02  0.89999944525E+02 0.  0.
         12    1    1    2    0    0 -0.85453674931E-01 -0.38089004525E+00 -0.11138970076E+01  0.11803161020E+01  0.00000000000E+00 0. -1.
         11    1    3    3    0    0 -0.66364217446E+01  0.56922299918E+01 -0.77652614885E+00  0.87776174998E+01  0.51100000000E-03 0. -1.
        -11    1    3    3    0    0 -0.32018673182E+02 -0.16254163313E+02  0.14967863355E+02  0.38902830116E+02  0.51100000000E-03 0.  1.
         12    1    3    3    0    0  0.38740548602E+02  0.10942823366E+02 -0.13077440198E+02  0.42327236283E+02  0.00000000000E+00 0. -1.
</event>
<event>
 7    1  0.3568207E-015  0.9000792E+02  0.7816164E-02  0.1186339E+00
        -11   -1    0    0    0    0  0.00000000000E+00  0.00000000000E+00  0.45593999997E+02  0.45594000000E+02  0.51100000000E-03 0.  1.
         11   -1    0    0    0    0 -0.00000000000E+00 -0.00000000000E+00 -0.45593999997E+02  0.45594000000E+02  0.51100000000E-03 0. -1.
    9900012    2    1    2    0    0  0.20597231957E+00 -0.92315581244E-01  0.11582916856E+01  0.90007921023E+02  0.90000184780E+02 0.  0.
         12    1    1    2    0    0 -0.20597231957E+00  0.92315581244E-01 -0.11582916856E+01  0.11800789770E+01  0.00000000000E+00 0. -1.
         11    1    3    3    0    0  0.28933844619E+01 -0.46680897287E+00  0.98118248757E+01  0.10240190033E+02  0.51100000000E-03 0. -1.
        -11    1    3    3    0    0 -0.28528460917E+02 -0.13822416120E+02  0.20940914826E+02  0.37992817527E+02  0.51100000000E-03 0.  1.
         12    1    3    3    0    0  0.25841048774E+02  0.14196909512E+02 -0.29594448016E+02  0.41774913463E+02  0.00000000000E+00 0. -1.
</event>
<event>
 7    1  0.3568207E-015  0.9000815E+02  0.7816164E-02  0.1186338E+00
        -11   -1    0    0    0    0  0.00000000000E+00  0.00000000000E+00  0.45593999997E+02  0.45594000000E+02  0.51100000000E-03 0.  1.
         11   -1    0    0    0    0 -0.00000000000E+00 -0.00000000000E+00 -0.45593999997E+02  0.45594000000E+02  0.51100000000E-03 0. -1.
    9900012    2    1    2    0    0  0.10046454937E+01 -0.42870856220E+00  0.44603982584E+00  0.90008146142E+02  0.90000412870E+02 0.  0.
         12    1    1    2    0    0 -0.10046454937E+01  0.42870856220E+00 -0.44603982584E+00  0.11798538577E+01  0.00000000000E+00 0. -1.
         11    1    3    3    0    0  0.16630710412E+02 -0.37166922091E+02  0.10346144612E+02  0.42011942768E+02  0.51100000000E-03 0. -1.
        -11    1    3    3    0    0  0.40114447747E+01  0.74307620016E+01  0.48730313248E+01  0.97495819223E+01  0.51100000000E-03 0.  1.
        -12    1    3    3    0    0 -0.19637509693E+02  0.29307451527E+02 -0.14773136111E+02  0.38246621452E+02  0.00000000000E+00 0.  1.
</event>
<event>
 7    1  0.3568207E-015  0.9000770E+02  0.7816164E-02  0.1186339E+00
        -11   -1    0    0    0    0  0.00000000000E+00  0.00000000000E+00  0.45593999997E+02  0.45594000000E+02  0.51100000000E-03 0.  1.
         11   -1    0    0    0    0 -0.00000000000E+00 -0.00000000000E+00 -0.45593999997E+02  0.45594000000E+02  0.51100000000E-03 0. -1.
    9900012    2    1    2    0    0  0.89921763322E+00  0.23776707171E+00  0.72661608093E+00  0.90007704926E+02  0.89999965831E+02 0.  0.
         12    1    1    2    0    0 -0.89921763322E+00 -0.23776707171E+00 -0.72661608093E+00  0.11802950738E+01  0.00000000000E+00 0. -1.
         11    1    3    3    0    0  0.31468719068E+02  0.81212464653E+00 -0.73361497002E+01  0.32322730684E+02  0.51100000000E-03 0. -1.
        -11    1    3    3    0    0  0.75902567127E+01 -0.14454951985E+02  0.21683899916E+00  0.16328032743E+02  0.51100000000E-03 0.  1.
        -12    1    3    3    0    0 -0.38159758147E+02  0.13880594410E+02  0.78459267819E+01  0.41356941499E+02  0.00000000000E+00 0.  1.
</event>
<event>
 7    1  0.3568207E-015  0.9000806E+02  0.7816164E-02  0.1186338E+00
        -11   -1    0    0    0    0  0.00000000000E+00  0.00000000000E+00  0.45593999997E+02  0.45594000000E+02  0.51100000000E-03 0. -1.
         11   -1    0    0    0    0 -0.00000000000E+00 -0.00000000000E+00 -0.45593999997E+02  0.45594000000E+02  0.51100000000E-03 0.  1.
    9900012    2    1    2    0    0 -0.36615877690E+00  0.11203709036E+01  0.54287849815E-01  0.90008063399E+02  0.90000329035E+02 0.  0.
         12    1    1    2    0    0  0.36615877690E+00 -0.11203709036E+01 -0.54287849815E-01  0.11799366009E+01  0.00000000000E+00 0. -1.
         11    1    3    3    0    0 -0.66210380312E+01  0.12370271377E+01  0.69673435156E+01  0.96908336419E+01  0.51100000000E-03 0. -1.
        -11    1    3    3    0    0 -0.33973664374E+02 -0.14438032009E+02 -0.72232017833E+01  0.37614376022E+02  0.51100000000E-03 0.  1.
         12    1    3    3    0    0  0.40228543628E+02  0.14321375775E+02  0.31014611760E+00  0.42702853735E+02  0.00000000000E+00 0. -1.
</event>
<event>
 7    1  0.3568207E-015  0.9000779E+02  0.7816164E-02  0.1186339E+00
        -11   -1    0    0    0    0  0.00000000000E+00  0.00000000000E+00  0.45593999997E+02  0.45594000000E+02  0.51100000000E-03 0. -1.
         11   -1    0    0    0    0 -0.00000000000E+00 -0.00000000000E+00 -0.45593999997E+02  0.45594000000E+02  0.51100000000E-03 0.  1.
    9900012    2    1    2    0    0 -0.94298309999E+00 -0.70169140178E+00 -0.10631428941E+00  0.90007792104E+02  0.90000054160E+02 0.  0.
         12    1    1    2    0    0  0.94298309999E+00  0.70169140178E+00  0.10631428941E+00  0.11802078962E+01  0.00000000000E+00 0. -1.
         11    1    3    3    0    0 -0.15182569836E+02 -0.23212796013E+02  0.23209100987E+02  0.36166375190E+02  0.51100000000E-03 0. -1.
        -11    1    3    3    0    0 -0.15063736119E+01 -0.20004797087E+01  0.95788091256E+01  0.99007406314E+01  0.51100000000E-03 0.  1.
        -12    1    3    3    0    0  0.15745960347E+02  0.24511584319E+02 -0.32894224402E+02  0.43940676282E+02  0.00000000000E+00 0.  1.
</event>
<event>
 7    1  0.3568207E-015  0.9000775E+02  0.7816164E-02  0.1186339E+00
        -11   -1    0    0    0    0  0.00000000000E+00  0.00000000000E+00  0.45593999997E+02  0.45594000000E+02  0.51100000000E-03 0.  1.
         11   -1    0    0    0    0 -0.00000000000E+00 -0.00000000000E+00 -0.45593999997E+02  0.45594000000E+02  0.51100000000E-03 0. -1.
    9900012    2    1    2    0    0  0.81598906820E+00 -0.50381933369E+00  0.68797521031E+00  0.90007753428E+02  0.90000014973E+02 0.  0.
         12    1    1    2    0    0 -0.81598906820E+00  0.50381933369E+00 -0.68797521031E+00  0.11802465719E+01  0.00000000000E+00 0. -1.
         11    1    3    3    0    0 -0.87499007370E+01 -0.27847475893E+02 -0.21490175004E+02  0.36247348847E+02  0.51100000000E-03 0. -1.
        -11    1    3    3    0    0 -0.78515567745E+01 -0.22026617481E+01 -0.53741665471E+01  0.97662853172E+01  0.51100000000E-03 0.  1.
        -12    1    3    3    0    0  0.17417446580E+02  0.29546318307E+02  0.27552316761E+02  0.43994119264E+02  0.00000000000E+00 0.  1.
</event>
<event>
 7    1  0.3568207E-015  0.9000769E+02  0.7816164E-02  0.1186339E+00
        -11   -1    0    0    0    0  0.00000000000E+00  0.00000000000E+00  0.45593999997E+02  0.45594000000E+02  0.51100000000E-03 0.  1.
         11   -1    0    0    0    0 -0.00000000000E+00 -0.00000000000E+00 -0.45593999997E+02  0.45594000000E+02  0.51100000000E-03 0. -1.
    9900012    2    1    2    0    0  0.10498891463E+01 -0.52499277088E+00 -0.12349676274E+00  0.90007688143E+02  0.89999948827E+02 0.  0.
         12    1    1    2    0    0 -0.10498891463E+01  0.52499277088E+00  0.12349676274E+00  0.11803118569E+01  0.00000000000E+00 0. -1.
         11    1    3    3    0    0  0.17653949715E+01 -0.58974855263E+01 -0.69541389800E+01  0.92874648937E+01  0.51100000000E-03 0. -1.
        -11    1    3    3    0    0 -0.24852952912E+02 -0.27934028681E+02 -0.54690968385E+01  0.37787435046E+02  0.51100000000E-03 0.  1.
         12    1    3    3    0    0  0.24137447087E+02  0.33306521437E+02  0.12299739056E+02  0.42932788204E+02  0.00000000000E+00 0. -1.
</event>
<event>
 7    1  0.3568207E-015  0.9000770E+02  0.7816164E-02  0.1186339E+00
        -11   -1    0    0    0    0  0.00000000000E+00  0.00000000000E+00  0.45593999997E+02  0.45594000000E+02  0.51100000000E-03 0. -1.
         11   -1    0    0    0    0 -0.00000000000E+00 -0.00000000000E+00 -0.45593999997E+02  0.45594000000E+02  0.51100000000E-03 0.  1.
    9900012    2    1    2    0    0 -0.47997962748E+00  0.60452014148E+00 -0.89291120250E+00  0.90007696878E+02  0.89999957677E+02 0.  0.
         12    1    1    2    0    0  0.47997962748E+00 -0.60452014148E+00  0.89291120250E+00  0.11803031220E+01  0.00000000000E+00 0. -1.
         11    1    3    3    0    0 -0.16244632985E+01  0.35795888160E+01 -0.11882884672E+02  0.12516200921E+02  0.51100000000E-03 0. -1.
        -11    1    3    3    0    0  0.16647250028E+02  0.29873194454E+02 -0.98837073908E+01  0.35598122878E+02  0.51100000000E-03 0.  1.
         12    1    3    3    0    0 -0.15502766357E+02 -0.32848263129E+02  0.20873680861E+02  0.41893373079E+02  0.00000000000E+00 0. -1.
</event>
<event>
 7    1  0.3568207E-015  0.9000773E+02  0.7816164E-02  0.1186339E+00
        -11   -1    0    0    0    0  0.00000000000E+00  0.00000000000E+00  0.45593999997E+02  0.45594000000E+02  0.51100000000E-03 0.  1.
         11   -1    0    0    0    0 -0.00000000000E+00 -0.00000000000E+00 -0.45593999997E+02  0.45594000000E+02  0.51100000000E-03 0. -1.
    9900012    2    1    2    0    0  0.44921751546E-01 -0.10229746043E+01  0.58697180900E+00  0.90007732696E+02  0.89999993967E+02 0.  0.
         12    1    1    2    0    0 -0.44921751546E-01  0.10229746043E+01 -0.58697180900E+00  0.11802673042E+01  0.00000000000E+00 0. -1.
         11    1    3    3    0    0  0.33192405370E+01  0.18217890588E+02  0.41919609029E-01  0.18517846871E+02  0.51100000000E-03 0. -1.
        -11    1    3    3    0    0 -0.22354895901E+02 -0.74503412514E+01  0.27636528312E+02  0.36318406530E+02  0.51100000000E-03 0.  1.
         12    1    3    3    0    0  0.19080577116E+02 -0.11790523941E+02 -0.27091476112E+02  0.35171479295E+02  0.00000000000E+00 0. -1.
</event>
<event>
 7    1  0.3568207E-015  0.9000768E+02  0.7816164E-02  0.1186339E+00
        -11   -1    0    0    0    0  0.00000000000E+00  0.00000000000E+00  0.45593999997E+02  0.45594000000E+02  0.51100000000E-03 0.  1.
         11   -1    0    0    0    0 -0.00000000000E+00 -0.00000000000E+00 -0.45593999997E+02  0.45594000000E+02  0.51100000000E-03 0. -1.
    9900012    2    1    2    0    0  0.31770801655E+00 -0.74848846803E+00  0.85555738339E+00  0.90007681481E+02  0.89999942076E+02 0.  0.
         12    1    1    2    0    0 -0.31770801655E+00  0.74848846803E+00 -0.85555738339E+00  0.11803185192E+01  0.00000000000E+00 0. -1.
         11    1    3    3    0    0  0.37490735556E+01  0.92082634636E+01 -0.36382860260E+01  0.10587010627E+02  0.51100000000E-03 0. -1.
        -11    1    3    3    0    0  0.32266344172E+02  0.13514478004E+02  0.99030101204E+01  0.36356948327E+02  0.51100000000E-03 0.  1.
         12    1    3    3    0    0 -0.35697709711E+02 -0.23471229936E+02 -0.54091667111E+01  0.43063722527E+02  0.00000000000E+00 0. -1.
</event>
<event>
 7    1  0.3568207E-015  0.9000771E+02  0.7816164E-02  0.1186339E+00
        -11   -1    0    0    0    0  0.00000000000E+00  0.00000000000E+00  0.45593999997E+02  0.45594000000E+02  0.51100000000E-03 0.  1.
         11   -1    0    0    0    0 -0.00000000000E+00 -0.00000000000E+00 -0.45593999997E+02  0.45594000000E+02  0.51100000000E-03 0. -1.
    9900012    2    1    2    0    0 -0.27780190110E+00 -0.10417420857E+01 -0.48029910974E+00  0.90007708636E+02  0.89999969590E+02 0.  0.
         12    1    1    2    0    0  0.27780190110E+00  0.10417420857E+01  0.48029910974E+00  0.11802913641E+01  0.00000000000E+00 0. -1.
         11    1    3    3    0    0 -0.32121023771E+01  0.83078711900E+01  0.21704066182E+01  0.91678236534E+01  0.51100000000E-03 0. -1.
        -11    1    3    3    0    0  0.37300580349E+01 -0.11812950503E+02  0.38071125619E+02  0.40035855664E+02  0.51100000000E-03 0.  1.
         12    1    3    3    0    0 -0.79575755895E+00  0.24633372275E+01 -0.40721831347E+02  0.40804029319E+02  0.00000000000E+00 0. -1.
</event>
<event>
 7    1  0.3568207E-015  0.9000771E+02  0.7816164E-02  0.1186339E+00
        -11   -1    0    0    0    0  0.00000000000E+00  0.00000000000E+00  0.45593999997E+02  0.45594000000E+02  0.51100000000E-03 0. -1.
         11   -1    0    0    0    0 -0.00000000000E+00 -0.00000000000E+00 -0.45593999997E+02  0.45594000000E+02  0.51100000000E-03 0.  1.
    9900012    2    1    2    0    0 -0.57750964887E+00  0.10054147493E+01 -0.22070064409E+00  0.90007709787E+02  0.89999970756E+02 0.  0.
         12    1    1    2    0    0  0.57750964887E+00 -0.10054147493E+01  0.22070064409E+00  0.11802902131E+01  0.00000000000E+00 0. -1.
         11    1    3    3    0    0  0.47157517020E+01 -0.65818919588E+01  0.88042093727E+01  0.11961342684E+02  0.51100000000E-03 0. -1.
        -11    1    3    3    0    0  0.21817855984E+02  0.25180911910E+02  0.16200479221E+02  0.37047978239E+02  0.51100000000E-03 0.  1.
         12    1    3    3    0    0 -0.27111117335E+02 -0.17593605202E+02 -0.25225389238E+02  0.40998388863E+02  0.00000000000E+00 0. -1.
</event>
<event>
 7    1  0.3568207E-015  0.9000773E+02  0.7816164E-02  0.1186339E+00
        -11   -1    0    0    0    0  0.00000000000E+00  0.00000000000E+00  0.45593999997E+02  0.45594000000E+02  0.51100000000E-03 0.  1.
         11   -1    0    0    0    0 -0.00000000000E+00 -0.00000000000E+00 -0.45593999997E+02  0.45594000000E+02  0.51100000000E-03 0. -1.
    9900012    2    1    2    0    0 -0.86048072442E+00 -0.77338170999E+00  0.23342960852E+00  0.90007730654E+02  0.89999991899E+02 0.  0.
         12    1    1    2    0    0  0.86048072442E+00  0.77338170999E+00 -0.23342960852E+00  0.11802693458E+01  0.00000000000E+00 0. -1.
         11    1    3    3    0    0  0.51517896496E+00 -0.81227785217E+01 -0.66537412281E+01  0.10512716722E+02  0.51100000000E-03 0. -1.
        -11    1    3    3    0    0  0.10382509797E+02 -0.27549952531E+02  0.24844449828E+02  0.38523279737E+02  0.51100000000E-03 0.  1.
         12    1    3    3    0    0 -0.11758169486E+02  0.34899349343E+02 -0.17957278992E+02  0.40971734196E+02  0.00000000000E+00 0. -1.
</event>
<event>
 7    1  0.3568207E-015  0.9000766E+02  0.7816164E-02  0.1186339E+00
        -11   -1    0    0    0    0  0.00000000000E+00  0.00000000000E+00  0.45593999997E+02  0.45594000000E+02  0.51100000000E-03 0.  1.
         11   -1    0    0    0    0 -0.00000000000E+00 -0.00000000000E+00 -0.45593999997E+02  0.45594000000E+02  0.51100000000E-03 0. -1.
    9900012    2    1    2    0    0 -0.97403392166E+00 -0.29456675726E+00  0.59807963332E+00  0.90007656447E+02  0.89999916712E+02 0.  0.
         12    1    1    2    0    0  0.97403392166E+00  0.29456675726E+00 -0.59807963332E+00  0.11803435529E+01  0.00000000000E+00 0. -1.
         11    1    3    3    0    0 -0.13886164007E+02  0.17796790314E+02 -0.29861353502E+02  0.37433297071E+02  0.51100000000E-03 0. -1.
        -11    1    3    3    0    0  0.11034649920E+02  0.93004888218E+00 -0.51089955543E+01  0.12195504320E+02  0.51100000000E-03 0.  1.
        -12    1    3    3    0    0  0.18774801657E+01 -0.19021405954E+02  0.35568428690E+02  0.40378855057E+02  0.00000000000E+00 0.  1.
</event>
<event>
 7    1  0.3568207E-015  0.9000776E+02  0.7816164E-02  0.1186339E+00
        -11   -1    0    0    0    0  0.00000000000E+00  0.00000000000E+00  0.45593999997E+02  0.45594000000E+02  0.51100000000E-03 0.  1.
         11   -1    0    0    0    0 -0.00000000000E+00 -0.00000000000E+00 -0.45593999997E+02  0.45594000000E+02  0.51100000000E-03 0. -1.
    9900012    2    1    2    0    0  0.42599589467E+00 -0.95188966047E+00  0.55262385100E+00  0.90007762927E+02  0.90000024598E+02 0.  0.
         12    1    1    2    0    0 -0.42599589467E+00  0.95188966047E+00 -0.55262385100E+00  0.11802370731E+01  0.00000000000E+00 0. -1.
         11    1    3    3    0    0  0.90030013441E+00  0.15305406494E+02 -0.10861708076E+02  0.18789430829E+02  0.51100000000E-03 0. -1.
        -11    1    3    3    0    0 -0.11441089263E+02  0.20538952278E+02 -0.11846183953E+02  0.26326396615E+02  0.51100000000E-03 0.  1.
        -12    1    3    3    0    0  0.10966785024E+02 -0.36796248433E+02  0.23260515880E+02  0.44891935483E+02  0.00000000000E+00 0.  1.
</event>
<event>
 7    1  0.4440813E-015  0.9000778E+02  0.7816164E-02  0.1186339E+00
        -11   -1    0    0    0    0  0.00000000000E+00  0.00000000000E+00  0.45593999997E+02  0.45594000000E+02  0.51100000000E-03 0.  1.
         11   -1    0    0    0    0 -0.00000000000E+00 -0.00000000000E+00 -0.45593999997E+02  0.45594000000E+02  0.51100000000E-03 0. -1.
    9900012    2    1    2    0    0  0.15271007373E+00  0.37204079158E+00  0.11095843328E+01  0.90007783025E+02  0.90000044961E+02 0.  0.
         12    1    1    2    0    0 -0.15271007373E+00 -0.37204079158E+00 -0.11095843328E+01  0.11802169753E+01  0.00000000000E+00 0. -1.
         11    1    3    3    0    0  0.89872381617E+01  0.42755598178E+01  0.94811008792E+00  0.99974884111E+01  0.51100000000E-03 0. -1.
        -11    1    3    3    0    0 -0.11664195622E+02  0.63062941051E-01  0.39082218063E+02  0.40785747577E+02  0.51100000000E-03 0.  1.
         12    1    3    3    0    0  0.28296675338E+01 -0.39665819673E+01 -0.38920743818E+02  0.39224547036E+02  0.00000000000E+00 0. -1.
</event>
<event>
 7    1  0.3568207E-015  0.9000683E+02  0.7816164E-02  0.1186341E+00
        -11   -1    0    0    0    0  0.00000000000E+00  0.00000000000E+00  0.45593999997E+02  0.45594000000E+02  0.51100000000E-03 0.  1.
         11   -1    0    0    0    0 -0.00000000000E+00 -0.00000000000E+00 -0.45593999997E+02  0.45594000000E+02  0.51100000000E-03 0. -1.
    9900012    2    1    2    0    0  0.46589975546E+00  0.10813250999E+01 -0.94004283425E-01  0.90006829666E+02  0.89999079012E+02 0.  0.
         12    1    1    2    0    0 -0.46589975546E+00 -0.10813250999E+01  0.94004283425E-01  0.11811703345E+01  0.00000000000E+00 0. -1.
         11    1    3    3    0    0 -0.25258668409E+02 -0.11549173099E+01  0.98798290605E+01  0.27146734358E+02  0.51100000000E-03 0. -1.
        -11    1    3    3    0    0  0.15260131254E+02  0.25647148625E+02 -0.19337207289E+02  0.35560869287E+02  0.51100000000E-03 0.  1.
         12    1    3    3    0    0  0.10464436911E+02 -0.23410906215E+02  0.93633739451E+01  0.27299226020E+02  0.00000000000E+00 0. -1.
</event>
<event>
 7    1  0.3568207E-015  0.9000777E+02  0.7816164E-02  0.1186339E+00
        -11   -1    0    0    0    0  0.00000000000E+00  0.00000000000E+00  0.45593999997E+02  0.45594000000E+02  0.51100000000E-03 0.  1.
         11   -1    0    0    0    0 -0.00000000000E+00 -0.00000000000E+00 -0.45593999997E+02  0.45594000000E+02  0.51100000000E-03 0. -1.
    9900012    2    1    2    0    0  0.13714602749E-01 -0.17186696627E-01  0.11800257453E+01  0.90007769416E+02  0.90000031172E+02 0.  0.
         12    1    1    2    0    0 -0.13714602749E-01  0.17186696627E-01 -0.11800257453E+01  0.11802305845E+01  0.00000000000E+00 0. -1.
         11    1    3    3    0    0 -0.18024168051E+01 -0.92017114563E+01  0.16329691996E+01  0.95177092166E+01  0.51100000000E-03 0. -1.
        -11    1    3    3    0    0 -0.22740162303E+02  0.19810110773E+02 -0.28664714434E+02  0.41607947850E+02  0.51100000000E-03 0.  1.
         12    1    3    3    0    0  0.24556293711E+02 -0.10625586013E+02  0.28211770980E+02  0.38882112349E+02  0.00000000000E+00 0. -1.
</event>
<event>
 7    1  0.3568207E-015  0.9000767E+02  0.7816164E-02  0.1186339E+00
        -11   -1    0    0    0    0  0.00000000000E+00  0.00000000000E+00  0.45593999997E+02  0.45594000000E+02  0.51100000000E-03 0.  1.
         11   -1    0    0    0    0 -0.00000000000E+00 -0.00000000000E+00 -0.45593999997E+02  0.45594000000E+02  0.51100000000E-03 0. -1.
    9900012    2    1    2    0    0 -0.93436403170E+00 -0.56476803772E+00 -0.44852531221E+00  0.90007672064E+02  0.89999932535E+02 0.  0.
         12    1    1    2    0    0  0.93436403170E+00  0.56476803772E+00  0.44852531221E+00  0.11803279357E+01  0.00000000000E+00 0. -1.
         11    1    3    3    0    0  0.70666802387E+01 -0.25589590025E+01  0.64624488571E+01  0.99120878863E+01  0.51100000000E-03 0. -1.
        -11    1    3    3    0    0 -0.25373216486E+02  0.23347864444E+02  0.21420907691E+02  0.40592834042E+02  0.51100000000E-03 0.  1.
         12    1    3    3    0    0  0.17372172216E+02 -0.21353673479E+02 -0.28331881861E+02  0.39502750136E+02  0.00000000000E+00 0. -1.
</event>
<event>
 7    1  0.3568207E-015  0.9000773E+02  0.7816164E-02  0.1186339E+00
        -11   -1    0    0    0    0  0.00000000000E+00  0.00000000000E+00  0.45593999997E+02  0.45594000000E+02  0.51100000000E-03 0.  1.
         11   -1    0    0    0    0 -0.00000000000E+00 -0.00000000000E+00 -0.45593999997E+02  0.45594000000E+02  0.51100000000E-03 0. -1.
    9900012    2    1    2    0    0 -0.47585133260E+00  0.30017657976E+00  0.10375489603E+01  0.90007725322E+02  0.89999986497E+02 0.  0.
         12    1    1    2    0    0  0.47585133260E+00 -0.30017657976E+00 -0.10375489603E+01  0.11802746777E+01  0.00000000000E+00 0. -1.
         11    1    3    3    0    0  0.44585216514E+01 -0.62599917020E+01  0.39227460149E+01  0.86286643221E+01  0.51100000000E-03 0. -1.
        -11    1    3    3    0    0 -0.16815365832E+02 -0.20270125110E+02  0.28231578031E+02  0.38609020946E+02  0.51100000000E-03 0.  1.
         12    1    3    3    0    0  0.11880992848E+02  0.26830293392E+02 -0.31116775085E+02  0.42770040054E+02  0.00000000000E+00 0. -1.
</event>
<event>
 7    1  0.3568207E-015  0.9000773E+02  0.7816164E-02  0.1186339E+00
        -11   -1    0    0    0    0  0.00000000000E+00  0.00000000000E+00  0.45593999997E+02  0.45594000000E+02  0.51100000000E-03 0.  1.
         11   -1    0    0    0    0 -0.00000000000E+00 -0.00000000000E+00 -0.45593999997E+02  0.45594000000E+02  0.51100000000E-03 0. -1.
    9900012    2    1    2    0    0 -0.79273185612E+00  0.24258352759E+00  0.84009863533E+00  0.90007730420E+02  0.89999991662E+02 0.  0.
         12    1    1    2    0    0  0.79273185612E+00 -0.24258352759E+00 -0.84009863533E+00  0.11802695797E+01  0.00000000000E+00 0. -1.
         11    1    3    3    0    0  0.23862852831E+01  0.41468754987E+01  0.70261709832E+01  0.85004713281E+01  0.51100000000E-03 0. -1.
        -11    1    3    3    0    0 -0.24928442512E+01  0.35272245991E+02  0.13259842558E+02  0.37764653244E+02  0.51100000000E-03 0.  1.
         12    1    3    3    0    0 -0.68617288799E+00 -0.39176537962E+02 -0.19445914906E+02  0.43742605849E+02  0.00000000000E+00 0. -1.
</event>
<event>
 7    1  0.3568207E-015  0.9000770E+02  0.7816164E-02  0.1186339E+00
        -11   -1    0    0    0    0  0.00000000000E+00  0.00000000000E+00  0.45593999997E+02  0.45594000000E+02  0.51100000000E-03 0.  1.
         11   -1    0    0    0    0 -0.00000000000E+00 -0.00000000000E+00 -0.45593999997E+02  0.45594000000E+02  0.51100000000E-03 0. -1.
    9900012    2    1    2    0    0 -0.10545223883E+00  0.11554110594E+01  0.21680522730E+00  0.90007703682E+02  0.89999964571E+02 0.  0.
         12    1    1    2    0    0  0.10545223883E+00 -0.11554110594E+01 -0.21680522730E+00  0.11802963177E+01  0.00000000000E+00 0. -1.
         11    1    3    3    0    0  0.12972317479E+02  0.29097571699E+02  0.73096343479E+01  0.32686089612E+02  0.51100000000E-03 0. -1.
        -11    1    3    3    0    0 -0.19118656844E+01  0.12139044598E+02 -0.96659808257E+01  0.15634667241E+02  0.51100000000E-03 0.  1.
        -12    1    3    3    0    0 -0.11165904034E+02 -0.40081205238E+02  0.25731517051E+01  0.41686946829E+02  0.00000000000E+00 0.  1.
</event>
<event>
 7    1  0.3568207E-015  0.9000778E+02  0.7816164E-02  0.1186339E+00
        -11   -1    0    0    0    0  0.00000000000E+00  0.00000000000E+00  0.45593999997E+02  0.45594000000E+02  0.51100000000E-03 0.  1.
         11   -1    0    0    0    0 -0.00000000000E+00 -0.00000000000E+00 -0.45593999997E+02  0.45594000000E+02  0.51100000000E-03 0. -1.
    9900012    2    1    2    0    0  0.89008463210E+00 -0.15823909401E+00  0.75870501174E+00  0.90007778174E+02  0.90000040046E+02 0.  0.
         12    1    1    2    0    0 -0.89008463210E+00  0.15823909401E+00 -0.75870501174E+00  0.11802218258E+01  0.00000000000E+00 0. -1.
         11    1    3    3    0    0 -0.11487258732E+02  0.35469554772E+01 -0.34741773341E+02  0.36763144880E+02  0.51100000000E-03 0. -1.
        -11    1    3    3    0    0  0.40328073148E+01  0.10021326387E+02 -0.32630515981E+01  0.11284415066E+02  0.51100000000E-03 0.  1.
        -12    1    3    3    0    0  0.83445360489E+01 -0.13726520958E+02  0.38763529951E+02  0.41960218228E+02  0.00000000000E+00 0.  1.
</event>
<event>
 7    1  0.3568207E-015  0.9000770E+02  0.7816164E-02  0.1186339E+00
        -11   -1    0    0    0    0  0.00000000000E+00  0.00000000000E+00  0.45593999997E+02  0.45594000000E+02  0.51100000000E-03 0. -1.
         11   -1    0    0    0    0 -0.00000000000E+00 -0.00000000000E+00 -0.45593999997E+02  0.45594000000E+02  0.51100000000E-03 0.  1.
    9900012    2    1    2    0    0 -0.59736278340E+00  0.86003247187E+00 -0.54462128480E+00  0.90007698983E+02  0.89999959809E+02 0.  0.
         12    1    1    2    0    0  0.59736278340E+00 -0.86003247187E+00  0.54462128480E+00  0.11803010173E+01  0.00000000000E+00 0. -1.
         11    1    3    3    0    0 -0.75494654898E+01  0.36323527948E+02  0.67176325147E+01  0.37703046278E+02  0.51100000000E-03 0. -1.
        -11    1    3    3    0    0 -0.88902571082E+01  0.36386913761E+01 -0.15414336859E+01  0.97289652302E+01  0.51100000000E-03 0.  1.
        -12    1    3    3    0    0  0.15842359815E+02 -0.39102186852E+02 -0.57208201136E+01  0.42575687474E+02  0.00000000000E+00 0.  1.
</event>
<event>
 7    1  0.3568207E-015  0.9000773E+02  0.7816164E-02  0.1186339E+00
        -11   -1    0    0    0    0  0.00000000000E+00  0.00000000000E+00  0.45593999997E+02  0.45594000000E+02  0.51100000000E-03 0.  1.
         11   -1    0    0    0    0 -0.00000000000E+00 -0.00000000000E+00 -0.45593999997E+02  0.45594000000E+02  0.51100000000E-03 0. -1.
    9900012    2    1    2    0    0 -0.52078614928E+00 -0.88043869438E+00  0.58877618724E+00  0.90007725495E+02  0.89999986672E+02 0.  0.
         12    1    1    2    0    0  0.52078614928E+00  0.88043869438E+00 -0.58877618724E+00  0.11802745047E+01  0.00000000000E+00 0. -1.
         11    1    3    3    0    0 -0.12323296572E+02 -0.14301372479E+02  0.35440923629E+02  0.40155347852E+02  0.51100000000E-03 0. -1.
        -11    1    3    3    0    0  0.12291271441E+02 -0.41845321230E+01 -0.28036545985E+01  0.13283303132E+02  0.51100000000E-03 0.  1.
        -12    1    3    3    0    0 -0.48876101809E+00  0.17605465907E+02 -0.32048492843E+02  0.36569074512E+02  0.00000000000E+00 0.  1.
</event>
<event>
 7    1  0.5366778E-015  0.9000767E+02  0.7816164E-02  0.1186339E+00
        -11   -1    0    0    0    0  0.00000000000E+00  0.00000000000E+00  0.45593999997E+02  0.45594000000E+02  0.51100000000E-03 0. -1.
         11   -1    0    0    0    0 -0.00000000000E+00 -0.00000000000E+00 -0.45593999997E+02  0.45594000000E+02  0.51100000000E-03 0.  1.
    9900012    2    1    2    0    0 -0.68916245183E+00 -0.17262314021E+00 -0.94256953837E+00  0.90007669128E+02  0.89999929560E+02 0.  0.
         12    1    1    2    0    0  0.68916245183E+00  0.17262314021E+00  0.94256953837E+00  0.11803308723E+01  0.00000000000E+00 0. -1.
         11    1    3    3    0    0 -0.95747316242E+01 -0.21056444452E+01 -0.12877032728E+01  0.98877400949E+01  0.51100000000E-03 0. -1.
        -11    1    3    3    0    0 -0.21832040392E+02  0.59607766682E+01 -0.29447054960E+02  0.37138899987E+02  0.51100000000E-03 0.  1.
         12    1    3    3    0    0  0.30717609564E+02 -0.40277553632E+01  0.29792188695E+02  0.42981029046E+02  0.00000000000E+00 0. -1.
</event>
<event>
 7    1  0.3568207E-015  0.9000770E+02  0.7816164E-02  0.1186339E+00
        -11   -1    0    0    0    0  0.00000000000E+00  0.00000000000E+00  0.45593999997E+02  0.45594000000E+02  0.51100000000E-03 0.  1.
         11   -1    0    0    0    0 -0.00000000000E+00 -0.00000000000E+00 -0.45593999997E+02  0.45594000000E+02  0.51100000000E-03 0. -1.
    9900012    2    1    2    0    0  0.42578238545E+00  0.14094159694E+00  0.10917641173E+01  0.90007701707E+02  0.89999962569E+02 0.  0.
         12    1    1    2    0    0 -0.42578238545E+00 -0.14094159694E+00 -0.10917641173E+01  0.11802982934E+01  0.00000000000E+00 0. -1.
         11    1    3    3    0    0  0.39857155473E+00 -0.46181361549E+01  0.60099402906E+01  0.75898236730E+01  0.51100000000E-03 0. -1.
        -11    1    3    3    0    0 -0.23243900859E+02  0.19756749751E+02  0.26594874890E+02  0.40470921148E+02  0.51100000000E-03 0.  1.
         12    1    3    3    0    0  0.23271111690E+02 -0.14997671999E+02 -0.31513051063E+02  0.41946956886E+02  0.00000000000E+00 0. -1.
</event>
<event>
 7    1  0.3568207E-015  0.9000772E+02  0.7816164E-02  0.1186339E+00
        -11   -1    0    0    0    0  0.00000000000E+00  0.00000000000E+00  0.45593999997E+02  0.45594000000E+02  0.51100000000E-03 0. -1.
         11   -1    0    0    0    0 -0.00000000000E+00 -0.00000000000E+00 -0.45593999997E+02  0.45594000000E+02  0.51100000000E-03 0.  1.
    9900012    2    1    2    0    0  0.19523749637E+00  0.87172748590E+00  0.77138715042E+00  0.90007718413E+02  0.89999979496E+02 0.  0.
         12    1    1    2    0    0 -0.19523749637E+00 -0.87172748590E+00 -0.77138715042E+00  0.11802815874E+01  0.00000000000E+00 0. -1.
         11    1    3    3    0    0 -0.16150761708E+02  0.83272166399E+01  0.31945996553E+02  0.36752365049E+02  0.51100000000E-03 0. -1.
        -11    1    3    3    0    0 -0.35737020862E+00  0.10203379416E+02  0.36016401742E+01  0.10826286398E+02  0.51100000000E-03 0.  1.
        -12    1    3    3    0    0  0.16703369413E+02 -0.17658868570E+02 -0.34776249576E+02  0.42429066965E+02  0.00000000000E+00 0.  1.
</event>
<event>
 7    1  0.3568207E-015  0.9000762E+02  0.7816164E-02  0.1186339E+00
        -11   -1    0    0    0    0  0.00000000000E+00  0.00000000000E+00  0.45593999997E+02  0.45594000000E+02  0.51100000000E-03 0. -1.
         11   -1    0    0    0    0 -0.00000000000E+00 -0.00000000000E+00 -0.45593999997E+02  0.45594000000E+02  0.51100000000E-03 0.  1.
    9900012    2    1    2    0    0  0.59216023455E-02  0.95012520728E-01 -0.11765335400E+01  0.90007621410E+02  0.89999881213E+02 0.  0.
         12    1    1    2    0    0 -0.59216023455E-02 -0.95012520728E-01  0.11765335400E+01  0.11803785898E+01  0.00000000000E+00 0. -1.
         11    1    3    3    0    0 -0.19380157087E+02  0.30088193834E+02  0.79339226303E+01  0.36658382745E+02  0.51100000000E-03 0. -1.
        -11    1    3    3    0    0 -0.69174207131E+01  0.63762058264E+00  0.70157540487E+01  0.98730985239E+01  0.51100000000E-03 0.  1.
        -12    1    3    3    0    0  0.26303499403E+02 -0.30630801895E+02 -0.16126210219E+02  0.43476140142E+02  0.00000000000E+00 0.  1.
</event>
<event>
 7    1  0.3568207E-015  0.9000773E+02  0.7816164E-02  0.1186339E+00
        -11   -1    0    0    0    0  0.00000000000E+00  0.00000000000E+00  0.45593999997E+02  0.45594000000E+02  0.51100000000E-03 0. -1.
         11   -1    0    0    0    0 -0.00000000000E+00 -0.00000000000E+00 -0.45593999997E+02  0.45594000000E+02  0.51100000000E-03 0.  1.
    9900012    2    1    2    0    0 -0.58544690674E+00 -0.67448732934E+00 -0.77158634268E+00  0.90007734470E+02  0.89999995765E+02 0.  0.
         12    1    1    2    0    0  0.58544690674E+00  0.67448732934E+00  0.77158634268E+00  0.11802655304E+01  0.00000000000E+00 0. -1.
         11    1    3    3    0    0 -0.61004267680E+00  0.59984930944E+01  0.77327930818E+01  0.98056188269E+01  0.51100000000E-03 0. -1.
        -11    1    3    3    0    0 -0.37320995203E+02 -0.18391213322E+01  0.93625062201E+01  0.38521365152E+02  0.51100000000E-03 0.  1.
         12    1    3    3    0    0  0.37345590973E+02 -0.48338590916E+01 -0.17866885645E+02  0.41680750491E+02  0.00000000000E+00 0. -1.
</event>
<event>
 7    1  0.3568207E-015  0.9000779E+02  0.7816164E-02  0.1186339E+00
        -11   -1    0    0    0    0  0.00000000000E+00  0.00000000000E+00  0.45593999997E+02  0.45594000000E+02  0.51100000000E-03 0. -1.
         11   -1    0    0    0    0 -0.00000000000E+00 -0.00000000000E+00 -0.45593999997E+02  0.45594000000E+02  0.51100000000E-03 0.  1.
    9900012    2    1    2    0    0  0.15150262350E+00 -0.10133952346E+01  0.58564743838E+00  0.90007785668E+02  0.90000047639E+02 0.  0.
         12    1    1    2    0    0 -0.15150262350E+00  0.10133952346E+01 -0.58564743838E+00  0.11802143316E+01  0.00000000000E+00 0. -1.
         11    1    3    3    0    0  0.13603485834E+01 -0.17750363864E+02  0.79721704131E+01  0.19505934147E+02  0.51100000000E-03 0. -1.
        -11    1    3    3    0    0 -0.28292916171E+02  0.28719013773E+02 -0.17396335275E+01  0.40352164534E+02  0.51100000000E-03 0.  1.
         12    1    3    3    0    0  0.27084070211E+02 -0.11982045143E+02 -0.56468894472E+01  0.30149686987E+02  0.00000000000E+00 0. -1.
</event>
<event>
 7    1  0.3568207E-015  0.9000773E+02  0.7816164E-02  0.1186339E+00
        -11   -1    0    0    0    0  0.00000000000E+00  0.00000000000E+00  0.45593999997E+02  0.45594000000E+02  0.51100000000E-03 0. -1.
         11   -1    0    0    0    0 -0.00000000000E+00 -0.00000000000E+00 -0.45593999997E+02  0.45594000000E+02  0.51100000000E-03 0.  1.
    9900012    2    1    2    0    0 -0.84798731582E+00 -0.56554561569E+00 -0.59507961062E+00  0.90007727119E+02  0.89999988317E+02 0.  0.
         12    1    1    2    0    0  0.84798731582E+00  0.56554561569E+00  0.59507961062E+00  0.11802728812E+01  0.00000000000E+00 0. -1.
         11    1    3    3    0    0 -0.44077981669E+01 -0.55137562857E+01  0.72087921465E+01  0.10089443866E+02  0.51100000000E-03 0. -1.
        -11    1    3    3    0    0 -0.89995427499E+01 -0.29893379299E+02  0.16802452946E+02  0.35453184919E+02  0.51100000000E-03 0.  1.
         12    1    3    3    0    0  0.12559353601E+02  0.34841589969E+02 -0.24606324703E+02  0.44465098334E+02  0.00000000000E+00 0. -1.
</event>
<event>
 7    1  0.3568207E-015  0.9000768E+02  0.7816164E-02  0.1186339E+00
        -11   -1    0    0    0    0  0.00000000000E+00  0.00000000000E+00  0.45593999997E+02  0.45594000000E+02  0.51100000000E-03 0.  1.
         11   -1    0    0    0    0 -0.00000000000E+00 -0.00000000000E+00 -0.45593999997E+02  0.45594000000E+02  0.51100000000E-03 0. -1.
    9900012    2    1    2    0    0  0.67140404320E+00 -0.62855469317E+00  0.73979472481E+00  0.90007677745E+02  0.89999938291E+02 0.  0.
         12    1    1    2    0    0 -0.67140404320E+00  0.62855469317E+00 -0.73979472481E+00  0.11803222553E+01  0.00000000000E+00 0. -1.
         11    1    3    3    0    0  0.87345704549E+01  0.98919231359E+00  0.24863319111E+01  0.91352651356E+01  0.51100000000E-03 0. -1.
        -11    1    3    3    0    0 -0.23359028938E+02 -0.90755209587E+01  0.33439334390E+02  0.41787538792E+02  0.51100000000E-03 0.  1.
         12    1    3    3    0    0  0.15295862526E+02  0.74577739519E+01 -0.35185871576E+02  0.39084873817E+02  0.00000000000E+00 0. -1.
</event>
<event>
 7    1  0.3568207E-015  0.9000775E+02  0.7816164E-02  0.1186339E+00
        -11   -1    0    0    0    0  0.00000000000E+00  0.00000000000E+00  0.45593999997E+02  0.45594000000E+02  0.51100000000E-03 0.  1.
         11   -1    0    0    0    0 -0.00000000000E+00 -0.00000000000E+00 -0.45593999997E+02  0.45594000000E+02  0.51100000000E-03 0. -1.
    9900012    2    1    2    0    0  0.41047085412E+00 -0.25272943366E+00  0.10773278667E+01  0.90007748408E+02  0.90000009887E+02 0.  0.
         12    1    1    2    0    0 -0.41047085412E+00  0.25272943366E+00 -0.10773278667E+01  0.11802515923E+01  0.00000000000E+00 0. -1.
         11    1    3    3    0    0 -0.14895398656E+01 -0.80523898215E+01 -0.90293121144E+01  0.12189675483E+02  0.51100000000E-03 0. -1.
        -11    1    3    3    0    0 -0.32593295451E+02 -0.11993918799E+02 -0.53718549448E+01  0.35143047995E+02  0.51100000000E-03 0.  1.
         12    1    3    3    0    0  0.34493306171E+02  0.19793579187E+02  0.15478494926E+02  0.42675024930E+02  0.00000000000E+00 0. -1.
</event>
<event>
 7    1  0.3568207E-015  0.9000771E+02  0.7816164E-02  0.1186339E+00
        -11   -1    0    0    0    0  0.00000000000E+00  0.00000000000E+00  0.45593999997E+02  0.45594000000E+02  0.51100000000E-03 0.  1.
         11   -1    0    0    0    0 -0.00000000000E+00 -0.00000000000E+00 -0.45593999997E+02  0.45594000000E+02  0.51100000000E-03 0. -1.
    9900012    2    1    2    0    0  0.22389361190E+00 -0.65911690930E-01  0.11569810436E+01  0.90007712816E+02  0.89999973826E+02 0.  0.
         12    1    1    2    0    0 -0.22389361190E+00  0.65911690930E-01 -0.11569810436E+01  0.11802871835E+01  0.00000000000E+00 0. -1.
         11    1    3    3    0    0  0.22175765298E+01 -0.34861023609E+01  0.73532964796E+01  0.84345435392E+01  0.51100000000E-03 0. -1.
        -11    1    3    3    0    0  0.98750385133E+01  0.14484815840E+02  0.33984510020E+02  0.38239680923E+02  0.51100000000E-03 0.  1.
         12    1    3    3    0    0 -0.11868721431E+02 -0.11064625170E+02 -0.40180825456E+02  0.43333488354E+02  0.00000000000E+00 0. -1.
</event>
<event>
 7    1  0.3568207E-015  0.9000744E+02  0.7816164E-02  0.1186340E+00
        -11   -1    0    0    0    0  0.00000000000E+00  0.00000000000E+00  0.45593999997E+02  0.45594000000E+02  0.51100000000E-03 0.  1.
         11   -1    0    0    0    0 -0.00000000000E+00 -0.00000000000E+00 -0.45593999997E+02  0.45594000000E+02  0.51100000000E-03 0. -1.
    9900012    2    1    2    0    0 -0.74830670167E+00  0.69825035506E+00  0.58838630349E+00  0.90007442962E+02  0.89999700408E+02 0.  0.
         12    1    1    2    0    0  0.74830670167E+00 -0.69825035506E+00 -0.58838630349E+00  0.11805570381E+01  0.00000000000E+00 0. -1.
         11    1    3    3    0    0 -0.90350819979E+01  0.70736525802E+00 -0.43414429177E+00  0.90731226072E+01  0.51100000000E-03 0. -1.
        -11    1    3    3    0    0 -0.57779117809E+01 -0.38891460880E+02  0.37486262238E+01  0.39496609889E+02  0.51100000000E-03 0.  1.
         12    1    3    3    0    0  0.14064687077E+02  0.38882345977E+02 -0.27260956285E+01  0.41437710465E+02  0.00000000000E+00 0. -1.
</event>
<event>
 7    1  0.3568207E-015  0.9000770E+02  0.7816164E-02  0.1186339E+00
        -11   -1    0    0    0    0  0.00000000000E+00  0.00000000000E+00  0.45593999997E+02  0.45594000000E+02  0.51100000000E-03 0. -1.
         11   -1    0    0    0    0 -0.00000000000E+00 -0.00000000000E+00 -0.45593999997E+02  0.45594000000E+02  0.51100000000E-03 0.  1.
    9900012    2    1    2    0    0  0.39620697390E+00  0.10905122404E+01 -0.21659541328E+00  0.90007698985E+02  0.89999959812E+02 0.  0.
         12    1    1    2    0    0 -0.39620697390E+00 -0.10905122404E+01  0.21659541328E+00  0.11803010149E+01  0.00000000000E+00 0. -1.
         11    1    3    3    0    0 -0.63648375944E+01 -0.11234946542E+02 -0.15719667963E+01  0.13007930706E+02  0.51100000000E-03 0. -1.
        -11    1    3    3    0    0 -0.23228924159E+02 -0.19568599392E+02  0.10758481323E+02  0.32222009875E+02  0.51100000000E-03 0.  1.
         12    1    3    3    0    0  0.29989968727E+02  0.31894058174E+02 -0.94031099401E+01  0.44777758403E+02  0.00000000000E+00 0. -1.
</event>
<event>
 7    1  0.3568207E-015  0.9000775E+02  0.7816164E-02  0.1186339E+00
        -11   -1    0    0    0    0  0.00000000000E+00  0.00000000000E+00  0.45593999997E+02  0.45594000000E+02  0.51100000000E-03 0.  1.
         11   -1    0    0    0    0 -0.00000000000E+00 -0.00000000000E+00 -0.45593999997E+02  0.45594000000E+02  0.51100000000E-03 0. -1.
    9900012    2    1    2    0    0  0.17157028928E+00 -0.10603184472E+01 -0.48916031078E+00  0.90007750288E+02  0.90000011791E+02 0.  0.
         12    1    1    2    0    0 -0.17157028928E+00  0.10603184472E+01  0.48916031078E+00  0.11802497123E+01  0.00000000000E+00 0. -1.
         11    1    3    3    0    0 -0.76734852010E+01 -0.41586644294E+01 -0.14211919028E+01  0.88428870654E+01  0.51100000000E-03 0. -1.
        -11    1    3    3    0    0 -0.33000091979E+02  0.70116396201E+01 -0.15293182968E+02  0.37041201470E+02  0.51100000000E-03 0.  1.
         12    1    3    3    0    0  0.40845147470E+02 -0.39132936379E+01  0.16225214560E+02  0.44123661752E+02  0.00000000000E+00 0. -1.
</event>
<event>
 7    1  0.3568207E-015  0.9000773E+02  0.7816164E-02  0.1186339E+00
        -11   -1    0    0    0    0  0.00000000000E+00  0.00000000000E+00  0.45593999997E+02  0.45594000000E+02  0.51100000000E-03 0.  1.
         11   -1    0    0    0    0 -0.00000000000E+00 -0.00000000000E+00 -0.45593999997E+02  0.45594000000E+02  0.51100000000E-03 0. -1.
    9900012    2    1    2    0    0 -0.97148579277E+00  0.60531711911E+00 -0.28781989249E+00  0.90007731492E+02  0.89999992748E+02 0.  0.
         12    1    1    2    0    0  0.97148579277E+00 -0.60531711911E+00  0.28781989249E+00  0.11802685079E+01  0.00000000000E+00 0. -1.
         11    1    3    3    0    0 -0.34014474913E+02 -0.18722560030E+02 -0.19683012336E+02  0.43530905487E+02  0.51100000000E-03 0. -1.
        -11    1    3    3    0    0  0.86531394527E+01  0.32769236165E+01 -0.29480205814E+01  0.97111212733E+01  0.51100000000E-03 0.  1.
        -12    1    3    3    0    0  0.24389849667E+02  0.16050953533E+02  0.22343213025E+02  0.36765704731E+02  0.00000000000E+00 0.  1.
</event>
<event>
 7    1  0.3568207E-015  0.9000786E+02  0.7816164E-02  0.1186339E+00
        -11   -1    0    0    0    0  0.00000000000E+00  0.00000000000E+00  0.45593999997E+02  0.45594000000E+02  0.51100000000E-03 0.  1.
         11   -1    0    0    0    0 -0.00000000000E+00 -0.00000000000E+00 -0.45593999997E+02  0.45594000000E+02  0.51100000000E-03 0. -1.
    9900012    2    1    2    0    0 -0.86906207674E+00  0.39393367824E+00  0.69446322247E+00  0.90007859414E+02  0.90000122358E+02 0.  0.
         12    1    1    2    0    0  0.86906207674E+00 -0.39393367824E+00 -0.69446322247E+00  0.11801405863E+01  0.00000000000E+00 0. -1.
         11    1    3    3    0    0 -0.25224531013E+02 -0.17508355178E+02 -0.18862259758E+02  0.36036152810E+02  0.51100000000E-03 0. -1.
        -11    1    3    3    0    0 -0.78118216155E+01  0.27400262253E+01 -0.59616705176E+01  0.10201657527E+02  0.51100000000E-03 0.  1.
        -12    1    3    3    0    0  0.32167290552E+02  0.15162262631E+02  0.25518393498E+02  0.43770049078E+02  0.00000000000E+00 0.  1.
</event>
<event>
 7    1  0.3568207E-015  0.9000789E+02  0.7816164E-02  0.1186339E+00
        -11   -1    0    0    0    0  0.00000000000E+00  0.00000000000E+00  0.45593999997E+02  0.45594000000E+02  0.51100000000E-03 0. -1.
         11   -1    0    0    0    0 -0.00000000000E+00 -0.00000000000E+00 -0.45593999997E+02  0.45594000000E+02  0.51100000000E-03 0.  1.
    9900012    2    1    2    0    0  0.31260281682E+00 -0.82469794718E-01 -0.11349654052E+01  0.90007886336E+02  0.90000149636E+02 0.  0.
         12    1    1    2    0    0 -0.31260281682E+00  0.82469794718E-01  0.11349654052E+01  0.11801136637E+01  0.00000000000E+00 0. -1.
         11    1    3    3    0    0 -0.62153868894E+01  0.39326039101E+01 -0.41593022074E+01  0.84496273771E+01  0.51100000000E-03 0. -1.
        -11    1    3    3    0    0  0.21257128338E+02 -0.13676579509E+02 -0.32934762750E+02  0.41516417595E+02  0.51100000000E-03 0.  1.
         12    1    3    3    0    0 -0.14729138632E+02  0.96615058042E+01  0.35959099552E+02  0.40041841364E+02  0.00000000000E+00 0. -1.
</event>
<event>
 7    1  0.3568207E-015  0.9000762E+02  0.7816164E-02  0.1186339E+00
        -11   -1    0    0    0    0  0.00000000000E+00  0.00000000000E+00  0.45593999997E+02  0.45594000000E+02  0.51100000000E-03 0.  1.
         11   -1    0    0    0    0 -0.00000000000E+00 -0.00000000000E+00 -0.45593999997E+02  0.45594000000E+02  0.51100000000E-03 0. -1.
    9900012    2    1    2    0    0 -0.39213924582E+00  0.66326455990E-02  0.11133146130E+01  0.90007624379E+02  0.89999884220E+02 0.  0.
         12    1    1    2    0    0  0.39213924582E+00 -0.66326455990E-02 -0.11133146130E+01  0.11803756214E+01  0.00000000000E+00 0. -1.
         11    1    3    3    0    0  0.48582205463E+01  0.55427747118E+01  0.30725136768E+01  0.79852989259E+01  0.51100000000E-03 0. -1.
        -11    1    3    3    0    0  0.36313007195E+02 -0.79351479666E+01 -0.12250569293E+02  0.39136651786E+02  0.51100000000E-03 0.  1.
         12    1    3    3    0    0 -0.41563366987E+02  0.23990059004E+01  0.10291370229E+02  0.42885673666E+02  0.00000000000E+00 0. -1.
</event>
<event>
 7    1  0.3568207E-015  0.9000767E+02  0.7816164E-02  0.1186339E+00
        -11   -1    0    0    0    0  0.00000000000E+00  0.00000000000E+00  0.45593999997E+02  0.45594000000E+02  0.51100000000E-03 0. -1.
         11   -1    0    0    0    0 -0.00000000000E+00 -0.00000000000E+00 -0.45593999997E+02  0.45594000000E+02  0.51100000000E-03 0.  1.
    9900012    2    1    2    0    0 -0.10513498608E+01  0.24508001576E+00  0.47725448382E+00  0.90007672678E+02  0.89999933158E+02 0.  0.
         12    1    1    2    0    0  0.10513498608E+01 -0.24508001576E+00 -0.47725448382E+00  0.11803273217E+01  0.00000000000E+00 0. -1.
         11    1    3    3    0    0 -0.23864323914E+01 -0.13531129301E+02  0.37098442368E+02  0.39561103954E+02  0.51100000000E-03 0. -1.
        -11    1    3    3    0    0 -0.47249121866E+01  0.37834871781E+01  0.45988162823E+01  0.76018867301E+01  0.51100000000E-03 0.  1.
        -12    1    3    3    0    0  0.60599947172E+01  0.99927221384E+01 -0.41220004166E+02  0.42844681994E+02  0.00000000000E+00 0.  1.
</event>
<event>
 7    1  0.3568207E-015  0.9000787E+02  0.7816164E-02  0.1186339E+00
        -11   -1    0    0    0    0  0.00000000000E+00  0.00000000000E+00  0.45593999997E+02  0.45594000000E+02  0.51100000000E-03 0. -1.
         11   -1    0    0    0    0 -0.00000000000E+00 -0.00000000000E+00 -0.45593999997E+02  0.45594000000E+02  0.51100000000E-03 0.  1.
    9900012    2    1    2    0    0  0.60982474261E+00  0.56782244564E+00 -0.83570087695E+00  0.90007870981E+02  0.90000134078E+02 0.  0.
         12    1    1    2    0    0 -0.60982474261E+00 -0.56782244564E+00  0.83570087695E+00  0.11801290193E+01  0.00000000000E+00 0. -1.
         11    1    3    3    0    0 -0.11224616843E+02 -0.28386882356E+02 -0.61350565643E+01  0.31135928322E+02  0.51100000000E-03 0. -1.
        -11    1    3    3    0    0 -0.14747166817E+02 -0.44837875601E+01 -0.19768687236E+01  0.15539990033E+02  0.51100000000E-03 0.  1.
         12    1    3    3    0    0  0.26581608402E+02  0.33438492362E+02  0.72762244109E+01  0.43331952626E+02  0.00000000000E+00 0. -1.
</event>
<event>
 7    1  0.3568207E-015  0.9000774E+02  0.7816164E-02  0.1186339E+00
        -11   -1    0    0    0    0  0.00000000000E+00  0.00000000000E+00  0.45593999997E+02  0.45594000000E+02  0.51100000000E-03 0. -1.
         11   -1    0    0    0    0 -0.00000000000E+00 -0.00000000000E+00 -0.45593999997E+02  0.45594000000E+02  0.51100000000E-03 0.  1.
    9900012    2    1    2    0    0  0.41204676386E+00  0.19729199832E+00 -0.10882607399E+01  0.90007738120E+02  0.89999999463E+02 0.  0.
         12    1    1    2    0    0 -0.41204676386E+00 -0.19729199832E+00  0.10882607399E+01  0.11802618803E+01  0.00000000000E+00 0. -1.
         11    1    3    3    0    0 -0.29282944174E+02  0.19848311699E+02  0.12472720611E+02  0.37510199366E+02  0.51100000000E-03 0. -1.
        -11    1    3    3    0    0 -0.38768045962E+01  0.60651603858E+01 -0.63478796709E+01  0.95974663823E+01  0.51100000000E-03 0.  1.
        -12    1    3    3    0    0  0.33571795534E+02 -0.25716180086E+02 -0.72131016802E+01  0.42900072371E+02  0.00000000000E+00 0.  1.
</event>
<event>
 7    1  0.3568207E-015  0.9000768E+02  0.7816164E-02  0.1186339E+00
        -11   -1    0    0    0    0  0.00000000000E+00  0.00000000000E+00  0.45593999997E+02  0.45594000000E+02  0.51100000000E-03 0.  1.
         11   -1    0    0    0    0 -0.00000000000E+00 -0.00000000000E+00 -0.45593999997E+02  0.45594000000E+02  0.51100000000E-03 0. -1.
    9900012    2    1    2    0    0 -0.10739187008E+01 -0.24490739007E+00  0.42410801941E+00  0.90007682832E+02  0.89999943445E+02 0.  0.
         12    1    1    2    0    0  0.10739187008E+01  0.24490739007E+00 -0.42410801941E+00  0.11803171683E+01  0.00000000000E+00 0. -1.
         11    1    3    3    0    0 -0.63333566169E+00  0.19131482378E+01 -0.88821229351E+01  0.91078734255E+01  0.51100000000E-03 0. -1.
        -11    1    3    3    0    0  0.10503163904E+02 -0.26304603895E+02 -0.24837992045E+02  0.37671932352E+02  0.51100000000E-03 0.  1.
         12    1    3    3    0    0 -0.10943746943E+02  0.24146548267E+02  0.34144223000E+02  0.43227877054E+02  0.00000000000E+00 0. -1.
</event>
<event>
 7    1  0.3568207E-015  0.9000772E+02  0.7816164E-02  0.1186339E+00
        -11   -1    0    0    0    0  0.00000000000E+00  0.00000000000E+00  0.45593999997E+02  0.45594000000E+02  0.51100000000E-03 0. -1.
         11   -1    0    0    0    0 -0.00000000000E+00 -0.00000000000E+00 -0.45593999997E+02  0.45594000000E+02  0.51100000000E-03 0.  1.
    9900012    2    1    2    0    0  0.69970654343E+00  0.93172665460E+00 -0.18802475166E+00  0.90007721595E+02  0.89999982720E+02 0.  0.
         12    1    1    2    0    0 -0.69970654343E+00 -0.93172665460E+00  0.18802475166E+00  0.11802784049E+01  0.00000000000E+00 0. -1.
         11    1    3    3    0    0  0.97872560311E+01 -0.25831977301E+02  0.22737781171E+02  0.35778319200E+02  0.51100000000E-03 0. -1.
        -11    1    3    3    0    0 -0.74045336960E+01 -0.56872753193E+01  0.56875060182E+01  0.10932517770E+02  0.51100000000E-03 0.  1.
        -12    1    3    3    0    0 -0.16830157917E+01  0.32450979275E+02 -0.28613311941E+02  0.43296884626E+02  0.00000000000E+00 0.  1.
</event>
<event>
 7    1  0.3568207E-015  0.9000779E+02  0.7816164E-02  0.1186339E+00
        -11   -1    0    0    0    0  0.00000000000E+00  0.00000000000E+00  0.45593999997E+02  0.45594000000E+02  0.51100000000E-03 0. -1.
         11   -1    0    0    0    0 -0.00000000000E+00 -0.00000000000E+00 -0.45593999997E+02  0.45594000000E+02  0.51100000000E-03 0.  1.
    9900012    2    1    2    0    0  0.86941431169E+00 -0.40267706953E-01 -0.79712161700E+00  0.90007785780E+02  0.90000047752E+02 0.  0.
         12    1    1    2    0    0 -0.86941431169E+00  0.40267706953E-01  0.79712161700E+00  0.11802142203E+01  0.00000000000E+00 0. -1.
         11    1    3    3    0    0 -0.97390469122E+01 -0.24372439081E+01 -0.37930127429E+01  0.10732014655E+02  0.51100000000E-03 0. -1.
        -11    1    3    3    0    0 -0.74391283411E+01 -0.20750402252E+02 -0.28626820088E+02  0.36130522453E+02  0.51100000000E-03 0.  1.
         12    1    3    3    0    0  0.18047589565E+02  0.23147378453E+02  0.31622711214E+02  0.43145248671E+02  0.00000000000E+00 0. -1.
</event>
<event>
 7    1  0.3568207E-015  0.9000830E+02  0.7816164E-02  0.1186338E+00
        -11   -1    0    0    0    0  0.00000000000E+00  0.00000000000E+00  0.45593999997E+02  0.45594000000E+02  0.51100000000E-03 0. -1.
         11   -1    0    0    0    0 -0.00000000000E+00 -0.00000000000E+00 -0.45593999997E+02  0.45594000000E+02  0.51100000000E-03 0.  1.
    9900012    2    1    2    0    0 -0.18228380636E+00 -0.80104835666E+00  0.84662929973E+00  0.90008302146E+02  0.90000570932E+02 0.  0.
         12    1    1    2    0    0  0.18228380636E+00  0.80104835666E+00 -0.84662929973E+00  0.11796978541E+01  0.00000000000E+00 0. -1.
         11    1    3    3    0    0 -0.17750184700E+01 -0.25014331803E+02  0.22868334475E+02  0.33938594668E+02  0.51100000000E-03 0. -1.
        -11    1    3    3    0    0 -0.58406039350E+01 -0.65064033116E+00  0.11951803103E+02  0.13318467811E+02  0.51100000000E-03 0.  1.
        -12    1    3    3    0    0  0.74333385986E+01  0.24863923778E+02 -0.33973508278E+02  0.42751239667E+02  0.00000000000E+00 0.  1.
</event>
<event>
 7    1  0.3568207E-015  0.9000880E+02  0.7816164E-02  0.1186337E+00
        -11   -1    0    0    0    0  0.00000000000E+00  0.00000000000E+00  0.45593999997E+02  0.45594000000E+02  0.51100000000E-03 0.  1.
         11   -1    0    0    0    0 -0.00000000000E+00 -0.00000000000E+00 -0.45593999997E+02  0.45594000000E+02  0.51100000000E-03 0. -1.
    9900012    2    1    2    0    0 -0.11233886611E+01 -0.69497152335E-01  0.35168626821E+00  0.90008798927E+02  0.90001074267E+02 0.  0.
         12    1    1    2    0    0  0.11233886611E+01  0.69497152335E-01 -0.35168626821E+00  0.11792010725E+01  0.00000000000E+00 0. -1.
         11    1    3    3    0    0  0.15810684869E+01 -0.23089174918E+01  0.74639928041E+01  0.79713277681E+01  0.51100000000E-03 0. -1.
        -11    1    3    3    0    0  0.19047108681E+02 -0.12913066516E+02  0.29137703025E+02  0.37128767469E+02  0.51100000000E-03 0.  1.
         12    1    3    3    0    0 -0.21751565830E+02  0.15152486855E+02 -0.36250009561E+02  0.44908703690E+02  0.00000000000E+00 0. -1.
</event>
<event>
 7    1  0.3568207E-015  0.9000777E+02  0.7816164E-02  0.1186339E+00
        -11   -1    0    0    0    0  0.00000000000E+00  0.00000000000E+00  0.45593999997E+02  0.45594000000E+02  0.51100000000E-03 0.  1.
         11   -1    0    0    0    0 -0.00000000000E+00 -0.00000000000E+00 -0.45593999997E+02  0.45594000000E+02  0.51100000000E-03 0. -1.
    9900012    2    1    2    0    0 -0.82952870068E+00 -0.27893552512E-01  0.83907888896E+00  0.90007767270E+02  0.90000028998E+02 0.  0.
         12    1    1    2    0    0  0.82952870068E+00  0.27893552512E-01 -0.83907888896E+00  0.11802327302E+01  0.00000000000E+00 0. -1.
         11    1    3    3    0    0 -0.30506288608E+02  0.13690509325E+02  0.10927318526E+02  0.35177691520E+02  0.51100000000E-03 0. -1.
        -11    1    3    3    0    0 -0.42240125909E+01  0.87917641929E+01  0.55649605284E+01  0.11229701062E+02  0.51100000000E-03 0.  1.
        -12    1    3    3    0    0  0.33900772499E+02 -0.22510167071E+02 -0.15653200165E+02  0.43600374688E+02  0.00000000000E+00 0.  1.
</event>
<event>
 7    1  0.3568207E-015  0.9000823E+02  0.7816164E-02  0.1186338E+00
        -11   -1    0    0    0    0  0.00000000000E+00  0.00000000000E+00  0.45593999997E+02  0.45594000000E+02  0.51100000000E-03 0.  1.
         11   -1    0    0    0    0 -0.00000000000E+00 -0.00000000000E+00 -0.45593999997E+02  0.45594000000E+02  0.51100000000E-03 0. -1.
    9900012    2    1    2    0    0 -0.32974319213E+00 -0.57493556710E+00  0.97600110565E+00  0.90008228989E+02  0.90000496811E+02 0.  0.
         12    1    1    2    0    0  0.32974319213E+00  0.57493556710E+00 -0.97600110565E+00  0.11797710105E+01  0.00000000000E+00 0. -1.
         11    1    3    3    0    0 -0.27855876115E+02 -0.22185693556E+02  0.70377123980E+01  0.36299920506E+02  0.51100000000E-03 0. -1.
        -11    1    3    3    0    0  0.12505645101E+01 -0.11148259856E+02  0.36788160968E+00  0.11224212513E+02  0.51100000000E-03 0.  1.
        -12    1    3    3    0    0  0.26275568413E+02  0.32759017844E+02 -0.64295929020E+01  0.42484095970E+02  0.00000000000E+00 0.  1.
</event>
<event>
 7    1  0.3568207E-015  0.9000775E+02  0.7816164E-02  0.1186339E+00
        -11   -1    0    0    0    0  0.00000000000E+00  0.00000000000E+00  0.45593999997E+02  0.45594000000E+02  0.51100000000E-03 0.  1.
         11   -1    0    0    0    0 -0.00000000000E+00 -0.00000000000E+00 -0.45593999997E+02  0.45594000000E+02  0.51100000000E-03 0. -1.
    9900012    2    1    2    0    0  0.51417712976E+00  0.12512311098E+00  0.10549659594E+01  0.90007751260E+02  0.90000012776E+02 0.  0.
         12    1    1    2    0    0 -0.51417712976E+00 -0.12512311098E+00 -0.10549659594E+01  0.11802487403E+01  0.00000000000E+00 0. -1.
         11    1    3    3    0    0  0.11993757073E+02  0.85608593806E+01  0.17571060603E+02  0.22932088719E+02  0.51100000000E-03 0. -1.
        -11    1    3    3    0    0  0.66719543955E+01  0.23158084621E+02  0.52049831210E+01  0.24655703363E+02  0.51100000000E-03 0.  1.
         12    1    3    3    0    0 -0.18151534338E+02 -0.31593820891E+02 -0.21721077765E+02  0.42419959177E+02  0.00000000000E+00 0. -1.
</event>
<event>
 7    1  0.3568207E-015  0.9000775E+02  0.7816164E-02  0.1186339E+00
        -11   -1    0    0    0    0  0.00000000000E+00  0.00000000000E+00  0.45593999997E+02  0.45594000000E+02  0.51100000000E-03 0.  1.
         11   -1    0    0    0    0 -0.00000000000E+00 -0.00000000000E+00 -0.45593999997E+02  0.45594000000E+02  0.51100000000E-03 0. -1.
    9900012    2    1    2    0    0 -0.59004945941E+00 -0.75376174386E+00  0.69041164287E+00  0.90007752836E+02  0.90000014374E+02 0.  0.
         12    1    1    2    0    0  0.59004945941E+00  0.75376174386E+00 -0.69041164287E+00  0.11802471638E+01  0.00000000000E+00 0. -1.
         11    1    3    3    0    0 -0.24536130107E+01  0.25669475310E+02 -0.13521491713E+02  0.29116540280E+02  0.51100000000E-03 0. -1.
        -11    1    3    3    0    0 -0.82427398541E+01  0.11217123684E+02  0.16817082608E+02  0.21830732735E+02  0.51100000000E-03 0.  1.
         12    1    3    3    0    0  0.10106303405E+02 -0.37640360737E+02 -0.26051792524E+01  0.39060479821E+02  0.00000000000E+00 0. -1.
</event>
<event>
 7    1  0.3568207E-015  0.9000771E+02  0.7816164E-02  0.1186339E+00
        -11   -1    0    0    0    0  0.00000000000E+00  0.00000000000E+00  0.45593999997E+02  0.45594000000E+02  0.51100000000E-03 0.  1.
         11   -1    0    0    0    0 -0.00000000000E+00 -0.00000000000E+00 -0.45593999997E+02  0.45594000000E+02  0.51100000000E-03 0. -1.
    9900012    2    1    2    0    0  0.41904779691E+00 -0.36792527678E+00  0.10402443295E+01  0.90007712607E+02  0.89999973613E+02 0.  0.
         12    1    1    2    0    0 -0.41904779691E+00  0.36792527678E+00 -0.10402443295E+01  0.11802873931E+01  0.00000000000E+00 0. -1.
         11    1    3    3    0    0  0.26023529820E+02 -0.47372292025E+01 -0.19433897432E+02  0.32822885530E+02  0.51100000000E-03 0. -1.
        -11    1    3    3    0    0  0.10825241700E+02 -0.69962202469E+00 -0.54950253242E+01  0.12160206923E+02  0.51100000000E-03 0.  1.
        -12    1    3    3    0    0 -0.36429723723E+02  0.50689259504E+01  0.25969167086E+02  0.45024620154E+02  0.00000000000E+00 0.  1.
</event>
<event>
 7    1  0.3568207E-015  0.9000778E+02  0.7816164E-02  0.1186339E+00
        -11   -1    0    0    0    0  0.00000000000E+00  0.00000000000E+00  0.45593999997E+02  0.45594000000E+02  0.51100000000E-03 0.  1.
         11   -1    0    0    0    0 -0.00000000000E+00 -0.00000000000E+00 -0.45593999997E+02  0.45594000000E+02  0.51100000000E-03 0. -1.
    9900012    2    1    2    0    0 -0.29161502109E-01 -0.11053175038E+01  0.41273075994E+00  0.90007778047E+02  0.90000039918E+02 0.  0.
         12    1    1    2    0    0  0.29161502109E-01  0.11053175038E+01 -0.41273075994E+00  0.11802219526E+01  0.00000000000E+00 0. -1.
         11    1    3    3    0    0 -0.10871878398E+02 -0.76407679497E+01 -0.82237579192E+01  0.15627196465E+02  0.51100000000E-03 0. -1.
        -11    1    3    3    0    0  0.10827697241E+02  0.87501364170E+01  0.40301514119E+02  0.42638198313E+02  0.51100000000E-03 0.  1.
         12    1    3    3    0    0  0.15019655084E-01 -0.22146859711E+01 -0.31665025440E+02  0.31742383270E+02  0.00000000000E+00 0. -1.
</event>
<event>
 7    1  0.3568207E-015  0.9000777E+02  0.7816164E-02  0.1186339E+00
        -11   -1    0    0    0    0  0.00000000000E+00  0.00000000000E+00  0.45593999997E+02  0.45594000000E+02  0.51100000000E-03 0. -1.
         11   -1    0    0    0    0 -0.00000000000E+00 -0.00000000000E+00 -0.45593999997E+02  0.45594000000E+02  0.51100000000E-03 0.  1.
    9900012    2    1    2    0    0 -0.70440128465E+00  0.72648099539E+00 -0.60744938954E+00  0.90007766732E+02  0.90000028453E+02 0.  0.
         12    1    1    2    0    0  0.70440128465E+00 -0.72648099539E+00  0.60744938954E+00  0.11802332682E+01  0.00000000000E+00 0. -1.
         11    1    3    3    0    0  0.10128284126E+02  0.72348504490E+01  0.35344545799E+02  0.37472151237E+02  0.51100000000E-03 0. -1.
        -11    1    3    3    0    0 -0.73711777383E+01 -0.43357491435E+00  0.63016705272E+01  0.97073837954E+01  0.51100000000E-03 0.  1.
        -12    1    3    3    0    0 -0.34615076723E+01 -0.60747945393E+01 -0.42253665716E+02  0.42828231699E+02  0.00000000000E+00 0.  1.
</event>
<event>
 7    1  0.3568207E-015  0.9000774E+02  0.7816164E-02  0.1186339E+00
        -11   -1    0    0    0    0  0.00000000000E+00  0.00000000000E+00  0.45593999997E+02  0.45594000000E+02  0.51100000000E-03 0.  1.
         11   -1    0    0    0    0 -0.00000000000E+00 -0.00000000000E+00 -0.45593999997E+02  0.45594000000E+02  0.51100000000E-03 0. -1.
    9900012    2    1    2    0    0 -0.10011769204E+01  0.58013966362E+00  0.23258920555E+00  0.90007739438E+02  0.90000000799E+02 0.  0.
         12    1    1    2    0    0  0.10011769204E+01 -0.58013966362E+00 -0.23258920555E+00  0.11802605618E+01  0.00000000000E+00 0. -1.
         11    1    3    3    0    0  0.33639580151E+02  0.10429132591E+02 -0.50796548788E+01  0.35583578422E+02  0.51100000000E-03 0. -1.
        -11    1    3    3    0    0  0.74867476144E+01 -0.27237847530E+01  0.84122391319E+01  0.11586033001E+02  0.51100000000E-03 0.  1.
        -12    1    3    3    0    0 -0.42127504686E+02 -0.71252081743E+01 -0.30999950476E+01  0.42838128016E+02  0.00000000000E+00 0.  1.
</event>
<event>
 7    1  0.3568207E-015  0.9000778E+02  0.7816164E-02  0.1186339E+00
        -11   -1    0    0    0    0  0.00000000000E+00  0.00000000000E+00  0.45593999997E+02  0.45594000000E+02  0.51100000000E-03 0. -1.
         11   -1    0    0    0    0 -0.00000000000E+00 -0.00000000000E+00 -0.45593999997E+02  0.45594000000E+02  0.51100000000E-03 0.  1.
    9900012    2    1    2    0    0  0.13043355166E+00  0.59907402135E+00 -0.10084708694E+01  0.90007781339E+02  0.90000043252E+02 0.  0.
         12    1    1    2    0    0 -0.13043355166E+00 -0.59907402135E+00  0.10084708694E+01  0.11802186614E+01  0.00000000000E+00 0. -1.
         11    1    3    3    0    0 -0.28199945723E+02 -0.12827140897E+02 -0.31158062734E+02  0.43938563427E+02  0.51100000000E-03 0.  1.
        -11    1    3    3    0    0  0.19964942762E+02  0.31793835371E+01  0.11669513160E+02  0.23342770976E+02  0.51100000000E-03 0. -1.
        -12    1    3    3    0    0  0.83654365127E+01  0.10246831381E+02  0.18480078705E+02  0.22726446936E+02  0.00000000000E+00 0.  1.
</event>
<event>
 7    1  0.3568207E-015  0.9000872E+02  0.7816164E-02  0.1186337E+00
        -11   -1    0    0    0    0  0.00000000000E+00  0.00000000000E+00  0.45593999997E+02  0.45594000000E+02  0.51100000000E-03 0.  1.
         11   -1    0    0    0    0 -0.00000000000E+00 -0.00000000000E+00 -0.45593999997E+02  0.45594000000E+02  0.51100000000E-03 0. -1.
    9900012    2    1    2    0    0  0.46154747790E+00 -0.67047363758E+00  0.85331156481E+00  0.90008719881E+02  0.90000994178E+02 0.  0.
         12    1    1    2    0    0 -0.46154747790E+00  0.67047363758E+00 -0.85331156481E+00  0.11792801193E+01  0.00000000000E+00 0. -1.
         11    1    3    3    0    0  0.14685690160E+02 -0.19306725714E+02 -0.30916747995E+02  0.39297130431E+02  0.51100000000E-03 0. -1.
        -11    1    3    3    0    0  0.97098342353E+01  0.13536522695E+01  0.57876980796E+01  0.11384669721E+02  0.51100000000E-03 0.  1.
        -12    1    3    3    0    0 -0.23933976918E+02  0.17282599807E+02  0.25982361480E+02  0.39326919728E+02  0.00000000000E+00 0.  1.
</event>
<event>
 7    1  0.3568207E-015  0.9000771E+02  0.7816164E-02  0.1186339E+00
        -11   -1    0    0    0    0  0.00000000000E+00  0.00000000000E+00  0.45593999997E+02  0.45594000000E+02  0.51100000000E-03 0.  1.
         11   -1    0    0    0    0 -0.00000000000E+00 -0.00000000000E+00 -0.45593999997E+02  0.45594000000E+02  0.51100000000E-03 0. -1.
    9900012    2    1    2    0    0 -0.83123023112E+00  0.80932138550E+00  0.21710416432E+00  0.90007712315E+02  0.89999973317E+02 0.  0.
         12    1    1    2    0    0  0.83123023112E+00 -0.80932138550E+00 -0.21710416432E+00  0.11802876854E+01  0.00000000000E+00 0. -1.
         11    1    3    3    0    0  0.88920690392E+01 -0.10788620687E+01 -0.33461898933E+01  0.95618942801E+01  0.51100000000E-03 0. -1.
        -11    1    3    3    0    0  0.15523644742E+02 -0.25305722212E+02  0.23917058519E+02  0.38123336832E+02  0.51100000000E-03 0.  1.
         12    1    3    3    0    0 -0.25246944012E+02  0.27193905666E+02 -0.20353764461E+02  0.42322481202E+02  0.00000000000E+00 0. -1.
</event>
<event>
 7    1  0.3568207E-015  0.9000772E+02  0.7816164E-02  0.1186339E+00
        -11   -1    0    0    0    0  0.00000000000E+00  0.00000000000E+00  0.45593999997E+02  0.45594000000E+02  0.51100000000E-03 0.  1.
         11   -1    0    0    0    0 -0.00000000000E+00 -0.00000000000E+00 -0.45593999997E+02  0.45594000000E+02  0.51100000000E-03 0. -1.
    9900012    2    1    2    0    0  0.92634811361E+00  0.33474336425E+00  0.65030468988E+00  0.90007716078E+02  0.89999977130E+02 0.  0.
         12    1    1    2    0    0 -0.92634811361E+00 -0.33474336425E+00 -0.65030468988E+00  0.11802839223E+01  0.00000000000E+00 0. -1.
         11    1    3    3    0    0  0.20979040763E+02 -0.40809552353E+00 -0.32728708150E+02  0.38877436010E+02  0.51100000000E-03 0. -1.
        -11    1    3    3    0    0  0.89378667415E+01 -0.18798167353E+01  0.47200341598E+01  0.10280948185E+02  0.51100000000E-03 0.  1.
        -12    1    3    3    0    0 -0.28990559390E+02  0.26226556230E+01  0.28658978680E+02  0.40849331883E+02  0.00000000000E+00 0.  1.
</event>
<event>
 7    1  0.3568207E-015  0.9000782E+02  0.7816164E-02  0.1186339E+00
        -11   -1    0    0    0    0  0.00000000000E+00  0.00000000000E+00  0.45593999997E+02  0.45594000000E+02  0.51100000000E-03 0.  1.
         11   -1    0    0    0    0 -0.00000000000E+00 -0.00000000000E+00 -0.45593999997E+02  0.45594000000E+02  0.51100000000E-03 0. -1.
    9900012    2    1    2    0    0 -0.53910478887E+00 -0.29092387187E+00  0.10087422603E+01  0.90007817124E+02  0.90000079510E+02 0.  0.
         12    1    1    2    0    0  0.53910478887E+00  0.29092387187E+00 -0.10087422603E+01  0.11801828758E+01  0.00000000000E+00 0. -1.
         11    1    3    3    0    0 -0.93605784049E+01  0.26180521066E+01  0.19540019938E+01  0.99142699661E+01  0.51100000000E-03 0. -1.
        -11    1    3    3    0    0 -0.33649104847E+02 -0.85449287093E+00 -0.12703677825E+02  0.35977435228E+02  0.51100000000E-03 0.  1.
         12    1    3    3    0    0  0.42470578463E+02 -0.20544831076E+01  0.11758418092E+02  0.44116111930E+02  0.00000000000E+00 0. -1.
</event>
<event>
 7    1  0.3568207E-015  0.9000774E+02  0.7816164E-02  0.1186339E+00
        -11   -1    0    0    0    0  0.00000000000E+00  0.00000000000E+00  0.45593999997E+02  0.45594000000E+02  0.51100000000E-03 0. -1.
         11   -1    0    0    0    0 -0.00000000000E+00 -0.00000000000E+00 -0.45593999997E+02  0.45594000000E+02  0.51100000000E-03 0.  1.
    9900012    2    1    2    0    0  0.52877256664E+00 -0.43287034545E+00 -0.96230702166E+00  0.90007740720E+02  0.90000002098E+02 0.  0.
         12    1    1    2    0    0 -0.52877256664E+00  0.43287034545E+00  0.96230702166E+00  0.11802592796E+01  0.00000000000E+00 0. -1.
         11    1    3    3    0    0 -0.45039348533E+01 -0.18136354979E+01 -0.66597737440E+01  0.82418013483E+01  0.51100000000E-03 0. -1.
        -11    1    3    3    0    0  0.38469550005E+02  0.19243027458E+02 -0.20930173364E+01  0.43064847674E+02  0.51100000000E-03 0.  1.
         12    1    3    3    0    0 -0.33436842585E+02 -0.17862262306E+02  0.77904840587E+01  0.38701091698E+02  0.00000000000E+00 0. -1.
</event>
<event>
 7    1  0.3568207E-015  0.9000773E+02  0.7816164E-02  0.1186339E+00
        -11   -1    0    0    0    0  0.00000000000E+00  0.00000000000E+00  0.45593999997E+02  0.45594000000E+02  0.51100000000E-03 0.  1.
         11   -1    0    0    0    0 -0.00000000000E+00 -0.00000000000E+00 -0.45593999997E+02  0.45594000000E+02  0.51100000000E-03 0. -1.
    9900012    2    1    2    0    0  0.10026597923E+00 -0.10633180354E+01  0.50233671581E+00  0.90007728554E+02  0.89999989771E+02 0.  0.
         12    1    1    2    0    0 -0.10026597923E+00  0.10633180354E+01 -0.50233671581E+00  0.11802714463E+01  0.00000000000E+00 0. -1.
         11    1    3    3    0    0 -0.10488528573E+02  0.28326443463E+01  0.10448025656E+02  0.15072967392E+02  0.51100000000E-03 0. -1.
        -11    1    3    3    0    0 -0.26023746282E+02  0.56650771156E+01  0.14065554354E+02  0.30119234532E+02  0.51100000000E-03 0.  1.
         12    1    3    3    0    0  0.36612540834E+02 -0.95610394972E+01 -0.24011243294E+02  0.44815526630E+02  0.00000000000E+00 0. -1.
</event>
<event>
 7    1  0.3568207E-015  0.9000782E+02  0.7816164E-02  0.1186339E+00
        -11   -1    0    0    0    0  0.00000000000E+00  0.00000000000E+00  0.45593999997E+02  0.45594000000E+02  0.51100000000E-03 0.  1.
         11   -1    0    0    0    0 -0.00000000000E+00 -0.00000000000E+00 -0.45593999997E+02  0.45594000000E+02  0.51100000000E-03 0. -1.
    9900012    2    1    2    0    0  0.13452576814E+00 -0.11442708488E+01 -0.25568595960E+00  0.90007818545E+02  0.90000080949E+02 0.  0.
         12    1    1    2    0    0 -0.13452576814E+00  0.11442708488E+01  0.25568595960E+00  0.11801814554E+01  0.00000000000E+00 0. -1.
         11    1    3    3    0    0  0.25175748998E+02  0.28253776425E+02  0.82562306669E+01  0.38733184286E+02  0.51100000000E-03 0. -1.
        -11    1    3    3    0    0 -0.80548640803E+01  0.52410336627E+01  0.44302079210E+01  0.10581871842E+02  0.51100000000E-03 0.  1.
        -12    1    3    3    0    0 -0.16986359149E+02 -0.34639080936E+02 -0.12942124548E+02  0.40692762416E+02  0.00000000000E+00 0.  1.
</event>
<event>
 7    1  0.3568207E-015  0.9000765E+02  0.7816164E-02  0.1186339E+00
        -11   -1    0    0    0    0  0.00000000000E+00  0.00000000000E+00  0.45593999997E+02  0.45594000000E+02  0.51100000000E-03 0.  1.
         11   -1    0    0    0    0 -0.00000000000E+00 -0.00000000000E+00 -0.45593999997E+02  0.45594000000E+02  0.51100000000E-03 0. -1.
    9900012    2    1    2    0    0  0.10240432813E+01  0.35439835345E+00  0.46792966415E+00  0.90007652168E+02  0.89999912376E+02 0.  0.
         12    1    1    2    0    0 -0.10240432813E+01 -0.35439835345E+00 -0.46792966415E+00  0.11803478324E+01  0.00000000000E+00 0. -1.
         11    1    3    3    0    0 -0.95638000290E+01 -0.37194307260E+01 -0.73675698246E+01  0.12632557987E+02  0.51100000000E-03 0. -1.
        -11    1    3    3    0    0  0.12954108079E+02 -0.19295264969E+02 -0.26833385229E+02  0.35498545455E+02  0.51100000000E-03 0.  1.
         12    1    3    3    0    0 -0.23662647691E+01  0.23369094048E+02  0.34668884717E+02  0.41876548725E+02  0.00000000000E+00 0. -1.
</event>
<event>
 7    1  0.3568207E-015  0.9000764E+02  0.7816164E-02  0.1186339E+00
        -11   -1    0    0    0    0  0.00000000000E+00  0.00000000000E+00  0.45593999997E+02  0.45594000000E+02  0.51100000000E-03 0. -1.
         11   -1    0    0    0    0 -0.00000000000E+00 -0.00000000000E+00 -0.45593999997E+02  0.45594000000E+02  0.51100000000E-03 0.  1.
    9900012    2    1    2    0    0  0.11770771788E+01 -0.66070406542E-01 -0.58078944121E-01  0.90007640247E+02  0.89999900298E+02 0.  0.
         12    1    1    2    0    0 -0.11770771788E+01  0.66070406542E-01  0.58078944121E-01  0.11803597533E+01  0.00000000000E+00 0. -1.
         11    1    3    3    0    0 -0.58000074000E+01 -0.17283711982E+01  0.82763599189E+01  0.10253072057E+02  0.51100000000E-03 0. -1.
        -11    1    3    3    0    0 -0.30971825007E+02  0.53945761531E+01 -0.22943433045E+02  0.38919873025E+02  0.51100000000E-03 0.  1.
         12    1    3    3    0    0  0.37948909586E+02 -0.37322753614E+01  0.14608994182E+02  0.40834695164E+02  0.00000000000E+00 0. -1.
</event>
<event>
 7    1  0.3568207E-015  0.9000743E+02  0.7816164E-02  0.1186340E+00
        -11   -1    0    0    0    0  0.00000000000E+00  0.00000000000E+00  0.45593999997E+02  0.45594000000E+02  0.51100000000E-03 0.  1.
         11   -1    0    0    0    0 -0.00000000000E+00 -0.00000000000E+00 -0.45593999997E+02  0.45594000000E+02  0.51100000000E-03 0. -1.
    9900012    2    1    2    0    0  0.17578799022E+00 -0.17034835987E+00  0.11549085793E+01  0.90007434963E+02  0.89999692304E+02 0.  0.
         12    1    1    2    0    0 -0.17578799022E+00  0.17034835987E+00 -0.11549085793E+01  0.11805650374E+01  0.00000000000E+00 0. -1.
         11    1    3    3    0    0  0.23203030954E+02  0.20448251560E+02  0.27488833696E+02  0.41378105509E+02  0.51100000000E-03 0. -1.
        -11    1    3    3    0    0 -0.86384710023E+01  0.21065733749E+01  0.24611495270E+01  0.92259465583E+01  0.51100000000E-03 0.  1.
        -12    1    3    3    0    0 -0.14388771961E+02 -0.22725173295E+02 -0.28795074644E+02  0.39403382895E+02  0.00000000000E+00 0.  1.
</event>
<event>
 7    1  0.3568207E-015  0.9000775E+02  0.7816164E-02  0.1186339E+00
        -11   -1    0    0    0    0  0.00000000000E+00  0.00000000000E+00  0.45593999997E+02  0.45594000000E+02  0.51100000000E-03 0.  1.
         11   -1    0    0    0    0 -0.00000000000E+00 -0.00000000000E+00 -0.45593999997E+02  0.45594000000E+02  0.51100000000E-03 0. -1.
    9900012    2    1    2    0    0 -0.23546713947E+00  0.55409649523E-01  0.11551919341E+01  0.90007752819E+02  0.90000014357E+02 0.  0.
         12    1    1    2    0    0  0.23546713947E+00 -0.55409649523E-01 -0.11551919341E+01  0.11802471807E+01  0.00000000000E+00 0. -1.
         11    1    3    3    0    0  0.14707773164E+01 -0.11238220778E+02  0.14830365335E+01  0.11430668826E+02  0.51100000000E-03 0. -1.
        -11    1    3    3    0    0 -0.63515084730E+01 -0.28111711491E+02 -0.19209387094E+02  0.34635394261E+02  0.51100000000E-03 0.  1.
         12    1    3    3    0    0  0.46452640171E+01  0.39405341919E+02  0.18881542495E+02  0.43941689732E+02  0.00000000000E+00 0. -1.
</event>
<event>
 7    1  0.3568207E-015  0.9000775E+02  0.7816164E-02  0.1186339E+00
        -11   -1    0    0    0    0  0.00000000000E+00  0.00000000000E+00  0.45593999997E+02  0.45594000000E+02  0.51100000000E-03 0. -1.
         11   -1    0    0    0    0 -0.00000000000E+00 -0.00000000000E+00 -0.45593999997E+02  0.45594000000E+02  0.51100000000E-03 0.  1.
    9900012    2    1    2    0    0 -0.10680794775E+01  0.37656235505E+00 -0.33224685843E+00  0.90007753859E+02  0.90000015410E+02 0.  0.
         12    1    1    2    0    0  0.10680794775E+01 -0.37656235505E+00  0.33224685843E+00  0.11802461406E+01  0.00000000000E+00 0. -1.
         11    1    3    3    0    0 -0.34805440555E+02 -0.21854996051E+02  0.10898073410E+02  0.42518555349E+02  0.51100000000E-03 0. -1.
        -11    1    3    3    0    0  0.29674313225E+01  0.21321286296E+01  0.59002473988E+01  0.69400677789E+01  0.51100000000E-03 0.  1.
        -12    1    3    3    0    0  0.30769929755E+02  0.20099429777E+02 -0.17130567668E+02  0.40549130732E+02  0.00000000000E+00 0.  1.
</event>
<event>
 7    1  0.3568207E-015  0.9000736E+02  0.7816164E-02  0.1186340E+00
        -11   -1    0    0    0    0  0.00000000000E+00  0.00000000000E+00  0.45593999997E+02  0.45594000000E+02  0.51100000000E-03 0. -1.
         11   -1    0    0    0    0 -0.00000000000E+00 -0.00000000000E+00 -0.45593999997E+02  0.45594000000E+02  0.51100000000E-03 0.  1.
    9900012    2    1    2    0    0  0.74462684954E+00 -0.29022902708E+00 -0.86902885335E+00  0.90007358996E+02  0.89999615334E+02 0.  0.
         12    1    1    2    0    0 -0.74462684954E+00  0.29022902708E+00  0.86902885335E+00  0.11806410044E+01  0.00000000000E+00 0. -1.
         11    1    3    3    0    0  0.44278765375E+00 -0.37393827923E+01  0.85873623250E+01  0.93766644675E+01  0.51100000000E-03 0. -1.
        -11    1    3    3    0    0  0.36201033875E+02  0.17564253531E+02 -0.11954826109E+02  0.41975418083E+02  0.51100000000E-03 0.  1.
         12    1    3    3    0    0 -0.35899194679E+02 -0.14115099765E+02  0.24984349303E+01  0.38655276445E+02  0.00000000000E+00 0. -1.
</event>
<event>
 7    1  0.3568207E-015  0.9000770E+02  0.7816164E-02  0.1186339E+00
        -11   -1    0    0    0    0  0.00000000000E+00  0.00000000000E+00  0.45593999997E+02  0.45594000000E+02  0.51100000000E-03 0.  1.
         11   -1    0    0    0    0 -0.00000000000E+00 -0.00000000000E+00 -0.45593999997E+02  0.45594000000E+02  0.51100000000E-03 0. -1.
    9900012    2    1    2    0    0 -0.44348606787E+00  0.20109092983E+00  0.10751701786E+01  0.90007699882E+02  0.89999960721E+02 0.  0.
         12    1    1    2    0    0  0.44348606787E+00 -0.20109092983E+00 -0.10751701786E+01  0.11803001176E+01  0.00000000000E+00 0. -1.
         11    1    3    3    0    0  0.29142077887E+02  0.20613369131E+02 -0.10261234503E+02  0.37141144628E+02  0.51100000000E-03 0. -1.
        -11    1    3    3    0    0  0.85512818002E+01 -0.11271164604E+01 -0.10479035337E+00  0.86258792724E+01  0.51100000000E-03 0.  1.
        -12    1    3    3    0    0 -0.38136845755E+02 -0.19285161740E+02  0.11441195035E+02  0.44240675982E+02  0.00000000000E+00 0.  1.
</event>
<event>
 7    1  0.3568207E-015  0.9000772E+02  0.7816164E-02  0.1186339E+00
        -11   -1    0    0    0    0  0.00000000000E+00  0.00000000000E+00  0.45593999997E+02  0.45594000000E+02  0.51100000000E-03 0.  1.
         11   -1    0    0    0    0 -0.00000000000E+00 -0.00000000000E+00 -0.45593999997E+02  0.45594000000E+02  0.51100000000E-03 0. -1.
    9900012    2    1    2    0    0  0.30438114486E+00  0.11365387807E+01 -0.93220345189E-01  0.90007721086E+02  0.89999982205E+02 0.  0.
         12    1    1    2    0    0 -0.30438114486E+00 -0.11365387807E+01  0.93220345189E-01  0.11802789137E+01  0.00000000000E+00 0. -1.
         11    1    3    3    0    0 -0.20269260608E+02  0.13934567481E+02 -0.32906502023E+02  0.41083487828E+02  0.51100000000E-03 0. -1.
        -11    1    3    3    0    0  0.80963550861E+01  0.11646550876E+01 -0.28350653769E+01  0.86570770533E+01  0.51100000000E-03 0.  1.
        -12    1    3    3    0    0  0.12477286667E+02 -0.13962683788E+02  0.35648347054E+02  0.40267156205E+02  0.00000000000E+00 0.  1.
</event>
<event>
 7    1  0.3568207E-015  0.9000769E+02  0.7816164E-02  0.1186339E+00
        -11   -1    0    0    0    0  0.00000000000E+00  0.00000000000E+00  0.45593999997E+02  0.45594000000E+02  0.51100000000E-03 0.  1.
         11   -1    0    0    0    0 -0.00000000000E+00 -0.00000000000E+00 -0.45593999997E+02  0.45594000000E+02  0.51100000000E-03 0. -1.
    9900012    2    1    2    0    0 -0.97204829850E+00 -0.39984964637E+00 -0.53701184390E+00  0.90007686756E+02  0.89999947421E+02 0.  0.
         12    1    1    2    0    0  0.97204829850E+00  0.39984964637E+00  0.53701184390E+00  0.11803132444E+01  0.00000000000E+00 0. -1.
         11    1    3    3    0    0 -0.60482331958E+01 -0.17224922214E+01 -0.43870376203E+01  0.76677378402E+01  0.51100000000E-03 0. -1.
        -11    1    3    3    0    0 -0.20411096615E+02 -0.82589456144E+01  0.34760145629E+02  0.41147184255E+02  0.51100000000E-03 0.  1.
         12    1    3    3    0    0  0.25487281512E+02  0.95815881894E+01 -0.30910119852E+02  0.41192764661E+02  0.00000000000E+00 0. -1.
</event>
<event>
 7    1  0.3568207E-015  0.9000770E+02  0.7816164E-02  0.1186339E+00
        -11   -1    0    0    0    0  0.00000000000E+00  0.00000000000E+00  0.45593999997E+02  0.45594000000E+02  0.51100000000E-03 0.  1.
         11   -1    0    0    0    0 -0.00000000000E+00 -0.00000000000E+00 -0.45593999997E+02  0.45594000000E+02  0.51100000000E-03 0. -1.
    9900012    2    1    2    0    0  0.41496200100E+00  0.71365885800E+00  0.84356162853E+00  0.90007703999E+02  0.89999964892E+02 0.  0.
         12    1    1    2    0    0 -0.41496200100E+00 -0.71365885800E+00 -0.84356162853E+00  0.11802960006E+01  0.00000000000E+00 0. -1.
         11    1    3    3    0    0  0.23215237998E+02  0.91633097270E+01 -0.30245625274E+02  0.39213663039E+02  0.51100000000E-03 0. -1.
        -11    1    3    3    0    0 -0.53726021710E+01 -0.15103297734E+01 -0.66310062020E+01  0.86669598837E+01  0.51100000000E-03 0.  1.
        -12    1    3    3    0    0 -0.17427673826E+02 -0.69393210955E+01  0.37720193104E+02  0.42127081077E+02  0.00000000000E+00 0.  1.
</event>
<event>
 7    1  0.3568207E-015  0.9000770E+02  0.7816164E-02  0.1186339E+00
        -11   -1    0    0    0    0  0.00000000000E+00  0.00000000000E+00  0.45593999997E+02  0.45594000000E+02  0.51100000000E-03 0.  1.
         11   -1    0    0    0    0 -0.00000000000E+00 -0.00000000000E+00 -0.45593999997E+02  0.45594000000E+02  0.51100000000E-03 0. -1.
    9900012    2    1    2    0    0 -0.54182533842E+00  0.89570899725E+00  0.54519367214E+00  0.90007701120E+02  0.89999961975E+02 0.  0.
         12    1    1    2    0    0  0.54182533842E+00 -0.89570899725E+00 -0.54519367214E+00  0.11802988796E+01  0.00000000000E+00 0. -1.
         11    1    3    3    0    0 -0.14101721140E+02 -0.12432309061E+02 -0.31460135229E+02  0.36649160381E+02  0.51100000000E-03 0. -1.
        -11    1    3    3    0    0  0.68356532455E+01  0.61262174019E+00 -0.81792757619E+01  0.10677172516E+02  0.51100000000E-03 0.  1.
        -12    1    3    3    0    0  0.67242425563E+01  0.12715396318E+02  0.40184604663E+02  0.42681368224E+02  0.00000000000E+00 0.  1.
</event>
<event>
 7    1  0.3568207E-015  0.9000765E+02  0.7816164E-02  0.1186339E+00
        -11   -1    0    0    0    0  0.00000000000E+00  0.00000000000E+00  0.45593999997E+02  0.45594000000E+02  0.51100000000E-03 0.  1.
         11   -1    0    0    0    0 -0.00000000000E+00 -0.00000000000E+00 -0.45593999997E+02  0.45594000000E+02  0.51100000000E-03 0. -1.
    9900012    2    1    2    0    0  0.10559294893E+01 -0.34430901783E+00  0.39961502609E+00  0.90007649224E+02  0.89999909393E+02 0.  0.
         12    1    1    2    0    0 -0.10559294893E+01  0.34430901783E+00 -0.39961502609E+00  0.11803507764E+01  0.00000000000E+00 0. -1.
         11    1    3    3    0    0  0.76031730691E+00 -0.51107735413E+00 -0.14558637044E+02  0.14587432786E+02  0.51100000000E-03 0. -1.
        -11    1    3    3    0    0  0.37738453199E+01  0.25701887971E+02 -0.19435041545E+02  0.32443023809E+02  0.51100000000E-03 0.  1.
        -12    1    3    3    0    0 -0.34782331375E+01 -0.25535119635E+02  0.34393293615E+02  0.42977192628E+02  0.00000000000E+00 0.  1.
</event>
<event>
 7    1  0.3568207E-015  0.9000769E+02  0.7816164E-02  0.1186339E+00
        -11   -1    0    0    0    0  0.00000000000E+00  0.00000000000E+00  0.45593999997E+02  0.45594000000E+02  0.51100000000E-03 0. -1.
         11   -1    0    0    0    0 -0.00000000000E+00 -0.00000000000E+00 -0.45593999997E+02  0.45594000000E+02  0.51100000000E-03 0.  1.
    9900012    2    1    2    0    0  0.72219828676E+00 -0.88262847935E+00 -0.30417464503E+00  0.90007692577E+02  0.89999953319E+02 0.  0.
         12    1    1    2    0    0 -0.72219828676E+00  0.88262847935E+00  0.30417464503E+00  0.11803074229E+01  0.00000000000E+00 0. -1.
         11    1    3    3    0    0 -0.85470437887E+01 -0.68647900461E+00 -0.38220143784E+01  0.93878115192E+01  0.51100000000E-03 0. -1.
        -11    1    3    3    0    0  0.24737837729E+02  0.30221027333E+02 -0.14950252673E+02  0.41818430910E+02  0.51100000000E-03 0.  1.
         12    1    3    3    0    0 -0.15468595654E+02 -0.30417176807E+02  0.18468092406E+02  0.38801450148E+02  0.00000000000E+00 0. -1.
</event>
<event>
 7    1  0.3568207E-015  0.9000776E+02  0.7816164E-02  0.1186339E+00
        -11   -1    0    0    0    0  0.00000000000E+00  0.00000000000E+00  0.45593999997E+02  0.45594000000E+02  0.51100000000E-03 0.  1.
         11   -1    0    0    0    0 -0.00000000000E+00 -0.00000000000E+00 -0.45593999997E+02  0.45594000000E+02  0.51100000000E-03 0. -1.
    9900012    2    1    2    0    0  0.83374692591E+00  0.27916108849E+00  0.78733355791E+00  0.90007763167E+02  0.90000024841E+02 0.  0.
         12    1    1    2    0    0 -0.83374692591E+00 -0.27916108849E+00 -0.78733355791E+00  0.11802368327E+01  0.00000000000E+00 0. -1.
         11    1    3    3    0    0  0.44167298173E+01  0.52499928040E+01 -0.13587622299E+01  0.69940089920E+01  0.51100000000E-03 0. -1.
        -11    1    3    3    0    0 -0.46550532579E+01  0.31264402521E+02  0.24878000492E+02  0.40224958603E+02  0.51100000000E-03 0.  1.
         12    1    3    3    0    0  0.10720703666E+01 -0.36235234237E+02 -0.22731904704E+02  0.42788795573E+02  0.00000000000E+00 0. -1.
</event>
<event>
 7    1  0.3568207E-015  0.9000771E+02  0.7816164E-02  0.1186339E+00
        -11   -1    0    0    0    0  0.00000000000E+00  0.00000000000E+00  0.45593999997E+02  0.45594000000E+02  0.51100000000E-03 0. -1.
         11   -1    0    0    0    0 -0.00000000000E+00 -0.00000000000E+00 -0.45593999997E+02  0.45594000000E+02  0.51100000000E-03 0.  1.
    9900012    2    1    2    0    0  0.99262933683E+00 -0.33400485793E+00  0.54425458631E+00  0.90007709654E+02  0.89999970622E+02 0.  0.
         12    1    1    2    0    0 -0.99262933683E+00  0.33400485793E+00 -0.54425458631E+00  0.11802903457E+01  0.00000000000E+00 0. -1.
         11    1    3    3    0    0  0.28556755049E+02 -0.26669162955E+02 -0.22499962680E+01  0.39138152679E+02  0.51100000000E-03 0. -1.
        -11    1    3    3    0    0 -0.27171851108E+01 -0.33036157104E+01 -0.93911632126E+01  0.10319443708E+02  0.51100000000E-03 0.  1.
        -12    1    3    3    0    0 -0.24846940601E+02  0.29638773808E+02  0.12185414067E+02  0.40550113268E+02  0.00000000000E+00 0.  1.
</event>
<event>
 7    1  0.3568207E-015  0.9000764E+02  0.7816164E-02  0.1186339E+00
        -11   -1    0    0    0    0  0.00000000000E+00  0.00000000000E+00  0.45593999997E+02  0.45594000000E+02  0.51100000000E-03 0.  1.
         11   -1    0    0    0    0 -0.00000000000E+00 -0.00000000000E+00 -0.45593999997E+02  0.45594000000E+02  0.51100000000E-03 0. -1.
    9900012    2    1    2    0    0 -0.18318565921E+00 -0.30645462631E+00  0.11250680120E+01  0.90007640116E+02  0.89999900166E+02 0.  0.
         12    1    1    2    0    0  0.18318565921E+00  0.30645462631E+00 -0.11250680120E+01  0.11803598838E+01  0.00000000000E+00 0. -1.
         11    1    3    3    0    0  0.21023840080E+02  0.13090416173E+02 -0.26280813651E+02  0.36111521897E+02  0.51100000000E-03 0. -1.
        -11    1    3    3    0    0  0.75898886262E+01  0.46518021158E+01 -0.18038091839E+01  0.90829180397E+01  0.51100000000E-03 0.  1.
        -12    1    3    3    0    0 -0.28796914366E+02 -0.18048672915E+02  0.29209690847E+02  0.44813200180E+02  0.00000000000E+00 0.  1.
</event>
<event>
 7    1  0.3568207E-015  0.9000784E+02  0.7816164E-02  0.1186339E+00
        -11   -1    0    0    0    0  0.00000000000E+00  0.00000000000E+00  0.45593999997E+02  0.45594000000E+02  0.51100000000E-03 0. -1.
         11   -1    0    0    0    0 -0.00000000000E+00 -0.00000000000E+00 -0.45593999997E+02  0.45594000000E+02  0.51100000000E-03 0.  1.
    9900012    2    1    2    0    0 -0.98887208140E+00 -0.40473013197E+00  0.50110087787E+00  0.90007840450E+02  0.90000103144E+02 0.  0.
         12    1    1    2    0    0  0.98887208140E+00  0.40473013197E+00 -0.50110087787E+00  0.11801595498E+01  0.00000000000E+00 0. -1.
         11    1    3    3    0    0  0.46871028755E+01  0.54727901299E+01 -0.64046533008E+01  0.96405367763E+01  0.51100000000E-03 0. -1.
        -11    1    3    3    0    0  0.49485839174E+01 -0.40810841589E+02 -0.61970712190E+01  0.41574234400E+02  0.51100000000E-03 0.  1.
         12    1    3    3    0    0 -0.10624558874E+02  0.34933321328E+02  0.13102825398E+02  0.38793069273E+02  0.00000000000E+00 0. -1.
</event>
<event>
 7    1  0.3568207E-015  0.9000775E+02  0.7816164E-02  0.1186339E+00
        -11   -1    0    0    0    0  0.00000000000E+00  0.00000000000E+00  0.45593999997E+02  0.45594000000E+02  0.51100000000E-03 0. -1.
         11   -1    0    0    0    0 -0.00000000000E+00 -0.00000000000E+00 -0.45593999997E+02  0.45594000000E+02  0.51100000000E-03 0.  1.
    9900012    2    1    2    0    0 -0.94328413399E+00  0.26795595857E+00 -0.65681609303E+00  0.90007748869E+02  0.90000010354E+02 0.  0.
         12    1    1    2    0    0  0.94328413399E+00 -0.26795595857E+00  0.65681609303E+00  0.11802511314E+01  0.00000000000E+00 0. -1.
         11    1    3    3    0    0  0.13988508149E+01 -0.42596702381E+01 -0.10045799382E+02  0.11000893583E+02  0.51100000000E-03 0. -1.
        -11    1    3    3    0    0 -0.35585754756E+02 -0.13460998401E+02 -0.53806499149E+01  0.38425197634E+02  0.51100000000E-03 0.  1.
         12    1    3    3    0    0  0.33243619807E+02  0.17988624597E+02  0.14769633204E+02  0.40581657651E+02  0.00000000000E+00 0. -1.
</event>
<event>
 7    1  0.3568207E-015  0.9000776E+02  0.7816164E-02  0.1186339E+00
        -11   -1    0    0    0    0  0.00000000000E+00  0.00000000000E+00  0.45593999997E+02  0.45594000000E+02  0.51100000000E-03 0. -1.
         11   -1    0    0    0    0 -0.00000000000E+00 -0.00000000000E+00 -0.45593999997E+02  0.45594000000E+02  0.51100000000E-03 0.  1.
    9900012    2    1    2    0    0  0.71395931298E+00  0.40487000901E+00 -0.84812008712E+00  0.90007760487E+02  0.90000022126E+02 0.  0.
         12    1    1    2    0    0 -0.71395931298E+00 -0.40487000901E+00  0.84812008712E+00  0.11802395125E+01  0.00000000000E+00 0. -1.
         11    1    3    3    0    0 -0.10029537206E+02  0.17542708556E+02  0.34885186511E+02  0.40315189175E+02  0.51100000000E-03 0. -1.
        -11    1    3    3    0    0 -0.20745513868E+01  0.69424835941E+01 -0.70918704797E+01  0.10138859358E+02  0.51100000000E-03 0.  1.
        -12    1    3    3    0    0  0.12818047906E+02 -0.24080322141E+02 -0.28641436118E+02  0.39553711955E+02  0.00000000000E+00 0.  1.
</event>
<event>
 7    1  0.3568207E-015  0.9000679E+02  0.7816164E-02  0.1186341E+00
        -11   -1    0    0    0    0  0.00000000000E+00  0.00000000000E+00  0.45593999997E+02  0.45594000000E+02  0.51100000000E-03 0. -1.
         11   -1    0    0    0    0 -0.00000000000E+00 -0.00000000000E+00 -0.45593999997E+02  0.45594000000E+02  0.51100000000E-03 0.  1.
    9900012    2    1    2    0    0  0.70407294680E+00 -0.94506886583E+00  0.79924763500E-01  0.90006787977E+02  0.89999036773E+02 0.  0.
         12    1    1    2    0    0 -0.70407294680E+00  0.94506886583E+00 -0.79924763500E-01  0.11812120230E+01  0.00000000000E+00 0. -1.
         11    1    3    3    0    0  0.97576130101E+01 -0.36844204952E+00  0.92349951433E+01  0.13439936635E+02  0.51100000000E-03 0. -1.
        -11    1    3    3    0    0  0.17186530672E+02  0.30611270823E+02 -0.18131896809E+01  0.35152729553E+02  0.51100000000E-03 0.  1.
         12    1    3    3    0    0 -0.26240070735E+02 -0.31187897639E+02 -0.73418806989E+01  0.41414121789E+02  0.00000000000E+00 0. -1.
</event>
<event>
 7    1  0.3568207E-015  0.9000779E+02  0.7816164E-02  0.1186339E+00
        -11   -1    0    0    0    0  0.00000000000E+00  0.00000000000E+00  0.45593999997E+02  0.45594000000E+02  0.51100000000E-03 0.  1.
         11   -1    0    0    0    0 -0.00000000000E+00 -0.00000000000E+00 -0.45593999997E+02  0.45594000000E+02  0.51100000000E-03 0. -1.
    9900012    2    1    2    0    0  0.70021620158E+00 -0.63542366211E+00  0.70628176402E+00  0.90007788201E+02  0.90000050206E+02 0.  0.
         12    1    1    2    0    0 -0.70021620158E+00  0.63542366211E+00 -0.70628176402E+00  0.11802117986E+01  0.00000000000E+00 0. -1.
         11    1    3    3    0    0  0.43787544430E+01 -0.12048737561E+00 -0.89364637711E+01  0.99523058972E+01  0.51100000000E-03 0. -1.
        -11    1    3    3    0    0  0.16148731681E+02 -0.33328376646E+02  0.17434535887E+02  0.40933180510E+02  0.51100000000E-03 0.  1.
         12    1    3    3    0    0 -0.19827269922E+02  0.32813440360E+02 -0.77917903517E+01  0.39122301795E+02  0.00000000000E+00 0. -1.
</event>
<event>
 7    1  0.3568207E-015  0.9000784E+02  0.7816164E-02  0.1186339E+00
        -11   -1    0    0    0    0  0.00000000000E+00  0.00000000000E+00  0.45593999997E+02  0.45594000000E+02  0.51100000000E-03 0.  1.
         11   -1    0    0    0    0 -0.00000000000E+00 -0.00000000000E+00 -0.45593999997E+02  0.45594000000E+02  0.51100000000E-03 0. -1.
    9900012    2    1    2    0    0  0.91690411592E+00 -0.28576883351E+00  0.68584992728E+00  0.90007844457E+02  0.90000107203E+02 0.  0.
         12    1    1    2    0    0 -0.91690411592E+00  0.28576883351E+00 -0.68584992728E+00  0.11801555435E+01  0.00000000000E+00 0. -1.
         11    1    3    3    0    0 -0.68897513314E+01 -0.61490307283E+01  0.10276623160E+02  0.13816230895E+02  0.51100000000E-03 0. -1.
        -11    1    3    3    0    0  0.17063252347E+02 -0.11837776328E+02  0.27263397883E+02  0.34272151865E+02  0.51100000000E-03 0.  1.
         12    1    3    3    0    0 -0.92565968996E+01  0.17701038222E+02 -0.36854171116E+02  0.41919461697E+02  0.00000000000E+00 0. -1.
</event>
<event>
 7    1  0.3568207E-015  0.9000767E+02  0.7816164E-02  0.1186339E+00
        -11   -1    0    0    0    0  0.00000000000E+00  0.00000000000E+00  0.45593999997E+02  0.45594000000E+02  0.51100000000E-03 0. -1.
         11   -1    0    0    0    0 -0.00000000000E+00 -0.00000000000E+00 -0.45593999997E+02  0.45594000000E+02  0.51100000000E-03 0.  1.
    9900012    2    1    2    0    0  0.76374249419E+00  0.86974665129E+00 -0.23114653808E+00  0.90007665066E+02  0.89999925445E+02 0.  0.
         12    1    1    2    0    0 -0.76374249419E+00 -0.86974665129E+00  0.23114653808E+00  0.11803349342E+01  0.00000000000E+00 0. -1.
         11    1    3    3    0    0 -0.46280110664E+01  0.40086116042E+01  0.69158666382E+01  0.92367020652E+01  0.51100000000E-03 0. -1.
        -11    1    3    3    0    0  0.26691016238E+01  0.12400676922E+02 -0.41271135664E+02  0.43176469643E+02  0.51100000000E-03 0.  1.
         12    1    3    3    0    0  0.27226519368E+01 -0.15539541875E+02  0.34124122488E+02  0.37594493357E+02  0.00000000000E+00 0. -1.
</event>
<event>
 7    1  0.3568207E-015  0.9000765E+02  0.7816164E-02  0.1186339E+00
        -11   -1    0    0    0    0  0.00000000000E+00  0.00000000000E+00  0.45593999997E+02  0.45594000000E+02  0.51100000000E-03 0. -1.
         11   -1    0    0    0    0 -0.00000000000E+00 -0.00000000000E+00 -0.45593999997E+02  0.45594000000E+02  0.51100000000E-03 0.  1.
    9900012    2    1    2    0    0 -0.48843417177E+00 -0.10567309085E+01 -0.19488947986E+00  0.90007648331E+02  0.89999908489E+02 0.  0.
         12    1    1    2    0    0  0.48843417177E+00  0.10567309085E+01  0.19488947986E+00  0.11803516690E+01  0.00000000000E+00 0. -1.
         11    1    3    3    0    0  0.55474633519E+01  0.94171116539E+01  0.40964014022E+02  0.42397013888E+02  0.51100000000E-03 0. -1.
        -11    1    3    3    0    0 -0.10700557383E+01  0.60927804776E+01 -0.71340707386E+01  0.94425610294E+01  0.51100000000E-03 0.  1.
        -12    1    3    3    0    0 -0.49658417854E+01 -0.16566623040E+02 -0.34024832763E+02  0.38168073414E+02  0.00000000000E+00 0.  1.
</event>
<event>
 7    1  0.3568207E-015  0.9000773E+02  0.7816164E-02  0.1186339E+00
        -11   -1    0    0    0    0  0.00000000000E+00  0.00000000000E+00  0.45593999997E+02  0.45594000000E+02  0.51100000000E-03 0.  1.
         11   -1    0    0    0    0 -0.00000000000E+00 -0.00000000000E+00 -0.45593999997E+02  0.45594000000E+02  0.51100000000E-03 0. -1.
    9900012    2    1    2    0    0  0.80999072666E+00  0.59035484538E+00  0.62324316185E+00  0.90007730599E+02  0.89999991843E+02 0.  0.
         12    1    1    2    0    0 -0.80999072666E+00 -0.59035484538E+00 -0.62324316185E+00  0.11802694013E+01  0.00000000000E+00 0. -1.
         11    1    3    3    0    0  0.24292670388E+02 -0.19715138606E+02 -0.20515478397E+02  0.37412636621E+02  0.51100000000E-03 0. -1.
        -11    1    3    3    0    0 -0.23471448387E+01 -0.78996670157E+01 -0.41392324193E+01  0.92220970031E+01  0.51100000000E-03 0.  1.
        -12    1    3    3    0    0 -0.21135534822E+02  0.28205160467E+02  0.25277953978E+02  0.43372996974E+02  0.00000000000E+00 0.  1.
</event>
<event>
 7    1  0.3568207E-015  0.9000773E+02  0.7816164E-02  0.1186339E+00
        -11   -1    0    0    0    0  0.00000000000E+00  0.00000000000E+00  0.45593999997E+02  0.45594000000E+02  0.51100000000E-03 0. -1.
         11   -1    0    0    0    0 -0.00000000000E+00 -0.00000000000E+00 -0.45593999997E+02  0.45594000000E+02  0.51100000000E-03 0.  1.
    9900012    2    1    2    0    0 -0.86692383940E-01  0.10624109127E+01 -0.50676028334E+00  0.90007729480E+02  0.89999990709E+02 0.  0.
         12    1    1    2    0    0  0.86692383940E-01 -0.10624109127E+01  0.50676028334E+00  0.11802705205E+01  0.00000000000E+00 0. -1.
         11    1    3    3    0    0  0.15293436412E+02  0.23104350108E+02  0.12590866724E+02  0.30434028921E+02  0.51100000000E-03 0. -1.
        -11    1    3    3    0    0 -0.46620396973E+01  0.11288931999E+02  0.11507414642E+02  0.16780798307E+02  0.51100000000E-03 0.  1.
        -12    1    3    3    0    0 -0.10718089099E+02 -0.33330871195E+02 -0.24605041650E+02  0.42792902252E+02  0.00000000000E+00 0.  1.
</event>
<event>
 7    1  0.3568207E-015  0.9000768E+02  0.7816164E-02  0.1186339E+00
        -11   -1    0    0    0    0  0.00000000000E+00  0.00000000000E+00  0.45593999997E+02  0.45594000000E+02  0.51100000000E-03 0. -1.
         11   -1    0    0    0    0 -0.00000000000E+00 -0.00000000000E+00 -0.45593999997E+02  0.45594000000E+02  0.51100000000E-03 0.  1.
    9900012    2    1    2    0    0  0.78066794886E+00  0.57537004630E+00 -0.67280491189E+00  0.90007678185E+02  0.89999938737E+02 0.  0.
         12    1    1    2    0    0 -0.78066794886E+00 -0.57537004630E+00  0.67280491189E+00  0.11803218146E+01  0.00000000000E+00 0. -1.
         11    1    3    3    0    0 -0.87663039500E+01 -0.56207634999E+01  0.57790129412E+01  0.11909578418E+02  0.51100000000E-03 0. -1.
        -11    1    3    3    0    0 -0.25751529977E+02 -0.74984980869E+01 -0.24343890229E+02  0.36221454436E+02  0.51100000000E-03 0.  1.
         12    1    3    3    0    0  0.35298501876E+02  0.13694631633E+02  0.17892072376E+02  0.41876645331E+02  0.00000000000E+00 0. -1.
</event>
<event>
 7    1  0.3568207E-015  0.9000704E+02  0.7816164E-02  0.1186340E+00
        -11   -1    0    0    0    0  0.00000000000E+00  0.00000000000E+00  0.45593999997E+02  0.45594000000E+02  0.51100000000E-03 0.  1.
         11   -1    0    0    0    0 -0.00000000000E+00 -0.00000000000E+00 -0.45593999997E+02  0.45594000000E+02  0.51100000000E-03 0. -1.
    9900012    2    1    2    0    0  0.44741611896E+00 -0.16596997799E+00  0.10802489177E+01  0.90007040669E+02  0.89999292803E+02 0.  0.
         12    1    1    2    0    0 -0.44741611896E+00  0.16596997799E+00 -0.10802489177E+01  0.11809593309E+01  0.00000000000E+00 0. -1.
         11    1    3    3    0    0  0.60994914362E+01  0.15773192819E+01 -0.78806614047E+01  0.10089427949E+02  0.51100000000E-03 0. -1.
        -11    1    3    3    0    0  0.66424866617E+01  0.20551027451E+02  0.36501087582E+02  0.42412224102E+02  0.51100000000E-03 0.  1.
         12    1    3    3    0    0 -0.12294561979E+02 -0.22294316711E+02 -0.27540177260E+02  0.37505388618E+02  0.00000000000E+00 0. -1.
</event>
<event>
 7    1  0.3568207E-015  0.9000760E+02  0.7816164E-02  0.1186339E+00
        -11   -1    0    0    0    0  0.00000000000E+00  0.00000000000E+00  0.45593999997E+02  0.45594000000E+02  0.51100000000E-03 0.  1.
         11   -1    0    0    0    0 -0.00000000000E+00 -0.00000000000E+00 -0.45593999997E+02  0.45594000000E+02  0.51100000000E-03 0. -1.
    9900012    2    1    2    0    0  0.92399792339E+00  0.70239710670E+00 -0.21496963858E+00  0.90007599304E+02  0.89999858815E+02 0.  0.
         12    1    1    2    0    0 -0.92399792339E+00 -0.70239710670E+00  0.21496963858E+00  0.11804006961E+01  0.00000000000E+00 0. -1.
         11    1    3    3    0    0 -0.60261797977E+01 -0.33326543035E+02 -0.21258403114E+02  0.39986160316E+02  0.51100000000E-03 0. -1.
        -11    1    3    3    0    0  0.94767955248E+01 -0.98235009245E+00  0.94972854000E+00  0.95747924094E+01  0.51100000000E-03 0.  1.
        -12    1    3    3    0    0 -0.25266178037E+01  0.35011290234E+02  0.20093704935E+02  0.40446646578E+02  0.00000000000E+00 0.  1.
</event>
<event>
 7    1  0.3568207E-015  0.9000756E+02  0.7816164E-02  0.1186339E+00
        -11   -1    0    0    0    0  0.00000000000E+00  0.00000000000E+00  0.45593999997E+02  0.45594000000E+02  0.51100000000E-03 0. -1.
         11   -1    0    0    0    0 -0.00000000000E+00 -0.00000000000E+00 -0.45593999997E+02  0.45594000000E+02  0.51100000000E-03 0.  1.
    9900012    2    1    2    0    0 -0.67692287163E+00  0.28371765214E+00 -0.92450680384E+00  0.90007562322E+02  0.89999821345E+02 0.  0.
         12    1    1    2    0    0  0.67692287163E+00 -0.28371765214E+00  0.92450680384E+00  0.11804376776E+01  0.00000000000E+00 0. -1.
         11    1    3    3    0    0  0.59220611705E+01  0.65812219320E+01  0.20811039497E+02  0.22615982310E+02  0.51100000000E-03 0. -1.
        -11    1    3    3    0    0  0.94077434732E+01  0.16340063545E+02 -0.32562634993E+02  0.37627496752E+02  0.51100000000E-03 0.  1.
         12    1    3    3    0    0 -0.16006727515E+02 -0.22637567825E+02  0.10827088692E+02  0.29764083260E+02  0.00000000000E+00 0. -1.
</event>
<event>
 7    1  0.3568207E-015  0.9000770E+02  0.7816164E-02  0.1186339E+00
        -11   -1    0    0    0    0  0.00000000000E+00  0.00000000000E+00  0.45593999997E+02  0.45594000000E+02  0.51100000000E-03 0.  1.
         11   -1    0    0    0    0 -0.00000000000E+00 -0.00000000000E+00 -0.45593999997E+02  0.45594000000E+02  0.51100000000E-03 0. -1.
    9900012    2    1    2    0    0  0.16570960253E+00  0.27049009272E+00  0.11368777591E+01  0.90007696818E+02  0.89999957616E+02 0.  0.
         12    1    1    2    0    0 -0.16570960253E+00 -0.27049009272E+00 -0.11368777591E+01  0.11803031822E+01  0.00000000000E+00 0. -1.
         11    1    3    3    0    0 -0.16488132066E+01  0.29698754237E+01  0.10157185840E+02  0.10710143298E+02  0.51100000000E-03 0. -1.
        -11    1    3    3    0    0  0.24402588789E+02 -0.24514803461E+02  0.16975563433E+02  0.38530918526E+02  0.51100000000E-03 0.  1.
         12    1    3    3    0    0 -0.22588065980E+02  0.21815418130E+02 -0.25995871514E+02  0.40766634993E+02  0.00000000000E+00 0. -1.
</event>
<event>
 7    1  0.3568207E-015  0.9000776E+02  0.7816164E-02  0.1186339E+00
        -11   -1    0    0    0    0  0.00000000000E+00  0.00000000000E+00  0.45593999997E+02  0.45594000000E+02  0.51100000000E-03 0. -1.
         11   -1    0    0    0    0 -0.00000000000E+00 -0.00000000000E+00 -0.45593999997E+02  0.45594000000E+02  0.51100000000E-03 0.  1.
    9900012    2    1    2    0    0 -0.84597647531E+00 -0.60080088141E-01 -0.82077511140E+00  0.90007763754E+02  0.90000025435E+02 0.  0.
         12    1    1    2    0    0  0.84597647531E+00  0.60080088141E-01  0.82077511140E+00  0.11802362464E+01  0.00000000000E+00 0. -1.
         11    1    3    3    0    0 -0.55781865262E+01  0.76842287617E+01  0.36726372992E+01  0.10180952882E+02  0.51100000000E-03 0. -1.
        -11    1    3    3    0    0 -0.19428337283E+02  0.28826330154E+02 -0.85810835764E+01  0.35805762041E+02  0.51100000000E-03 0.  1.
         12    1    3    3    0    0  0.24160547333E+02 -0.36570639004E+02  0.40876711658E+01  0.44021048831E+02  0.00000000000E+00 0. -1.
</event>
<event>
 7    1  0.3568207E-015  0.9000775E+02  0.7816164E-02  0.1186339E+00
        -11   -1    0    0    0    0  0.00000000000E+00  0.00000000000E+00  0.45593999997E+02  0.45594000000E+02  0.51100000000E-03 0.  1.
         11   -1    0    0    0    0 -0.00000000000E+00 -0.00000000000E+00 -0.45593999997E+02  0.45594000000E+02  0.51100000000E-03 0. -1.
    9900012    2    1    2    0    0 -0.23437988193E+00 -0.11547612307E+01  0.67707249752E-01  0.90007749306E+02  0.90000010797E+02 0.  0.
         12    1    1    2    0    0  0.23437988193E+00  0.11547612307E+01 -0.67707249752E-01  0.11802506940E+01  0.00000000000E+00 0. -1.
         11    1    3    3    0    0 -0.72831237016E+01 -0.58797042332E+01 -0.55476554421E+01  0.10880776346E+02  0.51100000000E-03 0. -1.
        -11    1    3    3    0    0  0.34994591246E+02  0.16080817284E+02  0.22454175357E+02  0.44580310589E+02  0.51100000000E-03 0.  1.
         12    1    3    3    0    0 -0.27945847426E+02 -0.11355874282E+02 -0.16838812665E+02  0.34546662372E+02  0.00000000000E+00 0. -1.
</event>
<event>
 7    1  0.3568207E-015  0.9000834E+02  0.7816164E-02  0.1186338E+00
        -11   -1    0    0    0    0  0.00000000000E+00  0.00000000000E+00  0.45593999997E+02  0.45594000000E+02  0.51100000000E-03 0. -1.
         11   -1    0    0    0    0 -0.00000000000E+00 -0.00000000000E+00 -0.45593999997E+02  0.45594000000E+02  0.51100000000E-03 0.  1.
    9900012    2    1    2    0    0 -0.64781506455E+00  0.80716426808E+00 -0.56605510087E+00  0.90008340350E+02  0.90000609640E+02 0.  0.
         12    1    1    2    0    0  0.64781506455E+00 -0.80716426808E+00  0.56605510087E+00  0.11796596504E+01  0.00000000000E+00 0. -1.
         11    1    3    3    0    0  0.47542950046E+01 -0.75408196198E+01 -0.11757909720E+01  0.89916498041E+01  0.51100000000E-03 0. -1.
        -11    1    3    3    0    0  0.36766348069E+02  0.14619094773E+00  0.74584091266E+01  0.37515511314E+02  0.51100000000E-03 0.  1.
         12    1    3    3    0    0 -0.42168458139E+02  0.82017929401E+01 -0.68486732555E+01  0.43501179232E+02  0.00000000000E+00 0. -1.
</event>
<event>
 7    1  0.3568207E-015  0.9000771E+02  0.7816164E-02  0.1186339E+00
        -11   -1    0    0    0    0  0.00000000000E+00  0.00000000000E+00  0.45593999997E+02  0.45594000000E+02  0.51100000000E-03 0. -1.
         11   -1    0    0    0    0 -0.00000000000E+00 -0.00000000000E+00 -0.45593999997E+02  0.45594000000E+02  0.51100000000E-03 0.  1.
    9900012    2    1    2    0    0 -0.29191831617E+00  0.25851974825E+00 -0.11140128095E+01  0.90007714736E+02  0.89999975771E+02 0.  0.
         12    1    1    2    0    0  0.29191831617E+00 -0.25851974825E+00  0.11140128095E+01  0.11802852635E+01  0.00000000000E+00 0. -1.
         11    1    3    3    0    0  0.49566809466E+01  0.64250179191E+01  0.42108857706E+01  0.91422699862E+01  0.51100000000E-03 0. -1.
        -11    1    3    3    0    0 -0.25932330479E+02 -0.36002701475E+02 -0.21365815218E+01  0.44421225314E+02  0.51100000000E-03 0.  1.
         12    1    3    3    0    0  0.20683731216E+02  0.29836203304E+02 -0.31883170584E+01  0.36444219436E+02  0.00000000000E+00 0. -1.
</event>
<event>
 7    1  0.3568207E-015  0.9000738E+02  0.7816164E-02  0.1186340E+00
        -11   -1    0    0    0    0  0.00000000000E+00  0.00000000000E+00  0.45593999997E+02  0.45594000000E+02  0.51100000000E-03 0.  1.
         11   -1    0    0    0    0 -0.00000000000E+00 -0.00000000000E+00 -0.45593999997E+02  0.45594000000E+02  0.51100000000E-03 0. -1.
    9900012    2    1    2    0    0  0.11776249672E+01  0.83798457162E-01 -0.72540030906E-02  0.90007375011E+02  0.89999631560E+02 0.  0.
         12    1    1    2    0    0 -0.11776249672E+01 -0.83798457162E-01  0.72540030906E-02  0.11806249893E+01  0.00000000000E+00 0. -1.
         11    1    3    3    0    0  0.32789683730E+02  0.20120286577E+02 -0.10035179396E+02  0.39757944072E+02  0.51100000000E-03 0. -1.
        -11    1    3    3    0    0 -0.13336693834E+02  0.73000024230E+01 -0.17870649763E+01  0.15308528318E+02  0.51100000000E-03 0.  1.
        -12    1    3    3    0    0 -0.18275364929E+02 -0.27336490543E+02  0.11814990370E+02  0.34940902620E+02  0.00000000000E+00 0.  1.
</event>
<event>
 7    1  0.3568207E-015  0.9000776E+02  0.7816164E-02  0.1186339E+00
        -11   -1    0    0    0    0  0.00000000000E+00  0.00000000000E+00  0.45593999997E+02  0.45594000000E+02  0.51100000000E-03 0.  1.
         11   -1    0    0    0    0 -0.00000000000E+00 -0.00000000000E+00 -0.45593999997E+02  0.45594000000E+02  0.51100000000E-03 0. -1.
    9900012    2    1    2    0    0  0.95341359184E+00 -0.50235073772E+00  0.48127356493E+00  0.90007755116E+02  0.90000016684E+02 0.  0.
         12    1    1    2    0    0 -0.95341359184E+00  0.50235073772E+00 -0.48127356493E+00  0.11802448835E+01  0.00000000000E+00 0. -1.
         11    1    3    3    0    0  0.37234096318E+02 -0.89844186878E+01  0.96547556852E+01  0.39500784997E+02  0.51100000000E-03 0. -1.
        -11    1    3    3    0    0  0.61770678123E+01 -0.73247719337E+00 -0.10816389138E+01  0.63136861339E+01  0.51100000000E-03 0.  1.
        -12    1    3    3    0    0 -0.42457750538E+02  0.92145451434E+01 -0.80918432064E+01  0.44193283986E+02  0.00000000000E+00 0.  1.
</event>
<event>
 7    1  0.3568207E-015  0.9000772E+02  0.7816164E-02  0.1186339E+00
        -11   -1    0    0    0    0  0.00000000000E+00  0.00000000000E+00  0.45593999997E+02  0.45594000000E+02  0.51100000000E-03 0. -1.
         11   -1    0    0    0    0 -0.00000000000E+00 -0.00000000000E+00 -0.45593999997E+02  0.45594000000E+02  0.51100000000E-03 0.  1.
    9900012    2    1    2    0    0 -0.11796038329E+01 -0.28802574287E-01 -0.27705666544E-01  0.90007719358E+02  0.89999980453E+02 0.  0.
         12    1    1    2    0    0  0.11796038329E+01  0.28802574287E-01  0.27705666544E-01  0.11802806424E+01  0.00000000000E+00 0. -1.
         11    1    3    3    0    0 -0.73396337946E+01 -0.15205407195E+01  0.77119269579E+01  0.10754351956E+02  0.51100000000E-03 0. -1.
        -11    1    3    3    0    0 -0.32915111113E+02  0.61993889021E+01  0.11541437916E+02  0.35426568445E+02  0.51100000000E-03 0.  1.
         12    1    3    3    0    0  0.39075141074E+02 -0.47076507569E+01 -0.19281070541E+02  0.43826798957E+02  0.00000000000E+00 0. -1.
</event>
<event>
 7    1  0.3568207E-015  0.9000772E+02  0.7816164E-02  0.1186339E+00
        -11   -1    0    0    0    0  0.00000000000E+00  0.00000000000E+00  0.45593999997E+02  0.45594000000E+02  0.51100000000E-03 0.  1.
         11   -1    0    0    0    0 -0.00000000000E+00 -0.00000000000E+00 -0.45593999997E+02  0.45594000000E+02  0.51100000000E-03 0. -1.
    9900012    2    1    2    0    0  0.76145247582E+00 -0.87111924125E+00 -0.23326283544E+00  0.90007716070E+02  0.89999977122E+02 0.  0.
         12    1    1    2    0    0 -0.76145247582E+00  0.87111924125E+00  0.23326283544E+00  0.11802839302E+01  0.00000000000E+00 0. -1.
         11    1    3    3    0    0  0.15823369150E+02  0.11236922007E+01 -0.14580823879E+02  0.21546278580E+02  0.51100000000E-03 0. -1.
        -11    1    3    3    0    0  0.18103385938E+02  0.19823491635E+02  0.21529058951E+01  0.26932107364E+02  0.51100000000E-03 0.  1.
         12    1    3    3    0    0 -0.33165302612E+02 -0.21818303077E+02  0.12194655148E+02  0.41529330126E+02  0.00000000000E+00 0. -1.
</event>
<event>
 7    1  0.3568207E-015  0.9000791E+02  0.7816164E-02  0.1186339E+00
        -11   -1    0    0    0    0  0.00000000000E+00  0.00000000000E+00  0.45593999997E+02  0.45594000000E+02  0.51100000000E-03 0.  1.
         11   -1    0    0    0    0 -0.00000000000E+00 -0.00000000000E+00 -0.45593999997E+02  0.45594000000E+02  0.51100000000E-03 0. -1.
    9900012    2    1    2    0    0  0.10467784485E+01 -0.17554969016E+00  0.51580952045E+00  0.90007905819E+02  0.90000169376E+02 0.  0.
         12    1    1    2    0    0 -0.10467784485E+01  0.17554969016E+00 -0.51580952045E+00  0.11800941807E+01  0.00000000000E+00 0. -1.
         11    1    3    3    0    0  0.75382015950E+01 -0.76518165859E+00  0.17837124183E+01  0.77840616974E+01  0.51100000000E-03 0. -1.
        -11    1    3    3    0    0  0.12065110189E+02  0.32395522513E+02  0.19761196657E+02  0.39818860560E+02  0.51100000000E-03 0.  1.
         12    1    3    3    0    0 -0.18556533336E+02 -0.31805890544E+02 -0.21029099555E+02  0.42404983561E+02  0.00000000000E+00 0. -1.
</event>
<event>
 7    1  0.3568207E-015  0.9000777E+02  0.7816164E-02  0.1186339E+00
        -11   -1    0    0    0    0  0.00000000000E+00  0.00000000000E+00  0.45593999997E+02  0.45594000000E+02  0.51100000000E-03 0.  1.
         11   -1    0    0    0    0 -0.00000000000E+00 -0.00000000000E+00 -0.45593999997E+02  0.45594000000E+02  0.51100000000E-03 0. -1.
    9900012    2    1    2    0    0  0.44652695218E+00  0.77619068877E+00 -0.76882340800E+00  0.90007767931E+02  0.90000029668E+02 0.  0.
         12    1    1    2    0    0 -0.44652695218E+00 -0.77619068877E+00  0.76882340800E+00  0.11802320692E+01  0.00000000000E+00 0. -1.
         11    1    3    3    0    0  0.11234179826E+02 -0.88507671476E+01 -0.15950202058E+02  0.21423160865E+02  0.51100000000E-03 0. -1.
        -11    1    3    3    0    0  0.16357194262E+02  0.80880609165E+01 -0.18037504078E+02  0.25657865989E+02  0.51100000000E-03 0.  1.
        -12    1    3    3    0    0 -0.27144847136E+02  0.15388969199E+01  0.33218882728E+02  0.42926741077E+02  0.00000000000E+00 0.  1.
</event>
<event>
 7    1  0.3568207E-015  0.9000772E+02  0.7816164E-02  0.1186339E+00
        -11   -1    0    0    0    0  0.00000000000E+00  0.00000000000E+00  0.45593999997E+02  0.45594000000E+02  0.51100000000E-03 0.  1.
         11   -1    0    0    0    0 -0.00000000000E+00 -0.00000000000E+00 -0.45593999997E+02  0.45594000000E+02  0.51100000000E-03 0. -1.
    9900012    2    1    2    0    0 -0.94796521082E+00 -0.70159145658E+00 -0.46874203029E-01  0.90007717913E+02  0.89999978990E+02 0.  0.
         12    1    1    2    0    0  0.94796521082E+00  0.70159145658E+00  0.46874203029E-01  0.11802820865E+01  0.00000000000E+00 0. -1.
         11    1    3    3    0    0  0.55718966520E+01 -0.28260318619E+02  0.26968203420E+02  0.39458530595E+02  0.51100000000E-03 0. -1.
        -11    1    3    3    0    0 -0.74605382173E+01  0.10697339583E+01  0.49555131285E+01  0.90200372428E+01  0.51100000000E-03 0.  1.
        -12    1    3    3    0    0  0.94067635445E+00  0.26488993204E+02 -0.31970590752E+02  0.41529150076E+02  0.00000000000E+00 0.  1.
</event>
<event>
 7    1  0.3568207E-015  0.9000835E+02  0.7816164E-02  0.1186338E+00
        -11   -1    0    0    0    0  0.00000000000E+00  0.00000000000E+00  0.45593999997E+02  0.45594000000E+02  0.51100000000E-03 0.  1.
         11   -1    0    0    0    0 -0.00000000000E+00 -0.00000000000E+00 -0.45593999997E+02  0.45594000000E+02  0.51100000000E-03 0. -1.
    9900012    2    1    2    0    0  0.22841905932E+00  0.76316208732E-01  0.11548072307E+01  0.90008347860E+02  0.90000617250E+02 0.  0.
         12    1    1    2    0    0 -0.22841905932E+00 -0.76316208732E-01 -0.11548072307E+01  0.11796521396E+01  0.00000000000E+00 0. -1.
         11    1    3    3    0    0 -0.97215215878E+01  0.11362106951E+02 -0.32580124100E+02  0.35847872223E+02  0.51100000000E-03 0. -1.
        -11    1    3    3    0    0 -0.83480768980E+01  0.26216195108E+01 -0.42777919212E+01  0.97397526014E+01  0.51100000000E-03 0.  1.
        -12    1    3    3    0    0  0.18298017545E+02 -0.13907410253E+02  0.38012723251E+02  0.44420723036E+02  0.00000000000E+00 0.  1.
</event>
<event>
 7    1  0.3568207E-015  0.9000770E+02  0.7816164E-02  0.1186339E+00
        -11   -1    0    0    0    0  0.00000000000E+00  0.00000000000E+00  0.45593999997E+02  0.45594000000E+02  0.51100000000E-03 0. -1.
         11   -1    0    0    0    0 -0.00000000000E+00 -0.00000000000E+00 -0.45593999997E+02  0.45594000000E+02  0.51100000000E-03 0.  1.
    9900012    2    1    2    0    0  0.31443275870E+00 -0.65458771060E+00 -0.93046475792E+00  0.90007695931E+02  0.89999956717E+02 0.  0.
         12    1    1    2    0    0 -0.31443275870E+00  0.65458771060E+00  0.93046475792E+00  0.11803040694E+01  0.00000000000E+00 0. -1.
         11    1    3    3    0    0 -0.29900700848E+02  0.98861040143E+01  0.21382803489E+02  0.38065880380E+02  0.51100000000E-03 0. -1.
        -11    1    3    3    0    0 -0.75080059366E+01 -0.43218008036E+01 -0.37177952902E+01  0.94270948553E+01  0.51100000000E-03 0.  1.
        -12    1    3    3    0    0  0.37723139544E+02 -0.62188909213E+01 -0.18595472956E+02  0.42514720695E+02  0.00000000000E+00 0.  1.
</event>
<event>
 7    1  0.3568207E-015  0.9000765E+02  0.7816164E-02  0.1186339E+00
        -11   -1    0    0    0    0  0.00000000000E+00  0.00000000000E+00  0.45593999997E+02  0.45594000000E+02  0.51100000000E-03 0.  1.
         11   -1    0    0    0    0 -0.00000000000E+00 -0.00000000000E+00 -0.45593999997E+02  0.45594000000E+02  0.51100000000E-03 0. -1.
    9900012    2    1    2    0    0  0.50135392779E+00  0.59424033684E-01  0.10669286135E+01  0.90007651050E+02  0.89999911244E+02 0.  0.
         12    1    1    2    0    0 -0.50135392779E+00 -0.59424033684E-01 -0.10669286135E+01  0.11803489497E+01  0.00000000000E+00 0. -1.
         11    1    3    3    0    0 -0.26045202623E+01  0.97561682108E+01 -0.87494238202E+01  0.13361091325E+02  0.51100000000E-03 0. -1.
        -11    1    3    3    0    0 -0.29414481471E+02  0.10447448870E+02  0.19984890967E+02  0.37064225007E+02  0.51100000000E-03 0.  1.
         12    1    3    3    0    0  0.32520355661E+02 -0.20144193047E+02 -0.10168538533E+02  0.39582334718E+02  0.00000000000E+00 0. -1.
</event>
<event>
 7    1  0.3568207E-015  0.9000755E+02  0.7816164E-02  0.1186339E+00
        -11   -1    0    0    0    0  0.00000000000E+00  0.00000000000E+00  0.45593999997E+02  0.45594000000E+02  0.51100000000E-03 0.  1.
         11   -1    0    0    0    0 -0.00000000000E+00 -0.00000000000E+00 -0.45593999997E+02  0.45594000000E+02  0.51100000000E-03 0. -1.
    9900012    2    1    2    0    0 -0.11493128704E+01  0.21327026262E+00 -0.16452277418E+00  0.90007545841E+02  0.89999804646E+02 0.  0.
         12    1    1    2    0    0  0.11493128704E+01 -0.21327026262E+00  0.16452277418E+00  0.11804541593E+01  0.00000000000E+00 0. -1.
         11    1    3    3    0    0 -0.74616909217E+01  0.72378219646E+01 -0.13254828994E+01  0.10479494424E+02  0.51100000000E-03 0. -1.
        -11    1    3    3    0    0 -0.55201618204E+01 -0.41904581741E+02 -0.34547720120E+01  0.42407565449E+02  0.51100000000E-03 0.  1.
         12    1    3    3    0    0  0.11832539872E+02  0.34880030039E+02  0.46157321372E+01  0.37120485968E+02  0.00000000000E+00 0. -1.
</event>
<event>
 7    1  0.3568207E-015  0.9000775E+02  0.7816164E-02  0.1186339E+00
        -11   -1    0    0    0    0  0.00000000000E+00  0.00000000000E+00  0.45593999997E+02  0.45594000000E+02  0.51100000000E-03 0. -1.
         11   -1    0    0    0    0 -0.00000000000E+00 -0.00000000000E+00 -0.45593999997E+02  0.45594000000E+02  0.51100000000E-03 0.  1.
    9900012    2    1    2    0    0 -0.69876901503E+00  0.93795304608E+00  0.15800542868E+00  0.90007745888E+02  0.90000007334E+02 0.  0.
         12    1    1    2    0    0  0.69876901503E+00 -0.93795304608E+00 -0.15800542868E+00  0.11802541118E+01  0.00000000000E+00 0. -1.
         11    1    3    3    0    0  0.14892433182E+02 -0.13926011807E+01 -0.27075852737E+02  0.30932599403E+02  0.51100000000E-03 0. -1.
        -11    1    3    3    0    0  0.86817628792E+01 -0.68443970480E+01 -0.91741684614E+01  0.14366076182E+02  0.51100000000E-03 0.  1.
        -12    1    3    3    0    0 -0.24272965077E+02  0.91749512747E+01  0.36408026627E+02  0.44709070303E+02  0.00000000000E+00 0.  1.
</event>
<event>
 7    1  0.3568207E-015  0.9000776E+02  0.7816164E-02  0.1186339E+00
        -11   -1    0    0    0    0  0.00000000000E+00  0.00000000000E+00  0.45593999997E+02  0.45594000000E+02  0.51100000000E-03 0. -1.
         11   -1    0    0    0    0 -0.00000000000E+00 -0.00000000000E+00 -0.45593999997E+02  0.45594000000E+02  0.51100000000E-03 0.  1.
    9900012    2    1    2    0    0  0.52353237307E+00  0.38351835551E+00 -0.98579625649E+00  0.90007759883E+02  0.90000021513E+02 0.  0.
         12    1    1    2    0    0 -0.52353237307E+00 -0.38351835551E+00  0.98579625649E+00  0.11802401171E+01  0.00000000000E+00 0. -1.
         11    1    3    3    0    0  0.81132946865E+01  0.51240489076E+01  0.15519915676E+01  0.97206021400E+01  0.51100000000E-03 0. -1.
        -11    1    3    3    0    0 -0.43411611094E+01  0.36746102042E+02 -0.92384130161E+01  0.38137513951E+02  0.51100000000E-03 0.  1.
         12    1    3    3    0    0 -0.32486012040E+01 -0.41486632594E+02  0.67006251919E+01  0.42149643792E+02  0.00000000000E+00 0. -1.
</event>
<event>
 7    1  0.3568207E-015  0.9000783E+02  0.7816164E-02  0.1186339E+00
        -11   -1    0    0    0    0  0.00000000000E+00  0.00000000000E+00  0.45593999997E+02  0.45594000000E+02  0.51100000000E-03 0.  1.
         11   -1    0    0    0    0 -0.00000000000E+00 -0.00000000000E+00 -0.45593999997E+02  0.45594000000E+02  0.51100000000E-03 0. -1.
    9900012    2    1    2    0    0  0.49275771110E+00 -0.10671780830E+01  0.10545953325E+00  0.90007830124E+02  0.90000092682E+02 0.  0.
         12    1    1    2    0    0 -0.49275771110E+00  0.10671780830E+01 -0.10545953325E+00  0.11801698758E+01  0.00000000000E+00 0. -1.
         11    1    3    3    0    0  0.16433659936E+02  0.51982993039E+01 -0.30452201803E-01  0.17236253135E+02  0.51100000000E-03 0. -1.
        -11    1    3    3    0    0 -0.33090049815E+01  0.31581888779E+02 -0.62501914569E+01  0.32364024878E+02  0.51100000000E-03 0.  1.
         12    1    3    3    0    0 -0.12631897243E+02 -0.37847366165E+02  0.63861031919E+01  0.40407552111E+02  0.00000000000E+00 0. -1.
</event>
<event>
 7    1  0.3568207E-015  0.9000774E+02  0.7816164E-02  0.1186339E+00
        -11   -1    0    0    0    0  0.00000000000E+00  0.00000000000E+00  0.45593999997E+02  0.45594000000E+02  0.51100000000E-03 0.  1.
         11   -1    0    0    0    0 -0.00000000000E+00 -0.00000000000E+00 -0.45593999997E+02  0.45594000000E+02  0.51100000000E-03 0. -1.
    9900012    2    1    2    0    0 -0.77969524543E+00 -0.83142430726E+00 -0.30630510105E+00  0.90007739915E+02  0.90000001281E+02 0.  0.
         12    1    1    2    0    0  0.77969524543E+00  0.83142430726E+00  0.30630510105E+00  0.11802600855E+01  0.00000000000E+00 0. -1.
         11    1    3    3    0    0  0.33400470271E+02 -0.93632110844E+01 -0.14485121931E+02  0.37590954946E+02  0.51100000000E-03 0. -1.
        -11    1    3    3    0    0  0.53490195725E+01 -0.49728243915E+01  0.68367122639E+01  0.10004080550E+02  0.51100000000E-03 0.  1.
        -12    1    3    3    0    0 -0.39529185089E+02  0.13504611169E+02  0.73421045663E+01  0.42412704418E+02  0.00000000000E+00 0.  1.
</event>
<event>
 7    1  0.3568207E-015  0.9000773E+02  0.7816164E-02  0.1186339E+00
        -11   -1    0    0    0    0  0.00000000000E+00  0.00000000000E+00  0.45593999997E+02  0.45594000000E+02  0.51100000000E-03 0.  1.
         11   -1    0    0    0    0 -0.00000000000E+00 -0.00000000000E+00 -0.45593999997E+02  0.45594000000E+02  0.51100000000E-03 0. -1.
    9900012    2    1    2    0    0  0.43056414429E+00  0.10678423718E+01 -0.25954718281E+00  0.90007729881E+02  0.89999991116E+02 0.  0.
         12    1    1    2    0    0 -0.43056414429E+00 -0.10678423718E+01  0.25954718281E+00  0.11802701188E+01  0.00000000000E+00 0. -1.
         11    1    3    3    0    0 -0.30181647187E+02 -0.67536713121E+01  0.26730677171E+02  0.40878759832E+02  0.51100000000E-03 0. -1.
        -11    1    3    3    0    0  0.10117365853E+02 -0.58314811013E+01  0.11509277007E+01  0.11734219125E+02  0.51100000000E-03 0.  1.
        -12    1    3    3    0    0  0.20494845478E+02  0.13652994785E+02 -0.28141152054E+02  0.37394750925E+02  0.00000000000E+00 0.  1.
</event>
<event>
 7    1  0.3568207E-015  0.9000774E+02  0.7816164E-02  0.1186339E+00
        -11   -1    0    0    0    0  0.00000000000E+00  0.00000000000E+00  0.45593999997E+02  0.45594000000E+02  0.51100000000E-03 0.  1.
         11   -1    0    0    0    0 -0.00000000000E+00 -0.00000000000E+00 -0.45593999997E+02  0.45594000000E+02  0.51100000000E-03 0. -1.
    9900012    2    1    2    0    0 -0.45087492476E+00  0.88319210822E+00  0.64007683639E+00  0.90007739497E+02  0.90000000859E+02 0.  0.
         12    1    1    2    0    0  0.45087492476E+00 -0.88319210822E+00 -0.64007683639E+00  0.11802605027E+01  0.00000000000E+00 0. -1.
         11    1    3    3    0    0 -0.56730420811E+01  0.85963595025E+01 -0.11987603555E+00  0.10300251146E+02  0.51100000000E-03 0. -1.
        -11    1    3    3    0    0 -0.13282784143E+01  0.34243349131E+02 -0.10378492674E+02  0.35806206078E+02  0.51100000000E-03 0.  1.
         12    1    3    3    0    0  0.65504455706E+01 -0.41956516525E+02  0.11138445546E+02  0.43901282273E+02  0.00000000000E+00 0. -1.
</event>
<event>
 7    1  0.3568207E-015  0.9000767E+02  0.7816164E-02  0.1186339E+00
        -11   -1    0    0    0    0  0.00000000000E+00  0.00000000000E+00  0.45593999997E+02  0.45594000000E+02  0.51100000000E-03 0. -1.
         11   -1    0    0    0    0 -0.00000000000E+00 -0.00000000000E+00 -0.45593999997E+02  0.45594000000E+02  0.51100000000E-03 0.  1.
    9900012    2    1    2    0    0 -0.18129437896E+00  0.97695709285E+00  0.63707257010E+00  0.90007671964E+02  0.89999932434E+02 0.  0.
         12    1    1    2    0    0  0.18129437896E+00 -0.97695709285E+00 -0.63707257010E+00  0.11803280360E+01  0.00000000000E+00 0. -1.
         11    1    3    3    0    0 -0.71397130759E+01 -0.48037062246E+01  0.21925755088E+01  0.88802299475E+01  0.51100000000E-03 0. -1.
        -11    1    3    3    0    0 -0.13316023847E+02 -0.52444326170E+01 -0.36525185530E+02  0.39228940118E+02  0.51100000000E-03 0.  1.
         12    1    3    3    0    0  0.20274442544E+02  0.11025095934E+02  0.34969682591E+02  0.41898501898E+02  0.00000000000E+00 0. -1.
</event>
<event>
 7    1  0.3568207E-015  0.9000768E+02  0.7816164E-02  0.1186339E+00
        -11   -1    0    0    0    0  0.00000000000E+00  0.00000000000E+00  0.45593999997E+02  0.45594000000E+02  0.51100000000E-03 0.  1.
         11   -1    0    0    0    0 -0.00000000000E+00 -0.00000000000E+00 -0.45593999997E+02  0.45594000000E+02  0.51100000000E-03 0. -1.
    9900012    2    1    2    0    0 -0.52499893797E+00  0.97447900892E+00 -0.40978947562E+00  0.90007677740E+02  0.89999938286E+02 0.  0.
         12    1    1    2    0    0  0.52499893797E+00 -0.97447900892E+00  0.40978947562E+00  0.11803222602E+01  0.00000000000E+00 0. -1.
         11    1    3    3    0    0  0.17409030602E+02  0.11116750146E+01  0.31318127930E+02  0.35848783872E+02  0.51100000000E-03 0. -1.
        -11    1    3    3    0    0  0.25919804875E+01  0.10607202163E+02  0.39558142182E+01  0.11613766270E+02  0.51100000000E-03 0.  1.
        -12    1    3    3    0    0 -0.20526010028E+02 -0.10744398169E+02 -0.35683731624E+02  0.42545127597E+02  0.00000000000E+00 0.  1.
</event>
<event>
 7    1  0.3568207E-015  0.9000779E+02  0.7816164E-02  0.1186339E+00
        -11   -1    0    0    0    0  0.00000000000E+00  0.00000000000E+00  0.45593999997E+02  0.45594000000E+02  0.51100000000E-03 0.  1.
         11   -1    0    0    0    0 -0.00000000000E+00 -0.00000000000E+00 -0.45593999997E+02  0.45594000000E+02  0.51100000000E-03 0. -1.
    9900012    2    1    2    0    0 -0.11639321127E+00 -0.49477636390E+00  0.10651530632E+01  0.90007787274E+02  0.90000049266E+02 0.  0.
         12    1    1    2    0    0  0.11639321127E+00  0.49477636390E+00 -0.10651530632E+01  0.11802127258E+01  0.00000000000E+00 0. -1.
         11    1    3    3    0    0 -0.30109405410E+02 -0.28046213210E+01  0.22572653435E+02  0.37735485664E+02  0.51100000000E-03 0. -1.
        -11    1    3    3    0    0 -0.81915703291E+01  0.36038166346E+01 -0.12759567844E+01  0.90397668537E+01  0.51100000000E-03 0.  1.
        -12    1    3    3    0    0  0.38184582528E+02 -0.12939716775E+01 -0.20231543588E+02  0.43232534757E+02  0.00000000000E+00 0.  1.
</event>
<event>
 7    1  0.3568207E-015  0.9000777E+02  0.7816164E-02  0.1186339E+00
        -11   -1    0    0    0    0  0.00000000000E+00  0.00000000000E+00  0.45593999997E+02  0.45594000000E+02  0.51100000000E-03 0.  1.
         11   -1    0    0    0    0 -0.00000000000E+00 -0.00000000000E+00 -0.45593999997E+02  0.45594000000E+02  0.51100000000E-03 0. -1.
    9900012    2    1    2    0    0  0.19009862152E+00 -0.14943540419E+00  0.11551954834E+01  0.90007769077E+02  0.90000030829E+02 0.  0.
         12    1    1    2    0    0 -0.19009862152E+00  0.14943540419E+00 -0.11551954834E+01  0.11802309226E+01  0.00000000000E+00 0. -1.
         11    1    3    3    0    0  0.34341813747E+02 -0.19105756029E+02 -0.10208678413E+01  0.39311986165E+02  0.51100000000E-03 0. -1.
        -11    1    3    3    0    0 -0.41074836441E+01 -0.85617408440E+01 -0.21145154511E+01  0.97286177856E+01  0.51100000000E-03 0.  1.
        -12    1    3    3    0    0 -0.30044231481E+02  0.27518061469E+02  0.42905787757E+01  0.40967165127E+02  0.00000000000E+00 0.  1.
</event>
<event>
 7    1  0.3568207E-015  0.9000769E+02  0.7816164E-02  0.1186339E+00
        -11   -1    0    0    0    0  0.00000000000E+00  0.00000000000E+00  0.45593999997E+02  0.45594000000E+02  0.51100000000E-03 0. -1.
         11   -1    0    0    0    0 -0.00000000000E+00 -0.00000000000E+00 -0.45593999997E+02  0.45594000000E+02  0.51100000000E-03 0.  1.
    9900012    2    1    2    0    0  0.22006180170E+00 -0.11423535364E+01  0.19932964639E+00  0.90007690250E+02  0.89999950961E+02 0.  0.
         12    1    1    2    0    0 -0.22006180170E+00  0.11423535364E+01 -0.19932964639E+00  0.11803097503E+01  0.00000000000E+00 0. -1.
         11    1    3    3    0    0  0.11025685119E+02  0.10496802920E+02  0.35070722538E+02  0.38232240105E+02  0.51100000000E-03 0. -1.
        -11    1    3    3    0    0  0.78066988740E+01  0.56536663413E+01 -0.13785189714E+01  0.97369813199E+01  0.51100000000E-03 0.  1.
        -12    1    3    3    0    0 -0.18612322191E+02 -0.17292822798E+02 -0.33492873920E+02  0.42038468824E+02  0.00000000000E+00 0.  1.
</event>
<event>
 7    1  0.3568207E-015  0.9000782E+02  0.7816164E-02  0.1186339E+00
        -11   -1    0    0    0    0  0.00000000000E+00  0.00000000000E+00  0.45593999997E+02  0.45594000000E+02  0.51100000000E-03 0.  1.
         11   -1    0    0    0    0 -0.00000000000E+00 -0.00000000000E+00 -0.45593999997E+02  0.45594000000E+02  0.51100000000E-03 0. -1.
    9900012    2    1    2    0    0  0.26832596512E+00 -0.11193409448E+01  0.26058184330E+00  0.90007819560E+02  0.90000081978E+02 0.  0.
         12    1    1    2    0    0 -0.26832596512E+00  0.11193409448E+01 -0.26058184330E+00  0.11801804402E+01  0.00000000000E+00 0. -1.
         11    1    3    3    0    0 -0.11209318314E+02 -0.45624689338E+01  0.57221896296E+01  0.13386873954E+02  0.51100000000E-03 0. -1.
        -11    1    3    3    0    0  0.15601129321E+01  0.28485054135E+02  0.23580371697E+02  0.37011703434E+02  0.51100000000E-03 0.  1.
         12    1    3    3    0    0  0.99175313473E+01 -0.25041926146E+02 -0.29041979483E+02  0.39609242172E+02  0.00000000000E+00 0. -1.
</event>
<event>
 7    1  0.3568207E-015  0.9000773E+02  0.7816164E-02  0.1186339E+00
        -11   -1    0    0    0    0  0.00000000000E+00  0.00000000000E+00  0.45593999997E+02  0.45594000000E+02  0.51100000000E-03 0.  1.
         11   -1    0    0    0    0 -0.00000000000E+00 -0.00000000000E+00 -0.45593999997E+02  0.45594000000E+02  0.51100000000E-03 0. -1.
    9900012    2    1    2    0    0  0.47318177277E-02  0.11298611278E+01 -0.34121412706E+00  0.90007730692E+02  0.89999991937E+02 0.  0.
         12    1    1    2    0    0 -0.47318177277E-02 -0.11298611278E+01  0.34121412706E+00  0.11802693077E+01  0.00000000000E+00 0. -1.
         11    1    3    3    0    0  0.21419767483E+02  0.18441083033E+02 -0.26257196683E+02  0.38578755298E+02  0.51100000000E-03 0. -1.
        -11    1    3    3    0    0  0.34781212861E+01  0.77736977155E+01  0.19730208110E+01  0.87418828198E+01  0.51100000000E-03 0.  1.
        -12    1    3    3    0    0 -0.24893156951E+02 -0.25084919620E+02  0.23942961745E+02  0.42687092575E+02  0.00000000000E+00 0.  1.
</event>
<event>
 7    1  0.3568207E-015  0.9000768E+02  0.7816164E-02  0.1186339E+00
        -11   -1    0    0    0    0  0.00000000000E+00  0.00000000000E+00  0.45593999997E+02  0.45594000000E+02  0.51100000000E-03 0.  1.
         11   -1    0    0    0    0 -0.00000000000E+00 -0.00000000000E+00 -0.45593999997E+02  0.45594000000E+02  0.51100000000E-03 0. -1.
    9900012    2    1    2    0    0 -0.89425212051E+00 -0.56053260326E+00  0.52847081438E+00  0.90007675868E+02  0.89999936390E+02 0.  0.
         12    1    1    2    0    0  0.89425212051E+00  0.56053260326E+00 -0.52847081438E+00  0.11803241318E+01  0.00000000000E+00 0. -1.
         11    1    3    3    0    0  0.77333950973E+01  0.83616390257E+01 -0.47052360124E+01  0.12323216022E+02  0.51100000000E-03 0. -1.
        -11    1    3    3    0    0 -0.27317243335E+02 -0.20137791110E+02  0.29571032629E+02  0.45013424500E+02  0.51100000000E-03 0.  1.
         12    1    3    3    0    0  0.18689596118E+02  0.11215619481E+02 -0.24337325802E+02  0.32671035346E+02  0.00000000000E+00 0. -1.
</event>
<event>
 7    1  0.3568207E-015  0.9000773E+02  0.7816164E-02  0.1186339E+00
        -11   -1    0    0    0    0  0.00000000000E+00  0.00000000000E+00  0.45593999997E+02  0.45594000000E+02  0.51100000000E-03 0. -1.
         11   -1    0    0    0    0 -0.00000000000E+00 -0.00000000000E+00 -0.45593999997E+02  0.45594000000E+02  0.51100000000E-03 0.  1.
    9900012    2    1    2    0    0  0.31863658290E+00  0.65285367087E+00 -0.93020988641E+00  0.90007729853E+02  0.89999991087E+02 0.  0.
         12    1    1    2    0    0 -0.31863658290E+00 -0.65285367087E+00  0.93020988641E+00  0.11802701472E+01  0.00000000000E+00 0. -1.
         11    1    3    3    0    0  0.31996247573E+01 -0.55576710879E+01  0.17776539934E+01  0.66547246742E+01  0.51100000000E-03 0. -1.
        -11    1    3    3    0    0  0.30131228791E+02 -0.90859620314E+01 -0.25425967371E+02  0.40458935620E+02  0.51100000000E-03 0.  1.
         12    1    3    3    0    0 -0.33012216965E+02  0.15296486790E+02  0.22718103491E+02  0.42894069559E+02  0.00000000000E+00 0. -1.
</event>
<event>
 7    1  0.3568207E-015  0.9000776E+02  0.7816164E-02  0.1186339E+00
        -11   -1    0    0    0    0  0.00000000000E+00  0.00000000000E+00  0.45593999997E+02  0.45594000000E+02  0.51100000000E-03 0.  1.
         11   -1    0    0    0    0 -0.00000000000E+00 -0.00000000000E+00 -0.45593999997E+02  0.45594000000E+02  0.51100000000E-03 0. -1.
    9900012    2    1    2    0    0  0.94594115848E+00 -0.45351898774E+00  0.54081319034E+00  0.90007761442E+02  0.90000023093E+02 0.  0.
         12    1    1    2    0    0 -0.94594115848E+00  0.45351898774E+00 -0.54081319034E+00  0.11802385583E+01  0.00000000000E+00 0. -1.
         11    1    3    3    0    0 -0.10644691410E+02 -0.38712382612E+02 -0.32123186201E+01  0.40277500095E+02  0.51100000000E-03 0. -1.
        -11    1    3    3    0    0 -0.86507049554E+01  0.41276803276E+01  0.29918898677E+01  0.10041107825E+02  0.51100000000E-03 0.  1.
        -12    1    3    3    0    0  0.20241337524E+02  0.34131183297E+02  0.76124194273E+00  0.39689153522E+02  0.00000000000E+00 0.  1.
</event>
<event>
 7    1  0.3568207E-015  0.9000763E+02  0.7816164E-02  0.1186339E+00
        -11   -1    0    0    0    0  0.00000000000E+00  0.00000000000E+00  0.45593999997E+02  0.45594000000E+02  0.51100000000E-03 0. -1.
         11   -1    0    0    0    0 -0.00000000000E+00 -0.00000000000E+00 -0.45593999997E+02  0.45594000000E+02  0.51100000000E-03 0.  1.
    9900012    2    1    2    0    0  0.71176806753E+00  0.38803730584E+00 -0.85795178100E+00  0.90007632264E+02  0.89999892210E+02 0.  0.
         12    1    1    2    0    0 -0.71176806753E+00 -0.38803730584E+00  0.85795178100E+00  0.11803677356E+01  0.00000000000E+00 0. -1.
         11    1    3    3    0    0  0.37395642048E+02 -0.13174994198E+01  0.18315372322E+02  0.41660805470E+02  0.51100000000E-03 0. -1.
        -11    1    3    3    0    0 -0.39177469410E+01  0.90721063705E+01 -0.44073501299E+00  0.98917188953E+01  0.51100000000E-03 0.  1.
        -12    1    3    3    0    0 -0.32766127039E+02 -0.73665696448E+01 -0.18732589090E+02  0.38455107899E+02  0.00000000000E+00 0.  1.
</event>
<event>
 7    1  0.3568207E-015  0.9000764E+02  0.7816164E-02  0.1186339E+00
        -11   -1    0    0    0    0  0.00000000000E+00  0.00000000000E+00  0.45593999997E+02  0.45594000000E+02  0.51100000000E-03 0. -1.
         11   -1    0    0    0    0 -0.00000000000E+00 -0.00000000000E+00 -0.45593999997E+02  0.45594000000E+02  0.51100000000E-03 0.  1.
    9900012    2    1    2    0    0 -0.46516946925E+00  0.88546766273E+00 -0.62674477434E+00  0.90007642161E+02  0.89999902237E+02 0.  0.
         12    1    1    2    0    0  0.46516946925E+00 -0.88546766273E+00  0.62674477434E+00  0.11803578394E+01  0.00000000000E+00 0. -1.
         11    1    3    3    0    0 -0.81053963320E+01  0.35815892145E+01  0.17714167628E+01  0.90367664907E+01  0.51100000000E-03 0. -1.
        -11    1    3    3    0    0  0.41287839098E+02  0.12598312690E+02 -0.69785424852E+01  0.43727602216E+02  0.51100000000E-03 0.  1.
         12    1    3    3    0    0 -0.33647612236E+02 -0.15294434242E+02  0.45803809481E+01  0.37243273454E+02  0.00000000000E+00 0. -1.
</event>
<event>
 7    1  0.3568207E-015  0.9000774E+02  0.7816164E-02  0.1186339E+00
        -11   -1    0    0    0    0  0.00000000000E+00  0.00000000000E+00  0.45593999997E+02  0.45594000000E+02  0.51100000000E-03 0. -1.
         11   -1    0    0    0    0 -0.00000000000E+00 -0.00000000000E+00 -0.45593999997E+02  0.45594000000E+02  0.51100000000E-03 0.  1.
    9900012    2    1    2    0    0  0.10981044701E+01  0.18415136069E+00  0.39150118076E+00  0.90007738027E+02  0.89999999369E+02 0.  0.
         12    1    1    2    0    0 -0.10981044701E+01 -0.18415136069E+00 -0.39150118076E+00  0.11802619732E+01  0.00000000000E+00 0. -1.
         11    1    3    3    0    0  0.77482599609E+01  0.47807717728E+01 -0.41236663065E+01  0.99947954073E+01  0.51100000000E-03 0. -1.
        -11    1    3    3    0    0 -0.48180224638E+01 -0.15677320776E+02 -0.35150169655E+02  0.38788221849E+02  0.51100000000E-03 0.  1.
         12    1    3    3    0    0 -0.18321330270E+01  0.11080700363E+02  0.39665337142E+02  0.41224720770E+02  0.00000000000E+00 0. -1.
</event>
<event>
 7    1  0.3568207E-015  0.9000774E+02  0.7816164E-02  0.1186339E+00
        -11   -1    0    0    0    0  0.00000000000E+00  0.00000000000E+00  0.45593999997E+02  0.45594000000E+02  0.51100000000E-03 0.  1.
         11   -1    0    0    0    0 -0.00000000000E+00 -0.00000000000E+00 -0.45593999997E+02  0.45594000000E+02  0.51100000000E-03 0. -1.
    9900012    2    1    2    0    0 -0.86314556268E-01 -0.71409134605E+00  0.93575723043E+00  0.90007738060E+02  0.89999999402E+02 0.  0.
         12    1    1    2    0    0  0.86314556268E-01  0.71409134605E+00 -0.93575723043E+00  0.11802619402E+01  0.00000000000E+00 0. -1.
         11    1    3    3    0    0 -0.97108786587E+01  0.20313486633E+01 -0.77850538301E+01  0.12610892320E+02  0.51100000000E-03 0. -1.
        -11    1    3    3    0    0  0.34760357259E+02 -0.21598667109E+02 -0.81585120875E+01  0.41729440176E+02  0.51100000000E-03 0.  1.
         12    1    3    3    0    0 -0.25135793157E+02  0.18853227099E+02  0.16879323148E+02  0.35667405563E+02  0.00000000000E+00 0. -1.
</event>
<event>
 7    1  0.3568207E-015  0.9000774E+02  0.7816164E-02  0.1186339E+00
        -11   -1    0    0    0    0  0.00000000000E+00  0.00000000000E+00  0.45593999997E+02  0.45594000000E+02  0.51100000000E-03 0.  1.
         11   -1    0    0    0    0 -0.00000000000E+00 -0.00000000000E+00 -0.45593999997E+02  0.45594000000E+02  0.51100000000E-03 0. -1.
    9900012    2    1    2    0    0  0.68364550235E+00  0.78532410443E+00 -0.55580041386E+00  0.90007737647E+02  0.89999998984E+02 0.  0.
         12    1    1    2    0    0 -0.68364550235E+00 -0.78532410443E+00  0.55580041386E+00  0.11802623530E+01  0.00000000000E+00 0. -1.
         11    1    3    3    0    0  0.39953826171E+01  0.56740638394E+01 -0.34955933054E+01  0.77702802735E+01  0.51100000000E-03 0. -1.
        -11    1    3    3    0    0 -0.18848738342E+02  0.30983252025E+02  0.17821538729E+02  0.40408465524E+02  0.51100000000E-03 0.  1.
         12    1    3    3    0    0  0.15537001228E+02 -0.35871991760E+02 -0.14881745837E+02  0.41828991849E+02  0.00000000000E+00 0. -1.
</event>
<event>
 7    1  0.3568207E-015  0.9000776E+02  0.7816164E-02  0.1186339E+00
        -11   -1    0    0    0    0  0.00000000000E+00  0.00000000000E+00  0.45593999997E+02  0.45594000000E+02  0.51100000000E-03 0.  1.
         11   -1    0    0    0    0 -0.00000000000E+00 -0.00000000000E+00 -0.45593999997E+02  0.45594000000E+02  0.51100000000E-03 0. -1.
    9900012    2    1    2    0    0  0.76302890073E+00  0.65828207753E+00 -0.61435085972E+00  0.90007756222E+02  0.90000017804E+02 0.  0.
         12    1    1    2    0    0 -0.76302890073E+00 -0.65828207753E+00  0.61435085972E+00  0.11802437781E+01  0.00000000000E+00 0. -1.
         11    1    3    3    0    0 -0.35471923122E+02  0.75494906232E+01  0.18298144314E+01  0.36312537226E+02  0.51100000000E-03 0. -1.
        -11    1    3    3    0    0 -0.73522552170E+01  0.36652419013E+01  0.24724172787E+01  0.85791900802E+01  0.51100000000E-03 0.  1.
        -12    1    3    3    0    0  0.43587207240E+02 -0.10556450447E+02 -0.49165825698E+01  0.45116028916E+02  0.00000000000E+00 0.  1.
</event>
<event>
 7    1  0.3568207E-015  0.9000774E+02  0.7816164E-02  0.1186339E+00
        -11   -1    0    0    0    0  0.00000000000E+00  0.00000000000E+00  0.45593999997E+02  0.45594000000E+02  0.51100000000E-03 0. -1.
         11   -1    0    0    0    0 -0.00000000000E+00 -0.00000000000E+00 -0.45593999997E+02  0.45594000000E+02  0.51100000000E-03 0.  1.
    9900012    2    1    2    0    0  0.31677438552E+00 -0.11369518616E+01 -0.23660145204E-02  0.90007741069E+02  0.90000002451E+02 0.  0.
         12    1    1    2    0    0 -0.31677438552E+00  0.11369518616E+01  0.23660145204E-02  0.11802589313E+01  0.00000000000E+00 0. -1.
         11    1    3    3    0    0  0.29906193846E+02  0.23595375740E+01  0.21573251647E+02  0.36950683820E+02  0.51100000000E-03 0. -1.
        -11    1    3    3    0    0  0.79209783933E+01 -0.40241801818E+01  0.15052959186E+01  0.90112064068E+01  0.51100000000E-03 0.  1.
        -12    1    3    3    0    0 -0.37510397853E+02  0.52769074613E+00 -0.23080913580E+02  0.44045850841E+02  0.00000000000E+00 0.  1.
</event>
<event>
 7    1  0.3568207E-015  0.9000795E+02  0.7816164E-02  0.1186339E+00
        -11   -1    0    0    0    0  0.00000000000E+00  0.00000000000E+00  0.45593999997E+02  0.45594000000E+02  0.51100000000E-03 0. -1.
         11   -1    0    0    0    0 -0.00000000000E+00 -0.00000000000E+00 -0.45593999997E+02  0.45594000000E+02  0.51100000000E-03 0.  1.
    9900012    2    1    2    0    0 -0.76025568150E+00  0.33718423808E+00 -0.83716422746E+00  0.90007946673E+02  0.90000210768E+02 0.  0.
         12    1    1    2    0    0  0.76025568150E+00 -0.33718423808E+00  0.83716422746E+00  0.11800533274E+01  0.00000000000E+00 0. -1.
         11    1    3    3    0    0  0.16668312753E+02 -0.34208458508E+02  0.39642389331E+01  0.38259201169E+02  0.51100000000E-03 0. -1.
        -11    1    3    3    0    0  0.80839732184E+01 -0.28038050956E+00 -0.26962638397E+01  0.85263752662E+01  0.51100000000E-03 0.  1.
        -12    1    3    3    0    0 -0.25512541653E+02  0.34826023255E+02 -0.21051393208E+01  0.43222370237E+02  0.00000000000E+00 0.  1.
</event>
<event>
 7    1  0.3568207E-015  0.9000778E+02  0.7816164E-02  0.1186339E+00
        -11   -1    0    0    0    0  0.00000000000E+00  0.00000000000E+00  0.45593999997E+02  0.45594000000E+02  0.51100000000E-03 0.  1.
         11   -1    0    0    0    0 -0.00000000000E+00 -0.00000000000E+00 -0.45593999997E+02  0.45594000000E+02  0.51100000000E-03 0. -1.
    9900012    2    1    2    0    0  0.11776468533E+01 -0.77672729578E-01 -0.55182856629E-02  0.90007781539E+02  0.90000043455E+02 0.  0.
         12    1    1    2    0    0 -0.11776468533E+01  0.77672729578E-01  0.55182856629E-02  0.11802184609E+01  0.00000000000E+00 0. -1.
         11    1    3    3    0    0  0.25240107241E+01  0.91726820574E+00  0.69356880703E+01  0.74374579237E+01  0.51100000000E-03 0. -1.
        -11    1    3    3    0    0 -0.18166425339E+01 -0.27773757660E+02  0.27375121024E+02  0.39039455119E+02  0.51100000000E-03 0.  1.
         12    1    3    3    0    0  0.47027866312E+00  0.26778816725E+02 -0.34316327380E+02  0.43530868496E+02  0.00000000000E+00 0. -1.
</event>
<event>
 7    1  0.3568207E-015  0.9000773E+02  0.7816164E-02  0.1186339E+00
        -11   -1    0    0    0    0  0.00000000000E+00  0.00000000000E+00  0.45593999997E+02  0.45594000000E+02  0.51100000000E-03 0.  1.
         11   -1    0    0    0    0 -0.00000000000E+00 -0.00000000000E+00 -0.45593999997E+02  0.45594000000E+02  0.51100000000E-03 0. -1.
    9900012    2    1    2    0    0  0.51694148699E+00  0.81448548476E+00 -0.68001268442E+00  0.90007732083E+02  0.89999993346E+02 0.  0.
         12    1    1    2    0    0 -0.51694148699E+00 -0.81448548476E+00  0.68001268442E+00  0.11802679174E+01  0.00000000000E+00 0. -1.
         11    1    3    3    0    0  0.19871982198E+02  0.25546634461E+02 -0.14279341294E+02  0.35375497125E+02  0.51100000000E-03 0. -1.
        -11    1    3    3    0    0  0.18860186024E+01  0.26725850337E+01 -0.11417355708E+02  0.11876690977E+02  0.51100000000E-03 0.  1.
        -12    1    3    3    0    0 -0.21241059313E+02 -0.27404734010E+02  0.25016684317E+02  0.42755543981E+02  0.00000000000E+00 0.  1.
</event>
<event>
 7    1  0.3568207E-015  0.9000738E+02  0.7816164E-02  0.1186340E+00
        -11   -1    0    0    0    0  0.00000000000E+00  0.00000000000E+00  0.45593999997E+02  0.45594000000E+02  0.51100000000E-03 0.  1.
         11   -1    0    0    0    0 -0.00000000000E+00 -0.00000000000E+00 -0.45593999997E+02  0.45594000000E+02  0.51100000000E-03 0. -1.
    9900012    2    1    2    0    0  0.80103418387E-01  0.18631929477E+00  0.11630671474E+01  0.90007382947E+02  0.89999639601E+02 0.  0.
         12    1    1    2    0    0 -0.80103418387E-01 -0.18631929477E+00 -0.11630671474E+01  0.11806170533E+01  0.00000000000E+00 0. -1.
         11    1    3    3    0    0  0.27151647006E+02  0.53467314957E+01 -0.31135656500E+02  0.41656074932E+02  0.51100000000E-03 0. -1.
        -11    1    3    3    0    0  0.31202115630E+01  0.24902575813E+01  0.76607592570E+01  0.86385378204E+01  0.51100000000E-03 0.  1.
        -12    1    3    3    0    0 -0.30191755151E+02 -0.76506697822E+01  0.24637964390E+02  0.39712770194E+02  0.00000000000E+00 0.  1.
</event>
<event>
 7    1  0.3568207E-015  0.9000787E+02  0.7816164E-02  0.1186339E+00
        -11   -1    0    0    0    0  0.00000000000E+00  0.00000000000E+00  0.45593999997E+02  0.45594000000E+02  0.51100000000E-03 0. -1.
         11   -1    0    0    0    0 -0.00000000000E+00 -0.00000000000E+00 -0.45593999997E+02  0.45594000000E+02  0.51100000000E-03 0.  1.
    9900012    2    1    2    0    0  0.13668560336E+00 -0.10683392084E+01 -0.48236921471E+00  0.90007867941E+02  0.90000130997E+02 0.  0.
         12    1    1    2    0    0 -0.13668560336E+00  0.10683392084E+01  0.48236921471E+00  0.11801320594E+01  0.00000000000E+00 0. -1.
         11    1    3    3    0    0  0.30498379800E+02 -0.17255891480E+02  0.10721361020E+02  0.36645116231E+02  0.51100000000E-03 0. -1.
        -11    1    3    3    0    0  0.90349327630E+01  0.20195226479E+01 -0.63259833523E+01  0.11212784997E+02  0.51100000000E-03 0.  1.
        -12    1    3    3    0    0 -0.39396626960E+02  0.14168029624E+02 -0.48777468824E+01  0.42149966713E+02  0.00000000000E+00 0.  1.
</event>
<event>
 7    1  0.3568207E-015  0.9000774E+02  0.7816164E-02  0.1186339E+00
        -11   -1    0    0    0    0  0.00000000000E+00  0.00000000000E+00  0.45593999997E+02  0.45594000000E+02  0.51100000000E-03 0.  1.
         11   -1    0    0    0    0 -0.00000000000E+00 -0.00000000000E+00 -0.45593999997E+02  0.45594000000E+02  0.51100000000E-03 0. -1.
    9900012    2    1    2    0    0 -0.24859828136E+00 -0.46998996211E+00  0.10537233700E+01  0.90007735364E+02  0.89999996671E+02 0.  0.
         12    1    1    2    0    0  0.24859828136E+00  0.46998996211E+00 -0.10537233700E+01  0.11802646358E+01  0.00000000000E+00 0. -1.
         11    1    3    3    0    0 -0.31961149926E+02  0.10723570915E+02  0.17806567247E+01  0.33759159000E+02  0.51100000000E-03 0. -1.
        -11    1    3    3    0    0  0.26577523342E+01  0.16128459846E+02  0.37152474665E+00  0.16350195576E+02  0.51100000000E-03 0.  1.
        -12    1    3    3    0    0  0.29054799310E+02 -0.27322020723E+02 -0.10984581014E+01  0.39898380789E+02  0.00000000000E+00 0.  1.
</event>
<event>
 7    1  0.3568207E-015  0.9000772E+02  0.7816164E-02  0.1186339E+00
        -11   -1    0    0    0    0  0.00000000000E+00  0.00000000000E+00  0.45593999997E+02  0.45594000000E+02  0.51100000000E-03 0.  1.
         11   -1    0    0    0    0 -0.00000000000E+00 -0.00000000000E+00 -0.45593999997E+02  0.45594000000E+02  0.51100000000E-03 0. -1.
    9900012    2    1    2    0    0  0.25540641675E+00  0.77555207916E+00  0.85225767413E+00  0.90007721809E+02  0.89999982937E+02 0.  0.
         12    1    1    2    0    0 -0.25540641675E+00 -0.77555207916E+00 -0.85225767413E+00  0.11802781911E+01  0.00000000000E+00 0. -1.
         11    1    3    3    0    0 -0.39321791544E+02  0.50901559662E+01 -0.34459976047E+00  0.39651377369E+02  0.51100000000E-03 0. -1.
        -11    1    3    3    0    0  0.30622570170E+01  0.10449291226E+02  0.13277204181E+01  0.10969409598E+02  0.51100000000E-03 0.  1.
        -12    1    3    3    0    0  0.36514940944E+02 -0.14763895113E+02 -0.13086298345E+00  0.39386934841E+02  0.00000000000E+00 0.  1.
</event>
<event>
 7    1  0.3568207E-015  0.9000776E+02  0.7816164E-02  0.1186339E+00
        -11   -1    0    0    0    0  0.00000000000E+00  0.00000000000E+00  0.45593999997E+02  0.45594000000E+02  0.51100000000E-03 0. -1.
         11   -1    0    0    0    0 -0.00000000000E+00 -0.00000000000E+00 -0.45593999997E+02  0.45594000000E+02  0.51100000000E-03 0.  1.
    9900012    2    1    2    0    0 -0.68855930204E+00 -0.87655633993E+00 -0.38795984066E+00  0.90007755209E+02  0.90000016777E+02 0.  0.
         12    1    1    2    0    0  0.68855930204E+00  0.87655633993E+00  0.38795984066E+00  0.11802447913E+01  0.00000000000E+00 0. -1.
         11    1    3    3    0    0 -0.11939889745E+02 -0.36288034759E+02 -0.19355265619E+01  0.38250865312E+02  0.51100000000E-03 0. -1.
        -11    1    3    3    0    0 -0.26232404698E+01 -0.41511884197E+01  0.79514931542E+01  0.93455871673E+01  0.51100000000E-03 0.  1.
        -12    1    3    3    0    0  0.13874570913E+02  0.39562666839E+02 -0.64039264330E+01  0.42411302729E+02  0.00000000000E+00 0.  1.
</event>
<event>
 7    1  0.3568207E-015  0.9000774E+02  0.7816164E-02  0.1186339E+00
        -11   -1    0    0    0    0  0.00000000000E+00  0.00000000000E+00  0.45593999997E+02  0.45594000000E+02  0.51100000000E-03 0. -1.
         11   -1    0    0    0    0 -0.00000000000E+00 -0.00000000000E+00 -0.45593999997E+02  0.45594000000E+02  0.51100000000E-03 0.  1.
    9900012    2    1    2    0    0  0.50542962479E+00 -0.10087457154E+01 -0.34638897911E+00  0.90007740559E+02  0.90000001934E+02 0.  0.
         12    1    1    2    0    0 -0.50542962479E+00  0.10087457154E+01  0.34638897911E+00  0.11802594413E+01  0.00000000000E+00 0. -1.
         11    1    3    3    0    0  0.25943405740E+01  0.63315065447E+01  0.58215586324E+01  0.89838256501E+01  0.51100000000E-03 0. -1.
        -11    1    3    3    0    0  0.36368221415E+02 -0.29047959026E+01  0.11800539089E+02  0.38344987824E+02  0.51100000000E-03 0.  1.
         12    1    3    3    0    0 -0.38457132364E+02 -0.44354563576E+01 -0.17968486701E+02  0.42678927085E+02  0.00000000000E+00 0. -1.
</event>
<event>
 7    1  0.3568207E-015  0.9000769E+02  0.7816164E-02  0.1186339E+00
        -11   -1    0    0    0    0  0.00000000000E+00  0.00000000000E+00  0.45593999997E+02  0.45594000000E+02  0.51100000000E-03 0. -1.
         11   -1    0    0    0    0 -0.00000000000E+00 -0.00000000000E+00 -0.45593999997E+02  0.45594000000E+02  0.51100000000E-03 0.  1.
    9900012    2    1    2    0    0  0.59551634720E+00 -0.92020518441E+00 -0.43785976802E+00  0.90007687127E+02  0.89999947797E+02 0.  0.
         12    1    1    2    0    0 -0.59551634720E+00  0.92020518441E+00  0.43785976802E+00  0.11803128728E+01  0.00000000000E+00 0. -1.
         11    1    3    3    0    0  0.24040786098E+02  0.18824266674E+02 -0.22695536576E+02  0.38044707816E+02  0.51100000000E-03 0. -1.
        -11    1    3    3    0    0 -0.27272114816E+01  0.30538510800E+01 -0.78715463855E+01  0.88727071204E+01  0.51100000000E-03 0.  1.
        -12    1    3    3    0    0 -0.20718058269E+02 -0.22798322939E+02  0.30129223194E+02  0.43090272191E+02  0.00000000000E+00 0.  1.
</event>
<event>
 7    1  0.3568207E-015  0.9000778E+02  0.7816164E-02  0.1186339E+00
        -11   -1    0    0    0    0  0.00000000000E+00  0.00000000000E+00  0.45593999997E+02  0.45594000000E+02  0.51100000000E-03 0. -1.
         11   -1    0    0    0    0 -0.00000000000E+00 -0.00000000000E+00 -0.45593999997E+02  0.45594000000E+02  0.51100000000E-03 0.  1.
    9900012    2    1    2    0    0 -0.10613369117E+01  0.34638913024E+00 -0.38274655398E+00  0.90007781209E+02  0.90000043121E+02 0.  0.
         12    1    1    2    0    0  0.10613369117E+01 -0.34638913024E+00  0.38274655398E+00  0.11802187908E+01  0.00000000000E+00 0. -1.
         11    1    3    3    0    0 -0.56194110691E+01 -0.11962436376E+01 -0.60867654021E+01  0.83700354196E+01  0.51100000000E-03 0. -1.
        -11    1    3    3    0    0 -0.37391824428E+02  0.14387799985E+01 -0.64303542022E+01  0.37967987534E+02  0.51100000000E-03 0.  1.
         12    1    3    3    0    0  0.41949898586E+02  0.10385276940E+00  0.12134373050E+02  0.43669758255E+02  0.00000000000E+00 0. -1.
</event>
<event>
 7    1  0.3568207E-015  0.9000738E+02  0.7816164E-02  0.1186340E+00
        -11   -1    0    0    0    0  0.00000000000E+00  0.00000000000E+00  0.45593999997E+02  0.45594000000E+02  0.51100000000E-03 0.  1.
         11   -1    0    0    0    0 -0.00000000000E+00 -0.00000000000E+00 -0.45593999997E+02  0.45594000000E+02  0.51100000000E-03 0. -1.
    9900012    2    1    2    0    0  0.25966501588E+00 -0.11494741888E+01 -0.71765689525E-01  0.90007378492E+02  0.89999635087E+02 0.  0.
         12    1    1    2    0    0 -0.25966501588E+00  0.11494741888E+01  0.71765689525E-01  0.11806215081E+01  0.00000000000E+00 0. -1.
         11    1    3    3    0    0 -0.66366592328E+01  0.44459968494E+01  0.77178171954E+01  0.11107512605E+02  0.51100000000E-03 0. -1.
        -11    1    3    3    0    0 -0.16766326576E+01  0.25883476287E+02  0.22533512294E+02  0.34358763341E+02  0.51100000000E-03 0.  1.
         12    1    3    3    0    0  0.85729569063E+01 -0.31478947325E+02 -0.30323095178E+02  0.44541102546E+02  0.00000000000E+00 0. -1.
</event>
<event>
 7    1  0.3568207E-015  0.9000760E+02  0.7816164E-02  0.1186339E+00
        -11   -1    0    0    0    0  0.00000000000E+00  0.00000000000E+00  0.45593999997E+02  0.45594000000E+02  0.51100000000E-03 0.  1.
         11   -1    0    0    0    0 -0.00000000000E+00 -0.00000000000E+00 -0.45593999997E+02  0.45594000000E+02  0.51100000000E-03 0. -1.
    9900012    2    1    2    0    0 -0.56661650379E+00 -0.11929850225E+00  0.10286186557E+01  0.90007600604E+02  0.89999860132E+02 0.  0.
         12    1    1    2    0    0  0.56661650379E+00  0.11929850225E+00 -0.10286186557E+01  0.11803993959E+01  0.00000000000E+00 0. -1.
         11    1    3    3    0    0 -0.47276525108E+01 -0.43137226525E+00 -0.73379702015E+01  0.87397132237E+01  0.51100000000E-03 0. -1.
        -11    1    3    3    0    0  0.33462702587E+02 -0.23782923004E+01 -0.21095371875E+02  0.39628568653E+02  0.51100000000E-03 0.  1.
         12    1    3    3    0    0 -0.29301666580E+02  0.26903660634E+01  0.29461960732E+02  0.41639318727E+02  0.00000000000E+00 0. -1.
</event>
<event>
 7    1  0.3568207E-015  0.9000776E+02  0.7816164E-02  0.1186339E+00
        -11   -1    0    0    0    0  0.00000000000E+00  0.00000000000E+00  0.45593999997E+02  0.45594000000E+02  0.51100000000E-03 0.  1.
         11   -1    0    0    0    0 -0.00000000000E+00 -0.00000000000E+00 -0.45593999997E+02  0.45594000000E+02  0.51100000000E-03 0. -1.
    9900012    2    1    2    0    0 -0.15159539128E+00  0.53119301677E+00  0.10429866193E+01  0.90007759231E+02  0.90000020853E+02 0.  0.
         12    1    1    2    0    0  0.15159539128E+00 -0.53119301677E+00 -0.10429866193E+01  0.11802407686E+01  0.00000000000E+00 0. -1.
         11    1    3    3    0    0  0.90097130063E+01 -0.17077921557E+02 -0.31110718168E+02  0.36615667662E+02  0.51100000000E-03 0. -1.
        -11    1    3    3    0    0 -0.46876248747E+01 -0.32883860451E+01 -0.68434616662E+01  0.89230195330E+01  0.51100000000E-03 0.  1.
        -12    1    3    3    0    0 -0.44736835228E+01  0.20897500619E+02  0.38997166454E+02  0.44469072036E+02  0.00000000000E+00 0.  1.
</event>
<event>
 7    1  0.3568207E-015  0.9000778E+02  0.7816164E-02  0.1186339E+00
        -11   -1    0    0    0    0  0.00000000000E+00  0.00000000000E+00  0.45593999997E+02  0.45594000000E+02  0.51100000000E-03 0.  1.
         11   -1    0    0    0    0 -0.00000000000E+00 -0.00000000000E+00 -0.45593999997E+02  0.45594000000E+02  0.51100000000E-03 0. -1.
    9900012    2    1    2    0    0  0.38727908059E+00 -0.19645941492E+00  0.10974191367E+01  0.90007783855E+02  0.90000045802E+02 0.  0.
         12    1    1    2    0    0 -0.38727908059E+00  0.19645941492E+00 -0.10974191367E+01  0.11802161453E+01  0.00000000000E+00 0. -1.
         11    1    3    3    0    0 -0.39181763438E+02  0.12838574106E+02  0.53286174043E+00  0.41234979241E+02  0.51100000000E-03 0. -1.
        -11    1    3    3    0    0  0.74671852479E+01  0.75481671231E+01  0.66982357567E+00  0.10638719205E+02  0.51100000000E-03 0.  1.
        -12    1    3    3    0    0  0.32101857270E+02 -0.20583200644E+02 -0.10526617941E+00  0.38134085408E+02  0.00000000000E+00 0.  1.
</event>
<event>
 7    1  0.3568207E-015  0.9000775E+02  0.7816164E-02  0.1186339E+00
        -11   -1    0    0    0    0  0.00000000000E+00  0.00000000000E+00  0.45593999997E+02  0.45594000000E+02  0.51100000000E-03 0.  1.
         11   -1    0    0    0    0 -0.00000000000E+00 -0.00000000000E+00 -0.45593999997E+02  0.45594000000E+02  0.51100000000E-03 0. -1.
    9900012    2    1    2    0    0 -0.99039299903E-01  0.11124863894E+01  0.38150191746E+00  0.90007754914E+02  0.90000016479E+02 0.  0.
         12    1    1    2    0    0  0.99039299903E-01 -0.11124863894E+01 -0.38150191746E+00  0.11802450858E+01  0.00000000000E+00 0. -1.
         11    1    3    3    0    0  0.15604779571E+02 -0.17963614667E+02  0.26385088325E+02  0.35529895631E+02  0.51100000000E-03 0. -1.
        -11    1    3    3    0    0  0.15101009999E+01 -0.10634302749E+02  0.10101704100E+01  0.10788384703E+02  0.51100000000E-03 0.  1.
        -12    1    3    3    0    0 -0.17213919871E+02  0.29710403806E+02 -0.27013756818E+02  0.43689474580E+02  0.00000000000E+00 0.  1.
</event>
<event>
 7    1  0.3568207E-015  0.9000765E+02  0.7816164E-02  0.1186339E+00
        -11   -1    0    0    0    0  0.00000000000E+00  0.00000000000E+00  0.45593999997E+02  0.45594000000E+02  0.51100000000E-03 0.  1.
         11   -1    0    0    0    0 -0.00000000000E+00 -0.00000000000E+00 -0.45593999997E+02  0.45594000000E+02  0.51100000000E-03 0. -1.
    9900012    2    1    2    0    0  0.12120249486E+00  0.10368512416E+01 -0.55089232965E+00  0.90007647129E+02  0.89999907271E+02 0.  0.
         12    1    1    2    0    0 -0.12120249486E+00 -0.10368512416E+01  0.55089232965E+00  0.11803528713E+01  0.00000000000E+00 0. -1.
         11    1    3    3    0    0  0.10916012606E+02  0.33536953951E+02  0.11602983060E+02  0.37128369580E+02  0.51100000000E-03 0. -1.
        -11    1    3    3    0    0  0.96271800044E+01  0.13680323172E+01  0.35149006485E+01  0.10339663152E+02  0.51100000000E-03 0.  1.
        -12    1    3    3    0    0 -0.20421990116E+02 -0.33868135027E+02 -0.15668776038E+02  0.42539614397E+02  0.00000000000E+00 0.  1.
</event>
<event>
 7    1  0.3568207E-015  0.9000766E+02  0.7816164E-02  0.1186339E+00
        -11   -1    0    0    0    0  0.00000000000E+00  0.00000000000E+00  0.45593999997E+02  0.45594000000E+02  0.51100000000E-03 0.  1.
         11   -1    0    0    0    0 -0.00000000000E+00 -0.00000000000E+00 -0.45593999997E+02  0.45594000000E+02  0.51100000000E-03 0. -1.
    9900012    2    1    2    0    0  0.95697162094E+00  0.40095489654E-02 -0.69092820823E+00  0.90007664222E+02  0.89999924590E+02 0.  0.
         12    1    1    2    0    0 -0.95697162094E+00 -0.40095489654E-02  0.69092820823E+00  0.11803357779E+01  0.00000000000E+00 0. -1.
         11    1    3    3    0    0 -0.18109715065E+02  0.25189045579E+02  0.16446669188E+02  0.35113284160E+02  0.51100000000E-03 0. -1.
        -11    1    3    3    0    0 -0.77440966297E+01  0.68743354825E+01 -0.36397099355E+01  0.10976110860E+02  0.51100000000E-03 0.  1.
        -12    1    3    3    0    0  0.26810783316E+02 -0.32059371512E+02 -0.13497887460E+02  0.43918269202E+02  0.00000000000E+00 0.  1.
</event>
<event>
 7    1  0.3568207E-015  0.9000777E+02  0.7816164E-02  0.1186339E+00
        -11   -1    0    0    0    0  0.00000000000E+00  0.00000000000E+00  0.45593999997E+02  0.45594000000E+02  0.51100000000E-03 0. -1.
         11   -1    0    0    0    0 -0.00000000000E+00 -0.00000000000E+00 -0.45593999997E+02  0.45594000000E+02  0.51100000000E-03 0.  1.
    9900012    2    1    2    0    0  0.75033300246E+00 -0.77002187784E+00  0.48683530550E+00  0.90007770395E+02  0.90000032164E+02 0.  0.
         12    1    1    2    0    0 -0.75033300246E+00  0.77002187784E+00 -0.48683530550E+00  0.11802296055E+01  0.00000000000E+00 0. -1.
         11    1    3    3    0    0 -0.49879730520E+00  0.10117266254E+02 -0.45521301235E+01  0.11105393470E+02  0.51100000000E-03 0. -1.
        -11    1    3    3    0    0  0.58545428983E+01  0.33465163717E+02  0.47999501750E+01  0.34310820117E+02  0.51100000000E-03 0.  1.
         12    1    3    3    0    0 -0.46054125907E+01 -0.44352451849E+02  0.23901525400E+00  0.44591556807E+02  0.00000000000E+00 0. -1.
</event>
<event>
 7    1  0.3568207E-015  0.9000768E+02  0.7816164E-02  0.1186339E+00
        -11   -1    0    0    0    0  0.00000000000E+00  0.00000000000E+00  0.45593999997E+02  0.45594000000E+02  0.51100000000E-03 0. -1.
         11   -1    0    0    0    0 -0.00000000000E+00 -0.00000000000E+00 -0.45593999997E+02  0.45594000000E+02  0.51100000000E-03 0.  1.
    9900012    2    1    2    0    0  0.45650063480E+00  0.58134733371E+00 -0.92021888946E+00  0.90007677859E+02  0.89999938407E+02 0.  0.
         12    1    1    2    0    0 -0.45650063480E+00 -0.58134733371E+00  0.92021888946E+00  0.11803221410E+01  0.00000000000E+00 0. -1.
         11    1    3    3    0    0  0.15385323122E+02 -0.31983438359E+02  0.25614214583E+02  0.43769127085E+02  0.51100000000E-03 0. -1.
        -11    1    3    3    0    0 -0.22956599010E+01  0.57925836072E+01 -0.11398393455E+02  0.12990283017E+02  0.51100000000E-03 0.  1.
        -12    1    3    3    0    0 -0.12633162587E+02  0.26772202086E+02 -0.15136040017E+02  0.33248267757E+02  0.00000000000E+00 0.  1.
</event>
<event>
 7    1  0.3568207E-015  0.9000783E+02  0.7816164E-02  0.1186339E+00
        -11   -1    0    0    0    0  0.00000000000E+00  0.00000000000E+00  0.45593999997E+02  0.45594000000E+02  0.51100000000E-03 0. -1.
         11   -1    0    0    0    0 -0.00000000000E+00 -0.00000000000E+00 -0.45593999997E+02  0.45594000000E+02  0.51100000000E-03 0.  1.
    9900012    2    1    2    0    0  0.45407535916E+00 -0.74329247860E+00 -0.79632334038E+00  0.90007830943E+02  0.90000093511E+02 0.  0.
         12    1    1    2    0    0 -0.45407535916E+00  0.74329247860E+00  0.79632334038E+00  0.11801690569E+01  0.00000000000E+00 0. -1.
         11    1    3    3    0    0 -0.58197002255E+00 -0.80968517143E+01 -0.49170441800E+00  0.81326176774E+01  0.51100000000E-03 0. -1.
        -11    1    3    3    0    0 -0.23800772821E+02 -0.28590108845E+02  0.61682652734E+01  0.37708336046E+02  0.51100000000E-03 0.  1.
         12    1    3    3    0    0  0.24836818202E+02  0.35943668081E+02 -0.64728841958E+01  0.44166877219E+02  0.00000000000E+00 0. -1.
</event>
<event>
 7    1  0.3568207E-015  0.9000777E+02  0.7816164E-02  0.1186339E+00
        -11   -1    0    0    0    0  0.00000000000E+00  0.00000000000E+00  0.45593999997E+02  0.45594000000E+02  0.51100000000E-03 0.  1.
         11   -1    0    0    0    0 -0.00000000000E+00 -0.00000000000E+00 -0.45593999997E+02  0.45594000000E+02  0.51100000000E-03 0. -1.
    9900012    2    1    2    0    0 -0.14696330186E+00 -0.56303461774E+00  0.10268087248E+01  0.90007770213E+02  0.90000031980E+02 0.  0.
         12    1    1    2    0    0  0.14696330186E+00  0.56303461774E+00 -0.10268087248E+01  0.11802297871E+01  0.00000000000E+00 0. -1.
         11    1    3    3    0    0  0.14890140220E+01  0.39795178848E+01 -0.63553112612E+01  0.76448483857E+01  0.51100000000E-03 0. -1.
        -11    1    3    3    0    0 -0.31015269716E+02 -0.27742788773E+02  0.14863498398E+02  0.44187474123E+02  0.51100000000E-03 0.  1.
         12    1    3    3    0    0  0.29379292393E+02  0.23200236270E+02 -0.74813784120E+01  0.38175447704E+02  0.00000000000E+00 0. -1.
</event>
<event>
 7    1  0.3568207E-015  0.9000769E+02  0.7816164E-02  0.1186339E+00
        -11   -1    0    0    0    0  0.00000000000E+00  0.00000000000E+00  0.45593999997E+02  0.45594000000E+02  0.51100000000E-03 0. -1.
         11   -1    0    0    0    0 -0.00000000000E+00 -0.00000000000E+00 -0.45593999997E+02  0.45594000000E+02  0.51100000000E-03 0.  1.
    9900012    2    1    2    0    0 -0.11530857248E+01  0.20105220276E+00  0.15196695682E+00  0.90007693839E+02  0.89999954598E+02 0.  0.
         12    1    1    2    0    0  0.11530857248E+01 -0.20105220276E+00 -0.15196695682E+00  0.11803061607E+01  0.00000000000E+00 0. -1.
         11    1    3    3    0    0  0.35651803145E+02  0.55352304006E+01  0.46823085382E+01  0.36381504320E+02  0.51100000000E-03 0. -1.
        -11    1    3    3    0    0  0.42053447364E+01  0.90359680770E+01 -0.13035507807E+01  0.10051511744E+02  0.51100000000E-03 0.  1.
        -12    1    3    3    0    0 -0.41010233606E+02 -0.14370146275E+02 -0.32267908007E+01  0.43574677776E+02  0.00000000000E+00 0.  1.
</event>
<event>
 7    1  0.3568207E-015  0.9000774E+02  0.7816164E-02  0.1186339E+00
        -11   -1    0    0    0    0  0.00000000000E+00  0.00000000000E+00  0.45593999997E+02  0.45594000000E+02  0.51100000000E-03 0. -1.
         11   -1    0    0    0    0 -0.00000000000E+00 -0.00000000000E+00 -0.45593999997E+02  0.45594000000E+02  0.51100000000E-03 0.  1.
    9900012    2    1    2    0    0 -0.75849445436E+00  0.18405403477E+00  0.88534346889E+00  0.90007736138E+02  0.89999997455E+02 0.  0.
         12    1    1    2    0    0  0.75849445436E+00 -0.18405403477E+00 -0.88534346889E+00  0.11802638616E+01  0.00000000000E+00 0. -1.
         11    1    3    3    0    0  0.18008366909E+01 -0.29570790256E+01 -0.92784735429E+01  0.99034034906E+01  0.51100000000E-03 0. -1.
        -11    1    3    3    0    0  0.10377149855E+02 -0.33671701826E+02 -0.93829919336E+01  0.36462436573E+02  0.51100000000E-03 0.  1.
         12    1    3    3    0    0 -0.12936481000E+02  0.36812834886E+02  0.19546808945E+02  0.43641896075E+02  0.00000000000E+00 0. -1.
</event>
<event>
 7    1  0.3568207E-015  0.9000766E+02  0.7816164E-02  0.1186339E+00
        -11   -1    0    0    0    0  0.00000000000E+00  0.00000000000E+00  0.45593999997E+02  0.45594000000E+02  0.51100000000E-03 0.  1.
         11   -1    0    0    0    0 -0.00000000000E+00 -0.00000000000E+00 -0.45593999997E+02  0.45594000000E+02  0.51100000000E-03 0. -1.
    9900012    2    1    2    0    0  0.74748153981E+00  0.89402124326E+00  0.18762092828E+00  0.90007659266E+02  0.89999919568E+02 0.  0.
         12    1    1    2    0    0 -0.74748153981E+00 -0.89402124326E+00 -0.18762092828E+00  0.11803407341E+01  0.00000000000E+00 0. -1.
         11    1    3    3    0    0  0.31806991276E+02  0.20216600465E+02  0.22828037575E+01  0.37757208870E+02  0.51100000000E-03 0. -1.
        -11    1    3    3    0    0  0.39686270433E+00  0.88784116745E+01  0.36637720029E+01  0.96128517838E+01  0.51100000000E-03 0.  1.
        -12    1    3    3    0    0 -0.31456372440E+02 -0.28200990896E+02 -0.57589548321E+01  0.42637598612E+02  0.00000000000E+00 0.  1.
</event>
<event>
 7    1  0.3568207E-015  0.9000775E+02  0.7816164E-02  0.1186339E+00
        -11   -1    0    0    0    0  0.00000000000E+00  0.00000000000E+00  0.45593999997E+02  0.45594000000E+02  0.51100000000E-03 0.  1.
         11   -1    0    0    0    0 -0.00000000000E+00 -0.00000000000E+00 -0.45593999997E+02  0.45594000000E+02  0.51100000000E-03 0. -1.
    9900012    2    1    2    0    0 -0.22422020008E+00 -0.11583299617E+01  0.31287508627E-01  0.90007753455E+02  0.90000015001E+02 0.  0.
         12    1    1    2    0    0  0.22422020008E+00  0.11583299617E+01 -0.31287508627E-01  0.11802465448E+01  0.00000000000E+00 0. -1.
         11    1    3    3    0    0 -0.85009786868E+00 -0.63772111154E+01  0.85251929245E+01  0.10680374650E+02  0.51100000000E-03 0. -1.
        -11    1    3    3    0    0 -0.34776983873E+02 -0.62546580710E+01  0.11399698482E+02  0.37128324506E+02  0.51100000000E-03 0.  1.
         12    1    3    3    0    0  0.35402861542E+02  0.11473539225E+02 -0.19893603898E+02  0.42199054299E+02  0.00000000000E+00 0. -1.
</event>
<event>
 7    1  0.3568207E-015  0.9000769E+02  0.7816164E-02  0.1186339E+00
        -11   -1    0    0    0    0  0.00000000000E+00  0.00000000000E+00  0.45593999997E+02  0.45594000000E+02  0.51100000000E-03 0.  1.
         11   -1    0    0    0    0 -0.00000000000E+00 -0.00000000000E+00 -0.45593999997E+02  0.45594000000E+02  0.51100000000E-03 0. -1.
    9900012    2    1    2    0    0 -0.74357486478E+00  0.64604887404E+00  0.65026025255E+00  0.90007694479E+02  0.89999955246E+02 0.  0.
         12    1    1    2    0    0  0.74357486478E+00 -0.64604887404E+00 -0.65026025255E+00  0.11803055211E+01  0.00000000000E+00 0. -1.
         11    1    3    3    0    0  0.10114985649E+02  0.39900945975E+01 -0.92631114861E+01  0.14284222914E+02  0.51100000000E-03 0. -1.
        -11    1    3    3    0    0 -0.26741812980E+02 -0.31901010106E+02  0.17827703221E+00  0.41627284204E+02  0.51100000000E-03 0.  1.
         12    1    3    3    0    0  0.15883252465E+02  0.28556964383E+02  0.97350947064E+01  0.34096187361E+02  0.00000000000E+00 0. -1.
</event>
<event>
 7    1  0.3568207E-015  0.9000805E+02  0.7816164E-02  0.1186338E+00
        -11   -1    0    0    0    0  0.00000000000E+00  0.00000000000E+00  0.45593999997E+02  0.45594000000E+02  0.51100000000E-03 0.  1.
         11   -1    0    0    0    0 -0.00000000000E+00 -0.00000000000E+00 -0.45593999997E+02  0.45594000000E+02  0.51100000000E-03 0. -1.
    9900012    2    1    2    0    0  0.76723933870E+00  0.79454787152E+00 -0.41511197265E+00  0.90008050648E+02  0.90000316116E+02 0.  0.
         12    1    1    2    0    0 -0.76723933870E+00 -0.79454787152E+00  0.41511197265E+00  0.11799493518E+01  0.00000000000E+00 0. -1.
         11    1    3    3    0    0 -0.80395094392E+01 -0.32541977717E+02 -0.17216013943E+02  0.37682955857E+02  0.51100000000E-03 0. -1.
        -11    1    3    3    0    0 -0.35976145740E+01 -0.57620371775E+01  0.77754502816E+01  0.10324801712E+02  0.51100000000E-03 0.  1.
        -12    1    3    3    0    0  0.12404363352E+02  0.39098562766E+02  0.90254516887E+01  0.42000293079E+02  0.00000000000E+00 0.  1.
</event>
<event>
 7    1  0.3568207E-015  0.9000776E+02  0.7816164E-02  0.1186339E+00
        -11   -1    0    0    0    0  0.00000000000E+00  0.00000000000E+00  0.45593999997E+02  0.45594000000E+02  0.51100000000E-03 0.  1.
         11   -1    0    0    0    0 -0.00000000000E+00 -0.00000000000E+00 -0.45593999997E+02  0.45594000000E+02  0.51100000000E-03 0. -1.
    9900012    2    1    2    0    0 -0.97210424265E+00 -0.48164691689E+00  0.46476091984E+00  0.90007757176E+02  0.90000018771E+02 0.  0.
         12    1    1    2    0    0  0.97210424265E+00  0.48164691689E+00 -0.46476091984E+00  0.11802428241E+01  0.00000000000E+00 0. -1.
         11    1    3    3    0    0  0.19011951418E+02 -0.19382523471E+02  0.26165887753E+02  0.37706633302E+02  0.51100000000E-03 0. -1.
        -11    1    3    3    0    0 -0.40447048551E+01 -0.16068191364E+01  0.83847616233E+01  0.94469959693E+01  0.51100000000E-03 0.  1.
        -12    1    3    3    0    0 -0.15939350806E+02  0.20507695690E+02 -0.34085888456E+02  0.42854127905E+02  0.00000000000E+00 0.  1.
</event>
<event>
 7    1  0.3568207E-015  0.9000773E+02  0.7816164E-02  0.1186339E+00
        -11   -1    0    0    0    0  0.00000000000E+00  0.00000000000E+00  0.45593999997E+02  0.45594000000E+02  0.51100000000E-03 0.  1.
         11   -1    0    0    0    0 -0.00000000000E+00 -0.00000000000E+00 -0.45593999997E+02  0.45594000000E+02  0.51100000000E-03 0. -1.
    9900012    2    1    2    0    0  0.10060689657E+01  0.36862427324E+00  0.49496234581E+00  0.90007726158E+02  0.89999987343E+02 0.  0.
         12    1    1    2    0    0 -0.10060689657E+01 -0.36862427324E+00 -0.49496234581E+00  0.11802738421E+01  0.00000000000E+00 0. -1.
         11    1    3    3    0    0  0.29106561955E+01 -0.82161615835E+01 -0.83184537572E+01  0.12048813378E+02  0.51100000000E-03 0. -1.
        -11    1    3    3    0    0 -0.17002315323E+01 -0.22894322853E+02  0.31627672339E+02  0.39081331399E+02  0.51100000000E-03 0.  1.
         12    1    3    3    0    0 -0.20435569757E+00  0.31479108709E+02 -0.22814256236E+02  0.38877581380E+02  0.00000000000E+00 0. -1.
</event>
<event>
 7    1  0.3568207E-015  0.9000773E+02  0.7816164E-02  0.1186339E+00
        -11   -1    0    0    0    0  0.00000000000E+00  0.00000000000E+00  0.45593999997E+02  0.45594000000E+02  0.51100000000E-03 0. -1.
         11   -1    0    0    0    0 -0.00000000000E+00 -0.00000000000E+00 -0.45593999997E+02  0.45594000000E+02  0.51100000000E-03 0.  1.
    9900012    2    1    2    0    0  0.23193896376E+00  0.47636016318E+00 -0.10546624818E+01  0.90007734081E+02  0.89999995371E+02 0.  0.
         12    1    1    2    0    0 -0.23193896376E+00 -0.47636016318E+00  0.10546624818E+01  0.11802659186E+01  0.00000000000E+00 0. -1.
         11    1    3    3    0    0 -0.18929242568E+01  0.20776697026E+02  0.31073533952E+02  0.37427514131E+02  0.51100000000E-03 0. -1.
        -11    1    3    3    0    0  0.74336402114E+01  0.79269839348E+01 -0.21776674103E+01  0.11083244864E+02  0.51100000000E-03 0.  1.
        -12    1    3    3    0    0 -0.53087769909E+01 -0.28227320798E+02 -0.29950529023E+02  0.41496975086E+02  0.00000000000E+00 0.  1.
</event>
<event>
 7    1  0.3568207E-015  0.9000765E+02  0.7816164E-02  0.1186339E+00
        -11   -1    0    0    0    0  0.00000000000E+00  0.00000000000E+00  0.45593999997E+02  0.45594000000E+02  0.51100000000E-03 0.  1.
         11   -1    0    0    0    0 -0.00000000000E+00 -0.00000000000E+00 -0.45593999997E+02  0.45594000000E+02  0.51100000000E-03 0. -1.
    9900012    2    1    2    0    0 -0.77954016427E+00 -0.88630425431E+00  0.15959581949E-02  0.90007652320E+02  0.89999912530E+02 0.  0.
         12    1    1    2    0    0  0.77954016427E+00  0.88630425431E+00 -0.15959581949E-02  0.11803476801E+01  0.00000000000E+00 0. -1.
         11    1    3    3    0    0 -0.85902156536E+01  0.31677890881E+01  0.31250093918E+01  0.96743153061E+01  0.51100000000E-03 0. -1.
        -11    1    3    3    0    0  0.62489808474E+01  0.36098759827E+02 -0.13139468350E+02  0.38920635292E+02  0.51100000000E-03 0.  1.
         12    1    3    3    0    0  0.15616946420E+01 -0.40152853170E+02  0.10016054917E+02  0.41412701722E+02  0.00000000000E+00 0. -1.
</event>
<event>
 7    1  0.3568207E-015  0.9000769E+02  0.7816164E-02  0.1186339E+00
        -11   -1    0    0    0    0  0.00000000000E+00  0.00000000000E+00  0.45593999997E+02  0.45594000000E+02  0.51100000000E-03 0. -1.
         11   -1    0    0    0    0 -0.00000000000E+00 -0.00000000000E+00 -0.45593999997E+02  0.45594000000E+02  0.51100000000E-03 0.  1.
    9900012    2    1    2    0    0 -0.23668554784E+00  0.76757824147E+00 -0.86482576856E+00  0.90007694948E+02  0.89999955722E+02 0.  0.
         12    1    1    2    0    0  0.23668554784E+00 -0.76757824147E+00  0.86482576856E+00  0.11803050518E+01  0.00000000000E+00 0. -1.
         11    1    3    3    0    0 -0.12644086019E+02  0.38560901284E+02  0.13596851734E+02  0.42798252259E+02  0.51100000000E-03 0. -1.
        -11    1    3    3    0    0  0.71515250419E+01 -0.49572825333E+00 -0.35201904683E+01  0.79863507386E+01  0.51100000000E-03 0.  1.
        -12    1    3    3    0    0  0.52558754296E+01 -0.37297594789E+02 -0.10941487035E+02  0.39223091950E+02  0.00000000000E+00 0.  1.
</event>
<event>
 7    1  0.3568207E-015  0.9000775E+02  0.7816164E-02  0.1186339E+00
        -11   -1    0    0    0    0  0.00000000000E+00  0.00000000000E+00  0.45593999997E+02  0.45594000000E+02  0.51100000000E-03 0.  1.
         11   -1    0    0    0    0 -0.00000000000E+00 -0.00000000000E+00 -0.45593999997E+02  0.45594000000E+02  0.51100000000E-03 0. -1.
    9900012    2    1    2    0    0  0.71906791713E+00  0.93337731923E+00  0.68916161736E-01  0.90007745228E+02  0.90000006665E+02 0.  0.
         12    1    1    2    0    0 -0.71906791713E+00 -0.93337731923E+00 -0.68916161736E-01  0.11802547720E+01  0.00000000000E+00 0. -1.
         11    1    3    3    0    0  0.23309066311E+01  0.40558058688E+01 -0.54579438754E+01  0.71883126377E+01  0.51100000000E-03 0. -1.
        -11    1    3    3    0    0 -0.34854102277E+02 -0.19636330684E+02  0.17714579389E+02  0.43751574274E+02  0.51100000000E-03 0.  1.
         12    1    3    3    0    0  0.33242263563E+02  0.16513902134E+02 -0.12187719352E+02  0.39067858317E+02  0.00000000000E+00 0. -1.
</event>
<event>
 7    1  0.3568207E-015  0.9000788E+02  0.7816164E-02  0.1186339E+00
        -11   -1    0    0    0    0  0.00000000000E+00  0.00000000000E+00  0.45593999997E+02  0.45594000000E+02  0.51100000000E-03 0.  1.
         11   -1    0    0    0    0 -0.00000000000E+00 -0.00000000000E+00 -0.45593999997E+02  0.45594000000E+02  0.51100000000E-03 0. -1.
    9900012    2    1    2    0    0  0.91616920197E-01  0.71460983071E+00  0.93467312051E+00  0.90007883602E+02  0.90000146866E+02 0.  0.
         12    1    1    2    0    0 -0.91616920197E-01 -0.71460983071E+00 -0.93467312051E+00  0.11801163978E+01  0.00000000000E+00 0. -1.
         11    1    3    3    0    0 -0.16776050191E+01  0.72819656097E+01 -0.95273647002E+01  0.12108346713E+02  0.51100000000E-03 0. -1.
        -11    1    3    3    0    0  0.19459902687E+02 -0.24711620083E+02 -0.20760346989E+02  0.37687451321E+02  0.51100000000E-03 0.  1.
         12    1    3    3    0    0 -0.17690680748E+02  0.18144264304E+02  0.31222384810E+02  0.40212085567E+02  0.00000000000E+00 0. -1.
</event>
<event>
 7    1  0.3568207E-015  0.9000771E+02  0.7816164E-02  0.1186339E+00
        -11   -1    0    0    0    0  0.00000000000E+00  0.00000000000E+00  0.45593999997E+02  0.45594000000E+02  0.51100000000E-03 0. -1.
         11   -1    0    0    0    0 -0.00000000000E+00 -0.00000000000E+00 -0.45593999997E+02  0.45594000000E+02  0.51100000000E-03 0.  1.
    9900012    2    1    2    0    0  0.61540687349E-01 -0.11740018052E+01  0.10496341322E+00  0.90007709861E+02  0.89999970831E+02 0.  0.
         12    1    1    2    0    0 -0.61540687349E-01  0.11740018052E+01 -0.10496341322E+00  0.11802901393E+01  0.00000000000E+00 0. -1.
         11    1    3    3    0    0 -0.13241121435E+01 -0.69147664111E+01  0.72384759490E+01  0.10097663186E+02  0.51100000000E-03 0. -1.
        -11    1    3    3    0    0  0.35943433477E+02  0.20841828828E+02 -0.11337704574E+00  0.41549068505E+02  0.51100000000E-03 0.  1.
         12    1    3    3    0    0 -0.34557780646E+02 -0.15101064222E+02 -0.70201354901E+01  0.38360978170E+02  0.00000000000E+00 0. -1.
</event>
<event>
 7    1  0.3568207E-015  0.9000768E+02  0.7816164E-02  0.1186339E+00
        -11   -1    0    0    0    0  0.00000000000E+00  0.00000000000E+00  0.45593999997E+02  0.45594000000E+02  0.51100000000E-03 0.  1.
         11   -1    0    0    0    0 -0.00000000000E+00 -0.00000000000E+00 -0.45593999997E+02  0.45594000000E+02  0.51100000000E-03 0. -1.
    9900012    2    1    2    0    0  0.31762492568E+00 -0.62229436663E+00 -0.95131970291E+00  0.90007684343E+02  0.89999944977E+02 0.  0.
         12    1    1    2    0    0 -0.31762492568E+00  0.62229436663E+00  0.95131970291E+00  0.11803156566E+01  0.00000000000E+00 0. -1.
         11    1    3    3    0    0  0.17495147134E+01 -0.32315337081E+01 -0.84726276725E+01  0.92352061037E+01  0.51100000000E-03 0. -1.
        -11    1    3    3    0    0  0.38069123694E+02 -0.51009292915E+01  0.12090881559E+02  0.40267444364E+02  0.51100000000E-03 0.  1.
         12    1    3    3    0    0 -0.39501013482E+02  0.77101686330E+01 -0.45695735891E+01  0.40505033875E+02  0.00000000000E+00 0. -1.
</event>
<event>
 7    1  0.3568207E-015  0.9000758E+02  0.7816164E-02  0.1186339E+00
        -11   -1    0    0    0    0  0.00000000000E+00  0.00000000000E+00  0.45593999997E+02  0.45594000000E+02  0.51100000000E-03 0. -1.
         11   -1    0    0    0    0 -0.00000000000E+00 -0.00000000000E+00 -0.45593999997E+02  0.45594000000E+02  0.51100000000E-03 0.  1.
    9900012    2    1    2    0    0 -0.51187841537E+00  0.51998181396E+00 -0.92789723692E+00  0.90007578939E+02  0.89999838181E+02 0.  0.
         12    1    1    2    0    0  0.51187841537E+00 -0.51998181396E+00  0.92789723692E+00  0.11804210610E+01  0.00000000000E+00 0. -1.
         11    1    3    3    0    0 -0.12830862098E+00  0.10052381942E+02  0.64548895857E+01  0.11947068496E+02  0.51100000000E-03 0. -1.
        -11    1    3    3    0    0  0.32315519687E+02 -0.16988366855E+02 -0.20706992668E+02  0.41972335730E+02  0.51100000000E-03 0.  1.
         12    1    3    3    0    0 -0.32699089481E+02  0.74559667270E+01  0.13324205845E+02  0.36088174713E+02  0.00000000000E+00 0. -1.
</event>
<event>
 7    1  0.3568207E-015  0.9000810E+02  0.7816164E-02  0.1186338E+00
        -11   -1    0    0    0    0  0.00000000000E+00  0.00000000000E+00  0.45593999997E+02  0.45594000000E+02  0.51100000000E-03 0.  1.
         11   -1    0    0    0    0 -0.00000000000E+00 -0.00000000000E+00 -0.45593999997E+02  0.45594000000E+02  0.51100000000E-03 0. -1.
    9900012    2    1    2    0    0 -0.50606248244E+00  0.29953408537E+00  0.10229048782E+01  0.90008104117E+02  0.90000370291E+02 0.  0.
         12    1    1    2    0    0  0.50606248244E+00 -0.29953408537E+00 -0.10229048782E+01  0.11798958828E+01  0.00000000000E+00 0. -1.
         11    1    3    3    0    0 -0.10345866015E+02 -0.35353493699E+02 -0.53474830885E+01  0.37222332489E+02  0.51100000000E-03 0. -1.
        -11    1    3    3    0    0 -0.68873022164E+01 -0.48526804172E+01  0.25168564245E+01  0.87930657666E+01  0.51100000000E-03 0.  1.
        -12    1    3    3    0    0  0.16727105749E+02  0.40505708201E+02  0.38535315421E+01  0.43992705861E+02  0.00000000000E+00 0.  1.
</event>
<event>
 7    1  0.3568207E-015  0.9000772E+02  0.7816164E-02  0.1186339E+00
        -11   -1    0    0    0    0  0.00000000000E+00  0.00000000000E+00  0.45593999997E+02  0.45594000000E+02  0.51100000000E-03 0.  1.
         11   -1    0    0    0    0 -0.00000000000E+00 -0.00000000000E+00 -0.45593999997E+02  0.45594000000E+02  0.51100000000E-03 0. -1.
    9900012    2    1    2    0    0 -0.57325957025E+00 -0.93625336771E+00  0.43344523642E+00  0.90007715426E+02  0.89999976469E+02 0.  0.
         12    1    1    2    0    0  0.57325957025E+00  0.93625336771E+00 -0.43344523642E+00  0.11802845743E+01  0.00000000000E+00 0. -1.
         11    1    3    3    0    0 -0.11136938538E+02 -0.28405382009E+02 -0.18280746969E+02  0.35568002995E+02  0.51100000000E-03 0. -1.
        -11    1    3    3    0    0 -0.97124936398E+01 -0.23835678857E+01 -0.50769507685E+01  0.11215585492E+02  0.51100000000E-03 0.  1.
        -12    1    3    3    0    0  0.20276172607E+02  0.29852696527E+02  0.23791142974E+02  0.43224126938E+02  0.00000000000E+00 0.  1.
</event>
<event>
 7    1  0.3568207E-015  0.9000774E+02  0.7816164E-02  0.1186339E+00
        -11   -1    0    0    0    0  0.00000000000E+00  0.00000000000E+00  0.45593999997E+02  0.45594000000E+02  0.51100000000E-03 0.  1.
         11   -1    0    0    0    0 -0.00000000000E+00 -0.00000000000E+00 -0.45593999997E+02  0.45594000000E+02  0.51100000000E-03 0. -1.
    9900012    2    1    2    0    0  0.33192604264E-01  0.11574860552E+01  0.22834723008E+00  0.90007738091E+02  0.89999999434E+02 0.  0.
         12    1    1    2    0    0 -0.33192604264E-01 -0.11574860552E+01 -0.22834723008E+00  0.11802619092E+01  0.00000000000E+00 0. -1.
         11    1    3    3    0    0 -0.21959749684E+01  0.12064684591E+02  0.64020481093E+01  0.13833478977E+02  0.51100000000E-03 0. -1.
        -11    1    3    3    0    0 -0.12468046845E+02  0.78055117605E+01  0.29690464752E+02  0.33134602811E+02  0.51100000000E-03 0.  1.
         12    1    3    3    0    0  0.14697214418E+02 -0.18712710296E+02 -0.35864165631E+02  0.43039656303E+02  0.00000000000E+00 0. -1.
</event>
<event>
 7    1  0.3568207E-015  0.9000771E+02  0.7816164E-02  0.1186339E+00
        -11   -1    0    0    0    0  0.00000000000E+00  0.00000000000E+00  0.45593999997E+02  0.45594000000E+02  0.51100000000E-03 0.  1.
         11   -1    0    0    0    0 -0.00000000000E+00 -0.00000000000E+00 -0.45593999997E+02  0.45594000000E+02  0.51100000000E-03 0. -1.
    9900012    2    1    2    0    0 -0.42451801861E+00 -0.10739014610E+01  0.24413314526E+00  0.90007711523E+02  0.89999972515E+02 0.  0.
         12    1    1    2    0    0  0.42451801861E+00  0.10739014610E+01 -0.24413314526E+00  0.11802884769E+01  0.00000000000E+00 0. -1.
         11    1    3    3    0    0  0.15907362631E+01  0.64653285214E+01 -0.70225270932E+01  0.96771277652E+01  0.51100000000E-03 0. -1.
        -11    1    3    3    0    0  0.27814945160E+02 -0.18811538226E+02  0.26775589113E+02  0.42947378468E+02  0.51100000000E-03 0.  1.
         12    1    3    3    0    0 -0.29830199442E+02  0.11272308243E+02 -0.19508928875E+02  0.37383205290E+02  0.00000000000E+00 0. -1.
</event>
<event>
 7    1  0.3568207E-015  0.9000673E+02  0.7816164E-02  0.1186341E+00
        -11   -1    0    0    0    0  0.00000000000E+00  0.00000000000E+00  0.45593999997E+02  0.45594000000E+02  0.51100000000E-03 0.  1.
         11   -1    0    0    0    0 -0.00000000000E+00 -0.00000000000E+00 -0.45593999997E+02  0.45594000000E+02  0.51100000000E-03 0. -1.
    9900012    2    1    2    0    0  0.11574750763E+01 -0.21055143410E+00 -0.10635147287E+00  0.90006733267E+02  0.89998981340E+02 0.  0.
         12    1    1    2    0    0 -0.11574750763E+01  0.21055143410E+00  0.10635147287E+00  0.11812667329E+01  0.00000000000E+00 0. -1.
         11    1    3    3    0    0  0.77782678227E+01  0.13452253273E+01  0.92348790646E+01  0.12148830112E+02  0.51100000000E-03 0. -1.
        -11    1    3    3    0    0  0.34188392012E+02  0.84815802826E+01 -0.55873489838E+01  0.35665134535E+02  0.51100000000E-03 0.  1.
         12    1    3    3    0    0 -0.40809184758E+02 -0.10037357044E+02 -0.37538815536E+01  0.42192768620E+02  0.00000000000E+00 0. -1.
</event>
<event>
 7    1  0.3568207E-015  0.9000767E+02  0.7816164E-02  0.1186339E+00
        -11   -1    0    0    0    0  0.00000000000E+00  0.00000000000E+00  0.45593999997E+02  0.45594000000E+02  0.51100000000E-03 0. -1.
         11   -1    0    0    0    0 -0.00000000000E+00 -0.00000000000E+00 -0.45593999997E+02  0.45594000000E+02  0.51100000000E-03 0.  1.
    9900012    2    1    2    0    0  0.57115745779E+00  0.75577150095E+00  0.70411297025E+00  0.90007666794E+02  0.89999927195E+02 0.  0.
         12    1    1    2    0    0 -0.57115745779E+00 -0.75577150095E+00 -0.70411297025E+00  0.11803332064E+01  0.00000000000E+00 0. -1.
         11    1    3    3    0    0  0.37708340222E+01  0.72338606930E+01 -0.32318307600E+01  0.87745461462E+01  0.51100000000E-03 0. -1.
        -11    1    3    3    0    0 -0.25469658617E+01  0.15439129760E+02 -0.33993335157E+02  0.37421926704E+02  0.51100000000E-03 0.  1.
         12    1    3    3    0    0 -0.65271070267E+00 -0.21917218952E+02  0.37929278887E+02  0.43811193944E+02  0.00000000000E+00 0. -1.
</event>
<event>
 7    1  0.3568207E-015  0.9000775E+02  0.7816164E-02  0.1186339E+00
        -11   -1    0    0    0    0  0.00000000000E+00  0.00000000000E+00  0.45593999997E+02  0.45594000000E+02  0.51100000000E-03 0.  1.
         11   -1    0    0    0    0 -0.00000000000E+00 -0.00000000000E+00 -0.45593999997E+02  0.45594000000E+02  0.51100000000E-03 0. -1.
    9900012    2    1    2    0    0  0.10419176443E+01  0.49841450320E+00  0.24287485853E+00  0.90007746810E+02  0.90000008268E+02 0.  0.
         12    1    1    2    0    0 -0.10419176443E+01 -0.49841450320E+00 -0.24287485853E+00  0.11802531895E+01  0.00000000000E+00 0. -1.
         11    1    3    3    0    0 -0.29719525857E+01  0.34025206367E+01 -0.89930003060E+01  0.10063980506E+02  0.51100000000E-03 0. -1.
        -11    1    3    3    0    0  0.23636513639E+02  0.26312927771E+02 -0.13704623911E+02  0.37932461846E+02  0.51100000000E-03 0.  1.
         12    1    3    3    0    0 -0.19622643409E+02 -0.29217033904E+02  0.22940499076E+02  0.42011304459E+02  0.00000000000E+00 0. -1.
</event>
<event>
 7    1  0.3568207E-015  0.9000806E+02  0.7816164E-02  0.1186338E+00
        -11   -1    0    0    0    0  0.00000000000E+00  0.00000000000E+00  0.45593999997E+02  0.45594000000E+02  0.51100000000E-03 0.  1.
         11   -1    0    0    0    0 -0.00000000000E+00 -0.00000000000E+00 -0.45593999997E+02  0.45594000000E+02  0.51100000000E-03 0. -1.
    9900012    2    1    2    0    0 -0.41314911584E-01  0.31698647404E+00  0.11358114041E+01  0.90008061488E+02  0.90000327099E+02 0.  0.
         12    1    1    2    0    0  0.41314911584E-01 -0.31698647404E+00 -0.11358114041E+01  0.11799385121E+01  0.00000000000E+00 0. -1.
         11    1    3    3    0    0 -0.94476613035E+01 -0.57115001082E+01  0.42827631885E+01  0.11841520104E+02  0.51100000000E-03 0. -1.
        -11    1    3    3    0    0  0.23995343540E+02  0.71742905802E+01  0.31683493077E+02  0.40386763806E+02  0.51100000000E-03 0.  1.
         12    1    3    3    0    0 -0.14588997148E+02 -0.11458039980E+01 -0.34830444861E+02  0.37779777578E+02  0.00000000000E+00 0. -1.
</event>
<event>
 7    1  0.3568207E-015  0.9000770E+02  0.7816164E-02  0.1186339E+00
        -11   -1    0    0    0    0  0.00000000000E+00  0.00000000000E+00  0.45593999997E+02  0.45594000000E+02  0.51100000000E-03 0.  1.
         11   -1    0    0    0    0 -0.00000000000E+00 -0.00000000000E+00 -0.45593999997E+02  0.45594000000E+02  0.51100000000E-03 0. -1.
    9900012    2    1    2    0    0 -0.53926611488E+00  0.49977305349E+00  0.92332683862E+00  0.90007697709E+02  0.89999958519E+02 0.  0.
         12    1    1    2    0    0  0.53926611488E+00 -0.49977305349E+00 -0.92332683862E+00  0.11803022912E+01  0.00000000000E+00 0. -1.
         11    1    3    3    0    0 -0.21813249736E+02  0.26681315576E+02 -0.12997809094E+02  0.36832777609E+02  0.51100000000E-03 0. -1.
        -11    1    3    3    0    0 -0.67385892546E+01  0.13257376263E+01 -0.60272658981E+01  0.91375105944E+01  0.51100000000E-03 0.  1.
        -12    1    3    3    0    0  0.28012572875E+02 -0.27507280149E+02  0.19948401831E+02  0.44037409505E+02  0.00000000000E+00 0.  1.
</event>
<event>
 7    1  0.3568207E-015  0.9000676E+02  0.7816164E-02  0.1186341E+00
        -11   -1    0    0    0    0  0.00000000000E+00  0.00000000000E+00  0.45593999997E+02  0.45594000000E+02  0.51100000000E-03 0. -1.
         11   -1    0    0    0    0 -0.00000000000E+00 -0.00000000000E+00 -0.45593999997E+02  0.45594000000E+02  0.51100000000E-03 0.  1.
    9900012    2    1    2    0    0 -0.79417146585E+00  0.35800277337E+00  0.79778488888E+00  0.90006756997E+02  0.89999005384E+02 0.  0.
         12    1    1    2    0    0  0.79417146585E+00 -0.35800277337E+00 -0.79778488888E+00  0.11812430029E+01  0.00000000000E+00 0. -1.
         11    1    3    3    0    0 -0.16472070857E+01  0.67372124278E+01  0.74694594036E+01  0.10192945920E+02  0.51100000000E-03 0. -1.
        -11    1    3    3    0    0  0.84596591924E+01  0.32924161430E+02  0.11450516953E+02  0.35870330055E+02  0.51100000000E-03 0.  1.
         12    1    3    3    0    0 -0.76066235726E+01 -0.39303371084E+02 -0.18122191468E+02  0.43943481022E+02  0.00000000000E+00 0. -1.
</event>
<event>
 7    1  0.3900324E-015  0.9000777E+02  0.7816164E-02  0.1186339E+00
        -11   -1    0    0    0    0  0.00000000000E+00  0.00000000000E+00  0.45593999997E+02  0.45594000000E+02  0.51100000000E-03 0. -1.
         11   -1    0    0    0    0 -0.00000000000E+00 -0.00000000000E+00 -0.45593999997E+02  0.45594000000E+02  0.51100000000E-03 0.  1.
    9900012    2    1    2    0    0  0.67179093880E+00 -0.90324558258E+00 -0.35466408240E+00  0.90007770251E+02  0.90000032019E+02 0.  0.
         12    1    1    2    0    0 -0.67179093880E+00  0.90324558258E+00  0.35466408240E+00  0.11802297485E+01  0.00000000000E+00 0. -1.
         11    1    3    3    0    0  0.58170501296E+01  0.70423972719E+01  0.21284206726E+01  0.93788915318E+01  0.51100000000E-03 0. -1.
        -11    1    3    3    0    0  0.12241329347E+02  0.24801543638E+02 -0.24973301325E+02  0.37264359519E+02  0.51100000000E-03 0.  1.
         12    1    3    3    0    0 -0.17386588538E+02 -0.32747186492E+02  0.22490216570E+02  0.43364519201E+02  0.00000000000E+00 0. -1.
</event>
<event>
 7    1  0.3568207E-015  0.9000773E+02  0.7816164E-02  0.1186339E+00
        -11   -1    0    0    0    0  0.00000000000E+00  0.00000000000E+00  0.45593999997E+02  0.45594000000E+02  0.51100000000E-03 0. -1.
         11   -1    0    0    0    0 -0.00000000000E+00 -0.00000000000E+00 -0.45593999997E+02  0.45594000000E+02  0.51100000000E-03 0.  1.
    9900012    2    1    2    0    0  0.38644426816E+00 -0.89470137681E+00  0.66573597797E+00  0.90007731336E+02  0.89999992590E+02 0.  0.
         12    1    1    2    0    0 -0.38644426816E+00  0.89470137681E+00 -0.66573597797E+00  0.11802686637E+01  0.00000000000E+00 0. -1.
         11    1    3    3    0    0 -0.91938793522E+01 -0.38488778778E+01  0.23786352158E+02  0.25790149819E+02  0.51100000000E-03 0. -1.
        -11    1    3    3    0    0 -0.15709530708E+02  0.93369677705E+01 -0.31843458960E+02  0.36714768160E+02  0.51100000000E-03 0.  1.
         12    1    3    3    0    0  0.25289854329E+02 -0.63827912696E+01  0.87228427803E+01  0.27502813357E+02  0.00000000000E+00 0. -1.
</event>
<event>
 7    1  0.3568207E-015  0.9000772E+02  0.7816164E-02  0.1186339E+00
        -11   -1    0    0    0    0  0.00000000000E+00  0.00000000000E+00  0.45593999997E+02  0.45594000000E+02  0.51100000000E-03 0.  1.
         11   -1    0    0    0    0 -0.00000000000E+00 -0.00000000000E+00 -0.45593999997E+02  0.45594000000E+02  0.51100000000E-03 0. -1.
    9900012    2    1    2    0    0  0.83168712688E+00 -0.69415289424E+00 -0.46852115580E+00  0.90007718766E+02  0.89999979854E+02 0.  0.
         12    1    1    2    0    0 -0.83168712688E+00  0.69415289424E+00  0.46852115580E+00  0.11802812339E+01  0.00000000000E+00 0. -1.
         11    1    3    3    0    0  0.95107034758E+01 -0.17038475010E+01 -0.35560850854E+02  0.36850111135E+02  0.51100000000E-03 0. -1.
        -11    1    3    3    0    0  0.10538157992E+02 -0.37810253457E+01 -0.17475024525E+01  0.11331491147E+02  0.51100000000E-03 0.  1.
        -12    1    3    3    0    0 -0.19217174341E+02  0.47907199524E+01  0.36839832151E+02  0.41826116485E+02  0.00000000000E+00 0.  1.
</event>
<event>
 7    1  0.3568207E-015  0.9000770E+02  0.7816164E-02  0.1186339E+00
        -11   -1    0    0    0    0  0.00000000000E+00  0.00000000000E+00  0.45593999997E+02  0.45594000000E+02  0.51100000000E-03 0. -1.
         11   -1    0    0    0    0 -0.00000000000E+00 -0.00000000000E+00 -0.45593999997E+02  0.45594000000E+02  0.51100000000E-03 0.  1.
    9900012    2    1    2    0    0  0.21824910188E+00 -0.48103467295E+00 -0.10554986299E+01  0.90007701570E+02  0.89999962430E+02 0.  0.
         12    1    1    2    0    0 -0.21824910188E+00  0.48103467295E+00  0.10554986299E+01  0.11802984304E+01  0.00000000000E+00 0. -1.
         11    1    3    3    0    0  0.24207434628E+02 -0.18311807473E+02  0.21154355850E+02  0.36997688521E+02  0.51100000000E-03 0. -1.
        -11    1    3    3    0    0  0.48558589464E+01  0.33335340505E+01  0.72254680377E+01  0.93219742543E+01  0.51100000000E-03 0.  1.
        -12    1    3    3    0    0 -0.28845044472E+02  0.14497238750E+02 -0.29435322518E+02  0.43688038794E+02  0.00000000000E+00 0.  1.
</event>
<event>
 7    1  0.3568207E-015  0.9000787E+02  0.7816164E-02  0.1186339E+00
        -11   -1    0    0    0    0  0.00000000000E+00  0.00000000000E+00  0.45593999997E+02  0.45594000000E+02  0.51100000000E-03 0.  1.
         11   -1    0    0    0    0 -0.00000000000E+00 -0.00000000000E+00 -0.45593999997E+02  0.45594000000E+02  0.51100000000E-03 0. -1.
    9900012    2    1    2    0    0 -0.26169743840E+00 -0.11506602832E+01 -0.13830806252E-01  0.90007874614E+02  0.90000137758E+02 0.  0.
         12    1    1    2    0    0  0.26169743840E+00  0.11506602832E+01  0.13830806252E-01  0.11801253865E+01  0.00000000000E+00 0. -1.
         11    1    3    3    0    0 -0.12074662391E+02 -0.26993658172E+02  0.12183645262E+01  0.29596274525E+02  0.51100000000E-03 0. -1.
        -11    1    3    3    0    0 -0.12282967864E+02  0.32701360618E+02 -0.41991406346E+01  0.35183562471E+02  0.51100000000E-03 0.  1.
         12    1    3    3    0    0  0.24095932817E+02 -0.68583627293E+01  0.29669453021E+01  0.25228037618E+02  0.00000000000E+00 0. -1.
</event>
<event>
 7    1  0.3568207E-015  0.9000776E+02  0.7816164E-02  0.1186339E+00
        -11   -1    0    0    0    0  0.00000000000E+00  0.00000000000E+00  0.45593999997E+02  0.45594000000E+02  0.51100000000E-03 0. -1.
         11   -1    0    0    0    0 -0.00000000000E+00 -0.00000000000E+00 -0.45593999997E+02  0.45594000000E+02  0.51100000000E-03 0.  1.
    9900012    2    1    2    0    0 -0.80273933878E+00 -0.86347855014E+00 -0.54501916776E-01  0.90007764383E+02  0.90000026073E+02 0.  0.
         12    1    1    2    0    0  0.80273933878E+00  0.86347855014E+00  0.54501916776E-01  0.11802356169E+01  0.00000000000E+00 0. -1.
         11    1    3    3    0    0 -0.78127298527E+01 -0.47149054782E+01 -0.90524909713E+01  0.12853663854E+02  0.51100000000E-03 0. -1.
        -11    1    3    3    0    0 -0.19380732019E+02 -0.28549210307E+02  0.49641212420E+00  0.34509659633E+02  0.51100000000E-03 0.  1.
         12    1    3    3    0    0  0.26390722533E+02  0.32400637235E+02  0.85015769303E+01  0.42644440896E+02  0.00000000000E+00 0. -1.
</event>
<event>
 7    1  0.3568207E-015  0.9000772E+02  0.7816164E-02  0.1186339E+00
        -11   -1    0    0    0    0  0.00000000000E+00  0.00000000000E+00  0.45593999997E+02  0.45594000000E+02  0.51100000000E-03 0. -1.
         11   -1    0    0    0    0 -0.00000000000E+00 -0.00000000000E+00 -0.45593999997E+02  0.45594000000E+02  0.51100000000E-03 0.  1.
    9900012    2    1    2    0    0  0.56749700416E-01  0.21320582220E+00 -0.11594781653E+01  0.90007717463E+02  0.89999978534E+02 0.  0.
         12    1    1    2    0    0 -0.56749700416E-01 -0.21320582220E+00  0.11594781653E+01  0.11802825369E+01  0.00000000000E+00 0. -1.
         11    1    3    3    0    0 -0.60616469034E+01 -0.30236514877E+01  0.70638160726E+01  0.97869060111E+01  0.51100000000E-03 0. -1.
        -11    1    3    3    0    0  0.25083280703E+02 -0.18827390005E+02 -0.30368952760E+02  0.43656785008E+02  0.51100000000E-03 0.  1.
         12    1    3    3    0    0 -0.18964884099E+02  0.22064247314E+02  0.22145658522E+02  0.36564026444E+02  0.00000000000E+00 0. -1.
</event>
<event>
 7    1  0.3568207E-015  0.9000773E+02  0.7816164E-02  0.1186339E+00
        -11   -1    0    0    0    0  0.00000000000E+00  0.00000000000E+00  0.45593999997E+02  0.45594000000E+02  0.51100000000E-03 0. -1.
         11   -1    0    0    0    0 -0.00000000000E+00 -0.00000000000E+00 -0.45593999997E+02  0.45594000000E+02  0.51100000000E-03 0.  1.
    9900012    2    1    2    0    0  0.65583402761E+00  0.98107252600E+00  0.20269504323E-01  0.90007732053E+02  0.89999993316E+02 0.  0.
         12    1    1    2    0    0 -0.65583402761E+00 -0.98107252600E+00 -0.20269504323E-01  0.11802679466E+01  0.00000000000E+00 0. -1.
         11    1    3    3    0    0 -0.24604091207E+01  0.82305224326E+01  0.47600805140E+01  0.98210732263E+01  0.51100000000E-03 0. -1.
        -11    1    3    3    0    0  0.19600341676E+02  0.20044810501E+02  0.24268482625E+02  0.37080009049E+02  0.51100000000E-03 0.  1.
         12    1    3    3    0    0 -0.16484098528E+02 -0.27294260408E+02 -0.29008293635E+02  0.43106649778E+02  0.00000000000E+00 0. -1.
</event>
<event>
 7    1  0.3568207E-015  0.9000770E+02  0.7816164E-02  0.1186339E+00
        -11   -1    0    0    0    0  0.00000000000E+00  0.00000000000E+00  0.45593999997E+02  0.45594000000E+02  0.51100000000E-03 0. -1.
         11   -1    0    0    0    0 -0.00000000000E+00 -0.00000000000E+00 -0.45593999997E+02  0.45594000000E+02  0.51100000000E-03 0.  1.
    9900012    2    1    2    0    0  0.31077113206E+00 -0.36371976277E+00 -0.10789936108E+01  0.90007704285E+02  0.89999965182E+02 0.  0.
         12    1    1    2    0    0 -0.31077113206E+00  0.36371976277E+00  0.10789936108E+01  0.11802957149E+01  0.00000000000E+00 0. -1.
         11    1    3    3    0    0 -0.10059031386E+02 -0.26764107684E+02 -0.25639565967E+02  0.38404282519E+02  0.51100000000E-03 0. -1.
        -11    1    3    3    0    0 -0.63132936703E+01 -0.37785858017E+01 -0.24991215866E+01  0.77705209989E+01  0.51100000000E-03 0.  1.
        -12    1    3    3    0    0  0.16683096188E+02  0.30178973723E+02  0.27059693943E+02  0.43832900767E+02  0.00000000000E+00 0.  1.
</event>
<event>
 7    1  0.3568207E-015  0.9000801E+02  0.7816164E-02  0.1186339E+00
        -11   -1    0    0    0    0  0.00000000000E+00  0.00000000000E+00  0.45593999997E+02  0.45594000000E+02  0.51100000000E-03 0.  1.
         11   -1    0    0    0    0 -0.00000000000E+00 -0.00000000000E+00 -0.45593999997E+02  0.45594000000E+02  0.51100000000E-03 0. -1.
    9900012    2    1    2    0    0 -0.52409560121E+00  0.38342278737E+00  0.98524018616E+00  0.90008005315E+02  0.90000270184E+02 0.  0.
         12    1    1    2    0    0  0.52409560121E+00 -0.38342278737E+00 -0.98524018616E+00  0.11799946854E+01  0.00000000000E+00 0. -1.
         11    1    3    3    0    0 -0.80465748977E+01 -0.99422394140E+00  0.13877819995E+02  0.16072639388E+02  0.51100000000E-03 0. -1.
        -11    1    3    3    0    0  0.50211667876E+01  0.29816217657E+02  0.15235790324E+02  0.33857765112E+02  0.51100000000E-03 0.  1.
         12    1    3    3    0    0  0.25013125089E+01 -0.28438570929E+02 -0.28128370133E+02  0.40077600815E+02  0.00000000000E+00 0. -1.
</event>
<event>
 7    1  0.3568207E-015  0.9000773E+02  0.7816164E-02  0.1186339E+00
        -11   -1    0    0    0    0  0.00000000000E+00  0.00000000000E+00  0.45593999997E+02  0.45594000000E+02  0.51100000000E-03 0. -1.
         11   -1    0    0    0    0 -0.00000000000E+00 -0.00000000000E+00 -0.45593999997E+02  0.45594000000E+02  0.51100000000E-03 0.  1.
    9900012    2    1    2    0    0  0.63207460187E-01  0.45468648918E+00 -0.10873322668E+01  0.90007734587E+02  0.89999995884E+02 0.  0.
         12    1    1    2    0    0 -0.63207460187E-01 -0.45468648918E+00  0.10873322668E+01  0.11802654129E+01  0.00000000000E+00 0. -1.
         11    1    3    3    0    0 -0.26941662775E+02 -0.14304111015E+02 -0.21424951167E+02  0.37275854354E+02  0.51100000000E-03 0. -1.
        -11    1    3    3    0    0 -0.33253012212E+01 -0.91291192489E+01  0.17095272376E+01  0.98651371054E+01  0.51100000000E-03 0.  1.
        -12    1    3    3    0    0  0.30330171457E+02  0.23887916753E+02  0.18628091663E+02  0.42866743128E+02  0.00000000000E+00 0.  1.
</event>
<event>
 7    1  0.3568207E-015  0.9000774E+02  0.7816164E-02  0.1186339E+00
        -11   -1    0    0    0    0  0.00000000000E+00  0.00000000000E+00  0.45593999997E+02  0.45594000000E+02  0.51100000000E-03 0.  1.
         11   -1    0    0    0    0 -0.00000000000E+00 -0.00000000000E+00 -0.45593999997E+02  0.45594000000E+02  0.51100000000E-03 0. -1.
    9900012    2    1    2    0    0  0.65724786567E+00  0.89247450503E+00  0.40561045486E+00  0.90007743528E+02  0.90000004942E+02 0.  0.
         12    1    1    2    0    0 -0.65724786567E+00 -0.89247450503E+00 -0.40561045486E+00  0.11802564722E+01  0.00000000000E+00 0. -1.
         11    1    3    3    0    0  0.13148763432E+02 -0.30641076206E+02  0.14388489852E+02  0.36315205787E+02  0.51100000000E-03 0. -1.
        -11    1    3    3    0    0  0.65993314836E+01 -0.13856507836E+00  0.82325059401E+01  0.10551991785E+02  0.51100000000E-03 0.  1.
        -12    1    3    3    0    0 -0.19090847050E+02  0.31672115790E+02 -0.22215385337E+02  0.43140545956E+02  0.00000000000E+00 0.  1.
</event>
<event>
 7    1  0.3568207E-015  0.9000770E+02  0.7816164E-02  0.1186339E+00
        -11   -1    0    0    0    0  0.00000000000E+00  0.00000000000E+00  0.45593999997E+02  0.45594000000E+02  0.51100000000E-03 0.  1.
         11   -1    0    0    0    0 -0.00000000000E+00 -0.00000000000E+00 -0.45593999997E+02  0.45594000000E+02  0.51100000000E-03 0. -1.
    9900012    2    1    2    0    0 -0.58949099852E-01 -0.90191041610E+00  0.75907147251E+00  0.90007700506E+02  0.89999961353E+02 0.  0.
         12    1    1    2    0    0  0.58949099852E-01  0.90191041610E+00 -0.75907147251E+00  0.11802994940E+01  0.00000000000E+00 0. -1.
         11    1    3    3    0    0  0.37869306718E+01  0.41726716168E+02  0.39638169922E+01  0.42085288777E+02  0.51100000000E-03 0. -1.
        -11    1    3    3    0    0  0.25761006737E+01 -0.12677571155E+02  0.81089952473E+01  0.15268035540E+02  0.51100000000E-03 0.  1.
        -12    1    3    3    0    0 -0.64219804454E+01 -0.29951055429E+02 -0.11313740767E+02  0.32654376189E+02  0.00000000000E+00 0.  1.
</event>
<event>
 7    1  0.3568207E-015  0.9000775E+02  0.7816164E-02  0.1186339E+00
        -11   -1    0    0    0    0  0.00000000000E+00  0.00000000000E+00  0.45593999997E+02  0.45594000000E+02  0.51100000000E-03 0.  1.
         11   -1    0    0    0    0 -0.00000000000E+00 -0.00000000000E+00 -0.45593999997E+02  0.45594000000E+02  0.51100000000E-03 0. -1.
    9900012    2    1    2    0    0  0.52685432229E+00  0.82020654688E+00 -0.66533127125E+00  0.90007754281E+02  0.90000015838E+02 0.  0.
         12    1    1    2    0    0 -0.52685432229E+00 -0.82020654688E+00  0.66533127125E+00  0.11802457189E+01  0.00000000000E+00 0. -1.
         11    1    3    3    0    0 -0.67177104268E+01 -0.80955948203E+01 -0.38187130847E+02  0.39609635841E+02  0.51100000000E-03 0. -1.
        -11    1    3    3    0    0 -0.24409560489E+01 -0.96276434929E+01  0.36405731041E+01  0.10578447828E+02  0.51100000000E-03 0.  1.
        -12    1    3    3    0    0  0.96855207980E+01  0.18543444860E+02  0.33881226472E+02  0.39819670612E+02  0.00000000000E+00 0.  1.
</event>
<event>
 7    1  0.3568207E-015  0.9000769E+02  0.7816164E-02  0.1186339E+00
        -11   -1    0    0    0    0  0.00000000000E+00  0.00000000000E+00  0.45593999997E+02  0.45594000000E+02  0.51100000000E-03 0.  1.
         11   -1    0    0    0    0 -0.00000000000E+00 -0.00000000000E+00 -0.45593999997E+02  0.45594000000E+02  0.51100000000E-03 0. -1.
    9900012    2    1    2    0    0 -0.20640952308E+00 -0.41369706146E+00  0.10859957069E+01  0.90007687827E+02  0.89999948506E+02 0.  0.
         12    1    1    2    0    0  0.20640952308E+00  0.41369706146E+00 -0.10859957069E+01  0.11803121728E+01  0.00000000000E+00 0. -1.
         11    1    3    3    0    0 -0.20361611820E+01 -0.12734199145E+02 -0.20070726235E+02  0.23856651737E+02  0.51100000000E-03 0. -1.
        -11    1    3    3    0    0 -0.14072875279E+01  0.33588553326E+02 -0.30621284887E+01  0.33757191883E+02  0.51100000000E-03 0.  1.
         12    1    3    3    0    0  0.32370391868E+01 -0.21268051242E+02  0.24218850431E+02  0.32393844207E+02  0.00000000000E+00 0. -1.
</event>
<event>
 7    1  0.3568207E-015  0.9000767E+02  0.7816164E-02  0.1186339E+00
        -11   -1    0    0    0    0  0.00000000000E+00  0.00000000000E+00  0.45593999997E+02  0.45594000000E+02  0.51100000000E-03 0. -1.
         11   -1    0    0    0    0 -0.00000000000E+00 -0.00000000000E+00 -0.45593999997E+02  0.45594000000E+02  0.51100000000E-03 0.  1.
    9900012    2    1    2    0    0  0.11740649495E+01  0.12110983004E+00 -0.87138030195E-02  0.90007672915E+02  0.89999933398E+02 0.  0.
         12    1    1    2    0    0 -0.11740649495E+01 -0.12110983004E+00  0.87138030195E-02  0.11803270848E+01  0.00000000000E+00 0. -1.
         11    1    3    3    0    0  0.35849487079E+02  0.12126781816E+02  0.57817127924E+01  0.38284105894E+02  0.51100000000E-03 0. -1.
        -11    1    3    3    0    0  0.44596339409E+01 -0.41872448611E+01  0.74834315560E+01  0.96655627114E+01  0.51100000000E-03 0.  1.
        -12    1    3    3    0    0 -0.39135056070E+02 -0.78184271250E+01 -0.13273858151E+02  0.42058004310E+02  0.00000000000E+00 0.  1.
</event>
<event>
 7    1  0.3568207E-015  0.9000773E+02  0.7816164E-02  0.1186339E+00
        -11   -1    0    0    0    0  0.00000000000E+00  0.00000000000E+00  0.45593999997E+02  0.45594000000E+02  0.51100000000E-03 0. -1.
         11   -1    0    0    0    0 -0.00000000000E+00 -0.00000000000E+00 -0.45593999997E+02  0.45594000000E+02  0.51100000000E-03 0.  1.
    9900012    2    1    2    0    0 -0.57586591603E+00 -0.16556477788E+00 -0.10168653951E+01  0.90007725252E+02  0.89999986425E+02 0.  0.
         12    1    1    2    0    0  0.57586591603E+00  0.16556477788E+00  0.10168653951E+01  0.11802747480E+01  0.00000000000E+00 0. -1.
         11    1    3    3    0    0 -0.88069556432E+01  0.71214498352E+01  0.58115688823E+01  0.12729958703E+02  0.51100000000E-03 0. -1.
        -11    1    3    3    0    0 -0.31548302082E+02  0.50084920631E+01 -0.14262819658E+02  0.34982972742E+02  0.51100000000E-03 0.  1.
         12    1    3    3    0    0  0.39779391809E+02 -0.12295506676E+02  0.74343853804E+01  0.42294793807E+02  0.00000000000E+00 0. -1.
</event>
<event>
 7    1  0.3568207E-015  0.9000776E+02  0.7816164E-02  0.1186339E+00
        -11   -1    0    0    0    0  0.00000000000E+00  0.00000000000E+00  0.45593999997E+02  0.45594000000E+02  0.51100000000E-03 0. -1.
         11   -1    0    0    0    0 -0.00000000000E+00 -0.00000000000E+00 -0.45593999997E+02  0.45594000000E+02  0.51100000000E-03 0.  1.
    9900012    2    1    2    0    0  0.22420300592E+00  0.55352688099E+00 -0.10179865486E+01  0.90007764596E+02  0.90000026289E+02 0.  0.
         12    1    1    2    0    0 -0.22420300592E+00 -0.55352688099E+00  0.10179865486E+01  0.11802354040E+01  0.00000000000E+00 0. -1.
         11    1    3    3    0    0  0.13388678450E+01 -0.26142707337E+01  0.30192152758E+00  0.29526488862E+01  0.51100000000E-03 0. -1.
        -11    1    3    3    0    0  0.12478637537E+02  0.25448202888E+02 -0.34622160931E+02  0.44743954371E+02  0.51100000000E-03 0.  1.
         12    1    3    3    0    0 -0.13593302376E+02 -0.22280405273E+02  0.33302252854E+02  0.42311161339E+02  0.00000000000E+00 0. -1.
</event>
<event>
 7    1  0.3568207E-015  0.9000778E+02  0.7816164E-02  0.1186339E+00
        -11   -1    0    0    0    0  0.00000000000E+00  0.00000000000E+00  0.45593999997E+02  0.45594000000E+02  0.51100000000E-03 0. -1.
         11   -1    0    0    0    0 -0.00000000000E+00 -0.00000000000E+00 -0.45593999997E+02  0.45594000000E+02  0.51100000000E-03 0.  1.
    9900012    2    1    2    0    0 -0.10714140026E+01  0.31963027675E+00  0.37792601843E+00  0.90007779870E+02  0.90000041765E+02 0.  0.
         12    1    1    2    0    0  0.10714140026E+01 -0.31963027675E+00 -0.37792601843E+00  0.11802201296E+01  0.00000000000E+00 0. -1.
         11    1    3    3    0    0 -0.21916278830E+02 -0.27802749411E+02 -0.23529761917E+02  0.42508420915E+02  0.51100000000E-03 0. -1.
        -11    1    3    3    0    0 -0.12179694828E+01  0.95741004827E+01 -0.59318755668E+00  0.96694736905E+01  0.51100000000E-03 0.  1.
        -12    1    3    3    0    0  0.22062834310E+02  0.18548279205E+02  0.24500875492E+02  0.37829885265E+02  0.00000000000E+00 0.  1.
</event>
<event>
 7    1  0.3568207E-015  0.9000773E+02  0.7816164E-02  0.1186339E+00
        -11   -1    0    0    0    0  0.00000000000E+00  0.00000000000E+00  0.45593999997E+02  0.45594000000E+02  0.51100000000E-03 0.  1.
         11   -1    0    0    0    0 -0.00000000000E+00 -0.00000000000E+00 -0.45593999997E+02  0.45594000000E+02  0.51100000000E-03 0. -1.
    9900012    2    1    2    0    0  0.92751258521E-01 -0.30327520486E+00  0.11368669671E+01  0.90007726664E+02  0.89999987856E+02 0.  0.
         12    1    1    2    0    0 -0.92751258521E-01  0.30327520486E+00 -0.11368669671E+01  0.11802733356E+01  0.00000000000E+00 0. -1.
         11    1    3    3    0    0 -0.15853657608E+02 -0.28333278739E+02 -0.24162969305E+02  0.40471746064E+02  0.51100000000E-03 0. -1.
        -11    1    3    3    0    0 -0.48264867091E+01 -0.24962377924E+01  0.50790715516E+01  0.74379530220E+01  0.51100000000E-03 0.  1.
        -12    1    3    3    0    0  0.20772895575E+02  0.30526241326E+02  0.20220764720E+02  0.42098027578E+02  0.00000000000E+00 0.  1.
</event>
<event>
 7    1  0.3568207E-015  0.9000770E+02  0.7816164E-02  0.1186339E+00
        -11   -1    0    0    0    0  0.00000000000E+00  0.00000000000E+00  0.45593999997E+02  0.45594000000E+02  0.51100000000E-03 0.  1.
         11   -1    0    0    0    0 -0.00000000000E+00 -0.00000000000E+00 -0.45593999997E+02  0.45594000000E+02  0.51100000000E-03 0. -1.
    9900012    2    1    2    0    0 -0.26125828739E+00 -0.11415498937E+00  0.11453518521E+01  0.90007695751E+02  0.89999956535E+02 0.  0.
         12    1    1    2    0    0  0.26125828739E+00  0.11415498937E+00 -0.11453518521E+01  0.11803042487E+01  0.00000000000E+00 0. -1.
         11    1    3    3    0    0  0.37460769240E+02  0.27424050746E+01 -0.65564781304E+01  0.38128957806E+02  0.51100000000E-03 0. -1.
        -11    1    3    3    0    0 -0.40017297368E+00 -0.25675048380E+01 -0.10170558651E+02  0.10497260740E+02  0.51100000000E-03 0.  1.
        -12    1    3    3    0    0 -0.37321854554E+02 -0.28905522594E+00  0.17872388634E+02  0.41381477206E+02  0.00000000000E+00 0.  1.
</event>
<event>
 7    1  0.3568207E-015  0.9000763E+02  0.7816164E-02  0.1186339E+00
        -11   -1    0    0    0    0  0.00000000000E+00  0.00000000000E+00  0.45593999997E+02  0.45594000000E+02  0.51100000000E-03 0. -1.
         11   -1    0    0    0    0 -0.00000000000E+00 -0.00000000000E+00 -0.45593999997E+02  0.45594000000E+02  0.51100000000E-03 0.  1.
    9900012    2    1    2    0    0 -0.38124184769E+00  0.60257529031E+00 -0.94065239365E+00  0.90007631730E+02  0.89999891669E+02 0.  0.
         12    1    1    2    0    0  0.38124184769E+00 -0.60257529031E+00  0.94065239365E+00  0.11803682699E+01  0.00000000000E+00 0. -1.
         11    1    3    3    0    0 -0.32135526522E+02  0.25215858581E+02  0.15553970079E+02  0.43708781433E+02  0.51100000000E-03 0. -1.
        -11    1    3    3    0    0  0.30420395269E+01 -0.26942372675E+01 -0.83252469983E+01  0.92640518555E+01  0.51100000000E-03 0.  1.
        -12    1    3    3    0    0  0.28712245148E+02 -0.21919046024E+02 -0.81693754742E+01  0.37034798442E+02  0.00000000000E+00 0.  1.
</event>
<event>
 7    1  0.3568207E-015  0.9000771E+02  0.7816164E-02  0.1186339E+00
        -11   -1    0    0    0    0  0.00000000000E+00  0.00000000000E+00  0.45593999997E+02  0.45594000000E+02  0.51100000000E-03 0. -1.
         11   -1    0    0    0    0 -0.00000000000E+00 -0.00000000000E+00 -0.45593999997E+02  0.45594000000E+02  0.51100000000E-03 0.  1.
    9900012    2    1    2    0    0 -0.34404792691E+00  0.24986935808E+00 -0.11010313006E+01  0.90007714612E+02  0.89999975645E+02 0.  0.
         12    1    1    2    0    0  0.34404792691E+00 -0.24986935808E+00  0.11010313006E+01  0.11802853879E+01  0.00000000000E+00 0. -1.
         11    1    3    3    0    0 -0.32811898246E+02  0.11814908238E+02  0.15626155407E+02  0.38215042277E+02  0.51100000000E-03 0. -1.
        -11    1    3    3    0    0 -0.58470453151E+01 -0.79880541282E+01 -0.17118543479E+00  0.99008207936E+01  0.51100000000E-03 0.  1.
        -12    1    3    3    0    0  0.38314895635E+02 -0.35769847512E+01 -0.16556001273E+02  0.41891851541E+02  0.00000000000E+00 0.  1.
</event>
<event>
 7    1  0.3656343E-015  0.9000778E+02  0.7816164E-02  0.1186339E+00
        -11   -1    0    0    0    0  0.00000000000E+00  0.00000000000E+00  0.45593999997E+02  0.45594000000E+02  0.51100000000E-03 0.  1.
         11   -1    0    0    0    0 -0.00000000000E+00 -0.00000000000E+00 -0.45593999997E+02  0.45594000000E+02  0.51100000000E-03 0. -1.
    9900012    2    1    2    0    0 -0.32967362682E-01  0.10384908331E+01  0.55979818232E+00  0.90007777961E+02  0.90000039830E+02 0.  0.
         12    1    1    2    0    0  0.32967362682E-01 -0.10384908331E+01 -0.55979818232E+00  0.11802220394E+01  0.00000000000E+00 0. -1.
         11    1    3    3    0    0 -0.21387592860E+01 -0.72793531170E+00  0.92091803962E+01  0.94822563208E+01  0.51100000000E-03 0. -1.
        -11    1    3    3    0    0  0.38416973379E+02 -0.12730879723E+02  0.48415820557E-01  0.40471489798E+02  0.51100000000E-03 0.  1.
         12    1    3    3    0    0 -0.36311181456E+02  0.14497305868E+02 -0.86977980345E+01  0.40054031842E+02  0.00000000000E+00 0. -1.
</event>
<event>
 7    1  0.3568207E-015  0.9000794E+02  0.7816164E-02  0.1186339E+00
        -11   -1    0    0    0    0  0.00000000000E+00  0.00000000000E+00  0.45593999997E+02  0.45594000000E+02  0.51100000000E-03 0. -1.
         11   -1    0    0    0    0 -0.00000000000E+00 -0.00000000000E+00 -0.45593999997E+02  0.45594000000E+02  0.51100000000E-03 0.  1.
    9900012    2    1    2    0    0 -0.11179169840E+01  0.24016407189E+00 -0.29175278124E+00  0.90007942014E+02  0.90000206049E+02 0.  0.
         12    1    1    2    0    0  0.11179169840E+01 -0.24016407189E+00  0.29175278124E+00  0.11800579858E+01  0.00000000000E+00 0. -1.
         11    1    3    3    0    0  0.59422906790E+00 -0.11048444212E+01 -0.85765799353E+01  0.86678436205E+01  0.51100000000E-03 0. -1.
        -11    1    3    3    0    0  0.31557828507E+02  0.55388138410E+01 -0.19744321585E+02  0.37635265829E+02  0.51100000000E-03 0.  1.
         12    1    3    3    0    0 -0.33269974559E+02 -0.41938053479E+01  0.28029148740E+02  0.43704832565E+02  0.00000000000E+00 0. -1.
</event>
<event>
 7    1  0.3568207E-015  0.9000777E+02  0.7816164E-02  0.1186339E+00
        -11   -1    0    0    0    0  0.00000000000E+00  0.00000000000E+00  0.45593999997E+02  0.45594000000E+02  0.51100000000E-03 0.  1.
         11   -1    0    0    0    0 -0.00000000000E+00 -0.00000000000E+00 -0.45593999997E+02  0.45594000000E+02  0.51100000000E-03 0. -1.
    9900012    2    1    2    0    0 -0.10101879720E+01  0.61025177899E+00 -0.69189470554E-02  0.90007773393E+02  0.90000035202E+02 0.  0.
         12    1    1    2    0    0  0.10101879720E+01 -0.61025177899E+00  0.69189470554E-02  0.11802266072E+01  0.00000000000E+00 0. -1.
         11    1    3    3    0    0  0.20275282713E+02  0.33632728823E+02  0.12600954815E+02  0.41243564343E+02  0.51100000000E-03 0. -1.
        -11    1    3    3    0    0 -0.10044586771E+02 -0.18790178693E+01  0.48748181187E+01  0.11322026475E+02  0.51100000000E-03 0.  1.
        -12    1    3    3    0    0 -0.11240883914E+02 -0.31143459175E+02 -0.17482691881E+02  0.37442182575E+02  0.00000000000E+00 0.  1.
</event>
<event>
 7    1  0.3568207E-015  0.9000777E+02  0.7816164E-02  0.1186339E+00
        -11   -1    0    0    0    0  0.00000000000E+00  0.00000000000E+00  0.45593999997E+02  0.45594000000E+02  0.51100000000E-03 0.  1.
         11   -1    0    0    0    0 -0.00000000000E+00 -0.00000000000E+00 -0.45593999997E+02  0.45594000000E+02  0.51100000000E-03 0. -1.
    9900012    2    1    2    0    0  0.71732116504E+00 -0.88415623984E+00  0.31091972302E+00  0.90007765708E+02  0.90000027415E+02 0.  0.
         12    1    1    2    0    0 -0.71732116504E+00  0.88415623984E+00 -0.31091972302E+00  0.11802342922E+01  0.00000000000E+00 0. -1.
         11    1    3    3    0    0 -0.24221615136E+02  0.22135491837E+02 -0.16507538806E+02  0.36730987958E+02  0.51100000000E-03 0. -1.
        -11    1    3    3    0    0  0.34050452921E+01  0.47600697548E+01 -0.82423858700E+01  0.10108883351E+02  0.51100000000E-03 0.  1.
        -12    1    3    3    0    0  0.21533891009E+02 -0.27779717832E+02  0.25060844399E+02  0.43167894399E+02  0.00000000000E+00 0.  1.
</event>
<event>
 7    1  0.3568207E-015  0.9000819E+02  0.7816164E-02  0.1186338E+00
        -11   -1    0    0    0    0  0.00000000000E+00  0.00000000000E+00  0.45593999997E+02  0.45594000000E+02  0.51100000000E-03 0.  1.
         11   -1    0    0    0    0 -0.00000000000E+00 -0.00000000000E+00 -0.45593999997E+02  0.45594000000E+02  0.51100000000E-03 0. -1.
    9900012    2    1    2    0    0  0.33038293420E+00  0.85044399750E+00  0.74801899345E+00  0.90008194808E+02  0.90000462178E+02 0.  0.
         12    1    1    2    0    0 -0.33038293420E+00 -0.85044399750E+00 -0.74801899345E+00  0.11798051918E+01  0.00000000000E+00 0. -1.
         11    1    3    3    0    0 -0.10333887988E+02 -0.33953152544E+01  0.11424442032E+02  0.15774513705E+02  0.51100000000E-03 0. -1.
        -11    1    3    3    0    0  0.32584746658E+02 -0.21923832742E+02 -0.70901841241E+01  0.39908531269E+02  0.51100000000E-03 0.  1.
         12    1    3    3    0    0 -0.21920475736E+02  0.26169591994E+02 -0.35862389141E+01  0.34325149835E+02  0.00000000000E+00 0. -1.
</event>
<event>
 7    1  0.3568207E-015  0.9000775E+02  0.7816164E-02  0.1186339E+00
        -11   -1    0    0    0    0  0.00000000000E+00  0.00000000000E+00  0.45593999997E+02  0.45594000000E+02  0.51100000000E-03 0. -1.
         11   -1    0    0    0    0 -0.00000000000E+00 -0.00000000000E+00 -0.45593999997E+02  0.45594000000E+02  0.51100000000E-03 0.  1.
    9900012    2    1    2    0    0 -0.63494168244E+00  0.47680292047E+00  0.87321659461E+00  0.90007746135E+02  0.90000007584E+02 0.  0.
         12    1    1    2    0    0  0.63494168244E+00 -0.47680292047E+00 -0.87321659461E+00  0.11802538651E+01  0.00000000000E+00 0. -1.
         11    1    3    3    0    0 -0.36812202200E+02  0.19704182327E+02  0.58165923553E+01  0.42157155725E+02  0.51100000000E-03 0. -1.
        -11    1    3    3    0    0  0.79430153949E+01  0.37871109217E+01 -0.71785247622E+01  0.11356272307E+02  0.51100000000E-03 0.  1.
        -12    1    3    3    0    0  0.28234245122E+02 -0.23014490328E+02  0.22351490016E+01  0.36494318102E+02  0.00000000000E+00 0.  1.
</event>
<event>
 7    1  0.3568207E-015  0.9000774E+02  0.7816164E-02  0.1186339E+00
        -11   -1    0    0    0    0  0.00000000000E+00  0.00000000000E+00  0.45593999997E+02  0.45594000000E+02  0.51100000000E-03 0. -1.
         11   -1    0    0    0    0 -0.00000000000E+00 -0.00000000000E+00 -0.45593999997E+02  0.45594000000E+02  0.51100000000E-03 0.  1.
    9900012    2    1    2    0    0 -0.11381449403E+01 -0.35960648484E-02 -0.31245842788E+00  0.90007738543E+02  0.89999999892E+02 0.  0.
         12    1    1    2    0    0  0.11381449403E+01  0.35960648484E-02  0.31245842788E+00  0.11802614566E+01  0.00000000000E+00 0. -1.
         11    1    3    3    0    0 -0.35335965888E+01  0.11572022678E+01 -0.90200196854E+01  0.97563403655E+01  0.51100000000E-03 0. -1.
        -11    1    3    3    0    0  0.28327421637E+02 -0.14864843833E+02 -0.21187535663E+02  0.38370797054E+02  0.51100000000E-03 0.  1.
         12    1    3    3    0    0 -0.25931969989E+02  0.13704045501E+02  0.29895096921E+02  0.41880601124E+02  0.00000000000E+00 0. -1.
</event>
<event>
 7    1  0.3568207E-015  0.9000772E+02  0.7816164E-02  0.1186339E+00
        -11   -1    0    0    0    0  0.00000000000E+00  0.00000000000E+00  0.45593999997E+02  0.45594000000E+02  0.51100000000E-03 0.  1.
         11   -1    0    0    0    0 -0.00000000000E+00 -0.00000000000E+00 -0.45593999997E+02  0.45594000000E+02  0.51100000000E-03 0. -1.
    9900012    2    1    2    0    0  0.42737792694E+00 -0.10368851968E+01  0.36780886459E+00  0.90007717761E+02  0.89999978835E+02 0.  0.
         12    1    1    2    0    0 -0.42737792694E+00  0.10368851968E+01 -0.36780886459E+00  0.11802822394E+01  0.00000000000E+00 0. -1.
         11    1    3    3    0    0 -0.18375458958E+02  0.32901139528E+02 -0.30319152176E+01  0.37806546845E+02  0.51100000000E-03 0. -1.
        -11    1    3    3    0    0 -0.69962703281E+01  0.88631607257E+00  0.52970322231E+01  0.88199719568E+01  0.51100000000E-03 0.  1.
        -12    1    3    3    0    0  0.25799107213E+02 -0.34824340797E+02 -0.18973081409E+01  0.43381198959E+02  0.00000000000E+00 0.  1.
</event>
<event>
 7    1  0.3568207E-015  0.9000766E+02  0.7816164E-02  0.1186339E+00
        -11   -1    0    0    0    0  0.00000000000E+00  0.00000000000E+00  0.45593999997E+02  0.45594000000E+02  0.51100000000E-03 0. -1.
         11   -1    0    0    0    0 -0.00000000000E+00 -0.00000000000E+00 -0.45593999997E+02  0.45594000000E+02  0.51100000000E-03 0.  1.
    9900012    2    1    2    0    0  0.39909856509E+00 -0.72915963763E+00 -0.83799764125E+00  0.90007663824E+02  0.89999924186E+02 0.  0.
         12    1    1    2    0    0 -0.39909856509E+00  0.72915963763E+00  0.83799764125E+00  0.11803361761E+01  0.00000000000E+00 0. -1.
         11    1    3    3    0    0  0.34057621906E+02 -0.42830480094E+01  0.18477706802E+02  0.38983224072E+02  0.51100000000E-03 0. -1.
        -11    1    3    3    0    0 -0.33541389165E+01 -0.11693827861E+02 -0.37554726922E+00  0.12171150066E+02  0.51100000000E-03 0.  1.
        -12    1    3    3    0    0 -0.30304384425E+02  0.15247716232E+02 -0.18940157174E+02  0.38853289686E+02  0.00000000000E+00 0.  1.
</event>
<event>
 7    1  0.3568207E-015  0.9000775E+02  0.7816164E-02  0.1186339E+00
        -11   -1    0    0    0    0  0.00000000000E+00  0.00000000000E+00  0.45593999997E+02  0.45594000000E+02  0.51100000000E-03 0.  1.
         11   -1    0    0    0    0 -0.00000000000E+00 -0.00000000000E+00 -0.45593999997E+02  0.45594000000E+02  0.51100000000E-03 0. -1.
    9900012    2    1    2    0    0  0.82579975061E+00  0.33699824424E+00  0.77296878278E+00  0.90007748423E+02  0.90000009903E+02 0.  0.
         12    1    1    2    0    0 -0.82579975061E+00 -0.33699824424E+00 -0.77296878278E+00  0.11802515765E+01  0.00000000000E+00 0. -1.
         11    1    3    3    0    0 -0.19115982457E+02  0.23575095974E+02 -0.27833820764E+02  0.41181640498E+02  0.51100000000E-03 0. -1.
        -11    1    3    3    0    0  0.71137447171E+00 -0.84419077223E+01 -0.29933650657E+01  0.89851040233E+01  0.51100000000E-03 0.  1.
        -12    1    3    3    0    0  0.19230407735E+02 -0.14796190008E+02  0.31600154613E+02  0.39841003903E+02  0.00000000000E+00 0.  1.
</event>
<event>
 7    1  0.3568207E-015  0.9000767E+02  0.7816164E-02  0.1186339E+00
        -11   -1    0    0    0    0  0.00000000000E+00  0.00000000000E+00  0.45593999997E+02  0.45594000000E+02  0.51100000000E-03 0. -1.
         11   -1    0    0    0    0 -0.00000000000E+00 -0.00000000000E+00 -0.45593999997E+02  0.45594000000E+02  0.51100000000E-03 0.  1.
    9900012    2    1    2    0    0 -0.10160813963E+01  0.26633925769E-01  0.60003522414E+00  0.90007672486E+02  0.89999932963E+02 0.  0.
         12    1    1    2    0    0  0.10160813963E+01 -0.26633925769E-01 -0.60003522414E+00  0.11803275139E+01  0.00000000000E+00 0. -1.
         11    1    3    3    0    0 -0.15341698828E+01 -0.95154054839E+01  0.64169018312E+00  0.96596265614E+01  0.51100000000E-03 0. -1.
        -11    1    3    3    0    0  0.87562577104E+00  0.55720297976E+01 -0.39897067403E+02  0.40293798830E+02  0.51100000000E-03 0.  1.
         12    1    3    3    0    0 -0.35753728453E+00  0.39700096120E+01  0.39855412444E+02  0.40054247094E+02  0.00000000000E+00 0. -1.
</event>
<event>
 7    1  0.3568207E-015  0.9000795E+02  0.7816164E-02  0.1186339E+00
        -11   -1    0    0    0    0  0.00000000000E+00  0.00000000000E+00  0.45593999997E+02  0.45594000000E+02  0.51100000000E-03 0.  1.
         11   -1    0    0    0    0 -0.00000000000E+00 -0.00000000000E+00 -0.45593999997E+02  0.45594000000E+02  0.51100000000E-03 0. -1.
    9900012    2    1    2    0    0 -0.28396322256E+00  0.11189999182E+01 -0.24439774425E+00  0.90007946532E+02  0.90000210626E+02 0.  0.
         12    1    1    2    0    0  0.28396322256E+00 -0.11189999182E+01  0.24439774425E+00  0.11800534675E+01  0.00000000000E+00 0. -1.
         11    1    3    3    0    0 -0.10252601423E+02 -0.84077847613E+01 -0.21863816019E+01  0.13438264222E+02  0.51100000000E-03 0. -1.
        -11    1    3    3    0    0 -0.13679182622E+02 -0.28448545214E+02  0.38023819376E+01  0.31794620153E+02  0.51100000000E-03 0.  1.
         12    1    3    3    0    0  0.23647820822E+02  0.37975329894E+02 -0.18603980800E+01  0.44775062157E+02  0.00000000000E+00 0. -1.
</event>
<event>
 7    1  0.3568207E-015  0.9000730E+02  0.7816164E-02  0.1186340E+00
        -11   -1    0    0    0    0  0.00000000000E+00  0.00000000000E+00  0.45593999997E+02  0.45594000000E+02  0.51100000000E-03 0. -1.
         11   -1    0    0    0    0 -0.00000000000E+00 -0.00000000000E+00 -0.45593999997E+02  0.45594000000E+02  0.51100000000E-03 0.  1.
    9900012    2    1    2    0    0  0.82296581661E+00 -0.82435223367E+00 -0.19295340137E+00  0.90007296669E+02  0.89999552184E+02 0.  0.
         12    1    1    2    0    0 -0.82296581661E+00  0.82435223367E+00  0.19295340137E+00  0.11807033309E+01  0.00000000000E+00 0. -1.
         11    1    3    3    0    0 -0.86621317853E+00 -0.44172383174E+01  0.14011010057E+02  0.14716342029E+02  0.51100000000E-03 0. -1.
        -11    1    3    3    0    0 -0.15809807468E+02 -0.29072127833E+02  0.51388454945E+01  0.33489496297E+02  0.51100000000E-03 0.  1.
         12    1    3    3    0    0  0.17498986464E+02  0.32665013917E+02 -0.19342808953E+02  0.41801458344E+02  0.00000000000E+00 0. -1.
</event>
<event>
 7    1  0.3568207E-015  0.9000775E+02  0.7816164E-02  0.1186339E+00
        -11   -1    0    0    0    0  0.00000000000E+00  0.00000000000E+00  0.45593999997E+02  0.45594000000E+02  0.51100000000E-03 0.  1.
         11   -1    0    0    0    0 -0.00000000000E+00 -0.00000000000E+00 -0.45593999997E+02  0.45594000000E+02  0.51100000000E-03 0. -1.
    9900012    2    1    2    0    0  0.22904640003E+00  0.53328042462E+00  0.10276854864E+01  0.90007750991E+02  0.90000012504E+02 0.  0.
         12    1    1    2    0    0 -0.22904640003E+00 -0.53328042462E+00 -0.10276854864E+01  0.11802490091E+01  0.00000000000E+00 0. -1.
         11    1    3    3    0    0  0.26048272543E+02  0.20086114590E+02 -0.11703197465E+02  0.34913168475E+02  0.51100000000E-03 0. -1.
        -11    1    3    3    0    0  0.11020334069E+02  0.11334107853E+01  0.41594953124E+00  0.11086270666E+02  0.51100000000E-03 0.  1.
        -12    1    3    3    0    0 -0.36839560212E+02 -0.20686244951E+02  0.12314933420E+02  0.44008311850E+02  0.00000000000E+00 0.  1.
</event>
<event>
 7    1  0.3568207E-015  0.9000793E+02  0.7816164E-02  0.1186339E+00
        -11   -1    0    0    0    0  0.00000000000E+00  0.00000000000E+00  0.45593999997E+02  0.45594000000E+02  0.51100000000E-03 0. -1.
         11   -1    0    0    0    0 -0.00000000000E+00 -0.00000000000E+00 -0.45593999997E+02  0.45594000000E+02  0.51100000000E-03 0.  1.
    9900012    2    1    2    0    0 -0.95835958872E+00  0.19893677729E+00 -0.65919988128E+00  0.90007926517E+02  0.90000190346E+02 0.  0.
         12    1    1    2    0    0  0.95835958872E+00 -0.19893677729E+00  0.65919988128E+00  0.11800734834E+01  0.00000000000E+00 0. -1.
         11    1    3    3    0    0 -0.31649690908E+02  0.25328389178E+02 -0.13511579679E+02  0.42729299299E+02  0.51100000000E-03 0. -1.
        -11    1    3    3    0    0  0.15112273831E-01 -0.24776489346E+01  0.85521229409E+01  0.89038070331E+01  0.51100000000E-03 0.  1.
        -12    1    3    3    0    0  0.30676219045E+02 -0.22651803466E+02  0.43002568566E+01  0.38374820185E+02  0.00000000000E+00 0.  1.
</event>
<event>
 7    1  0.3568207E-015  0.9000789E+02  0.7816164E-02  0.1186339E+00
        -11   -1    0    0    0    0  0.00000000000E+00  0.00000000000E+00  0.45593999997E+02  0.45594000000E+02  0.51100000000E-03 0.  1.
         11   -1    0    0    0    0 -0.00000000000E+00 -0.00000000000E+00 -0.45593999997E+02  0.45594000000E+02  0.51100000000E-03 0. -1.
    9900012    2    1    2    0    0 -0.74657768571E+00 -0.16580695309E+00  0.89877627251E+00  0.90007886033E+02  0.90000149329E+02 0.  0.
         12    1    1    2    0    0  0.74657768571E+00  0.16580695309E+00 -0.89877627251E+00  0.11801139668E+01  0.00000000000E+00 0. -1.
         11    1    3    3    0    0 -0.15136811555E+02 -0.17553600444E+02 -0.34295682302E+02  0.41393789117E+02  0.51100000000E-03 0. -1.
        -11    1    3    3    0    0 -0.12176176690E+01 -0.54846757090E+01  0.82230874452E+01  0.99590876999E+01  0.51100000000E-03 0.  1.
        -12    1    3    3    0    0  0.15607851538E+02  0.22872469200E+02  0.26971371129E+02  0.38655009217E+02  0.00000000000E+00 0.  1.
</event>
<event>
 7    1  0.3568207E-015  0.9000799E+02  0.7816164E-02  0.1186339E+00
        -11   -1    0    0    0    0  0.00000000000E+00  0.00000000000E+00  0.45593999997E+02  0.45594000000E+02  0.51100000000E-03 0.  1.
         11   -1    0    0    0    0 -0.00000000000E+00 -0.00000000000E+00 -0.45593999997E+02  0.45594000000E+02  0.51100000000E-03 0. -1.
    9900012    2    1    2    0    0  0.24672951819E+00 -0.10799632894E+01  0.40649029830E+00  0.90007987066E+02  0.90000251695E+02 0.  0.
         12    1    1    2    0    0 -0.24672951819E+00  0.10799632894E+01 -0.40649029830E+00  0.11800129339E+01  0.00000000000E+00 0. -1.
         11    1    3    3    0    0  0.73322376328E+01  0.21591564505E+01 -0.34581584915E+02  0.35416234706E+02  0.51100000000E-03 0. -1.
        -11    1    3    3    0    0 -0.13902693172E+01  0.64217138550E+01 -0.78921756019E+01  0.10269259642E+02  0.51100000000E-03 0.  1.
        -12    1    3    3    0    0 -0.56952387973E+01 -0.96608335949E+01  0.42880250815E+02  0.44322492717E+02  0.00000000000E+00 0.  1.
</event>
<event>
 7    1  0.3568207E-015  0.9000747E+02  0.7816164E-02  0.1186340E+00
        -11   -1    0    0    0    0  0.00000000000E+00  0.00000000000E+00  0.45593999997E+02  0.45594000000E+02  0.51100000000E-03 0. -1.
         11   -1    0    0    0    0 -0.00000000000E+00 -0.00000000000E+00 -0.45593999997E+02  0.45594000000E+02  0.51100000000E-03 0.  1.
    9900012    2    1    2    0    0  0.11802240996E+01 -0.33544392789E-02  0.26475974267E-01  0.90007474204E+02  0.89999732063E+02 0.  0.
         12    1    1    2    0    0 -0.11802240996E+01  0.33544392789E-02 -0.26475974267E-01  0.11805257958E+01  0.00000000000E+00 0. -1.
         11    1    3    3    0    0  0.15121779491E+02 -0.33814720501E+02  0.39294051756E+01  0.37249748494E+02  0.51100000000E-03 0. -1.
        -11    1    3    3    0    0 -0.61539978102E+01 -0.70297275496E+01  0.44524593646E+01  0.10349548450E+02  0.51100000000E-03 0.  1.
        -12    1    3    3    0    0 -0.77875575817E+01  0.40841093611E+02 -0.83553885659E+01  0.42408177260E+02  0.00000000000E+00 0.  1.
</event>
<event>
 7    1  0.3568207E-015  0.9000770E+02  0.7816164E-02  0.1186339E+00
        -11   -1    0    0    0    0  0.00000000000E+00  0.00000000000E+00  0.45593999997E+02  0.45594000000E+02  0.51100000000E-03 0.  1.
         11   -1    0    0    0    0 -0.00000000000E+00 -0.00000000000E+00 -0.45593999997E+02  0.45594000000E+02  0.51100000000E-03 0. -1.
    9900012    2    1    2    0    0 -0.13108986633E+00 -0.87423335766E+00  0.78207846340E+00  0.90007696971E+02  0.89999957771E+02 0.  0.
         12    1    1    2    0    0  0.13108986633E+00  0.87423335766E+00 -0.78207846340E+00  0.11803030287E+01  0.00000000000E+00 0. -1.
         11    1    3    3    0    0  0.12340608817E+01  0.10437553017E+02  0.94013153457E+00  0.10552216203E+02  0.51100000000E-03 0. -1.
        -11    1    3    3    0    0 -0.37813049845E+02 -0.12752472591E+02  0.10850021149E+02  0.41354265257E+02  0.51100000000E-03 0.  1.
         12    1    3    3    0    0  0.36447899097E+02  0.14406862163E+01 -0.11008074220E+02  0.38101215511E+02  0.00000000000E+00 0. -1.
</event>
<event>
 7    1  0.3568207E-015  0.9000761E+02  0.7816164E-02  0.1186339E+00
        -11   -1    0    0    0    0  0.00000000000E+00  0.00000000000E+00  0.45593999997E+02  0.45594000000E+02  0.51100000000E-03 0.  1.
         11   -1    0    0    0    0 -0.00000000000E+00 -0.00000000000E+00 -0.45593999997E+02  0.45594000000E+02  0.51100000000E-03 0. -1.
    9900012    2    1    2    0    0 -0.54424329798E+00  0.79442109038E+00  0.68264788257E+00  0.90007612874E+02  0.89999872564E+02 0.  0.
         12    1    1    2    0    0  0.54424329798E+00 -0.79442109038E+00 -0.68264788257E+00  0.11803871262E+01  0.00000000000E+00 0. -1.
         11    1    3    3    0    0  0.25867629780E+01 -0.25003058723E+02 -0.23241768184E+02  0.34234837180E+02  0.51100000000E-03 0. -1.
        -11    1    3    3    0    0  0.74721914004E+00 -0.11168281862E+02 -0.65447293674E+00  0.11212367782E+02  0.51100000000E-03 0.  1.
        -12    1    3    3    0    0 -0.38782254161E+01  0.36965761675E+02  0.24578889003E+02  0.44560407911E+02  0.00000000000E+00 0.  1.
</event>
<event>
 7    1  0.5898720E-015  0.9000773E+02  0.7816164E-02  0.1186339E+00
        -11   -1    0    0    0    0  0.00000000000E+00  0.00000000000E+00  0.45593999997E+02  0.45594000000E+02  0.51100000000E-03 0.  1.
         11   -1    0    0    0    0 -0.00000000000E+00 -0.00000000000E+00 -0.45593999997E+02  0.45594000000E+02  0.51100000000E-03 0. -1.
    9900012    2    1    2    0    0  0.11955703254E+00 -0.82731266929E+00  0.83324941115E+00  0.90007726846E+02  0.89999988040E+02 0.  0.
         12    1    1    2    0    0 -0.11955703254E+00  0.82731266929E+00 -0.83324941115E+00  0.11802731540E+01  0.00000000000E+00 0. -1.
         11    1    3    3    0    0 -0.88863511245E+01 -0.37582134713E+01  0.17989675407E+01  0.98146670487E+01  0.51100000000E-03 0. -1.
        -11    1    3    3    0    0 -0.11984967694E+02 -0.27945182268E+02  0.20926898817E+02  0.36912162724E+02  0.51100000000E-03 0.  1.
         12    1    3    3    0    0  0.20990875851E+02  0.30876083070E+02 -0.21892616946E+02  0.43280897073E+02  0.00000000000E+00 0. -1.
</event>
<event>
 7    1  0.3568207E-015  0.9000773E+02  0.7816164E-02  0.1186339E+00
        -11   -1    0    0    0    0  0.00000000000E+00  0.00000000000E+00  0.45593999997E+02  0.45594000000E+02  0.51100000000E-03 0.  1.
         11   -1    0    0    0    0 -0.00000000000E+00 -0.00000000000E+00 -0.45593999997E+02  0.45594000000E+02  0.51100000000E-03 0. -1.
    9900012    2    1    2    0    0 -0.21724256742E+00 -0.10910452620E+01  0.39430101179E+00  0.90007725716E+02  0.89999986896E+02 0.  0.
         12    1    1    2    0    0  0.21724256742E+00  0.10910452620E+01 -0.39430101179E+00  0.11802742836E+01  0.00000000000E+00 0. -1.
         11    1    3    3    0    0  0.26937871624E+02 -0.30092058689E+02  0.31186938201E+01  0.40508112461E+02  0.51100000000E-03 0. -1.
        -11    1    3    3    0    0 -0.67651975503E+01 -0.54334316394E+01  0.27638615772E+01  0.91065365729E+01  0.51100000000E-03 0.  1.
        -12    1    3    3    0    0 -0.20389916641E+02  0.34434445067E+02 -0.54882543856E+01  0.40393076682E+02  0.00000000000E+00 0.  1.
</event>
<event>
 7    1  0.3568207E-015  0.9000816E+02  0.7816164E-02  0.1186338E+00
        -11   -1    0    0    0    0  0.00000000000E+00  0.00000000000E+00  0.45593999997E+02  0.45594000000E+02  0.51100000000E-03 0.  1.
         11   -1    0    0    0    0 -0.00000000000E+00 -0.00000000000E+00 -0.45593999997E+02  0.45594000000E+02  0.51100000000E-03 0. -1.
    9900012    2    1    2    0    0 -0.49790963574E+00 -0.56771782330E+00  0.90653194830E+00  0.90008162000E+02  0.90000428938E+02 0.  0.
         12    1    1    2    0    0  0.49790963574E+00  0.56771782330E+00 -0.90653194830E+00  0.11798379997E+01  0.00000000000E+00 0. -1.
         11    1    3    3    0    0  0.30893840337E+02 -0.11199720616E+02 -0.13837881446E+02  0.35655996352E+02  0.51100000000E-03 0. -1.
        -11    1    3    3    0    0 -0.31029962897E+01 -0.99455385603E+01 -0.75536150748E+01  0.12868543981E+02  0.51100000000E-03 0.  1.
        -12    1    3    3    0    0 -0.28288753683E+02  0.20577541353E+02  0.22298028469E+02  0.41483621668E+02  0.00000000000E+00 0.  1.
</event>
<event>
 7    1  0.3568207E-015  0.9000766E+02  0.7816164E-02  0.1186339E+00
        -11   -1    0    0    0    0  0.00000000000E+00  0.00000000000E+00  0.45593999997E+02  0.45594000000E+02  0.51100000000E-03 0. -1.
         11   -1    0    0    0    0 -0.00000000000E+00 -0.00000000000E+00 -0.45593999997E+02  0.45594000000E+02  0.51100000000E-03 0.  1.
    9900012    2    1    2    0    0  0.32507425817E+00 -0.11332942488E+01  0.56297175587E-01  0.90007661701E+02  0.89999922036E+02 0.  0.
         12    1    1    2    0    0 -0.32507425817E+00  0.11332942488E+01 -0.56297175587E-01  0.11803382988E+01  0.00000000000E+00 0. -1.
         11    1    3    3    0    0  0.33033343870E+02 -0.10469205650E+02  0.18897726591E+02  0.39470623820E+02  0.51100000000E-03 0. -1.
        -11    1    3    3    0    0 -0.87585000079E+00 -0.93165317556E+01 -0.59370638906E+00  0.93764260096E+01  0.51100000000E-03 0.  1.
        -12    1    3    3    0    0 -0.31832419611E+02  0.18652443156E+02 -0.18247723026E+02  0.41160611872E+02  0.00000000000E+00 0.  1.
</event>
<event>
 7    1  0.3568207E-015  0.9000772E+02  0.7816164E-02  0.1186339E+00
        -11   -1    0    0    0    0  0.00000000000E+00  0.00000000000E+00  0.45593999997E+02  0.45594000000E+02  0.51100000000E-03 0.  1.
         11   -1    0    0    0    0 -0.00000000000E+00 -0.00000000000E+00 -0.45593999997E+02  0.45594000000E+02  0.51100000000E-03 0. -1.
    9900012    2    1    2    0    0  0.68128387011E+00 -0.95310486378E+00  0.14321897615E+00  0.90007716869E+02  0.89999977932E+02 0.  0.
         12    1    1    2    0    0 -0.68128387011E+00  0.95310486378E+00 -0.14321897615E+00  0.11802831305E+01  0.00000000000E+00 0. -1.
         11    1    3    3    0    0  0.97216751047E+01  0.22777698730E+02 -0.22591731909E+02  0.33521946203E+02  0.51100000000E-03 0. -1.
        -11    1    3    3    0    0  0.86252610170E+01  0.80516787811E+01 -0.27081270657E+01  0.12106139404E+02  0.51100000000E-03 0.  1.
        -12    1    3    3    0    0 -0.17665652252E+02 -0.31782482375E+02  0.25443077951E+02  0.44379631263E+02  0.00000000000E+00 0.  1.
</event>
<event>
 7    1  0.3568207E-015  0.9000772E+02  0.7816164E-02  0.1186339E+00
        -11   -1    0    0    0    0  0.00000000000E+00  0.00000000000E+00  0.45593999997E+02  0.45594000000E+02  0.51100000000E-03 0.  1.
         11   -1    0    0    0    0 -0.00000000000E+00 -0.00000000000E+00 -0.45593999997E+02  0.45594000000E+02  0.51100000000E-03 0. -1.
    9900012    2    1    2    0    0  0.22736528123E+00 -0.92027332047E+00  0.70318417345E+00  0.90007717857E+02  0.89999978933E+02 0.  0.
         12    1    1    2    0    0 -0.22736528123E+00  0.92027332047E+00 -0.70318417345E+00  0.11802821431E+01  0.00000000000E+00 0. -1.
         11    1    3    3    0    0 -0.16559444284E+02  0.49618712997E+01 -0.32679767612E+02  0.36970293118E+02  0.51100000000E-03 0. -1.
        -11    1    3    3    0    0 -0.43046476701E+01 -0.63715032263E+01 -0.50467480939E+01  0.91975927020E+01  0.51100000000E-03 0.  1.
        -12    1    3    3    0    0  0.21091457236E+02  0.48935860611E+00  0.38429699880E+02  0.43839832037E+02  0.00000000000E+00 0.  1.
</event>
<event>
 7    1  0.3568207E-015  0.9000771E+02  0.7816164E-02  0.1186339E+00
        -11   -1    0    0    0    0  0.00000000000E+00  0.00000000000E+00  0.45593999997E+02  0.45594000000E+02  0.51100000000E-03 0. -1.
         11   -1    0    0    0    0 -0.00000000000E+00 -0.00000000000E+00 -0.45593999997E+02  0.45594000000E+02  0.51100000000E-03 0.  1.
    9900012    2    1    2    0    0  0.74686378996E+00  0.91153837259E+00  0.66122524939E-01  0.90007711936E+02  0.89999972934E+02 0.  0.
         12    1    1    2    0    0 -0.74686378996E+00 -0.91153837259E+00 -0.66122524939E-01  0.11802880639E+01  0.00000000000E+00 0. -1.
         11    1    3    3    0    0 -0.77348603694E+00  0.48381369638E+01  0.73508524482E+01  0.88340750453E+01  0.51100000000E-03 0. -1.
        -11    1    3    3    0    0 -0.32460008397E+02 -0.16733255810E+02  0.13966512169E+02  0.39098816575E+02  0.51100000000E-03 0.  1.
         12    1    3    3    0    0  0.33980358224E+02  0.12806657219E+02 -0.21251242092E+02  0.42074820316E+02  0.00000000000E+00 0. -1.
</event>
<event>
 7    1  0.3568207E-015  0.9000775E+02  0.7816164E-02  0.1186339E+00
        -11   -1    0    0    0    0  0.00000000000E+00  0.00000000000E+00  0.45593999997E+02  0.45594000000E+02  0.51100000000E-03 0.  1.
         11   -1    0    0    0    0 -0.00000000000E+00 -0.00000000000E+00 -0.45593999997E+02  0.45594000000E+02  0.51100000000E-03 0. -1.
    9900012    2    1    2    0    0  0.93354504426E+00 -0.67694006733E+00  0.25148286498E+00  0.90007746707E+02  0.90000008163E+02 0.  0.
         12    1    1    2    0    0 -0.93354504426E+00  0.67694006733E+00 -0.25148286498E+00  0.11802532931E+01  0.00000000000E+00 0. -1.
         11    1    3    3    0    0  0.21685430069E+02  0.26950426412E+02 -0.16707120549E+02  0.38414987158E+02  0.51100000000E-03 0. -1.
        -11    1    3    3    0    0 -0.58865761381E+00  0.71128308025E+01 -0.16479453920E+01  0.73249303128E+01  0.51100000000E-03 0.  1.
        -12    1    3    3    0    0 -0.20163227411E+02 -0.34740197282E+02  0.18606548806E+02  0.44267829236E+02  0.00000000000E+00 0.  1.
</event>
<event>
 7    1  0.3568207E-015  0.9000776E+02  0.7816164E-02  0.1186339E+00
        -11   -1    0    0    0    0  0.00000000000E+00  0.00000000000E+00  0.45593999997E+02  0.45594000000E+02  0.51100000000E-03 0. -1.
         11   -1    0    0    0    0 -0.00000000000E+00 -0.00000000000E+00 -0.45593999997E+02  0.45594000000E+02  0.51100000000E-03 0.  1.
    9900012    2    1    2    0    0 -0.65135840974E+00 -0.90903297972E+00  0.37728876670E+00  0.90007764621E+02  0.90000026314E+02 0.  0.
         12    1    1    2    0    0  0.65135840974E+00  0.90903297972E+00 -0.37728876670E+00  0.11802353789E+01  0.00000000000E+00 0. -1.
         11    1    3    3    0    0 -0.15973685213E+02  0.32900996680E+02  0.18324210473E+02  0.40907345203E+02  0.51100000000E-03 0. -1.
        -11    1    3    3    0    0 -0.71001535073E+01 -0.49956478046E+01 -0.64734526083E+01  0.10829324344E+02  0.51100000000E-03 0.  1.
        -12    1    3    3    0    0  0.22422480311E+02 -0.28814381856E+02 -0.11473469098E+02  0.38271095074E+02  0.00000000000E+00 0.  1.
</event>
<event>
 7    1  0.3568207E-015  0.9000766E+02  0.7816164E-02  0.1186339E+00
        -11   -1    0    0    0    0  0.00000000000E+00  0.00000000000E+00  0.45593999997E+02  0.45594000000E+02  0.51100000000E-03 0. -1.
         11   -1    0    0    0    0 -0.00000000000E+00 -0.00000000000E+00 -0.45593999997E+02  0.45594000000E+02  0.51100000000E-03 0.  1.
    9900012    2    1    2    0    0  0.10428817340E+00  0.90671212319E+00 -0.74846253901E+00  0.90007661460E+02  0.89999921791E+02 0.  0.
         12    1    1    2    0    0 -0.10428817340E+00 -0.90671212319E+00  0.74846253901E+00  0.11803385403E+01  0.00000000000E+00 0. -1.
         11    1    3    3    0    0 -0.24104634118E+01  0.19698951652E+01  0.34795927332E+01  0.46688742403E+01  0.51100000000E-03 0. -1.
        -11    1    3    3    0    0 -0.17111403354E+02  0.26364784288E+02 -0.29568562416E+02  0.43153236946E+02  0.51100000000E-03 0.  1.
         12    1    3    3    0    0  0.19626154939E+02 -0.27427967330E+02  0.25340507144E+02  0.42185550273E+02  0.00000000000E+00 0. -1.
</event>
<event>
 7    1  0.3568207E-015  0.9000771E+02  0.7816164E-02  0.1186339E+00
        -11   -1    0    0    0    0  0.00000000000E+00  0.00000000000E+00  0.45593999997E+02  0.45594000000E+02  0.51100000000E-03 0.  1.
         11   -1    0    0    0    0 -0.00000000000E+00 -0.00000000000E+00 -0.45593999997E+02  0.45594000000E+02  0.51100000000E-03 0. -1.
    9900012    2    1    2    0    0 -0.49434813958E+00  0.88743809886E+00  0.60095598694E+00  0.90007714204E+02  0.89999975231E+02 0.  0.
         12    1    1    2    0    0  0.49434813958E+00 -0.88743809886E+00 -0.60095598694E+00  0.11802857962E+01  0.00000000000E+00 0. -1.
         11    1    3    3    0    0  0.10971254696E+02  0.17822534213E-01 -0.11792871291E+02  0.16107158682E+02  0.51100000000E-03 0. -1.
        -11    1    3    3    0    0  0.14002420851E+02 -0.17551375654E+02 -0.19046755023E+02  0.29443122359E+02  0.51100000000E-03 0.  1.
         12    1    3    3    0    0 -0.25468023687E+02  0.18420991219E+02  0.31440582301E+02  0.44457433163E+02  0.00000000000E+00 0. -1.
</event>
<event>
 7    1  0.3568207E-015  0.9000734E+02  0.7816164E-02  0.1186340E+00
        -11   -1    0    0    0    0  0.00000000000E+00  0.00000000000E+00  0.45593999997E+02  0.45594000000E+02  0.51100000000E-03 0. -1.
         11   -1    0    0    0    0 -0.00000000000E+00 -0.00000000000E+00 -0.45593999997E+02  0.45594000000E+02  0.51100000000E-03 0.  1.
    9900012    2    1    2    0    0 -0.23704514804E+00  0.10376724718E+01 -0.51089254433E+00  0.90007336732E+02  0.89999592776E+02 0.  0.
         12    1    1    2    0    0  0.23704514804E+00 -0.10376724718E+01  0.51089254433E+00  0.11806632682E+01  0.00000000000E+00 0. -1.
         11    1    3    3    0    0 -0.31655474372E+01 -0.96712573673E+01  0.35200649736E+01  0.10767765196E+02  0.51100000000E-03 0. -1.
        -11    1    3    3    0    0  0.69246681373E+01 -0.33746883471E+02 -0.33344255950E+00  0.34451623431E+02  0.51100000000E-03 0.  1.
         12    1    3    3    0    0 -0.39961658481E+01  0.44455813310E+02 -0.36975149585E+01  0.44787948105E+02  0.00000000000E+00 0. -1.
</event>
<event>
 7    1  0.3568207E-015  0.9000768E+02  0.7816164E-02  0.1186339E+00
        -11   -1    0    0    0    0  0.00000000000E+00  0.00000000000E+00  0.45593999997E+02  0.45594000000E+02  0.51100000000E-03 0. -1.
         11   -1    0    0    0    0 -0.00000000000E+00 -0.00000000000E+00 -0.45593999997E+02  0.45594000000E+02  0.51100000000E-03 0.  1.
    9900012    2    1    2    0    0 -0.49945024954E+00 -0.77525095566E+00 -0.73667416579E+00  0.90007680796E+02  0.89999941383E+02 0.  0.
         12    1    1    2    0    0  0.49945024954E+00  0.77525095566E+00  0.73667416579E+00  0.11803192037E+01  0.00000000000E+00 0. -1.
         11    1    3    3    0    0 -0.72618118492E+01  0.61764808914E+01 -0.23388627781E+01  0.98159618424E+01  0.51100000000E-03 0. -1.
        -11    1    3    3    0    0 -0.99709846117E+01  0.33743533170E+02 -0.55249075395E+01  0.35617006731E+02  0.51100000000E-03 0.  1.
         12    1    3    3    0    0  0.16733346211E+02 -0.40695265017E+02  0.71270961518E+01  0.44574712223E+02  0.00000000000E+00 0. -1.
</event>
<event>
 7    1  0.3568207E-015  0.9000776E+02  0.7816164E-02  0.1186339E+00
        -11   -1    0    0    0    0  0.00000000000E+00  0.00000000000E+00  0.45593999997E+02  0.45594000000E+02  0.51100000000E-03 0. -1.
         11   -1    0    0    0    0 -0.00000000000E+00 -0.00000000000E+00 -0.45593999997E+02  0.45594000000E+02  0.51100000000E-03 0.  1.
    9900012    2    1    2    0    0 -0.99948722932E+00 -0.56726617154E+00 -0.26870862022E+00  0.90007758519E+02  0.90000020131E+02 0.  0.
         12    1    1    2    0    0  0.99948722932E+00  0.56726617154E+00  0.26870862022E+00  0.11802414810E+01  0.00000000000E+00 0. -1.
         11    1    3    3    0    0 -0.29842585223E+01 -0.50593933449E+01  0.85737292917E+01  0.10392886710E+02  0.51100000000E-03 0. -1.
        -11    1    3    3    0    0 -0.13388039327E+02 -0.34447733195E+02 -0.69203537251E+00  0.36964372475E+02  0.51100000000E-03 0.  1.
         12    1    3    3    0    0  0.15372810620E+02  0.38939860368E+02 -0.81504025394E+01  0.42650499333E+02  0.00000000000E+00 0. -1.
</event>
<event>
 7    1  0.3568207E-015  0.9000771E+02  0.7816164E-02  0.1186339E+00
        -11   -1    0    0    0    0  0.00000000000E+00  0.00000000000E+00  0.45593999997E+02  0.45594000000E+02  0.51100000000E-03 0.  1.
         11   -1    0    0    0    0 -0.00000000000E+00 -0.00000000000E+00 -0.45593999997E+02  0.45594000000E+02  0.51100000000E-03 0. -1.
    9900012    2    1    2    0    0  0.44915763043E+00 -0.10905664747E+01 -0.44749100163E-01  0.90007711775E+02  0.89999972770E+02 0.  0.
         12    1    1    2    0    0 -0.44915763043E+00  0.10905664747E+01  0.44749100163E-01  0.11802882252E+01  0.00000000000E+00 0. -1.
         11    1    3    3    0    0  0.71885611965E+01 -0.96538882711E+00  0.73508320753E+01  0.10326767167E+02  0.51100000000E-03 0. -1.
        -11    1    3    3    0    0  0.66083722525E+01 -0.43617239883E+01  0.34557133217E+02  0.35452654011E+02  0.51100000000E-03 0.  1.
         12    1    3    3    0    0 -0.13347775819E+02  0.42365463407E+01 -0.41952714393E+02  0.44228290597E+02  0.00000000000E+00 0. -1.
</event>
<event>
 7    1  0.3568207E-015  0.9000838E+02  0.7816164E-02  0.1186338E+00
        -11   -1    0    0    0    0  0.00000000000E+00  0.00000000000E+00  0.45593999997E+02  0.45594000000E+02  0.51100000000E-03 0. -1.
         11   -1    0    0    0    0 -0.00000000000E+00 -0.00000000000E+00 -0.45593999997E+02  0.45594000000E+02  0.51100000000E-03 0.  1.
    9900012    2    1    2    0    0 -0.66067383862E+00 -0.32117990743E+00 -0.92295702381E+00  0.90008383061E+02  0.90000652915E+02 0.  0.
         12    1    1    2    0    0  0.66067383862E+00  0.32117990743E+00  0.92295702381E+00  0.11796169386E+01  0.00000000000E+00 0. -1.
         11    1    3    3    0    0 -0.52569445643E+01  0.37977798987E+01 -0.88949416888E+01  0.11008114562E+02  0.51100000000E-03 0. -1.
        -11    1    3    3    0    0  0.49973688458E+01  0.35061332063E+02 -0.86201355753E+01  0.36449656227E+02  0.51100000000E-03 0.  1.
         12    1    3    3    0    0 -0.40109812012E+00 -0.39180291870E+02  0.16592120240E+02  0.42550612272E+02  0.00000000000E+00 0. -1.
</event>
<event>
 7    1  0.3568207E-015  0.9000766E+02  0.7816164E-02  0.1186339E+00
        -11   -1    0    0    0    0  0.00000000000E+00  0.00000000000E+00  0.45593999997E+02  0.45594000000E+02  0.51100000000E-03 0.  1.
         11   -1    0    0    0    0 -0.00000000000E+00 -0.00000000000E+00 -0.45593999997E+02  0.45594000000E+02  0.51100000000E-03 0. -1.
    9900012    2    1    2    0    0  0.14281307090E+00  0.60427478873E+00  0.10038182089E+01  0.90007663357E+02  0.89999923714E+02 0.  0.
         12    1    1    2    0    0 -0.14281307090E+00 -0.60427478873E+00 -0.10038182089E+01  0.11803366427E+01  0.00000000000E+00 0. -1.
         11    1    3    3    0    0 -0.62866945238E+01  0.58728632218E+01  0.50036858768E+01  0.99523827837E+01  0.51100000000E-03 0. -1.
        -11    1    3    3    0    0 -0.35911794136E+02 -0.42473146300E+01  0.56909234739E+01  0.36607147525E+02  0.51100000000E-03 0.  1.
         12    1    3    3    0    0  0.42341301731E+02 -0.10212738030E+01 -0.96907911417E+01  0.43448133049E+02  0.00000000000E+00 0. -1.
</event>
<event>
 7    1  0.3568207E-015  0.9000780E+02  0.7816164E-02  0.1186339E+00
        -11   -1    0    0    0    0  0.00000000000E+00  0.00000000000E+00  0.45593999997E+02  0.45594000000E+02  0.51100000000E-03 0. -1.
         11   -1    0    0    0    0 -0.00000000000E+00 -0.00000000000E+00 -0.45593999997E+02  0.45594000000E+02  0.51100000000E-03 0.  1.
    9900012    2    1    2    0    0  0.45879861865E+00  0.28883005853E+00 -0.10483059281E+01  0.90007803282E+02  0.90000065485E+02 0.  0.
         12    1    1    2    0    0 -0.45879861865E+00 -0.28883005853E+00  0.10483059281E+01  0.11801967184E+01  0.00000000000E+00 0. -1.
         11    1    3    3    0    0  0.29701046570E+02 -0.12477168324E+02 -0.19981391083E+02  0.37908942040E+02  0.51100000000E-03 0. -1.
        -11    1    3    3    0    0  0.47166541190E+00  0.51900005637E+00 -0.92962636564E+01  0.93226792045E+01  0.51100000000E-03 0.  1.
        -12    1    3    3    0    0 -0.29713913363E+02  0.12246998326E+02  0.28229348811E+02  0.42776182037E+02  0.00000000000E+00 0.  1.
</event>
<event>
 7    1  0.3568207E-015  0.9000763E+02  0.7816164E-02  0.1186339E+00
        -11   -1    0    0    0    0  0.00000000000E+00  0.00000000000E+00  0.45593999997E+02  0.45594000000E+02  0.51100000000E-03 0.  1.
         11   -1    0    0    0    0 -0.00000000000E+00 -0.00000000000E+00 -0.45593999997E+02  0.45594000000E+02  0.51100000000E-03 0. -1.
    9900012    2    1    2    0    0  0.65443750728E+00  0.71936581236E+00 -0.66895300554E+00  0.90007629826E+02  0.89999889740E+02 0.  0.
         12    1    1    2    0    0 -0.65443750728E+00 -0.71936581236E+00  0.66895300554E+00  0.11803701735E+01  0.00000000000E+00 0. -1.
         11    1    3    3    0    0 -0.82529201268E+01  0.59533495872E+01  0.38814510893E+01  0.10891222372E+02  0.51100000000E-03 0. -1.
        -11    1    3    3    0    0 -0.14309414294E+02  0.21607190430E+02  0.22637180365E+02  0.34410346566E+02  0.51100000000E-03 0.  1.
         12    1    3    3    0    0  0.23216771928E+02 -0.26841174205E+02 -0.27187584459E+02  0.44706060889E+02  0.00000000000E+00 0. -1.
</event>
<event>
 7    1  0.3568207E-015  0.9000773E+02  0.7816164E-02  0.1186339E+00
        -11   -1    0    0    0    0  0.00000000000E+00  0.00000000000E+00  0.45593999997E+02  0.45594000000E+02  0.51100000000E-03 0. -1.
         11   -1    0    0    0    0 -0.00000000000E+00 -0.00000000000E+00 -0.45593999997E+02  0.45594000000E+02  0.51100000000E-03 0.  1.
    9900012    2    1    2    0    0 -0.41615404355E+00  0.10314881334E+01 -0.39482788241E+00  0.90007728415E+02  0.89999989630E+02 0.  0.
         12    1    1    2    0    0  0.41615404355E+00 -0.10314881334E+01  0.39482788241E+00  0.11802715849E+01  0.00000000000E+00 0. -1.
         11    1    3    3    0    0  0.48839245358E+01 -0.50961227682E+00 -0.47452159619E+01  0.68285795251E+01  0.51100000000E-03 0. -1.
        -11    1    3    3    0    0  0.17628344445E+02 -0.30153291816E+02 -0.16745612003E+02  0.38734933288E+02  0.51100000000E-03 0.  1.
         12    1    3    3    0    0 -0.22928423024E+02  0.31694392226E+02  0.21096000083E+02  0.44444215602E+02  0.00000000000E+00 0. -1.
</event>
<event>
 7    1  0.3568207E-015  0.9000777E+02  0.7816164E-02  0.1186339E+00
        -11   -1    0    0    0    0  0.00000000000E+00  0.00000000000E+00  0.45593999997E+02  0.45594000000E+02  0.51100000000E-03 0. -1.
         11   -1    0    0    0    0 -0.00000000000E+00 -0.00000000000E+00 -0.45593999997E+02  0.45594000000E+02  0.51100000000E-03 0.  1.
    9900012    2    1    2    0    0 -0.79008898544E+00 -0.33333220784E+00  0.81092576482E+00  0.90007766311E+02  0.90000028026E+02 0.  0.
         12    1    1    2    0    0  0.79008898544E+00  0.33333220784E+00 -0.81092576482E+00  0.11802336895E+01  0.00000000000E+00 0. -1.
         11    1    3    3    0    0 -0.11778590886E+02 -0.28566269689E+01 -0.36821509867E+01  0.12667034264E+02  0.51100000000E-03 0. -1.
        -11    1    3    3    0    0 -0.58600541150E+01 -0.29812272981E+02  0.21387028433E+02  0.37155307022E+02  0.51100000000E-03 0.  1.
         12    1    3    3    0    0  0.16848556015E+02  0.32335567742E+02 -0.16893951681E+02  0.40185425024E+02  0.00000000000E+00 0. -1.
</event>
<event>
 7    1  0.3568207E-015  0.9000771E+02  0.7816164E-02  0.1186339E+00
        -11   -1    0    0    0    0  0.00000000000E+00  0.00000000000E+00  0.45593999997E+02  0.45594000000E+02  0.51100000000E-03 0. -1.
         11   -1    0    0    0    0 -0.00000000000E+00 -0.00000000000E+00 -0.45593999997E+02  0.45594000000E+02  0.51100000000E-03 0.  1.
    9900012    2    1    2    0    0  0.89944897399E+00  0.25435008717E-01 -0.76382002377E+00  0.90007713414E+02  0.89999974431E+02 0.  0.
         12    1    1    2    0    0 -0.89944897399E+00 -0.25435008717E-01  0.76382002377E+00  0.11802865860E+01  0.00000000000E+00 0. -1.
         11    1    3    3    0    0  0.53334750477E+01  0.29460853857E+02  0.20492549800E+02  0.36281296333E+02  0.51100000000E-03 0. -1.
        -11    1    3    3    0    0  0.34960761960E+01  0.88316175237E+01 -0.58595394150E+00  0.95164782948E+01  0.51100000000E-03 0.  1.
        -12    1    3    3    0    0 -0.79301022698E+01 -0.38267036372E+02 -0.20670415883E+02  0.44209938786E+02  0.00000000000E+00 0.  1.
</event>
<event>
 7    1  0.3568207E-015  0.9000767E+02  0.7816164E-02  0.1186339E+00
        -11   -1    0    0    0    0  0.00000000000E+00  0.00000000000E+00  0.45593999997E+02  0.45594000000E+02  0.51100000000E-03 0.  1.
         11   -1    0    0    0    0 -0.00000000000E+00 -0.00000000000E+00 -0.45593999997E+02  0.45594000000E+02  0.51100000000E-03 0. -1.
    9900012    2    1    2    0    0 -0.70841918208E-01  0.16504955610E+00  0.11665885507E+01  0.90007665819E+02  0.89999926207E+02 0.  0.
         12    1    1    2    0    0  0.70841918208E-01 -0.16504955610E+00 -0.11665885507E+01  0.11803341814E+01  0.00000000000E+00 0. -1.
         11    1    3    3    0    0  0.35065142736E+02  0.72937499706E+01 -0.18308616617E+02  0.40223978749E+02  0.51100000000E-03 0. -1.
        -11    1    3    3    0    0  0.30086671432E+01  0.12112717303E+01  0.86903860778E+01  0.92758863526E+01  0.51100000000E-03 0.  1.
        -12    1    3    3    0    0 -0.38144651797E+02 -0.83399721448E+01  0.10784819090E+02  0.40507800717E+02  0.00000000000E+00 0.  1.
</event>
<event>
 7    1  0.3568207E-015  0.9000777E+02  0.7816164E-02  0.1186339E+00
        -11   -1    0    0    0    0  0.00000000000E+00  0.00000000000E+00  0.45593999997E+02  0.45594000000E+02  0.51100000000E-03 0. -1.
         11   -1    0    0    0    0 -0.00000000000E+00 -0.00000000000E+00 -0.45593999997E+02  0.45594000000E+02  0.51100000000E-03 0.  1.
    9900012    2    1    2    0    0 -0.88746032244E+00 -0.71995886434E+00 -0.29498622215E+00  0.90007769742E+02  0.90000031503E+02 0.  0.
         12    1    1    2    0    0  0.88746032244E+00  0.71995886434E+00  0.29498622215E+00  0.11802302578E+01  0.00000000000E+00 0. -1.
         11    1    3    3    0    0 -0.22210893243E+02 -0.22871338408E+02  0.18795361116E+02  0.37009289360E+02  0.51100000000E-03 0. -1.
        -11    1    3    3    0    0 -0.93653600982E+01 -0.75231155113E+00  0.15093189173E+01  0.95159858288E+01  0.51100000000E-03 0.  1.
        -12    1    3    3    0    0  0.30688793019E+02  0.22903691094E+02 -0.20599666256E+02  0.43482494553E+02  0.00000000000E+00 0.  1.
</event>
<event>
 7    1  0.3568207E-015  0.9000781E+02  0.7816164E-02  0.1186339E+00
        -11   -1    0    0    0    0  0.00000000000E+00  0.00000000000E+00  0.45593999997E+02  0.45594000000E+02  0.51100000000E-03 0. -1.
         11   -1    0    0    0    0 -0.00000000000E+00 -0.00000000000E+00 -0.45593999997E+02  0.45594000000E+02  0.51100000000E-03 0.  1.
    9900012    2    1    2    0    0  0.60661125442E-01 -0.75911553559E+00 -0.90161862162E+00  0.90007808360E+02  0.90000070630E+02 0.  0.
         12    1    1    2    0    0 -0.60661125442E-01  0.75911553559E+00  0.90161862162E+00  0.11801916401E+01  0.00000000000E+00 0. -1.
         11    1    3    3    0    0  0.12441820676E+01  0.33650127257E+02  0.24677061937E+02  0.41747292601E+02  0.51100000000E-03 0. -1.
        -11    1    3    3    0    0 -0.71448088037E+01 -0.56588869845E+01  0.30386730749E+00  0.91194095394E+01  0.51100000000E-03 0.  1.
        -12    1    3    3    0    0  0.59612878616E+01 -0.28750355808E+02 -0.25882547866E+02  0.39141106219E+02  0.00000000000E+00 0.  1.
</event>
<event>
 7    1  0.3568207E-015  0.9000798E+02  0.7816164E-02  0.1186339E+00
        -11   -1    0    0    0    0  0.00000000000E+00  0.00000000000E+00  0.45593999997E+02  0.45594000000E+02  0.51100000000E-03 0. -1.
         11   -1    0    0    0    0 -0.00000000000E+00 -0.00000000000E+00 -0.45593999997E+02  0.45594000000E+02  0.51100000000E-03 0.  1.
    9900012    2    1    2    0    0 -0.52138639756E+00  0.74180996740E+00 -0.75520099277E+00  0.90007976974E+02  0.90000241469E+02 0.  0.
         12    1    1    2    0    0  0.52138639756E+00 -0.74180996740E+00  0.75520099277E+00  0.11800230264E+01  0.00000000000E+00 0. -1.
         11    1    3    3    0    0 -0.48313780901E+01 -0.78682811823E+01  0.29793720510E+01  0.97019957273E+01  0.51100000000E-03 0. -1.
        -11    1    3    3    0    0  0.40734636984E+02  0.52860467955E+01 -0.12029022706E+02  0.42801288864E+02  0.51100000000E-03 0.  1.
         12    1    3    3    0    0 -0.36424645291E+02  0.33240443542E+01  0.82944496620E+01  0.37504692382E+02  0.00000000000E+00 0. -1.
</event>
<event>
 7    1  0.3568207E-015  0.9000768E+02  0.7816164E-02  0.1186339E+00
        -11   -1    0    0    0    0  0.00000000000E+00  0.00000000000E+00  0.45593999997E+02  0.45594000000E+02  0.51100000000E-03 0. -1.
         11   -1    0    0    0    0 -0.00000000000E+00 -0.00000000000E+00 -0.45593999997E+02  0.45594000000E+02  0.51100000000E-03 0.  1.
    9900012    2    1    2    0    0  0.94825079985E-01  0.39678102892E+00 -0.11075735129E+01  0.90007683912E+02  0.89999944540E+02 0.  0.
         12    1    1    2    0    0 -0.94825079985E-01 -0.39678102892E+00  0.11075735129E+01  0.11803160878E+01  0.00000000000E+00 0. -1.
         11    1    3    3    0    0  0.64839191086E+01 -0.48334006147E+01 -0.39830327534E+01  0.90148498981E+01  0.51100000000E-03 0. -1.
        -11    1    3    3    0    0 -0.18781299328E+02 -0.34179835360E+02 -0.36412384190E+01  0.39169592380E+02  0.51100000000E-03 0.  1.
         12    1    3    3    0    0  0.12392205299E+02  0.39410017004E+02  0.65166976595E+01  0.41823241634E+02  0.00000000000E+00 0. -1.
</event>
<event>
 7    1  0.3568207E-015  0.9000789E+02  0.7816164E-02  0.1186339E+00
        -11   -1    0    0    0    0  0.00000000000E+00  0.00000000000E+00  0.45593999997E+02  0.45594000000E+02  0.51100000000E-03 0. -1.
         11   -1    0    0    0    0 -0.00000000000E+00 -0.00000000000E+00 -0.45593999997E+02  0.45594000000E+02  0.51100000000E-03 0.  1.
    9900012    2    1    2    0    0 -0.11753836211E+01 -0.92999473706E-01 -0.49931461752E-01  0.90007886145E+02  0.90000149442E+02 0.  0.
         12    1    1    2    0    0  0.11753836211E+01  0.92999473706E-01  0.49931461752E-01  0.11801138545E+01  0.00000000000E+00 0. -1.
         11    1    3    3    0    0  0.68329896596E+01  0.46512699910E+00  0.10759628371E+02  0.12754438198E+02  0.51100000000E-03 0. -1.
        -11    1    3    3    0    0  0.32758868592E+02 -0.78229680992E+01 -0.12197555682E+02  0.35820701643E+02  0.51100000000E-03 0.  1.
         12    1    3    3    0    0 -0.40767241873E+02  0.72648416264E+01  0.13879958487E+01  0.41432746304E+02  0.00000000000E+00 0. -1.
</event>
<event>
 7    1  0.3568207E-015  0.9000774E+02  0.7816164E-02  0.1186339E+00
        -11   -1    0    0    0    0  0.00000000000E+00  0.00000000000E+00  0.45593999997E+02  0.45594000000E+02  0.51100000000E-03 0.  1.
         11   -1    0    0    0    0 -0.00000000000E+00 -0.00000000000E+00 -0.45593999997E+02  0.45594000000E+02  0.51100000000E-03 0. -1.
    9900012    2    1    2    0    0 -0.72131438854E+00  0.23185086428E+00  0.90497256754E+00  0.90007735361E+02  0.89999996668E+02 0.  0.
         12    1    1    2    0    0  0.72131438854E+00 -0.23185086428E+00 -0.90497256754E+00  0.11802646391E+01  0.00000000000E+00 0. -1.
         11    1    3    3    0    0  0.94676807753E+01 -0.30141116428E+01  0.63984720947E+01  0.11817880253E+02  0.51100000000E-03 0. -1.
        -11    1    3    3    0    0  0.84809381214E+01  0.26243071511E+02  0.23874478929E+02  0.36477607626E+02  0.51100000000E-03 0.  1.
         12    1    3    3    0    0 -0.18669933285E+02 -0.22997109004E+02 -0.29367978456E+02  0.41712247482E+02  0.00000000000E+00 0. -1.
</event>
<event>
 7    1  0.3568207E-015  0.9000788E+02  0.7816164E-02  0.1186339E+00
        -11   -1    0    0    0    0  0.00000000000E+00  0.00000000000E+00  0.45593999997E+02  0.45594000000E+02  0.51100000000E-03 0.  1.
         11   -1    0    0    0    0 -0.00000000000E+00 -0.00000000000E+00 -0.45593999997E+02  0.45594000000E+02  0.51100000000E-03 0. -1.
    9900012    2    1    2    0    0 -0.89864416459E+00  0.35275808462E+00  0.67873379492E+00  0.90007881716E+02  0.90000144954E+02 0.  0.
         12    1    1    2    0    0  0.89864416459E+00 -0.35275808462E+00 -0.67873379492E+00  0.11801182844E+01  0.00000000000E+00 0. -1.
         11    1    3    3    0    0  0.28829122702E+02 -0.96550222784E+01 -0.31185167141E+02  0.43552869261E+02  0.51100000000E-03 0. -1.
        -11    1    3    3    0    0 -0.65385231437E+01 -0.30242704509E+01  0.68813280622E+01  0.99624882847E+01  0.51100000000E-03 0.  1.
        -12    1    3    3    0    0 -0.23189243723E+02  0.13032050814E+02  0.24982572874E+02  0.36492524170E+02  0.00000000000E+00 0.  1.
</event>
<event>
 7    1  0.3568207E-015  0.9000771E+02  0.7816164E-02  0.1186339E+00
        -11   -1    0    0    0    0  0.00000000000E+00  0.00000000000E+00  0.45593999997E+02  0.45594000000E+02  0.51100000000E-03 0.  1.
         11   -1    0    0    0    0 -0.00000000000E+00 -0.00000000000E+00 -0.45593999997E+02  0.45594000000E+02  0.51100000000E-03 0. -1.
    9900012    2    1    2    0    0  0.98409374732E+00  0.62589957045E+00 -0.18136745543E+00  0.90007709811E+02  0.89999970781E+02 0.  0.
         12    1    1    2    0    0 -0.98409374732E+00 -0.62589957045E+00  0.18136745543E+00  0.11802901888E+01  0.00000000000E+00 0. -1.
         11    1    3    3    0    0  0.96655655144E+01 -0.18496492246E+01 -0.37541919839E+01  0.10532725985E+02  0.51100000000E-03 0. -1.
        -11    1    3    3    0    0  0.25294635124E+02  0.14988470419E+02  0.23955095865E+02  0.37925181999E+02  0.51100000000E-03 0.  1.
         12    1    3    3    0    0 -0.33976106891E+02 -0.12512921624E+02 -0.20382271336E+02  0.41549801827E+02  0.00000000000E+00 0. -1.
</event>
<event>
 7    1  0.3568207E-015  0.9000825E+02  0.7816164E-02  0.1186338E+00
        -11   -1    0    0    0    0  0.00000000000E+00  0.00000000000E+00  0.45593999997E+02  0.45594000000E+02  0.51100000000E-03 0.  1.
         11   -1    0    0    0    0 -0.00000000000E+00 -0.00000000000E+00 -0.45593999997E+02  0.45594000000E+02  0.51100000000E-03 0. -1.
    9900012    2    1    2    0    0 -0.36713776334E+00 -0.71266192051E+00 -0.86551875582E+00  0.90008254321E+02  0.90000522477E+02 0.  0.
         12    1    1    2    0    0  0.36713776334E+00  0.71266192051E+00  0.86551875582E+00  0.11797456789E+01  0.00000000000E+00 0. -1.
         11    1    3    3    0    0 -0.59158054572E+01 -0.47204054947E+01 -0.57098704959E+01  0.94805908878E+01  0.51100000000E-03 0. -1.
        -11    1    3    3    0    0 -0.70383123775E+01  0.81325142413E+01  0.40808433346E+02  0.42201941442E+02  0.51100000000E-03 0.  1.
         12    1    3    3    0    0  0.12586980071E+02 -0.41247706672E+01 -0.35964081606E+02  0.38325721991E+02  0.00000000000E+00 0. -1.
</event>
<event>
 7    1  0.3568207E-015  0.9000782E+02  0.7816164E-02  0.1186339E+00
        -11   -1    0    0    0    0  0.00000000000E+00  0.00000000000E+00  0.45593999997E+02  0.45594000000E+02  0.51100000000E-03 0.  1.
         11   -1    0    0    0    0 -0.00000000000E+00 -0.00000000000E+00 -0.45593999997E+02  0.45594000000E+02  0.51100000000E-03 0. -1.
    9900012    2    1    2    0    0  0.99616555343E+00  0.39874595143E+00 -0.49141682949E+00  0.90007815843E+02  0.90000078212E+02 0.  0.
         12    1    1    2    0    0 -0.99616555343E+00 -0.39874595143E+00  0.49141682949E+00  0.11801841568E+01  0.00000000000E+00 0. -1.
         11    1    3    3    0    0  0.47588798594E+00  0.15642173917E+02 -0.25231409206E+02  0.29690538645E+02  0.51100000000E-03 0. -1.
        -11    1    3    3    0    0  0.14868376047E+02  0.28688084406E+01 -0.10322024174E+02  0.18326015700E+02  0.51100000000E-03 0.  1.
        -12    1    3    3    0    0 -0.14348098479E+02 -0.18112236406E+02  0.35062016551E+02  0.41991261498E+02  0.00000000000E+00 0.  1.
</event>
<event>
 7    1  0.3568207E-015  0.9000782E+02  0.7816164E-02  0.1186339E+00
        -11   -1    0    0    0    0  0.00000000000E+00  0.00000000000E+00  0.45593999997E+02  0.45594000000E+02  0.51100000000E-03 0.  1.
         11   -1    0    0    0    0 -0.00000000000E+00 -0.00000000000E+00 -0.45593999997E+02  0.45594000000E+02  0.51100000000E-03 0. -1.
    9900012    2    1    2    0    0 -0.81359756224E+00 -0.57160285796E+00  0.63573988903E+00  0.90007815257E+02  0.90000077619E+02 0.  0.
         12    1    1    2    0    0  0.81359756224E+00  0.57160285796E+00 -0.63573988903E+00  0.11801847428E+01  0.00000000000E+00 0. -1.
         11    1    3    3    0    0 -0.26019555211E+01  0.54711233718E+01 -0.28518688515E+02  0.29155084605E+02  0.51100000000E-03 0. -1.
        -11    1    3    3    0    0  0.17708066293E+02  0.14651975650E+02  0.18255113501E+01  0.23056202945E+02  0.51100000000E-03 0.  1.
        -12    1    3    3    0    0 -0.15919708334E+02 -0.20694701880E+02  0.27328917054E+02  0.37796527707E+02  0.00000000000E+00 0.  1.
</event>
<event>
 7    1  0.3568207E-015  0.9000777E+02  0.7816164E-02  0.1186339E+00
        -11   -1    0    0    0    0  0.00000000000E+00  0.00000000000E+00  0.45593999997E+02  0.45594000000E+02  0.51100000000E-03 0.  1.
         11   -1    0    0    0    0 -0.00000000000E+00 -0.00000000000E+00 -0.45593999997E+02  0.45594000000E+02  0.51100000000E-03 0. -1.
    9900012    2    1    2    0    0 -0.61783671794E+00  0.42766185715E+00  0.91011914636E+00  0.90007773863E+02  0.90000035678E+02 0.  0.
         12    1    1    2    0    0  0.61783671794E+00 -0.42766185715E+00 -0.91011914636E+00  0.11802261371E+01  0.00000000000E+00 0. -1.
         11    1    3    3    0    0 -0.42969770456E+01 -0.52185627180E+01  0.93485620832E+01  0.11536594899E+02  0.51100000000E-03 0. -1.
        -11    1    3    3    0    0  0.19925336014E+02 -0.24626313039E+02  0.16784907484E+02  0.35849789800E+02  0.51100000000E-03 0.  1.
         12    1    3    3    0    0 -0.16246195686E+02  0.30272537614E+02 -0.25223350421E+02  0.42621389165E+02  0.00000000000E+00 0. -1.
</event>
<event>
 7    1  0.3568207E-015  0.9000775E+02  0.7816164E-02  0.1186339E+00
        -11   -1    0    0    0    0  0.00000000000E+00  0.00000000000E+00  0.45593999997E+02  0.45594000000E+02  0.51100000000E-03 0.  1.
         11   -1    0    0    0    0 -0.00000000000E+00 -0.00000000000E+00 -0.45593999997E+02  0.45594000000E+02  0.51100000000E-03 0. -1.
    9900012    2    1    2    0    0  0.26298855875E+00 -0.11096282147E+01 -0.30424322935E+00  0.90007745070E+02  0.90000006505E+02 0.  0.
         12    1    1    2    0    0 -0.26298855875E+00  0.11096282147E+01  0.30424322935E+00  0.11802549299E+01  0.00000000000E+00 0. -1.
         11    1    3    3    0    0  0.54741948941E+01  0.45486013838E+01 -0.72784823529E+01  0.10180024062E+02  0.51100000000E-03 0. -1.
        -11    1    3    3    0    0 -0.52381338411E+01  0.35505816048E+02  0.13108567275E+02  0.38209103047E+02  0.51100000000E-03 0.  1.
         12    1    3    3    0    0  0.26927505750E-01 -0.41164045647E+02 -0.61343281516E+01  0.41618617961E+02  0.00000000000E+00 0. -1.
</event>
<event>
 7    1  0.3568207E-015  0.9000771E+02  0.7816164E-02  0.1186339E+00
        -11   -1    0    0    0    0  0.00000000000E+00  0.00000000000E+00  0.45593999997E+02  0.45594000000E+02  0.51100000000E-03 0.  1.
         11   -1    0    0    0    0 -0.00000000000E+00 -0.00000000000E+00 -0.45593999997E+02  0.45594000000E+02  0.51100000000E-03 0. -1.
    9900012    2    1    2    0    0 -0.16431516884E+00  0.11226055943E+01 -0.32532367925E+00  0.90007712623E+02  0.89999973630E+02 0.  0.
         12    1    1    2    0    0  0.16431516884E+00 -0.11226055943E+01  0.32532367925E+00  0.11802873766E+01  0.00000000000E+00 0. -1.
         11    1    3    3    0    0  0.24305056766E+02  0.30886776839E+02 -0.21239781189E+02  0.44675016208E+02  0.51100000000E-03 0. -1.
        -11    1    3    3    0    0 -0.49636144637E+01 -0.68947656586E+01 -0.36706748566E+00  0.85035287282E+01  0.51100000000E-03 0.  1.
        -12    1    3    3    0    0 -0.19505757471E+02 -0.22869405586E+02  0.21281524996E+02  0.36829167687E+02  0.00000000000E+00 0.  1.
</event>
<event>
 7    1  0.3568207E-015  0.9000771E+02  0.7816164E-02  0.1186339E+00
        -11   -1    0    0    0    0  0.00000000000E+00  0.00000000000E+00  0.45593999997E+02  0.45594000000E+02  0.51100000000E-03 0. -1.
         11   -1    0    0    0    0 -0.00000000000E+00 -0.00000000000E+00 -0.45593999997E+02  0.45594000000E+02  0.51100000000E-03 0.  1.
    9900012    2    1    2    0    0  0.51484581662E+00 -0.56700290077E+00 -0.89806439465E+00  0.90007712678E+02  0.89999973686E+02 0.  0.
         12    1    1    2    0    0 -0.51484581662E+00  0.56700290077E+00  0.89806439465E+00  0.11802873215E+01  0.00000000000E+00 0. -1.
         11    1    3    3    0    0 -0.41960161355E+01 -0.31567327568E+02  0.42612585157E+01  0.32128819548E+02  0.51100000000E-03 0. -1.
        -11    1    3    3    0    0 -0.39253022976E+01 -0.10270194591E+02 -0.10712135676E+02  0.15350398890E+02  0.51100000000E-03 0.  1.
        -12    1    3    3    0    0  0.86361642497E+01  0.41270519258E+02  0.55528127659E+01  0.42528494241E+02  0.00000000000E+00 0.  1.
</event>
<event>
 7    1  0.3568207E-015  0.9000793E+02  0.7816164E-02  0.1186339E+00
        -11   -1    0    0    0    0  0.00000000000E+00  0.00000000000E+00  0.45593999997E+02  0.45594000000E+02  0.51100000000E-03 0.  1.
         11   -1    0    0    0    0 -0.00000000000E+00 -0.00000000000E+00 -0.45593999997E+02  0.45594000000E+02  0.51100000000E-03 0. -1.
    9900012    2    1    2    0    0  0.10371822834E+01  0.50122970713E+00  0.25609765913E+00  0.90007930375E+02  0.90000194256E+02 0.  0.
         12    1    1    2    0    0 -0.10371822834E+01 -0.50122970713E+00 -0.25609765913E+00  0.11800696248E+01  0.00000000000E+00 0. -1.
         11    1    3    3    0    0  0.31077971000E+01  0.24730669480E+02 -0.12290478196E+02  0.27790650771E+02  0.51100000000E-03 0. -1.
        -11    1    3    3    0    0 -0.87870401798E+01 -0.34452861362E+02 -0.96774945307E+01  0.36849228375E+02  0.51100000000E-03 0.  1.
         12    1    3    3    0    0  0.67164253633E+01  0.10223421590E+02  0.22224070386E+02  0.25368051230E+02  0.00000000000E+00 0. -1.
</event>
<event>
 7    1  0.3568207E-015  0.9000777E+02  0.7816164E-02  0.1186339E+00
        -11   -1    0    0    0    0  0.00000000000E+00  0.00000000000E+00  0.45593999997E+02  0.45594000000E+02  0.51100000000E-03 0.  1.
         11   -1    0    0    0    0 -0.00000000000E+00 -0.00000000000E+00 -0.45593999997E+02  0.45594000000E+02  0.51100000000E-03 0. -1.
    9900012    2    1    2    0    0  0.50931988515E+00 -0.51179496746E+00  0.93359973895E+00  0.90007767266E+02  0.90000028994E+02 0.  0.
         12    1    1    2    0    0 -0.50931988515E+00  0.51179496746E+00 -0.93359973895E+00  0.11802327341E+01  0.00000000000E+00 0. -1.
         11    1    3    3    0    0  0.57211003342E+01  0.36123529925E+02 -0.76197551747E+00  0.36581703216E+02  0.51100000000E-03 0. -1.
        -11    1    3    3    0    0 -0.84683397553E+01  0.56481764784E+01  0.40424701009E+01  0.10952453630E+02  0.51100000000E-03 0.  1.
        -12    1    3    3    0    0  0.32565593063E+01 -0.42283501370E+02 -0.23468948445E+01  0.42473610420E+02  0.00000000000E+00 0.  1.
</event>
<event>
 7    1  0.3568207E-015  0.9000776E+02  0.7816164E-02  0.1186339E+00
        -11   -1    0    0    0    0  0.00000000000E+00  0.00000000000E+00  0.45593999997E+02  0.45594000000E+02  0.51100000000E-03 0.  1.
         11   -1    0    0    0    0 -0.00000000000E+00 -0.00000000000E+00 -0.45593999997E+02  0.45594000000E+02  0.51100000000E-03 0. -1.
    9900012    2    1    2    0    0 -0.49064682387E+00  0.25395639183E+00  0.10429414874E+01  0.90007764811E+02  0.90000026507E+02 0.  0.
         12    1    1    2    0    0  0.49064682387E+00 -0.25395639183E+00 -0.10429414874E+01  0.11802351888E+01  0.00000000000E+00 0. -1.
         11    1    3    3    0    0  0.99038004642E+01  0.31610247379E+02 -0.18538408494E+02  0.37960052591E+02  0.51100000000E-03 0. -1.
        -11    1    3    3    0    0  0.40323473646E+01 -0.21007669354E+01 -0.80849411367E+01  0.92757382687E+01  0.51100000000E-03 0.  1.
        -12    1    3    3    0    0 -0.14426794653E+02 -0.29255524052E+02  0.27666291118E+02  0.42771973951E+02  0.00000000000E+00 0.  1.
</event>
<event>
 7    1  0.3568207E-015  0.9000772E+02  0.7816164E-02  0.1186339E+00
        -11   -1    0    0    0    0  0.00000000000E+00  0.00000000000E+00  0.45593999997E+02  0.45594000000E+02  0.51100000000E-03 0.  1.
         11   -1    0    0    0    0 -0.00000000000E+00 -0.00000000000E+00 -0.45593999997E+02  0.45594000000E+02  0.51100000000E-03 0. -1.
    9900012    2    1    2    0    0  0.68447611760E+00 -0.80428929474E+00  0.52693571251E+00  0.90007724579E+02  0.89999985743E+02 0.  0.
         12    1    1    2    0    0 -0.68447611760E+00  0.80428929474E+00 -0.52693571251E+00  0.11802754214E+01  0.00000000000E+00 0. -1.
         11    1    3    3    0    0 -0.24274179439E+02  0.30435695716E+02 -0.88357739452E+00  0.38940314205E+02  0.51100000000E-03 0. -1.
        -11    1    3    3    0    0 -0.26289429979E+01  0.21608636217E+01  0.66111155178E+01  0.74355579165E+01  0.51100000000E-03 0.  1.
        -12    1    3    3    0    0  0.27587598555E+02 -0.33400848632E+02 -0.52006024108E+01  0.43631852457E+02  0.00000000000E+00 0.  1.
</event>
<event>
 7    1  0.3568207E-015  0.9000754E+02  0.7816164E-02  0.1186339E+00
        -11   -1    0    0    0    0  0.00000000000E+00  0.00000000000E+00  0.45593999997E+02  0.45594000000E+02  0.51100000000E-03 0. -1.
         11   -1    0    0    0    0 -0.00000000000E+00 -0.00000000000E+00 -0.45593999997E+02  0.45594000000E+02  0.51100000000E-03 0.  1.
    9900012    2    1    2    0    0  0.30081626212E+00  0.84848047558E+00 -0.76360091173E+00  0.90007535730E+02  0.89999794401E+02 0.  0.
         12    1    1    2    0    0 -0.30081626212E+00 -0.84848047558E+00  0.76360091173E+00  0.11804642703E+01  0.00000000000E+00 0. -1.
         11    1    3    3    0    0 -0.41992308139E+01  0.90590055564E+01  0.46713556333E+01  0.11023642085E+02  0.51100000000E-03 0. -1.
        -11    1    3    3    0    0 -0.25528616270E+02 -0.52755350140E+00 -0.30028029885E+02  0.39416635325E+02  0.51100000000E-03 0.  1.
         12    1    3    3    0    0  0.30028663346E+02 -0.76829715794E+01  0.24593073340E+02  0.39567258320E+02  0.00000000000E+00 0. -1.
</event>
<event>
 7    1  0.3568207E-015  0.9000694E+02  0.7816164E-02  0.1186341E+00
        -11   -1    0    0    0    0  0.00000000000E+00  0.00000000000E+00  0.45593999997E+02  0.45594000000E+02  0.51100000000E-03 0.  1.
         11   -1    0    0    0    0 -0.00000000000E+00 -0.00000000000E+00 -0.45593999997E+02  0.45594000000E+02  0.51100000000E-03 0. -1.
    9900012    2    1    2    0    0 -0.15602269901E+00 -0.88402875563E+00  0.76749492323E+00  0.90006941839E+02  0.89999192667E+02 0.  0.
         12    1    1    2    0    0  0.15602269901E+00  0.88402875563E+00 -0.76749492323E+00  0.11810581614E+01  0.00000000000E+00 0. -1.
         11    1    3    3    0    0 -0.22288168736E+02 -0.39649639228E+00 -0.31505367432E+02  0.38594142720E+02  0.51100000000E-03 0. -1.
        -11    1    3    3    0    0 -0.77740357724E+01 -0.34082377374E+01  0.19214207200E+01  0.87030784502E+01  0.51100000000E-03 0.  1.
        -12    1    3    3    0    0  0.29906181809E+02  0.29207053741E+01  0.30351441635E+02  0.42709720669E+02  0.00000000000E+00 0.  1.
</event>
<event>
 7    1  0.3568207E-015  0.9000775E+02  0.7816164E-02  0.1186339E+00
        -11   -1    0    0    0    0  0.00000000000E+00  0.00000000000E+00  0.45593999997E+02  0.45594000000E+02  0.51100000000E-03 0. -1.
         11   -1    0    0    0    0 -0.00000000000E+00 -0.00000000000E+00 -0.45593999997E+02  0.45594000000E+02  0.51100000000E-03 0.  1.
    9900012    2    1    2    0    0  0.90432956216E+00 -0.46098889998E+00 -0.60222095566E+00  0.90007748839E+02  0.90000010324E+02 0.  0.
         12    1    1    2    0    0 -0.90432956216E+00  0.46098889998E+00  0.60222095566E+00  0.11802511607E+01  0.00000000000E+00 0. -1.
         11    1    3    3    0    0 -0.76589142371E+01 -0.37062468713E+01  0.93169303917E+00  0.85593974871E+01  0.51100000000E-03 0. -1.
        -11    1    3    3    0    0 -0.27161883487E+02  0.21717523566E+02 -0.16555588813E+02  0.38516311683E+02  0.51100000000E-03 0.  1.
         12    1    3    3    0    0  0.35725127287E+02 -0.18472265595E+02  0.15021674818E+02  0.42932039670E+02  0.00000000000E+00 0. -1.
</event>
<event>
 7    1  0.3568207E-015  0.9000776E+02  0.7816164E-02  0.1186339E+00
        -11   -1    0    0    0    0  0.00000000000E+00  0.00000000000E+00  0.45593999997E+02  0.45594000000E+02  0.51100000000E-03 0. -1.
         11   -1    0    0    0    0 -0.00000000000E+00 -0.00000000000E+00 -0.45593999997E+02  0.45594000000E+02  0.51100000000E-03 0.  1.
    9900012    2    1    2    0    0 -0.12103882044E+00 -0.10225472107E+01 -0.57681579628E+00  0.90007758645E+02  0.90000020259E+02 0.  0.
         12    1    1    2    0    0  0.12103882044E+00  0.10225472107E+01  0.57681579628E+00  0.11802413554E+01  0.00000000000E+00 0. -1.
         11    1    3    3    0    0  0.17540289132E+02  0.10658977551E+02  0.16062844855E+02  0.26063202611E+02  0.51100000000E-03 0. -1.
        -11    1    3    3    0    0 -0.50295501234E+01  0.11104198970E+02  0.17296919926E+02  0.21160884868E+02  0.51100000000E-03 0.  1.
        -12    1    3    3    0    0 -0.12631777829E+02 -0.22785723732E+02 -0.33936580577E+02  0.42783671165E+02  0.00000000000E+00 0.  1.
</event>
<event>
 7    1  0.3568207E-015  0.9000791E+02  0.7816164E-02  0.1186339E+00
        -11   -1    0    0    0    0  0.00000000000E+00  0.00000000000E+00  0.45593999997E+02  0.45594000000E+02  0.51100000000E-03 0.  1.
         11   -1    0    0    0    0 -0.00000000000E+00 -0.00000000000E+00 -0.45593999997E+02  0.45594000000E+02  0.51100000000E-03 0. -1.
    9900012    2    1    2    0    0  0.11197699607E+01  0.18183864977E+00  0.32504039386E+00  0.90007914699E+02  0.90000178373E+02 0.  0.
         12    1    1    2    0    0 -0.11197699607E+01 -0.18183864977E+00 -0.32504039386E+00  0.11800853008E+01  0.00000000000E+00 0. -1.
         11    1    3    3    0    0  0.41638771130E+01 -0.71694057696E+01 -0.51915596345E+01  0.97821543333E+01  0.51100000000E-03 0. -1.
        -11    1    3    3    0    0 -0.25214943556E+01  0.40119185976E+02 -0.13415958605E+02  0.42378000929E+02  0.51100000000E-03 0.  1.
         12    1    3    3    0    0 -0.52261279668E+00 -0.32767941557E+02  0.18932558633E+02  0.37847759437E+02  0.00000000000E+00 0. -1.
</event>
<event>
 7    1  0.3568207E-015  0.9000775E+02  0.7816164E-02  0.1186339E+00
        -11   -1    0    0    0    0  0.00000000000E+00  0.00000000000E+00  0.45593999997E+02  0.45594000000E+02  0.51100000000E-03 0.  1.
         11   -1    0    0    0    0 -0.00000000000E+00 -0.00000000000E+00 -0.45593999997E+02  0.45594000000E+02  0.51100000000E-03 0. -1.
    9900012    2    1    2    0    0  0.58251079959E-01  0.10593272811E+01 -0.51713658971E+00  0.90007746752E+02  0.90000008209E+02 0.  0.
         12    1    1    2    0    0 -0.58251079959E-01 -0.10593272811E+01  0.51713658971E+00  0.11802532479E+01  0.00000000000E+00 0. -1.
         11    1    3    3    0    0 -0.18323050424E+02 -0.32953133817E+02 -0.17781257111E+01  0.37746588409E+02  0.51100000000E-03 0. -1.
        -11    1    3    3    0    0  0.88922170435E+01 -0.61914397879E+01  0.15892133317E+01  0.10951303569E+02  0.51100000000E-03 0.  1.
        -12    1    3    3    0    0  0.94890844604E+01  0.40203900886E+02 -0.32822421034E+00  0.41309854774E+02  0.00000000000E+00 0.  1.
</event>
<event>
 7    1  0.3655374E-015  0.9000774E+02  0.7816164E-02  0.1186339E+00
        -11   -1    0    0    0    0  0.00000000000E+00  0.00000000000E+00  0.45593999997E+02  0.45594000000E+02  0.51100000000E-03 0.  1.
         11   -1    0    0    0    0 -0.00000000000E+00 -0.00000000000E+00 -0.45593999997E+02  0.45594000000E+02  0.51100000000E-03 0. -1.
    9900012    2    1    2    0    0 -0.28241909146E+00  0.31307286897E+00  0.11023758540E+01  0.90007742533E+02  0.90000003935E+02 0.  0.
         12    1    1    2    0    0  0.28241909146E+00 -0.31307286897E+00 -0.11023758540E+01  0.11802574668E+01  0.00000000000E+00 0. -1.
         11    1    3    3    0    0  0.82916086292E+01  0.20280962142E+01  0.35346844055E+01  0.92389361953E+01  0.51100000000E-03 0. -1.
        -11    1    3    3    0    0  0.72131890643E+01  0.66362534143E+01  0.36575860481E+02  0.37866390455E+02  0.51100000000E-03 0.  1.
         12    1    3    3    0    0 -0.15787216785E+02 -0.83512767595E+01 -0.39008169033E+02  0.42902415883E+02  0.00000000000E+00 0. -1.
</event>
<event>
 7    1  0.3568207E-015  0.9000760E+02  0.7816164E-02  0.1186339E+00
        -11   -1    0    0    0    0  0.00000000000E+00  0.00000000000E+00  0.45593999997E+02  0.45594000000E+02  0.51100000000E-03 0.  1.
         11   -1    0    0    0    0 -0.00000000000E+00 -0.00000000000E+00 -0.45593999997E+02  0.45594000000E+02  0.51100000000E-03 0. -1.
    9900012    2    1    2    0    0  0.10231452441E+01 -0.55178519595E+00  0.20505418994E+00  0.90007601629E+02  0.89999861171E+02 0.  0.
         12    1    1    2    0    0 -0.10231452441E+01  0.55178519595E+00 -0.20505418994E+00  0.11803983708E+01  0.00000000000E+00 0. -1.
         11    1    3    3    0    0 -0.71552780315E+01  0.16397658971E+01  0.82263815189E+01  0.11025433736E+02  0.51100000000E-03 0. -1.
        -11    1    3    3    0    0  0.10956740610E+02  0.34335224323E+02  0.11031207624E+02  0.37691449110E+02  0.51100000000E-03 0.  1.
         12    1    3    3    0    0 -0.27783173348E+01 -0.36526775416E+02 -0.19052534953E+02  0.41290718783E+02  0.00000000000E+00 0. -1.
</event>
<event>
 7    1  0.3568207E-015  0.9000772E+02  0.7816164E-02  0.1186339E+00
        -11   -1    0    0    0    0  0.00000000000E+00  0.00000000000E+00  0.45593999997E+02  0.45594000000E+02  0.51100000000E-03 0.  1.
         11   -1    0    0    0    0 -0.00000000000E+00 -0.00000000000E+00 -0.45593999997E+02  0.45594000000E+02  0.51100000000E-03 0. -1.
    9900012    2    1    2    0    0  0.59929769688E+00  0.62350931674E+00  0.80320251816E+00  0.90007722116E+02  0.89999983248E+02 0.  0.
         12    1    1    2    0    0 -0.59929769688E+00 -0.62350931674E+00 -0.80320251816E+00  0.11802778837E+01  0.00000000000E+00 0. -1.
         11    1    3    3    0    0  0.17002496475E+02 -0.25704195497E+02 -0.16188144458E+02  0.34811586775E+02  0.51100000000E-03 0. -1.
        -11    1    3    3    0    0  0.87940282836E+01  0.23893640038E+00 -0.73929798091E+01  0.11491221640E+02  0.51100000000E-03 0.  1.
        -12    1    3    3    0    0 -0.25197227062E+02  0.26088768413E+02  0.24384326785E+02  0.43704913702E+02  0.00000000000E+00 0.  1.
</event>
<event>
 7    1  0.4084435E-015  0.9000746E+02  0.7816164E-02  0.1186340E+00
        -11   -1    0    0    0    0  0.00000000000E+00  0.00000000000E+00  0.45593999997E+02  0.45594000000E+02  0.51100000000E-03 0.  1.
         11   -1    0    0    0    0 -0.00000000000E+00 -0.00000000000E+00 -0.45593999997E+02  0.45594000000E+02  0.51100000000E-03 0. -1.
    9900012    2    1    2    0    0 -0.38565423475E+00 -0.88027410661E+00  0.68560879471E+00  0.90007461517E+02  0.89999719208E+02 0.  0.
         12    1    1    2    0    0  0.38565423475E+00  0.88027410661E+00 -0.68560879471E+00  0.11805384835E+01  0.00000000000E+00 0. -1.
         11    1    3    3    0    0 -0.53970850737E+01 -0.13207115746E+01  0.78069636205E+01  0.95823529255E+01  0.51100000000E-03 0. -1.
        -11    1    3    3    0    0 -0.35421407117E+02  0.11478901453E+02  0.28463836388E+01  0.37343582592E+02  0.51100000000E-03 0.  1.
         12    1    3    3    0    0  0.40432837956E+02 -0.11038463985E+02 -0.99677384646E+01  0.43081525999E+02  0.00000000000E+00 0. -1.
</event>
<event>
 7    1  0.3568207E-015  0.9000775E+02  0.7816164E-02  0.1186339E+00
        -11   -1    0    0    0    0  0.00000000000E+00  0.00000000000E+00  0.45593999997E+02  0.45594000000E+02  0.51100000000E-03 0. -1.
         11   -1    0    0    0    0 -0.00000000000E+00 -0.00000000000E+00 -0.45593999997E+02  0.45594000000E+02  0.51100000000E-03 0.  1.
    9900012    2    1    2    0    0  0.10948774829E+00 -0.51948660924E+00 -0.10541056766E+01  0.90007748890E+02  0.90000010376E+02 0.  0.
         12    1    1    2    0    0 -0.10948774829E+00  0.51948660924E+00  0.10541056766E+01  0.11802511096E+01  0.00000000000E+00 0. -1.
         11    1    3    3    0    0  0.16713500074E+02 -0.23072108552E+02  0.26845059520E+02  0.39144865546E+02  0.51100000000E-03 0. -1.
        -11    1    3    3    0    0  0.19084339287E+01  0.65786580919E+01  0.59722844529E+01  0.90878514621E+01  0.51100000000E-03 0.  1.
        -12    1    3    3    0    0 -0.18512446254E+02  0.15973963851E+02 -0.33871449649E+02  0.41775031882E+02  0.00000000000E+00 0.  1.
</event>
<event>
 7    1  0.3568207E-015  0.9000766E+02  0.7816164E-02  0.1186339E+00
        -11   -1    0    0    0    0  0.00000000000E+00  0.00000000000E+00  0.45593999997E+02  0.45594000000E+02  0.51100000000E-03 0. -1.
         11   -1    0    0    0    0 -0.00000000000E+00 -0.00000000000E+00 -0.45593999997E+02  0.45594000000E+02  0.51100000000E-03 0.  1.
    9900012    2    1    2    0    0 -0.26657463224E+00  0.32167024940E+00 -0.11039329645E+01  0.90007660314E+02  0.89999920630E+02 0.  0.
         12    1    1    2    0    0  0.26657463224E+00 -0.32167024940E+00  0.11039329645E+01  0.11803396858E+01  0.00000000000E+00 0. -1.
         11    1    3    3    0    0  0.17978614900E+02 -0.42700521344E+01  0.33611621468E+02  0.38356290708E+02  0.51100000000E-03 0. -1.
        -11    1    3    3    0    0  0.91706659051E+01  0.33175621963E+01 -0.42258272347E+01  0.10628496984E+02  0.51100000000E-03 0.  1.
        -12    1    3    3    0    0 -0.27415855437E+02  0.12741601875E+01 -0.30489727197E+02  0.41022872621E+02  0.00000000000E+00 0.  1.
</event>
<event>
 7    1  0.3568207E-015  0.9000655E+02  0.7816164E-02  0.1186341E+00
        -11   -1    0    0    0    0  0.00000000000E+00  0.00000000000E+00  0.45593999997E+02  0.45594000000E+02  0.51100000000E-03 0. -1.
         11   -1    0    0    0    0 -0.00000000000E+00 -0.00000000000E+00 -0.45593999997E+02  0.45594000000E+02  0.51100000000E-03 0.  1.
    9900012    2    1    2    0    0  0.60890733286E-02 -0.10904757182E+00 -0.11763873409E+01  0.90006553588E+02  0.89998799287E+02 0.  0.
         12    1    1    2    0    0 -0.60890733286E-02  0.10904757182E+00  0.11763873409E+01  0.11814464125E+01  0.00000000000E+00 0. -1.
         11    1    3    3    0    0 -0.44222135280E+00  0.37615699433E+02 -0.49629555490E+01  0.37944266123E+02  0.51100000000E-03 0. -1.
        -11    1    3    3    0    0 -0.61807193380E+01  0.28086732826E+01 -0.68407643722E+01  0.96377380438E+01  0.51100000000E-03 0.  1.
        -12    1    3    3    0    0  0.66290297641E+01 -0.40533420287E+02  0.10627332580E+02  0.42424549421E+02  0.00000000000E+00 0.  1.
</event>
<event>
 7    1  0.3568207E-015  0.9000776E+02  0.7816164E-02  0.1186339E+00
        -11   -1    0    0    0    0  0.00000000000E+00  0.00000000000E+00  0.45593999997E+02  0.45594000000E+02  0.51100000000E-03 0.  1.
         11   -1    0    0    0    0 -0.00000000000E+00 -0.00000000000E+00 -0.45593999997E+02  0.45594000000E+02  0.51100000000E-03 0. -1.
    9900012    2    1    2    0    0  0.10814511907E+01 -0.47208210830E+00  0.23738702210E-01  0.90007762007E+02  0.90000023665E+02 0.  0.
         12    1    1    2    0    0 -0.10814511907E+01  0.47208210830E+00 -0.23738702210E-01  0.11802379933E+01  0.00000000000E+00 0. -1.
         11    1    3    3    0    0  0.12456393508E+02  0.94950043364E+01  0.36587298582E+02  0.39798834962E+02  0.51100000000E-03 0. -1.
        -11    1    3    3    0    0 -0.57961778126E+01 -0.56213133308E+01  0.40159069772E+01  0.90178905465E+01  0.51100000000E-03 0.  1.
        -12    1    3    3    0    0 -0.55787645044E+01 -0.43457731139E+01 -0.40579466857E+02  0.41191036498E+02  0.00000000000E+00 0.  1.
</event>
<event>
 7    1  0.3568207E-015  0.9000774E+02  0.7816164E-02  0.1186339E+00
        -11   -1    0    0    0    0  0.00000000000E+00  0.00000000000E+00  0.45593999997E+02  0.45594000000E+02  0.51100000000E-03 0. -1.
         11   -1    0    0    0    0 -0.00000000000E+00 -0.00000000000E+00 -0.45593999997E+02  0.45594000000E+02  0.51100000000E-03 0.  1.
    9900012    2    1    2    0    0 -0.74920843233E+00 -0.85997796030E+00 -0.30352641232E+00  0.90007744244E+02  0.90000005668E+02 0.  0.
         12    1    1    2    0    0  0.74920843233E+00  0.85997796030E+00  0.30352641232E+00  0.11802557563E+01  0.00000000000E+00 0. -1.
         11    1    3    3    0    0 -0.98311904037E+01  0.54828312623E+01  0.28762263707E+02  0.30886591868E+02  0.51100000000E-03 0. -1.
        -11    1    3    3    0    0  0.11977423612E+02  0.17731496913E+02 -0.16860180550E+00  0.21398436531E+02  0.51100000000E-03 0.  1.
        -12    1    3    3    0    0 -0.28954416403E+01 -0.24074306136E+02 -0.28897188314E+02  0.37722715844E+02  0.00000000000E+00 0.  1.
</event>
<event>
 7    1  0.3568207E-015  0.9000778E+02  0.7816164E-02  0.1186339E+00
        -11   -1    0    0    0    0  0.00000000000E+00  0.00000000000E+00  0.45593999997E+02  0.45594000000E+02  0.51100000000E-03 0. -1.
         11   -1    0    0    0    0 -0.00000000000E+00 -0.00000000000E+00 -0.45593999997E+02  0.45594000000E+02  0.51100000000E-03 0.  1.
    9900012    2    1    2    0    0 -0.85076319232E+00 -0.52924618171E+00  0.62371220726E+00  0.90007781186E+02  0.90000043098E+02 0.  0.
         12    1    1    2    0    0  0.85076319232E+00  0.52924618171E+00 -0.62371220726E+00  0.11802188135E+01  0.00000000000E+00 0. -1.
         11    1    3    3    0    0  0.14269209501E+02 -0.48139028155E+01  0.91555147310E+01  0.17624058850E+02  0.51100000000E-03 0. -1.
        -11    1    3    3    0    0 -0.40823506900E+02 -0.85287507957E+01  0.21025006853E+01  0.41757859322E+02  0.51100000000E-03 0.  1.
         12    1    3    3    0    0  0.25703534207E+02  0.12813407429E+02 -0.10634303209E+02  0.30625863015E+02  0.00000000000E+00 0. -1.
</event>
<event>
 7    1  0.3568207E-015  0.9000767E+02  0.7816164E-02  0.1186339E+00
        -11   -1    0    0    0    0  0.00000000000E+00  0.00000000000E+00  0.45593999997E+02  0.45594000000E+02  0.51100000000E-03 0. -1.
         11   -1    0    0    0    0 -0.00000000000E+00 -0.00000000000E+00 -0.45593999997E+02  0.45594000000E+02  0.51100000000E-03 0.  1.
    9900012    2    1    2    0    0  0.42421338455E+00 -0.11247881937E+00 -0.10957048871E+01  0.90007670521E+02  0.89999930971E+02 0.  0.
         12    1    1    2    0    0 -0.42421338455E+00  0.11247881937E+00  0.10957048871E+01  0.11803294795E+01  0.00000000000E+00 0. -1.
         11    1    3    3    0    0  0.33989620593E+02 -0.28482689604E+01  0.20713611708E+02  0.39905646898E+02  0.51100000000E-03 0. -1.
        -11    1    3    3    0    0  0.33526552324E+01 -0.52865892073E+01 -0.73384299580E+01  0.96457699052E+01  0.51100000000E-03 0.  1.
        -12    1    3    3    0    0 -0.36918062441E+02  0.80223793484E+01 -0.14470886637E+02  0.40456253717E+02  0.00000000000E+00 0.  1.
</event>
<event>
 7    1  0.3568207E-015  0.9000770E+02  0.7816164E-02  0.1186339E+00
        -11   -1    0    0    0    0  0.00000000000E+00  0.00000000000E+00  0.45593999997E+02  0.45594000000E+02  0.51100000000E-03 0. -1.
         11   -1    0    0    0    0 -0.00000000000E+00 -0.00000000000E+00 -0.45593999997E+02  0.45594000000E+02  0.51100000000E-03 0.  1.
    9900012    2    1    2    0    0  0.23556298082E+00  0.99088722366E+00 -0.59645349172E+00  0.90007701658E+02  0.89999962520E+02 0.  0.
         12    1    1    2    0    0 -0.23556298082E+00 -0.99088722366E+00  0.59645349172E+00  0.11802983418E+01  0.00000000000E+00 0. -1.
         11    1    3    3    0    0  0.27907301989E+02 -0.16174632405E+02  0.18513605751E+02  0.37191260208E+02  0.51100000000E-03 0. -1.
        -11    1    3    3    0    0  0.65289310536E+01 -0.48010863584E+01 -0.60807549720E+01  0.10131779321E+02  0.51100000000E-03 0.  1.
        -12    1    3    3    0    0 -0.34200670062E+02  0.21966605987E+02 -0.13029304271E+02  0.42684662129E+02  0.00000000000E+00 0.  1.
</event>
<event>
 7    1  0.3568207E-015  0.9000778E+02  0.7816164E-02  0.1186339E+00
        -11   -1    0    0    0    0  0.00000000000E+00  0.00000000000E+00  0.45593999997E+02  0.45594000000E+02  0.51100000000E-03 0.  1.
         11   -1    0    0    0    0 -0.00000000000E+00 -0.00000000000E+00 -0.45593999997E+02  0.45594000000E+02  0.51100000000E-03 0. -1.
    9900012    2    1    2    0    0 -0.96772063612E+00 -0.57159123317E+00  0.36016684850E+00  0.90007779713E+02  0.90000041605E+02 0.  0.
         12    1    1    2    0    0  0.96772063612E+00  0.57159123317E+00 -0.36016684850E+00  0.11802202871E+01  0.00000000000E+00 0. -1.
         11    1    3    3    0    0  0.71893822551E+01  0.46618831392E+01  0.21063084398E+01  0.88236561084E+01  0.51100000000E-03 0. -1.
        -11    1    3    3    0    0  0.59783281991E+00  0.36490221390E+02  0.82043653853E+01  0.37405952372E+02  0.51100000000E-03 0.  1.
         12    1    3    3    0    0 -0.87549357111E+01 -0.41723695763E+02 -0.99505069767E+01  0.43778171233E+02  0.00000000000E+00 0. -1.
</event>
<event>
 7    1  0.3568207E-015  0.9000777E+02  0.7816164E-02  0.1186339E+00
        -11   -1    0    0    0    0  0.00000000000E+00  0.00000000000E+00  0.45593999997E+02  0.45594000000E+02  0.51100000000E-03 0.  1.
         11   -1    0    0    0    0 -0.00000000000E+00 -0.00000000000E+00 -0.45593999997E+02  0.45594000000E+02  0.51100000000E-03 0. -1.
    9900012    2    1    2    0    0 -0.25558084519E+00  0.11462990069E+01  0.11674363919E+00  0.90007766100E+02  0.90000027812E+02 0.  0.
         12    1    1    2    0    0  0.25558084519E+00 -0.11462990069E+01 -0.11674363919E+00  0.11802339001E+01  0.00000000000E+00 0. -1.
         11    1    3    3    0    0  0.14893819627E+02 -0.67085454573E+01 -0.36128523788E+02  0.39649724799E+02  0.51100000000E-03 0. -1.
        -11    1    3    3    0    0 -0.40505258502E+01 -0.84181805382E+01  0.27314294053E+00  0.93459686798E+01  0.51100000000E-03 0.  1.
        -12    1    3    3    0    0 -0.11098874622E+02  0.16273025002E+02  0.35972124487E+02  0.41012072621E+02  0.00000000000E+00 0.  1.
</event>
<event>
 7    1  0.3568207E-015  0.9000783E+02  0.7816164E-02  0.1186339E+00
        -11   -1    0    0    0    0  0.00000000000E+00  0.00000000000E+00  0.45593999997E+02  0.45594000000E+02  0.51100000000E-03 0. -1.
         11   -1    0    0    0    0 -0.00000000000E+00 -0.00000000000E+00 -0.45593999997E+02  0.45594000000E+02  0.51100000000E-03 0.  1.
    9900012    2    1    2    0    0 -0.31297419436E+00  0.70851721644E+00 -0.89041887955E+00  0.90007832523E+02  0.90000095112E+02 0.  0.
         12    1    1    2    0    0  0.31297419436E+00 -0.70851721644E+00  0.89041887955E+00  0.11801674768E+01  0.00000000000E+00 0. -1.
         11    1    3    3    0    0 -0.74416629489E+01  0.42287126911E+02  0.59107932506E+01  0.43341861139E+02  0.51100000000E-03 0. -1.
        -11    1    3    3    0    0  0.56832317992E+01 -0.34999816484E+01 -0.53128756175E+01  0.85308641304E+01  0.51100000000E-03 0.  1.
        -12    1    3    3    0    0  0.14454569553E+01 -0.38078628046E+02 -0.14883365126E+01  0.38135107254E+02  0.00000000000E+00 0.  1.
</event>
<event>
 7    1  0.3568207E-015  0.9000788E+02  0.7816164E-02  0.1186339E+00
        -11   -1    0    0    0    0  0.00000000000E+00  0.00000000000E+00  0.45593999997E+02  0.45594000000E+02  0.51100000000E-03 0. -1.
         11   -1    0    0    0    0 -0.00000000000E+00 -0.00000000000E+00 -0.45593999997E+02  0.45594000000E+02  0.51100000000E-03 0.  1.
    9900012    2    1    2    0    0  0.69494893018E-01 -0.11132039966E+01 -0.38551765355E+00  0.90007882828E+02  0.90000146081E+02 0.  0.
         12    1    1    2    0    0 -0.69494893018E-01  0.11132039966E+01  0.38551765355E+00  0.11801171719E+01  0.00000000000E+00 0. -1.
         11    1    3    3    0    0  0.63713591198E+01 -0.30180687557E+01  0.78550647599E+01  0.10554856640E+02  0.51100000000E-03 0. -1.
        -11    1    3    3    0    0  0.35119887904E+02 -0.20737270389E+01 -0.13136483257E+02  0.37553615842E+02  0.51100000000E-03 0.  1.
         12    1    3    3    0    0 -0.41421752131E+02  0.39785917980E+01  0.48959008434E+01  0.41899410346E+02  0.00000000000E+00 0. -1.
</event>
<event>
 7    1  0.3568207E-015  0.9000774E+02  0.7816164E-02  0.1186339E+00
        -11   -1    0    0    0    0  0.00000000000E+00  0.00000000000E+00  0.45593999997E+02  0.45594000000E+02  0.51100000000E-03 0. -1.
         11   -1    0    0    0    0 -0.00000000000E+00 -0.00000000000E+00 -0.45593999997E+02  0.45594000000E+02  0.51100000000E-03 0.  1.
    9900012    2    1    2    0    0  0.35043631254E+00  0.10188399063E+01 -0.48184196099E+00  0.90007740690E+02  0.90000002067E+02 0.  0.
         12    1    1    2    0    0 -0.35043631254E+00 -0.10188399063E+01  0.48184196099E+00  0.11802593102E+01  0.00000000000E+00 0. -1.
         11    1    3    3    0    0  0.96005324035E+01 -0.18612133951E+01  0.11687548405E+02  0.15239197016E+02  0.51100000000E-03 0. -1.
        -11    1    3    3    0    0  0.29956736499E+02  0.14897320462E+01 -0.18188924305E+02  0.35077946503E+02  0.51100000000E-03 0.  1.
         12    1    3    3    0    0 -0.39206832590E+02  0.13903212552E+01  0.60195339396E+01  0.39690597171E+02  0.00000000000E+00 0. -1.
</event>
<event>
 7    1  0.3568207E-015  0.9000780E+02  0.7816164E-02  0.1186339E+00
        -11   -1    0    0    0    0  0.00000000000E+00  0.00000000000E+00  0.45593999997E+02  0.45594000000E+02  0.51100000000E-03 0. -1.
         11   -1    0    0    0    0 -0.00000000000E+00 -0.00000000000E+00 -0.45593999997E+02  0.45594000000E+02  0.51100000000E-03 0.  1.
    9900012    2    1    2    0    0 -0.13376137086E+00  0.10214582305E+00 -0.11681420361E+01  0.90007795912E+02  0.90000058018E+02 0.  0.
         12    1    1    2    0    0  0.13376137086E+00 -0.10214582305E+00  0.11681420361E+01  0.11802040882E+01  0.00000000000E+00 0. -1.
         11    1    3    3    0    0  0.21528876478E+02 -0.95178229129E+01  0.33040722099E+02  0.40568100677E+02  0.51100000000E-03 0. -1.
        -11    1    3    3    0    0  0.60602286158E+01  0.42949886214E+01 -0.62425652690E+01  0.97027274276E+01  0.51100000000E-03 0.  1.
        -12    1    3    3    0    0 -0.27722866465E+02  0.53249801145E+01 -0.27966298866E+02  0.39736967807E+02  0.00000000000E+00 0.  1.
</event>
<event>
 7    1  0.3568207E-015  0.9000770E+02  0.7816164E-02  0.1186339E+00
        -11   -1    0    0    0    0  0.00000000000E+00  0.00000000000E+00  0.45593999997E+02  0.45594000000E+02  0.51100000000E-03 0.  1.
         11   -1    0    0    0    0 -0.00000000000E+00 -0.00000000000E+00 -0.45593999997E+02  0.45594000000E+02  0.51100000000E-03 0. -1.
    9900012    2    1    2    0    0 -0.73175590253E+00  0.44972847880E+00  0.80955374292E+00  0.90007703568E+02  0.89999964455E+02 0.  0.
         12    1    1    2    0    0  0.73175590253E+00 -0.44972847880E+00 -0.80955374292E+00  0.11802964323E+01  0.00000000000E+00 0. -1.
         11    1    3    3    0    0 -0.16089022764E+02  0.26315756195E+01 -0.30885506406E+02  0.34924151385E+02  0.51100000000E-03 0. -1.
        -11    1    3    3    0    0  0.38692385665E+01 -0.12321417719E+01 -0.10544486922E+02  0.11299353307E+02  0.51100000000E-03 0.  1.
        -12    1    3    3    0    0  0.11488028295E+02 -0.94970536880E+00  0.42239547072E+02  0.43784198876E+02  0.00000000000E+00 0.  1.
</event>
<event>
 7    1  0.3568207E-015  0.9000763E+02  0.7816164E-02  0.1186339E+00
        -11   -1    0    0    0    0  0.00000000000E+00  0.00000000000E+00  0.45593999997E+02  0.45594000000E+02  0.51100000000E-03 0.  1.
         11   -1    0    0    0    0 -0.00000000000E+00 -0.00000000000E+00 -0.45593999997E+02  0.45594000000E+02  0.51100000000E-03 0. -1.
    9900012    2    1    2    0    0 -0.28295464825E+00 -0.99469893957E+00  0.56902091245E+00  0.90007629672E+02  0.89999889583E+02 0.  0.
         12    1    1    2    0    0  0.28295464825E+00  0.99469893957E+00 -0.56902091245E+00  0.11803703284E+01  0.00000000000E+00 0. -1.
         11    1    3    3    0    0 -0.34119105308E+01  0.12315783080E+01  0.82297260392E+01  0.89936816454E+01  0.51100000000E-03 0. -1.
        -11    1    3    3    0    0  0.17478537463E+02 -0.25698172953E+02  0.23856079423E+02  0.39179176748E+02  0.51100000000E-03 0.  1.
         12    1    3    3    0    0 -0.14349581581E+02  0.23471895706E+02 -0.31516784549E+02  0.41834771278E+02  0.00000000000E+00 0. -1.
</event>
<event>
 7    1  0.3568207E-015  0.9000774E+02  0.7816164E-02  0.1186339E+00
        -11   -1    0    0    0    0  0.00000000000E+00  0.00000000000E+00  0.45593999997E+02  0.45594000000E+02  0.51100000000E-03 0. -1.
         11   -1    0    0    0    0 -0.00000000000E+00 -0.00000000000E+00 -0.45593999997E+02  0.45594000000E+02  0.51100000000E-03 0.  1.
    9900012    2    1    2    0    0  0.72054465230E+00  0.82202059362E+00 -0.44509415102E+00  0.90007741022E+02  0.90000002403E+02 0.  0.
         12    1    1    2    0    0 -0.72054465230E+00 -0.82202059362E+00  0.44509415102E+00  0.11802589782E+01  0.00000000000E+00 0. -1.
         11    1    3    3    0    0 -0.19621835673E+02  0.24173041265E+02 -0.18965570189E+02  0.36456072361E+02  0.51100000000E-03 0. -1.
        -11    1    3    3    0    0 -0.86245266440E+01  0.14559245386E+01 -0.36055337761E+01  0.94605523183E+01  0.51100000000E-03 0.  1.
        -12    1    3    3    0    0  0.28966906970E+02 -0.24806945210E+02  0.22126009814E+02  0.44091116342E+02  0.00000000000E+00 0.  1.
</event>
<event>
 7    1  0.3568207E-015  0.9000774E+02  0.7816164E-02  0.1186339E+00
        -11   -1    0    0    0    0  0.00000000000E+00  0.00000000000E+00  0.45593999997E+02  0.45594000000E+02  0.51100000000E-03 0. -1.
         11   -1    0    0    0    0 -0.00000000000E+00 -0.00000000000E+00 -0.45593999997E+02  0.45594000000E+02  0.51100000000E-03 0.  1.
    9900012    2    1    2    0    0 -0.56122138622E+00  0.10369975379E+01 -0.51774661343E-01  0.90007739879E+02  0.90000001245E+02 0.  0.
         12    1    1    2    0    0  0.56122138622E+00 -0.10369975379E+01  0.51774661343E-01  0.11802601211E+01  0.00000000000E+00 0. -1.
         11    1    3    3    0    0  0.45950014934E+00  0.19125310876E+02  0.32419003148E+02  0.37642800399E+02  0.51100000000E-03 0. -1.
        -11    1    3    3    0    0 -0.14324987094E+01  0.75156755344E+01  0.33336769263E+01  0.83457074835E+01  0.51100000000E-03 0.  1.
        -12    1    3    3    0    0  0.41177717386E+00 -0.25603988873E+02 -0.35804454736E+02  0.44019231996E+02  0.00000000000E+00 0.  1.
</event>
<event>
 7    1  0.3568207E-015  0.9000773E+02  0.7816164E-02  0.1186339E+00
        -11   -1    0    0    0    0  0.00000000000E+00  0.00000000000E+00  0.45593999997E+02  0.45594000000E+02  0.51100000000E-03 0.  1.
         11   -1    0    0    0    0 -0.00000000000E+00 -0.00000000000E+00 -0.45593999997E+02  0.45594000000E+02  0.51100000000E-03 0. -1.
    9900012    2    1    2    0    0 -0.10428290157E+00  0.86171058462E+00 -0.79976432062E+00  0.90007727564E+02  0.89999988768E+02 0.  0.
         12    1    1    2    0    0  0.10428290157E+00 -0.86171058462E+00  0.79976432062E+00  0.11802724362E+01  0.00000000000E+00 0. -1.
         11    1    3    3    0    0  0.78509572979E+01 -0.12807887393E+02  0.21712500715E+01  0.15178729759E+02  0.51100000000E-03 0. -1.
        -11    1    3    3    0    0  0.81295288766E+01  0.37997567377E+02  0.13741076673E+02  0.41215549914E+02  0.51100000000E-03 0.  1.
         12    1    3    3    0    0 -0.16084769076E+02 -0.24327969399E+02 -0.16712091066E+02  0.33613447891E+02  0.00000000000E+00 0. -1.
</event>
<event>
 7    1  0.3568207E-015  0.9000775E+02  0.7816164E-02  0.1186339E+00
        -11   -1    0    0    0    0  0.00000000000E+00  0.00000000000E+00  0.45593999997E+02  0.45594000000E+02  0.51100000000E-03 0.  1.
         11   -1    0    0    0    0 -0.00000000000E+00 -0.00000000000E+00 -0.45593999997E+02  0.45594000000E+02  0.51100000000E-03 0. -1.
    9900012    2    1    2    0    0  0.33934759471E+00 -0.67147799240E+00 -0.90936654367E+00  0.90007751299E+02  0.90000012817E+02 0.  0.
         12    1    1    2    0    0 -0.33934759471E+00  0.67147799240E+00  0.90936654367E+00  0.11802487005E+01  0.00000000000E+00 0. -1.
         11    1    3    3    0    0 -0.26492927326E+01 -0.14844470374E+01 -0.87755726697E+01  0.92861731048E+01  0.51100000000E-03 0. -1.
        -11    1    3    3    0    0  0.25125303213E+02  0.24874938474E+02 -0.17395591981E+02  0.39403680618E+02  0.51100000000E-03 0.  1.
         12    1    3    3    0    0 -0.22136662886E+02 -0.24061969429E+02  0.25261798107E+02  0.41317897576E+02  0.00000000000E+00 0. -1.
</event>
<event>
 7    1  0.3568207E-015  0.9000772E+02  0.7816164E-02  0.1186339E+00
        -11   -1    0    0    0    0  0.00000000000E+00  0.00000000000E+00  0.45593999997E+02  0.45594000000E+02  0.51100000000E-03 0.  1.
         11   -1    0    0    0    0 -0.00000000000E+00 -0.00000000000E+00 -0.45593999997E+02  0.45594000000E+02  0.51100000000E-03 0. -1.
    9900012    2    1    2    0    0  0.94813824127E+00 -0.24872290709E+00  0.65745054476E+00  0.90007715955E+02  0.89999977005E+02 0.  0.
         12    1    1    2    0    0 -0.94813824127E+00  0.24872290709E+00 -0.65745054476E+00  0.11802840454E+01  0.00000000000E+00 0. -1.
         11    1    3    3    0    0 -0.89483908598E+01  0.43340841875E+01 -0.10197193233E+02  0.14242216640E+02  0.51100000000E-03 0. -1.
        -11    1    3    3    0    0 -0.28744933216E+02  0.13939789370E+02  0.20032873475E+01  0.32009406020E+02  0.51100000000E-03 0.  1.
        -12    1    3    3    0    0  0.38641462317E+02 -0.18522596465E+02  0.88513564306E+01  0.43756093295E+02  0.00000000000E+00 0.  1.
</event>
<event>
 7    1  0.3568207E-015  0.9000772E+02  0.7816164E-02  0.1186339E+00
        -11   -1    0    0    0    0  0.00000000000E+00  0.00000000000E+00  0.45593999997E+02  0.45594000000E+02  0.51100000000E-03 0.  1.
         11   -1    0    0    0    0 -0.00000000000E+00 -0.00000000000E+00 -0.45593999997E+02  0.45594000000E+02  0.51100000000E-03 0. -1.
    9900012    2    1    2    0    0  0.76782455010E+00  0.89489409011E+00 -0.51732705877E-01  0.90007717727E+02  0.89999978801E+02 0.  0.
         12    1    1    2    0    0 -0.76782455010E+00 -0.89489409011E+00  0.51732705877E-01  0.11802822735E+01  0.00000000000E+00 0. -1.
         11    1    3    3    0    0  0.21438819133E+01  0.15181641038E+02 -0.33377436184E+02  0.36730528185E+02  0.51100000000E-03 0. -1.
        -11    1    3    3    0    0 -0.41866889544E+01  0.15156820785E+00 -0.82082038807E+01  0.92155275775E+01  0.51100000000E-03 0.  1.
        -12    1    3    3    0    0  0.28106315912E+01 -0.14438315156E+02  0.41533907359E+02  0.44061661964E+02  0.00000000000E+00 0.  1.
</event>
<event>
 7    1  0.5034085E-015  0.9000777E+02  0.7816164E-02  0.1186339E+00
        -11   -1    0    0    0    0  0.00000000000E+00  0.00000000000E+00  0.45593999997E+02  0.45594000000E+02  0.51100000000E-03 0. -1.
         11   -1    0    0    0    0 -0.00000000000E+00 -0.00000000000E+00 -0.45593999997E+02  0.45594000000E+02  0.51100000000E-03 0.  1.
    9900012    2    1    2    0    0 -0.71937438288E+00 -0.42000210307E+00 -0.83608608788E+00  0.90007770694E+02  0.90000032467E+02 0.  0.
         12    1    1    2    0    0  0.71937438288E+00  0.42000210307E+00  0.83608608788E+00  0.11802293064E+01  0.00000000000E+00 0. -1.
         11    1    3    3    0    0 -0.69488740169E+01 -0.57927723397E+01 -0.22639521269E+01  0.93256925200E+01  0.51100000000E-03 0. -1.
        -11    1    3    3    0    0 -0.30532522829E+02  0.10012994193E+02 -0.20029486127E+02  0.37863905210E+02  0.51100000000E-03 0.  1.
         12    1    3    3    0    0  0.36762022463E+02 -0.46402239562E+01  0.21457352166E+02  0.42818172963E+02  0.00000000000E+00 0. -1.
</event>
<event>
 7    1  0.3568207E-015  0.9000775E+02  0.7816164E-02  0.1186339E+00
        -11   -1    0    0    0    0  0.00000000000E+00  0.00000000000E+00  0.45593999997E+02  0.45594000000E+02  0.51100000000E-03 0.  1.
         11   -1    0    0    0    0 -0.00000000000E+00 -0.00000000000E+00 -0.45593999997E+02  0.45594000000E+02  0.51100000000E-03 0. -1.
    9900012    2    1    2    0    0 -0.37031043568E+00  0.65158561043E+00  0.91174916713E+00  0.90007754191E+02  0.90000015746E+02 0.  0.
         12    1    1    2    0    0  0.37031043568E+00 -0.65158561043E+00 -0.91174916713E+00  0.11802458092E+01  0.00000000000E+00 0. -1.
         11    1    3    3    0    0 -0.93288593261E+01  0.22188987141E+01 -0.24412201822E+01  0.98949827725E+01  0.51100000000E-03 0. -1.
        -11    1    3    3    0    0  0.14711193524E+02  0.35857002657E+02  0.13279451868E+02  0.40969350698E+02  0.51100000000E-03 0.  1.
         12    1    3    3    0    0 -0.57526446337E+01 -0.37424315761E+02 -0.99264825185E+01  0.39143420720E+02  0.00000000000E+00 0. -1.
</event>
<event>
 7    1  0.3568207E-015  0.9000774E+02  0.7816164E-02  0.1186339E+00
        -11   -1    0    0    0    0  0.00000000000E+00  0.00000000000E+00  0.45593999997E+02  0.45594000000E+02  0.51100000000E-03 0.  1.
         11   -1    0    0    0    0 -0.00000000000E+00 -0.00000000000E+00 -0.45593999997E+02  0.45594000000E+02  0.51100000000E-03 0. -1.
    9900012    2    1    2    0    0 -0.26991459886E+00  0.59156339261E-01  0.11474561529E+01  0.90007741983E+02  0.90000003378E+02 0.  0.
         12    1    1    2    0    0  0.26991459886E+00 -0.59156339261E-01 -0.11474561529E+01  0.11802580167E+01  0.00000000000E+00 0. -1.
         11    1    3    3    0    0  0.11878815612E+01 -0.86888456497E+01 -0.64590531735E+01  0.10891577915E+02  0.51100000000E-03 0. -1.
        -11    1    3    3    0    0 -0.32758744942E+02  0.13287684378E+02  0.24737102222E+02  0.43146519591E+02  0.51100000000E-03 0.  1.
         12    1    3    3    0    0  0.31300948782E+02 -0.45396823886E+01 -0.17130592895E+02  0.35969644476E+02  0.00000000000E+00 0. -1.
</event>
<event>
 7    1  0.3568207E-015  0.9000769E+02  0.7816164E-02  0.1186339E+00
        -11   -1    0    0    0    0  0.00000000000E+00  0.00000000000E+00  0.45593999997E+02  0.45594000000E+02  0.51100000000E-03 0.  1.
         11   -1    0    0    0    0 -0.00000000000E+00 -0.00000000000E+00 -0.45593999997E+02  0.45594000000E+02  0.51100000000E-03 0. -1.
    9900012    2    1    2    0    0  0.11906805398E+00 -0.80241774834E+00  0.85736440696E+00  0.90007692764E+02  0.89999953509E+02 0.  0.
         12    1    1    2    0    0 -0.11906805398E+00  0.80241774834E+00 -0.85736440696E+00  0.11803072357E+01  0.00000000000E+00 0. -1.
         11    1    3    3    0    0 -0.73015225199E+01  0.30267669212E+02 -0.81069720372E+01  0.32174011663E+02  0.51100000000E-03 0. -1.
        -11    1    3    3    0    0  0.10583285465E+01  0.83283292486E+01 -0.10489865015E+02  0.13435713441E+02  0.51100000000E-03 0.  1.
        -12    1    3    3    0    0  0.63622620274E+01 -0.39398416209E+02  0.19454201459E+02  0.44397967660E+02  0.00000000000E+00 0.  1.
</event>
<event>
 7    1  0.3568207E-015  0.9000791E+02  0.7816164E-02  0.1186339E+00
        -11   -1    0    0    0    0  0.00000000000E+00  0.00000000000E+00  0.45593999997E+02  0.45594000000E+02  0.51100000000E-03 0. -1.
         11   -1    0    0    0    0 -0.00000000000E+00 -0.00000000000E+00 -0.45593999997E+02  0.45594000000E+02  0.51100000000E-03 0.  1.
    9900012    2    1    2    0    0  0.91399480690E+00 -0.38429927037E+00 -0.63994467737E+00  0.90007914568E+02  0.90000178240E+02 0.  0.
         12    1    1    2    0    0 -0.91399480690E+00  0.38429927037E+00  0.63994467737E+00  0.11800854318E+01  0.00000000000E+00 0. -1.
         11    1    3    3    0    0 -0.31316888870E+01  0.21027963561E+02  0.32086407352E+02  0.38490521740E+02  0.51100000000E-03 0. -1.
        -11    1    3    3    0    0 -0.84466324666E+01 -0.72983336979E+01  0.26139950209E+01  0.11464913651E+02  0.51100000000E-03 0.  1.
        -12    1    3    3    0    0  0.12492316160E+02 -0.14113929133E+02 -0.35340347050E+02  0.40052479177E+02  0.00000000000E+00 0.  1.
</event>
<event>
 7    1  0.3568207E-015  0.9000769E+02  0.7816164E-02  0.1186339E+00
        -11   -1    0    0    0    0  0.00000000000E+00  0.00000000000E+00  0.45593999997E+02  0.45594000000E+02  0.51100000000E-03 0.  1.
         11   -1    0    0    0    0 -0.00000000000E+00 -0.00000000000E+00 -0.45593999997E+02  0.45594000000E+02  0.51100000000E-03 0. -1.
    9900012    2    1    2    0    0  0.72569863620E+00 -0.63482430764E+00 -0.68079921274E+00  0.90007691574E+02  0.89999952303E+02 0.  0.
         12    1    1    2    0    0 -0.72569863620E+00  0.63482430764E+00  0.68079921274E+00  0.11803084259E+01  0.00000000000E+00 0. -1.
         11    1    3    3    0    0  0.26170260667E+01 -0.37005795906E+02  0.47971304023E+01  0.37407087783E+02  0.51100000000E-03 0. -1.
        -11    1    3    3    0    0 -0.12008111340E+02  0.71278785047E+00 -0.94852780260E+01  0.15319050361E+02  0.51100000000E-03 0.  1.
        -12    1    3    3    0    0  0.10116783909E+02  0.35658183748E+02  0.40073484110E+01  0.37281553430E+02  0.00000000000E+00 0.  1.
</event>
<event>
 7    1  0.3568207E-015  0.9000774E+02  0.7816164E-02  0.1186339E+00
        -11   -1    0    0    0    0  0.00000000000E+00  0.00000000000E+00  0.45593999997E+02  0.45594000000E+02  0.51100000000E-03 0.  1.
         11   -1    0    0    0    0 -0.00000000000E+00 -0.00000000000E+00 -0.45593999997E+02  0.45594000000E+02  0.51100000000E-03 0. -1.
    9900012    2    1    2    0    0  0.10916273943E+01 -0.44244012424E+00  0.74937759711E-01  0.90007737614E+02  0.89999998951E+02 0.  0.
         12    1    1    2    0    0 -0.10916273943E+01  0.44244012424E+00 -0.74937759711E-01  0.11802623858E+01  0.00000000000E+00 0. -1.
         11    1    3    3    0    0  0.38893106059E+01 -0.64236272670E+01 -0.65265528355E+01  0.99491515432E+01  0.51100000000E-03 0. -1.
        -11    1    3    3    0    0 -0.10263980497E+02 -0.35570016426E+02  0.77608108905E+01  0.37825990405E+02  0.51100000000E-03 0.  1.
         12    1    3    3    0    0  0.74662972858E+01  0.41551203568E+02 -0.11593202953E+01  0.42232595666E+02  0.00000000000E+00 0. -1.
</event>
<event>
 7    1  0.3568207E-015  0.9000772E+02  0.7816164E-02  0.1186339E+00
        -11   -1    0    0    0    0  0.00000000000E+00  0.00000000000E+00  0.45593999997E+02  0.45594000000E+02  0.51100000000E-03 0.  1.
         11   -1    0    0    0    0 -0.00000000000E+00 -0.00000000000E+00 -0.45593999997E+02  0.45594000000E+02  0.51100000000E-03 0. -1.
    9900012    2    1    2    0    0  0.71968183017E+00  0.88475741693E+00 -0.30383083325E+00  0.90007724270E+02  0.89999985430E+02 0.  0.
         12    1    1    2    0    0 -0.71968183017E+00 -0.88475741693E+00  0.30383083325E+00  0.11802757300E+01  0.00000000000E+00 0. -1.
         11    1    3    3    0    0  0.25549087927E+02  0.54740041671E+01 -0.30133903961E+02  0.39884493023E+02  0.51100000000E-03 0. -1.
        -11    1    3    3    0    0 -0.35206526149E+01  0.55477434127E+01 -0.48568921072E+01  0.81707926795E+01  0.51100000000E-03 0.  1.
        -12    1    3    3    0    0 -0.21308753482E+02 -0.10136990163E+02  0.34686965235E+02  0.41952438567E+02  0.00000000000E+00 0.  1.
</event>
<event>
 7    1  0.3568207E-015  0.9000787E+02  0.7816164E-02  0.1186339E+00
        -11   -1    0    0    0    0  0.00000000000E+00  0.00000000000E+00  0.45593999997E+02  0.45594000000E+02  0.51100000000E-03 0.  1.
         11   -1    0    0    0    0 -0.00000000000E+00 -0.00000000000E+00 -0.45593999997E+02  0.45594000000E+02  0.51100000000E-03 0. -1.
    9900012    2    1    2    0    0  0.51090147027E+00 -0.10511651192E+01  0.16353463548E+00  0.90007867805E+02  0.90000130860E+02 0.  0.
         12    1    1    2    0    0 -0.51090147027E+00  0.10511651192E+01 -0.16353463548E+00  0.11801321948E+01  0.00000000000E+00 0. -1.
         11    1    3    3    0    0 -0.32385591229E+02 -0.73185561223E+01 -0.23697906061E+02  0.40791893004E+02  0.51100000000E-03 0. -1.
        -11    1    3    3    0    0 -0.11015480226E+01  0.88317630811E+01  0.39955539470E+01  0.97559160908E+01  0.51100000000E-03 0.  1.
        -12    1    3    3    0    0  0.33998040722E+02 -0.25643720779E+01  0.19865886749E+02  0.39460058710E+02  0.00000000000E+00 0.  1.
</event>
<event>
 7    1  0.3568207E-015  0.9000769E+02  0.7816164E-02  0.1186339E+00
        -11   -1    0    0    0    0  0.00000000000E+00  0.00000000000E+00  0.45593999997E+02  0.45594000000E+02  0.51100000000E-03 0.  1.
         11   -1    0    0    0    0 -0.00000000000E+00 -0.00000000000E+00 -0.45593999997E+02  0.45594000000E+02  0.51100000000E-03 0. -1.
    9900012    2    1    2    0    0  0.37422381204E+00 -0.31851015459E+00  0.10731492122E+01  0.90007685884E+02  0.89999946538E+02 0.  0.
         12    1    1    2    0    0 -0.37422381204E+00  0.31851015459E+00 -0.10731492122E+01  0.11803141157E+01  0.00000000000E+00 0. -1.
         11    1    3    3    0    0 -0.32198075698E+02  0.21517743282E+02  0.52997031872E+01  0.39087289606E+02  0.51100000000E-03 0. -1.
        -11    1    3    3    0    0  0.30580675919E+01  0.73006087863E+01 -0.51385684352E+01  0.94369249161E+01  0.51100000000E-03 0.  1.
        -12    1    3    3    0    0  0.29514231918E+02 -0.29136862223E+02  0.91201446032E+00  0.41483471362E+02  0.00000000000E+00 0.  1.
</event>
<event>
 7    1  0.3568207E-015  0.9000775E+02  0.7816164E-02  0.1186339E+00
        -11   -1    0    0    0    0  0.00000000000E+00  0.00000000000E+00  0.45593999997E+02  0.45594000000E+02  0.51100000000E-03 0.  1.
         11   -1    0    0    0    0 -0.00000000000E+00 -0.00000000000E+00 -0.45593999997E+02  0.45594000000E+02  0.51100000000E-03 0. -1.
    9900012    2    1    2    0    0 -0.37484800231E+00 -0.74233528039E+00  0.83750923365E+00  0.90007748158E+02  0.90000009634E+02 0.  0.
         12    1    1    2    0    0  0.37484800231E+00  0.74233528039E+00 -0.83750923365E+00  0.11802518417E+01  0.00000000000E+00 0. -1.
         11    1    3    3    0    0 -0.57191380062E+00 -0.17619166145E+01 -0.37860846588E+02  0.37906135917E+02  0.51100000000E-03 0. -1.
        -11    1    3    3    0    0  0.98170078030E+01 -0.53346650638E+01 -0.55852927010E+00  0.11186789028E+02  0.51100000000E-03 0.  1.
        -12    1    3    3    0    0 -0.96199420047E+01  0.63542463979E+01  0.39256885092E+02  0.40914823213E+02  0.00000000000E+00 0.  1.
</event>
<event>
 7    1  0.3568207E-015  0.9000771E+02  0.7816164E-02  0.1186339E+00
        -11   -1    0    0    0    0  0.00000000000E+00  0.00000000000E+00  0.45593999997E+02  0.45594000000E+02  0.51100000000E-03 0. -1.
         11   -1    0    0    0    0 -0.00000000000E+00 -0.00000000000E+00 -0.45593999997E+02  0.45594000000E+02  0.51100000000E-03 0.  1.
    9900012    2    1    2    0    0 -0.82329886316E+00 -0.36842048432E+00  0.76126524712E+00  0.90007712133E+02  0.89999973134E+02 0.  0.
         12    1    1    2    0    0  0.82329886316E+00  0.36842048432E+00 -0.76126524712E+00  0.11802878665E+01  0.00000000000E+00 0. -1.
         11    1    3    3    0    0  0.16131099057E+01  0.18853705599E+01 -0.11490273049E+02  0.11755131676E+02  0.51100000000E-03 0. -1.
        -11    1    3    3    0    0 -0.17230661373E+02  0.53360533217E+01 -0.28788144277E+02  0.33972435998E+02  0.51100000000E-03 0.  1.
         12    1    3    3    0    0  0.14794252604E+02 -0.75898443660E+01  0.41039682574E+02  0.44280144460E+02  0.00000000000E+00 0. -1.
</event>
<event>
 7    1  0.3568207E-015  0.9000773E+02  0.7816164E-02  0.1186339E+00
        -11   -1    0    0    0    0  0.00000000000E+00  0.00000000000E+00  0.45593999997E+02  0.45594000000E+02  0.51100000000E-03 0.  1.
         11   -1    0    0    0    0 -0.00000000000E+00 -0.00000000000E+00 -0.45593999997E+02  0.45594000000E+02  0.51100000000E-03 0. -1.
    9900012    2    1    2    0    0  0.95472843965E+00 -0.29413477934E+00  0.62849749630E+00  0.90007732757E+02  0.89999994029E+02 0.  0.
         12    1    1    2    0    0 -0.95472843965E+00  0.29413477934E+00 -0.62849749630E+00  0.11802672429E+01  0.00000000000E+00 0. -1.
         11    1    3    3    0    0  0.15989257594E+02 -0.33572598893E+02 -0.51525180412E+01  0.37540966920E+02  0.51100000000E-03 0. -1.
        -11    1    3    3    0    0  0.67964479795E+01 -0.23710562912E+01  0.78016959564E+01  0.10615087052E+02  0.51100000000E-03 0.  1.
        -12    1    3    3    0    0 -0.21830977134E+02  0.35649520405E+02 -0.20206804189E+01  0.41851678785E+02  0.00000000000E+00 0.  1.
</event>
<event>
 7    1  0.3568207E-015  0.9000773E+02  0.7816164E-02  0.1186339E+00
        -11   -1    0    0    0    0  0.00000000000E+00  0.00000000000E+00  0.45593999997E+02  0.45594000000E+02  0.51100000000E-03 0. -1.
         11   -1    0    0    0    0 -0.00000000000E+00 -0.00000000000E+00 -0.45593999997E+02  0.45594000000E+02  0.51100000000E-03 0.  1.
    9900012    2    1    2    0    0  0.18314018623E+00  0.34212945706E+00 -0.11146528329E+01  0.90007727222E+02  0.89999988421E+02 0.  0.
         12    1    1    2    0    0 -0.18314018623E+00 -0.34212945706E+00  0.11146528329E+01  0.11802727783E+01  0.00000000000E+00 0. -1.
         11    1    3    3    0    0  0.11668337167E+02 -0.26523744131E+01  0.43287098100E+01  0.12724893365E+02  0.51100000000E-03 0. -1.
        -11    1    3    3    0    0  0.17768677915E+02  0.15773933997E+02 -0.29086495393E+02  0.37557517532E+02  0.51100000000E-03 0.  1.
         12    1    3    3    0    0 -0.29253874896E+02 -0.12779430127E+02  0.23643132751E+02  0.39725316325E+02  0.00000000000E+00 0. -1.
</event>
<event>
 7    1  0.3568207E-015  0.9000770E+02  0.7816164E-02  0.1186339E+00
        -11   -1    0    0    0    0  0.00000000000E+00  0.00000000000E+00  0.45593999997E+02  0.45594000000E+02  0.51100000000E-03 0. -1.
         11   -1    0    0    0    0 -0.00000000000E+00 -0.00000000000E+00 -0.45593999997E+02  0.45594000000E+02  0.51100000000E-03 0.  1.
    9900012    2    1    2    0    0  0.58208766539E+00 -0.68527117490E+00 -0.76464263452E+00  0.90007703007E+02  0.89999963887E+02 0.  0.
         12    1    1    2    0    0 -0.58208766539E+00  0.68527117490E+00  0.76464263452E+00  0.11802969931E+01  0.00000000000E+00 0. -1.
         11    1    3    3    0    0 -0.10302742793E+02 -0.26657392084E+01  0.37940862616E+02  0.39405097778E+02  0.51100000000E-03 0. -1.
        -11    1    3    3    0    0 -0.81640407954E+01 -0.39448497192E+01 -0.27352116309E+01  0.94707330415E+01  0.51100000000E-03 0.  1.
        -12    1    3    3    0    0  0.19048871254E+02  0.59253177527E+01 -0.35970293620E+02  0.41131872187E+02  0.00000000000E+00 0.  1.
</event>
<event>
 7    1  0.3568207E-015  0.9000788E+02  0.7816164E-02  0.1186339E+00
        -11   -1    0    0    0    0  0.00000000000E+00  0.00000000000E+00  0.45593999997E+02  0.45594000000E+02  0.51100000000E-03 0. -1.
         11   -1    0    0    0    0 -0.00000000000E+00 -0.00000000000E+00 -0.45593999997E+02  0.45594000000E+02  0.51100000000E-03 0.  1.
    9900012    2    1    2    0    0 -0.50484160891E+00 -0.98222955081E+00  0.41599579089E+00  0.90007876092E+02  0.90000139256E+02 0.  0.
         12    1    1    2    0    0  0.50484160891E+00  0.98222955081E+00 -0.41599579089E+00  0.11801239082E+01  0.00000000000E+00 0. -1.
         11    1    3    3    0    0  0.12124349453E+02 -0.13131043976E+02 -0.26291617948E+02  0.31791089005E+02  0.51100000000E-03 0. -1.
        -11    1    3    3    0    0  0.53499534287E+01 -0.13090871985E+02 -0.38907862856E+01  0.14667349768E+02  0.51100000000E-03 0.  1.
        -12    1    3    3    0    0 -0.17979144490E+02  0.25239686410E+02  0.30598400025E+02  0.43549437319E+02  0.00000000000E+00 0.  1.
</event>
<event>
 7    1  0.3568207E-015  0.9000772E+02  0.7816164E-02  0.1186339E+00
        -11   -1    0    0    0    0  0.00000000000E+00  0.00000000000E+00  0.45593999997E+02  0.45594000000E+02  0.51100000000E-03 0.  1.
         11   -1    0    0    0    0 -0.00000000000E+00 -0.00000000000E+00 -0.45593999997E+02  0.45594000000E+02  0.51100000000E-03 0. -1.
    9900012    2    1    2    0    0 -0.11058627819E+01 -0.41121874575E+00 -0.31921120413E-01  0.90007723631E+02  0.89999984783E+02 0.  0.
         12    1    1    2    0    0  0.11058627819E+01  0.41121874575E+00  0.31921120413E-01  0.11802763690E+01  0.00000000000E+00 0. -1.
         11    1    3    3    0    0 -0.30215603404E+02  0.26823587746E+02  0.70423541894E+01  0.41013196674E+02  0.51100000000E-03 0. -1.
        -11    1    3    3    0    0  0.35985426939E+01  0.56780446195E+01 -0.21730717463E+01  0.70648383773E+01  0.51100000000E-03 0.  1.
        -12    1    3    3    0    0  0.25511197928E+02 -0.32912851112E+02 -0.49012035635E+01  0.41929688580E+02  0.00000000000E+00 0.  1.
</event>
<event>
 7    1  0.3568207E-015  0.9000775E+02  0.7816164E-02  0.1186339E+00
        -11   -1    0    0    0    0  0.00000000000E+00  0.00000000000E+00  0.45593999997E+02  0.45594000000E+02  0.51100000000E-03 0.  1.
         11   -1    0    0    0    0 -0.00000000000E+00 -0.00000000000E+00 -0.45593999997E+02  0.45594000000E+02  0.51100000000E-03 0. -1.
    9900012    2    1    2    0    0  0.64636791977E+00 -0.82665947951E+00  0.54020602180E+00  0.90007754293E+02  0.90000015850E+02 0.  0.
         12    1    1    2    0    0 -0.64636791977E+00  0.82665947951E+00 -0.54020602180E+00  0.11802457070E+01  0.00000000000E+00 0. -1.
         11    1    3    3    0    0 -0.61147945382E+00 -0.22846119509E+02 -0.33234966335E+02  0.40334626208E+02  0.51100000000E-03 0. -1.
        -11    1    3    3    0    0  0.55331287161E+01  0.97601142042E+00 -0.35255331361E+01  0.66330608196E+01  0.51100000000E-03 0.  1.
        -12    1    3    3    0    0 -0.42752813426E+01  0.21043448609E+02  0.37300705493E+02  0.43040067266E+02  0.00000000000E+00 0.  1.
</event>
<event>
 7    1  0.3568207E-015  0.9000775E+02  0.7816164E-02  0.1186339E+00
        -11   -1    0    0    0    0  0.00000000000E+00  0.00000000000E+00  0.45593999997E+02  0.45594000000E+02  0.51100000000E-03 0. -1.
         11   -1    0    0    0    0 -0.00000000000E+00 -0.00000000000E+00 -0.45593999997E+02  0.45594000000E+02  0.51100000000E-03 0.  1.
    9900012    2    1    2    0    0  0.11240025158E+01 -0.21377670233E+00 -0.28965996790E+00  0.90007752132E+02  0.90000013660E+02 0.  0.
         12    1    1    2    0    0 -0.11240025158E+01  0.21377670233E+00  0.28965996790E+00  0.11802478685E+01  0.00000000000E+00 0. -1.
         11    1    3    3    0    0 -0.16426334413E+02 -0.76502200045E+01  0.37596575789E+02  0.41735510536E+02  0.51100000000E-03 0. -1.
        -11    1    3    3    0    0 -0.25918575087E+01  0.74796320395E+01 -0.40432770525E+01  0.88887969026E+01  0.51100000000E-03 0.  1.
        -12    1    3    3    0    0  0.20142194437E+02 -0.43188737343E-01 -0.33842958704E+02  0.39383444693E+02  0.00000000000E+00 0.  1.
</event>
<event>
 7    1  0.3568207E-015  0.9000786E+02  0.7816164E-02  0.1186339E+00
        -11   -1    0    0    0    0  0.00000000000E+00  0.00000000000E+00  0.45593999997E+02  0.45594000000E+02  0.51100000000E-03 0. -1.
         11   -1    0    0    0    0 -0.00000000000E+00 -0.00000000000E+00 -0.45593999997E+02  0.45594000000E+02  0.51100000000E-03 0.  1.
    9900012    2    1    2    0    0  0.99125151099E+00  0.23189704976E+00 -0.59697111016E+00  0.90007860048E+02  0.90000123001E+02 0.  0.
         12    1    1    2    0    0 -0.99125151099E+00 -0.23189704976E+00  0.59697111016E+00  0.11801399519E+01  0.00000000000E+00 0. -1.
         11    1    3    3    0    0 -0.34635035945E+02 -0.22460816383E+02 -0.26402962446E+01  0.41364781542E+02  0.51100000000E-03 0. -1.
        -11    1    3    3    0    0  0.80668760259E+01 -0.19823013831E+01 -0.66534235404E+01  0.10642934401E+02  0.51100000000E-03 0.  1.
        -12    1    3    3    0    0  0.27559411430E+02  0.24675014816E+02  0.86967486749E+01  0.38000144105E+02  0.00000000000E+00 0.  1.
</event>
<event>
 7    1  0.3568207E-015  0.9000837E+02  0.7816164E-02  0.1186338E+00
        -11   -1    0    0    0    0  0.00000000000E+00  0.00000000000E+00  0.45593999997E+02  0.45594000000E+02  0.51100000000E-03 0. -1.
         11   -1    0    0    0    0 -0.00000000000E+00 -0.00000000000E+00 -0.45593999997E+02  0.45594000000E+02  0.51100000000E-03 0.  1.
    9900012    2    1    2    0    0 -0.10114780615E+00  0.79838360850E+00 -0.86248526279E+00  0.90008369510E+02  0.90000639185E+02 0.  0.
         12    1    1    2    0    0  0.10114780615E+00 -0.79838360850E+00  0.86248526279E+00  0.11796304903E+01  0.00000000000E+00 0. -1.
         11    1    3    3    0    0 -0.63600110597E+01  0.28363594922E+01 -0.58276319482E+01  0.90805269799E+01  0.51100000000E-03 0. -1.
        -11    1    3    3    0    0 -0.28031269950E+02 -0.11478862515E+02 -0.21029489269E+02  0.36874866763E+02  0.51100000000E-03 0.  1.
         12    1    3    3    0    0  0.34290133203E+02  0.94408866315E+01  0.25994635954E+02  0.44052975767E+02  0.00000000000E+00 0. -1.
</event>
<event>
 7    1  0.3568207E-015  0.9000772E+02  0.7816164E-02  0.1186339E+00
        -11   -1    0    0    0    0  0.00000000000E+00  0.00000000000E+00  0.45593999997E+02  0.45594000000E+02  0.51100000000E-03 0.  1.
         11   -1    0    0    0    0 -0.00000000000E+00 -0.00000000000E+00 -0.45593999997E+02  0.45594000000E+02  0.51100000000E-03 0. -1.
    9900012    2    1    2    0    0  0.18386566942E+00 -0.31426328306E+00  0.11227185219E+01  0.90007718307E+02  0.89999979389E+02 0.  0.
         12    1    1    2    0    0 -0.18386566942E+00  0.31426328306E+00 -0.11227185219E+01  0.11802816930E+01  0.00000000000E+00 0. -1.
         11    1    3    3    0    0 -0.70775441984E+01 -0.56757664926E+01  0.38347279126E+01  0.98494210786E+01  0.51100000000E-03 0. -1.
        -11    1    3    3    0    0  0.27190980091E+01  0.42416328523E+02 -0.47652329702E+01  0.42769683947E+02  0.51100000000E-03 0.  1.
         12    1    3    3    0    0  0.45423118588E+01 -0.37054825314E+02  0.20532235796E+01  0.37388613282E+02  0.00000000000E+00 0. -1.
</event>
<event>
 7    1  0.3568207E-015  0.9000775E+02  0.7816164E-02  0.1186339E+00
        -11   -1    0    0    0    0  0.00000000000E+00  0.00000000000E+00  0.45593999997E+02  0.45594000000E+02  0.51100000000E-03 0.  1.
         11   -1    0    0    0    0 -0.00000000000E+00 -0.00000000000E+00 -0.45593999997E+02  0.45594000000E+02  0.51100000000E-03 0. -1.
    9900012    2    1    2    0    0 -0.34750729451E+00 -0.38777691164E+00  0.10591775497E+01  0.90007750308E+02  0.90000011812E+02 0.  0.
         12    1    1    2    0    0  0.34750729451E+00  0.38777691164E+00 -0.10591775497E+01  0.11802496916E+01  0.00000000000E+00 0. -1.
         11    1    3    3    0    0 -0.83636592421E+01  0.26968603774E+01  0.24650481044E+01  0.91269005819E+01  0.51100000000E-03 0. -1.
        -11    1    3    3    0    0 -0.13397137754E+02 -0.35577435446E+02 -0.13161028191E+02  0.40229962418E+02  0.51100000000E-03 0.  1.
         12    1    3    3    0    0  0.21413289702E+02  0.32492798157E+02  0.11755157636E+02  0.40650887308E+02  0.00000000000E+00 0. -1.
</event>
<event>
 7    1  0.3568207E-015  0.9000781E+02  0.7816164E-02  0.1186339E+00
        -11   -1    0    0    0    0  0.00000000000E+00  0.00000000000E+00  0.45593999997E+02  0.45594000000E+02  0.51100000000E-03 0. -1.
         11   -1    0    0    0    0 -0.00000000000E+00 -0.00000000000E+00 -0.45593999997E+02  0.45594000000E+02  0.51100000000E-03 0.  1.
    9900012    2    1    2    0    0  0.10853403738E+01  0.41484871917E+00 -0.20686331451E+00  0.90007806957E+02  0.90000069209E+02 0.  0.
         12    1    1    2    0    0 -0.10853403738E+01 -0.41484871917E+00  0.20686331451E+00  0.11801930425E+01  0.00000000000E+00 0. -1.
         11    1    3    3    0    0 -0.28128686453E+02  0.11376005926E+02  0.23230227823E+02  0.38213610106E+02  0.51100000000E-03 0. -1.
        -11    1    3    3    0    0 -0.37575702138E+01 -0.11497781980E+02 -0.15019781856E+01  0.12189104278E+02  0.51100000000E-03 0.  1.
        -12    1    3    3    0    0  0.32971597040E+02  0.53662477313E+00 -0.21935112952E+02  0.39605092574E+02  0.00000000000E+00 0.  1.
</event>
<event>
 7    1  0.3568207E-015  0.9000782E+02  0.7816164E-02  0.1186339E+00
        -11   -1    0    0    0    0  0.00000000000E+00  0.00000000000E+00  0.45593999997E+02  0.45594000000E+02  0.51100000000E-03 0.  1.
         11   -1    0    0    0    0 -0.00000000000E+00 -0.00000000000E+00 -0.45593999997E+02  0.45594000000E+02  0.51100000000E-03 0. -1.
    9900012    2    1    2    0    0 -0.21693066955E+00  0.11391540234E+01  0.21929217196E+00  0.90007822106E+02  0.90000084558E+02 0.  0.
         12    1    1    2    0    0  0.21693066955E+00 -0.11391540234E+01 -0.21929217196E+00  0.11801778939E+01  0.00000000000E+00 0. -1.
         11    1    3    3    0    0 -0.81135277304E+01 -0.38101475129E+02  0.48969692853E+01  0.39262348983E+02  0.51100000000E-03 0. -1.
        -11    1    3    3    0    0 -0.70618979694E+01 -0.11021176547E+00 -0.49875613255E+01  0.86462892503E+01  0.51100000000E-03 0.  1.
        -12    1    3    3    0    0  0.14958495030E+02  0.39350840918E+02  0.30988421223E+00  0.42099183873E+02  0.00000000000E+00 0.  1.
</event>
<event>
 7    1  0.3568207E-015  0.9000773E+02  0.7816164E-02  0.1186339E+00
        -11   -1    0    0    0    0  0.00000000000E+00  0.00000000000E+00  0.45593999997E+02  0.45594000000E+02  0.51100000000E-03 0. -1.
         11   -1    0    0    0    0 -0.00000000000E+00 -0.00000000000E+00 -0.45593999997E+02  0.45594000000E+02  0.51100000000E-03 0.  1.
    9900012    2    1    2    0    0 -0.53008498692E+00 -0.10165079307E+01 -0.28062100352E+00  0.90007734515E+02  0.89999995811E+02 0.  0.
         12    1    1    2    0    0  0.53008498692E+00  0.10165079307E+01  0.28062100352E+00  0.11802654846E+01  0.00000000000E+00 0. -1.
         11    1    3    3    0    0  0.38207077878E+02  0.15087489777E+02 -0.38708937982E+00  0.41079958449E+02  0.51100000000E-03 0. -1.
        -11    1    3    3    0    0 -0.77981402612E+01  0.59288884300E+01  0.43315804934E+01  0.10710989655E+02  0.51100000000E-03 0.  1.
        -12    1    3    3    0    0 -0.30939022604E+02 -0.22032886137E+02 -0.42251121171E+01  0.38216786412E+02  0.00000000000E+00 0.  1.
</event>
<event>
 7    1  0.3568207E-015  0.9000772E+02  0.7816164E-02  0.1186339E+00
        -11   -1    0    0    0    0  0.00000000000E+00  0.00000000000E+00  0.45593999997E+02  0.45594000000E+02  0.51100000000E-03 0. -1.
         11   -1    0    0    0    0 -0.00000000000E+00 -0.00000000000E+00 -0.45593999997E+02  0.45594000000E+02  0.51100000000E-03 0.  1.
    9900012    2    1    2    0    0  0.23469328632E+00 -0.11261332664E+01 -0.26421939869E+00  0.90007716575E+02  0.89999977634E+02 0.  0.
         12    1    1    2    0    0 -0.23469328632E+00  0.11261332664E+01  0.26421939869E+00  0.11802834248E+01  0.00000000000E+00 0. -1.
         11    1    3    3    0    0 -0.60122341553E+01 -0.30020348296E+02  0.21152497654E+02  0.37212853003E+02  0.51100000000E-03 0. -1.
        -11    1    3    3    0    0 -0.33125403495E+01 -0.67687453555E+01 -0.12842803893E+02  0.14890481837E+02  0.51100000000E-03 0.  1.
        -12    1    3    3    0    0  0.95594677911E+01  0.35662960385E+02 -0.85739131600E+01  0.37904381735E+02  0.00000000000E+00 0.  1.
</event>
<event>
 7    1  0.3568207E-015  0.9000783E+02  0.7816164E-02  0.1186339E+00
        -11   -1    0    0    0    0  0.00000000000E+00  0.00000000000E+00  0.45593999997E+02  0.45594000000E+02  0.51100000000E-03 0. -1.
         11   -1    0    0    0    0 -0.00000000000E+00 -0.00000000000E+00 -0.45593999997E+02  0.45594000000E+02  0.51100000000E-03 0.  1.
    9900012    2    1    2    0    0  0.56785038693E+00 -0.53025986661E+00 -0.88835921723E+00  0.90007825569E+02  0.90000088067E+02 0.  0.
         12    1    1    2    0    0 -0.56785038693E+00  0.53025986661E+00  0.88835921723E+00  0.11801744307E+01  0.00000000000E+00 0. -1.
         11    1    3    3    0    0  0.24959224073E+02  0.12345185664E+02  0.22806804246E+02  0.35993288202E+02  0.51100000000E-03 0. -1.
        -11    1    3    3    0    0 -0.33667952612E+01 -0.91752994048E+01  0.10091684820E+02  0.14048613179E+02  0.51100000000E-03 0.  1.
        -12    1    3    3    0    0 -0.21024578425E+02 -0.37001461261E+01 -0.33786848283E+02  0.39965924188E+02  0.00000000000E+00 0.  1.
</event>
<event>
 7    1  0.3568207E-015  0.9000760E+02  0.7816164E-02  0.1186339E+00
        -11   -1    0    0    0    0  0.00000000000E+00  0.00000000000E+00  0.45593999997E+02  0.45594000000E+02  0.51100000000E-03 0.  1.
         11   -1    0    0    0    0 -0.00000000000E+00 -0.00000000000E+00 -0.45593999997E+02  0.45594000000E+02  0.51100000000E-03 0. -1.
    9900012    2    1    2    0    0 -0.18626071563E-01 -0.10269454152E+01  0.58170428819E+00  0.90007600197E+02  0.89999859719E+02 0.  0.
         12    1    1    2    0    0  0.18626071563E-01  0.10269454152E+01 -0.58170428819E+00  0.11803998032E+01  0.00000000000E+00 0. -1.
         11    1    3    3    0    0 -0.67617628938E+00  0.10620475996E+02  0.25178975040E+01  0.10935791369E+02  0.51100000000E-03 0. -1.
        -11    1    3    3    0    0 -0.82943398388E+01  0.22893494698E+02  0.24593068220E+02  0.34608195237E+02  0.51100000000E-03 0.  1.
         12    1    3    3    0    0  0.89518900567E+01 -0.34540916109E+02 -0.26529261436E+02  0.44463613591E+02  0.00000000000E+00 0. -1.
</event>
<event>
 7    1  0.3568207E-015  0.9000763E+02  0.7816164E-02  0.1186339E+00
        -11   -1    0    0    0    0  0.00000000000E+00  0.00000000000E+00  0.45593999997E+02  0.45594000000E+02  0.51100000000E-03 0.  1.
         11   -1    0    0    0    0 -0.00000000000E+00 -0.00000000000E+00 -0.45593999997E+02  0.45594000000E+02  0.51100000000E-03 0. -1.
    9900012    2    1    2    0    0 -0.22913016010E+00 -0.87793969161E-01  0.11545851449E+01  0.90007629182E+02  0.89999889087E+02 0.  0.
         12    1    1    2    0    0  0.22913016010E+00  0.87793969161E-01 -0.11545851449E+01  0.11803708180E+01  0.00000000000E+00 0. -1.
         11    1    3    3    0    0  0.21096019163E+02  0.31100902341E+02 -0.22484872394E+02  0.43793579869E+02  0.51100000000E-03 0. -1.
        -11    1    3    3    0    0  0.98844344938E+00 -0.59073370724E+01  0.36737329653E+01  0.70263764417E+01  0.51100000000E-03 0.  1.
        -12    1    3    3    0    0 -0.22313592773E+02 -0.25281359238E+02  0.19965724573E+02  0.39187672871E+02  0.00000000000E+00 0.  1.
</event>
<event>
 7    1  0.3568207E-015  0.9000773E+02  0.7816164E-02  0.1186339E+00
        -11   -1    0    0    0    0  0.00000000000E+00  0.00000000000E+00  0.45593999997E+02  0.45594000000E+02  0.51100000000E-03 0.  1.
         11   -1    0    0    0    0 -0.00000000000E+00 -0.00000000000E+00 -0.45593999997E+02  0.45594000000E+02  0.51100000000E-03 0. -1.
    9900012    2    1    2    0    0  0.91808041350E+00 -0.71212085739E+00  0.20746513270E+00  0.90007733275E+02  0.89999994554E+02 0.  0.
         12    1    1    2    0    0 -0.91808041350E+00  0.71212085739E+00 -0.20746513270E+00  0.11802667251E+01  0.00000000000E+00 0. -1.
         11    1    3    3    0    0 -0.38236683961E+02  0.17234382170E+02 -0.22838740758E+01  0.42003380937E+02  0.51100000000E-03 0. -1.
        -11    1    3    3    0    0  0.26184013960E+01 -0.82326340461E+01 -0.42086422537E+01  0.96096284574E+01  0.51100000000E-03 0.  1.
        -12    1    3    3    0    0  0.36536362978E+02 -0.97138689813E+01  0.66999814622E+01  0.38394723880E+02  0.00000000000E+00 0.  1.
</event>
<event>
 7    1  0.3568207E-015  0.9000770E+02  0.7816164E-02  0.1186339E+00
        -11   -1    0    0    0    0  0.00000000000E+00  0.00000000000E+00  0.45593999997E+02  0.45594000000E+02  0.51100000000E-03 0. -1.
         11   -1    0    0    0    0 -0.00000000000E+00 -0.00000000000E+00 -0.45593999997E+02  0.45594000000E+02  0.51100000000E-03 0.  1.
    9900012    2    1    2    0    0  0.99989161570E+00 -0.37034548714E+00  0.50612184906E+00  0.90007704126E+02  0.89999965021E+02 0.  0.
         12    1    1    2    0    0 -0.99989161570E+00  0.37034548714E+00 -0.50612184906E+00  0.11802958735E+01  0.00000000000E+00 0. -1.
         11    1    3    3    0    0 -0.11607707617E+02  0.18733928833E+02  0.30947570472E+02  0.37992776735E+02  0.51100000000E-03 0. -1.
        -11    1    3    3    0    0 -0.97353457469E+01 -0.29086378938E+01  0.96629107888E+00  0.10206412196E+02  0.51100000000E-03 0.  1.
        -12    1    3    3    0    0  0.22342944980E+02 -0.16195636427E+02 -0.31407739702E+02  0.41808515195E+02  0.00000000000E+00 0.  1.
</event>
<event>
 7    1  0.3568207E-015  0.9000745E+02  0.7816164E-02  0.1186340E+00
        -11   -1    0    0    0    0  0.00000000000E+00  0.00000000000E+00  0.45593999997E+02  0.45594000000E+02  0.51100000000E-03 0. -1.
         11   -1    0    0    0    0 -0.00000000000E+00 -0.00000000000E+00 -0.45593999997E+02  0.45594000000E+02  0.51100000000E-03 0.  1.
    9900012    2    1    2    0    0 -0.65921076568E+00 -0.55623703849E+00 -0.80605956307E+00  0.90007453306E+02  0.89999710890E+02 0.  0.
         12    1    1    2    0    0  0.65921076568E+00  0.55623703849E+00  0.80605956307E+00  0.11805466936E+01  0.00000000000E+00 0. -1.
         11    1    3    3    0    0  0.35095593762E+02  0.10257678835E+02  0.58708626403E+01  0.37032252227E+02  0.51100000000E-03 0. -1.
        -11    1    3    3    0    0 -0.21899092876E+01  0.11834428417E+02 -0.22327113547E+01  0.12240686211E+02  0.51100000000E-03 0.  1.
        -12    1    3    3    0    0 -0.33564895240E+02 -0.22648344291E+02 -0.44442108487E+01  0.40734514869E+02  0.00000000000E+00 0.  1.
</event>
<event>
 7    1  0.3568207E-015  0.9000775E+02  0.7816164E-02  0.1186339E+00
        -11   -1    0    0    0    0  0.00000000000E+00  0.00000000000E+00  0.45593999997E+02  0.45594000000E+02  0.51100000000E-03 0.  1.
         11   -1    0    0    0    0 -0.00000000000E+00 -0.00000000000E+00 -0.45593999997E+02  0.45594000000E+02  0.51100000000E-03 0. -1.
    9900012    2    1    2    0    0 -0.92398446098E+00  0.43529815449E+00 -0.59140808065E+00  0.90007747787E+02  0.90000009258E+02 0.  0.
         12    1    1    2    0    0  0.92398446098E+00 -0.43529815449E+00  0.59140808065E+00  0.11802522126E+01  0.00000000000E+00 0. -1.
         11    1    3    3    0    0 -0.24164219474E+02 -0.32840158066E+02  0.22450884140E+01  0.40834126742E+02  0.51100000000E-03 0. -1.
        -11    1    3    3    0    0  0.57953037410E+01 -0.14228405153E+01  0.69124292894E+01  0.91319055801E+01  0.51100000000E-03 0.  1.
        -12    1    3    3    0    0  0.17444931272E+02  0.34698296736E+02 -0.97489257840E+01  0.40041715465E+02  0.00000000000E+00 0.  1.
</event>
<event>
 7    1  0.3568207E-015  0.9000768E+02  0.7816164E-02  0.1186339E+00
        -11   -1    0    0    0    0  0.00000000000E+00  0.00000000000E+00  0.45593999997E+02  0.45594000000E+02  0.51100000000E-03 0.  1.
         11   -1    0    0    0    0 -0.00000000000E+00 -0.00000000000E+00 -0.45593999997E+02  0.45594000000E+02  0.51100000000E-03 0. -1.
    9900012    2    1    2    0    0  0.10851192844E+01  0.45536810994E+00 -0.91130107492E-01  0.90007682808E+02  0.89999943421E+02 0.  0.
         12    1    1    2    0    0 -0.10851192844E+01 -0.45536810994E+00  0.91130107492E-01  0.11803171919E+01  0.00000000000E+00 0. -1.
         11    1    3    3    0    0  0.11695969887E+02 -0.35929454891E+02 -0.21365938747E+00  0.37785805417E+02  0.51100000000E-03 0. -1.
        -11    1    3    3    0    0  0.30133536008E+01 -0.44447430063E+01  0.67996529762E+01  0.86643707892E+01  0.51100000000E-03 0.  1.
        -12    1    3    3    0    0 -0.13624204203E+02  0.40829566008E+02 -0.66771236962E+01  0.43557506602E+02  0.00000000000E+00 0.  1.
</event>
<event>
 7    1  0.3568207E-015  0.9000751E+02  0.7816164E-02  0.1186339E+00
        -11   -1    0    0    0    0  0.00000000000E+00  0.00000000000E+00  0.45593999997E+02  0.45594000000E+02  0.51100000000E-03 0.  1.
         11   -1    0    0    0    0 -0.00000000000E+00 -0.00000000000E+00 -0.45593999997E+02  0.45594000000E+02  0.51100000000E-03 0. -1.
    9900012    2    1    2    0    0  0.57228962245E+00  0.62316657616E+00 -0.82322507621E+00  0.90007512169E+02  0.89999770529E+02 0.  0.
         12    1    1    2    0    0 -0.57228962245E+00 -0.62316657616E+00  0.82322507621E+00  0.11804878312E+01  0.00000000000E+00 0. -1.
         11    1    3    3    0    0  0.99570788249E+01 -0.91081999239E+00 -0.16143138648E+01  0.10128130198E+02  0.51100000000E-03 0. -1.
        -11    1    3    3    0    0 -0.12859992039E+02 -0.31501946645E+02  0.21953089029E+02  0.40493087754E+02  0.51100000000E-03 0.  1.
         12    1    3    3    0    0  0.34752028365E+01  0.33035933214E+02 -0.21162000240E+02  0.39386294218E+02  0.00000000000E+00 0. -1.
</event>
<event>
 7    1  0.3568207E-015  0.9000830E+02  0.7816164E-02  0.1186338E+00
        -11   -1    0    0    0    0  0.00000000000E+00  0.00000000000E+00  0.45593999997E+02  0.45594000000E+02  0.51100000000E-03 0.  1.
         11   -1    0    0    0    0 -0.00000000000E+00 -0.00000000000E+00 -0.45593999997E+02  0.45594000000E+02  0.51100000000E-03 0. -1.
    9900012    2    1    2    0    0  0.65529386624E+00 -0.97962239031E+00  0.51100998279E-01  0.90008304535E+02  0.90000573353E+02 0.  0.
         12    1    1    2    0    0 -0.65529386624E+00  0.97962239031E+00 -0.51100998279E-01  0.11796954653E+01  0.00000000000E+00 0. -1.
         11    1    3    3    0    0  0.11341291765E+02 -0.26264813387E+02 -0.26257501366E+02  0.38831967494E+02  0.51100000000E-03 0. -1.
        -11    1    3    3    0    0  0.45958933687E+01  0.43150243120E+01 -0.66936996840E+01  0.91949598362E+01  0.51100000000E-03 0.  1.
        -12    1    3    3    0    0 -0.15281891267E+02  0.20970166685E+02  0.33002302049E+02  0.41981377205E+02  0.00000000000E+00 0.  1.
</event>
<event>
 7    1  0.3568207E-015  0.9000775E+02  0.7816164E-02  0.1186339E+00
        -11   -1    0    0    0    0  0.00000000000E+00  0.00000000000E+00  0.45593999997E+02  0.45594000000E+02  0.51100000000E-03 0. -1.
         11   -1    0    0    0    0 -0.00000000000E+00 -0.00000000000E+00 -0.45593999997E+02  0.45594000000E+02  0.51100000000E-03 0.  1.
    9900012    2    1    2    0    0 -0.11278185607E+01  0.10224933628E+00 -0.33251371079E+00  0.90007747908E+02  0.90000009380E+02 0.  0.
         12    1    1    2    0    0  0.11278185607E+01 -0.10224933628E+00  0.33251371079E+00  0.11802520920E+01  0.00000000000E+00 0. -1.
         11    1    3    3    0    0 -0.25465759712E+02 -0.15515854364E+02  0.25476424063E+02  0.39221101943E+02  0.51100000000E-03 0. -1.
        -11    1    3    3    0    0  0.54849630261E+01 -0.12768373565E+01  0.72296806862E+01  0.91642466203E+01  0.51100000000E-03 0.  1.
        -12    1    3    3    0    0  0.18852978125E+02  0.16894941057E+02 -0.33038618460E+02  0.41622399345E+02  0.00000000000E+00 0.  1.
</event>
<event>
 7    1  0.3568207E-015  0.9000775E+02  0.7816164E-02  0.1186339E+00
        -11   -1    0    0    0    0  0.00000000000E+00  0.00000000000E+00  0.45593999997E+02  0.45594000000E+02  0.51100000000E-03 0.  1.
         11   -1    0    0    0    0 -0.00000000000E+00 -0.00000000000E+00 -0.45593999997E+02  0.45594000000E+02  0.51100000000E-03 0. -1.
    9900012    2    1    2    0    0 -0.76353425622E-01  0.98090962984E+00  0.65190937852E+00  0.90007746050E+02  0.90000007498E+02 0.  0.
         12    1    1    2    0    0  0.76353425622E-01 -0.98090962984E+00 -0.65190937852E+00  0.11802539495E+01  0.00000000000E+00 0. -1.
         11    1    3    3    0    0 -0.15752874989E+01 -0.74090451434E+01  0.71345934895E+00  0.76081867186E+01  0.51100000000E-03 0. -1.
        -11    1    3    3    0    0 -0.39360816133E+02  0.20704477115E+01  0.81435362670E+01  0.40247705321E+02  0.51100000000E-03 0.  1.
         12    1    3    3    0    0  0.40859750206E+02  0.63195070618E+01 -0.82050862374E+01  0.42151854011E+02  0.00000000000E+00 0. -1.
</event>
<event>
 7    1  0.3568207E-015  0.9000777E+02  0.7816164E-02  0.1186339E+00
        -11   -1    0    0    0    0  0.00000000000E+00  0.00000000000E+00  0.45593999997E+02  0.45594000000E+02  0.51100000000E-03 0. -1.
         11   -1    0    0    0    0 -0.00000000000E+00 -0.00000000000E+00 -0.45593999997E+02  0.45594000000E+02  0.51100000000E-03 0.  1.
    9900012    2    1    2    0    0  0.45279124956E+00  0.10543437435E+01 -0.27618478406E+00  0.90007771768E+02  0.90000033555E+02 0.  0.
         12    1    1    2    0    0 -0.45279124956E+00 -0.10543437435E+01  0.27618478406E+00  0.11802282322E+01  0.00000000000E+00 0. -1.
         11    1    3    3    0    0  0.38218625484E+02 -0.14058265037E+01 -0.20572270046E+02  0.43426466321E+02  0.51100000000E-03 0. -1.
        -11    1    3    3    0    0 -0.14219607649E+01  0.22219421854E+01  0.76618838454E+01  0.81032995634E+01  0.51100000000E-03 0.  1.
        -12    1    3    3    0    0 -0.36343873469E+02  0.23822806183E+00  0.12634201416E+02  0.38478005884E+02  0.00000000000E+00 0.  1.
</event>
<event>
 7    1  0.3568207E-015  0.9000772E+02  0.7816164E-02  0.1186339E+00
        -11   -1    0    0    0    0  0.00000000000E+00  0.00000000000E+00  0.45593999997E+02  0.45594000000E+02  0.51100000000E-03 0.  1.
         11   -1    0    0    0    0 -0.00000000000E+00 -0.00000000000E+00 -0.45593999997E+02  0.45594000000E+02  0.51100000000E-03 0. -1.
    9900012    2    1    2    0    0  0.55504434325E+00 -0.17075951313E+00  0.10275335929E+01  0.90007721084E+02  0.89999982203E+02 0.  0.
         12    1    1    2    0    0 -0.55504434325E+00  0.17075951313E+00 -0.10275335929E+01  0.11802789157E+01  0.00000000000E+00 0. -1.
         11    1    3    3    0    0  0.36877604447E+01 -0.94359237763E+01  0.59212762791E+01  0.11734468358E+02  0.51100000000E-03 0. -1.
        -11    1    3    3    0    0  0.69368481607E+01  0.46336519353E+01  0.35458459305E+02  0.36426541549E+02  0.51100000000E-03 0.  1.
         12    1    3    3    0    0 -0.10069564262E+02  0.46315123279E+01 -0.40352201991E+02  0.41846711178E+02  0.00000000000E+00 0. -1.
</event>
<event>
 7    1  0.3840176E-015  0.9000770E+02  0.7816164E-02  0.1186339E+00
        -11   -1    0    0    0    0  0.00000000000E+00  0.00000000000E+00  0.45593999997E+02  0.45594000000E+02  0.51100000000E-03 0. -1.
         11   -1    0    0    0    0 -0.00000000000E+00 -0.00000000000E+00 -0.45593999997E+02  0.45594000000E+02  0.51100000000E-03 0.  1.
    9900012    2    1    2    0    0 -0.32113631114E+00  0.10641455180E+01 -0.39694280936E+00  0.90007704356E+02  0.89999965253E+02 0.  0.
         12    1    1    2    0    0  0.32113631114E+00 -0.10641455180E+01  0.39694280936E+00  0.11802956442E+01  0.00000000000E+00 0. -1.
         11    1    3    3    0    0  0.36948136074E+01  0.45869807405E+01  0.76224835198E+01  0.96329795587E+01  0.51100000000E-03 0. -1.
        -11    1    3    3    0    0  0.21277549853E+02  0.25305132252E+02 -0.21823349417E+02  0.39614926809E+02  0.51100000000E-03 0.  1.
         12    1    3    3    0    0 -0.25293499772E+02 -0.28827967475E+02  0.13803923088E+02  0.40759797988E+02  0.00000000000E+00 0. -1.
</event>
<event>
 7    1  0.3568207E-015  0.9000769E+02  0.7816164E-02  0.1186339E+00
        -11   -1    0    0    0    0  0.00000000000E+00  0.00000000000E+00  0.45593999997E+02  0.45594000000E+02  0.51100000000E-03 0. -1.
         11   -1    0    0    0    0 -0.00000000000E+00 -0.00000000000E+00 -0.45593999997E+02  0.45594000000E+02  0.51100000000E-03 0.  1.
    9900012    2    1    2    0    0 -0.70988259098E+00 -0.76588983245E+00 -0.55009670114E+00  0.90007692028E+02  0.89999952763E+02 0.  0.
         12    1    1    2    0    0  0.70988259098E+00  0.76588983245E+00  0.55009670114E+00  0.11803079721E+01  0.00000000000E+00 0. -1.
         11    1    3    3    0    0 -0.95203583662E+01  0.39446610814E+00  0.75103287259E-01  0.95288229964E+01  0.51100000000E-03 0. -1.
        -11    1    3    3    0    0  0.87782974770E+01  0.33920651506E+02 -0.20059977207E+02  0.40374147558E+02  0.51100000000E-03 0.  1.
         12    1    3    3    0    0  0.32178298278E-01 -0.35081007447E+02  0.19434777219E+02  0.40104721474E+02  0.00000000000E+00 0. -1.
</event>
<event>
 7    1  0.3568207E-015  0.9000753E+02  0.7816164E-02  0.1186339E+00
        -11   -1    0    0    0    0  0.00000000000E+00  0.00000000000E+00  0.45593999997E+02  0.45594000000E+02  0.51100000000E-03 0. -1.
         11   -1    0    0    0    0 -0.00000000000E+00 -0.00000000000E+00 -0.45593999997E+02  0.45594000000E+02  0.51100000000E-03 0.  1.
    9900012    2    1    2    0    0  0.95503820730E+00  0.59749820341E+00 -0.35272049973E+00  0.90007528132E+02  0.89999786703E+02 0.  0.
         12    1    1    2    0    0 -0.95503820730E+00 -0.59749820341E+00  0.35272049973E+00  0.11804718681E+01  0.00000000000E+00 0. -1.
         11    1    3    3    0    0  0.55073975099E+01  0.27861530117E+02  0.28020239260E+02  0.39896492280E+02  0.51100000000E-03 0. -1.
        -11    1    3    3    0    0 -0.36446132601E+01 -0.46701306376E+01  0.63437548161E+01  0.86796630934E+01  0.51100000000E-03 0.  1.
        -12    1    3    3    0    0 -0.90774604255E+00 -0.22593901276E+02 -0.34716714575E+02  0.41431372759E+02  0.00000000000E+00 0.  1.
</event>
<event>
 7    1  0.4578263E-015  0.9000800E+02  0.7816164E-02  0.1186339E+00
        -11   -1    0    0    0    0  0.00000000000E+00  0.00000000000E+00  0.45593999997E+02  0.45594000000E+02  0.51100000000E-03 0.  1.
         11   -1    0    0    0    0 -0.00000000000E+00 -0.00000000000E+00 -0.45593999997E+02  0.45594000000E+02  0.51100000000E-03 0. -1.
    9900012    2    1    2    0    0 -0.10332633880E+01 -0.37162118688E+00  0.43205017961E+00  0.90007998774E+02  0.90000263557E+02 0.  0.
         12    1    1    2    0    0  0.10332633880E+01  0.37162118688E+00 -0.43205017961E+00  0.11800012259E+01  0.00000000000E+00 0. -1.
         11    1    3    3    0    0  0.39246533853E+01 -0.27599429933E+01  0.77629656854E+01  0.91259972614E+01  0.51100000000E-03 0. -1.
        -11    1    3    3    0    0 -0.14845502888E+02  0.17958947794E+02  0.30743243928E+02  0.38575378279E+02  0.51100000000E-03 0.  1.
         12    1    3    3    0    0  0.98875861151E+01 -0.15570625988E+02 -0.38074159434E+02  0.42306623234E+02  0.00000000000E+00 0. -1.
</event>
<event>
 7    1  0.3568207E-015  0.9000773E+02  0.7816164E-02  0.1186339E+00
        -11   -1    0    0    0    0  0.00000000000E+00  0.00000000000E+00  0.45593999997E+02  0.45594000000E+02  0.51100000000E-03 0.  1.
         11   -1    0    0    0    0 -0.00000000000E+00 -0.00000000000E+00 -0.45593999997E+02  0.45594000000E+02  0.51100000000E-03 0. -1.
    9900012    2    1    2    0    0 -0.43946345776E+00  0.10393289203E+01  0.34597893969E+00  0.90007731318E+02  0.89999992571E+02 0.  0.
         12    1    1    2    0    0  0.43946345776E+00 -0.10393289203E+01 -0.34597893969E+00  0.11802686821E+01  0.00000000000E+00 0. -1.
         11    1    3    3    0    0  0.32625222461E+02  0.94064886236E+00 -0.29029423620E+02  0.43680629539E+02  0.51100000000E-03 0. -1.
        -11    1    3    3    0    0 -0.44011578361E+01  0.40461358197E+01  0.15311492720E+01  0.61713713001E+01  0.51100000000E-03 0.  1.
        -12    1    3    3    0    0 -0.28663528083E+02 -0.39474557618E+01  0.27844253288E+02  0.40155730479E+02  0.00000000000E+00 0.  1.
</event>
<event>
 7    1  0.3568207E-015  0.9000785E+02  0.7816164E-02  0.1186339E+00
        -11   -1    0    0    0    0  0.00000000000E+00  0.00000000000E+00  0.45593999997E+02  0.45594000000E+02  0.51100000000E-03 0.  1.
         11   -1    0    0    0    0 -0.00000000000E+00 -0.00000000000E+00 -0.45593999997E+02  0.45594000000E+02  0.51100000000E-03 0. -1.
    9900012    2    1    2    0    0  0.44769625369E+00  0.10862810907E+01  0.11093728861E+00  0.90007853558E+02  0.90000116424E+02 0.  0.
         12    1    1    2    0    0 -0.44769625369E+00 -0.10862810907E+01 -0.11093728861E+00  0.11801464424E+01  0.00000000000E+00 0. -1.
         11    1    3    3    0    0 -0.46417978967E+01  0.38632463328E+02 -0.30500698504E+01  0.39029686610E+02  0.51100000000E-03 0. -1.
        -11    1    3    3    0    0 -0.71798733213E+01  0.18508310387E+01  0.61126553396E+01  0.96094074743E+01  0.51100000000E-03 0.  1.
        -12    1    3    3    0    0  0.12269367472E+02 -0.39397013276E+02 -0.29516482006E+01  0.41368759473E+02  0.00000000000E+00 0.  1.
</event>
<event>
 7    1  0.3568207E-015  0.9000782E+02  0.7816164E-02  0.1186339E+00
        -11   -1    0    0    0    0  0.00000000000E+00  0.00000000000E+00  0.45593999997E+02  0.45594000000E+02  0.51100000000E-03 0.  1.
         11   -1    0    0    0    0 -0.00000000000E+00 -0.00000000000E+00 -0.45593999997E+02  0.45594000000E+02  0.51100000000E-03 0. -1.
    9900012    2    1    2    0    0 -0.54808013402E+00 -0.10092566170E+01  0.27171209864E+00  0.90007822803E+02  0.90000085264E+02 0.  0.
         12    1    1    2    0    0  0.54808013402E+00  0.10092566170E+01 -0.27171209864E+00  0.11801771972E+01  0.00000000000E+00 0. -1.
         11    1    3    3    0    0 -0.18443384450E+02  0.18738215774E+02 -0.15518691405E+02  0.30530459275E+02  0.51100000000E-03 0. -1.
        -11    1    3    3    0    0 -0.14995435482E+02 -0.12364246970E+02 -0.47441294264E+01  0.20006110384E+02  0.51100000000E-03 0.  1.
        -12    1    3    3    0    0  0.32890739798E+02 -0.73832254209E+01  0.20534532930E+02  0.39471253144E+02  0.00000000000E+00 0.  1.
</event>
<event>
 7    1  0.3568207E-015  0.9000778E+02  0.7816164E-02  0.1186339E+00
        -11   -1    0    0    0    0  0.00000000000E+00  0.00000000000E+00  0.45593999997E+02  0.45594000000E+02  0.51100000000E-03 0. -1.
         11   -1    0    0    0    0 -0.00000000000E+00 -0.00000000000E+00 -0.45593999997E+02  0.45594000000E+02  0.51100000000E-03 0.  1.
    9900012    2    1    2    0    0 -0.83997159012E+00 -0.81116016866E+00 -0.17142564993E+00  0.90007779747E+02  0.90000041640E+02 0.  0.
         12    1    1    2    0    0  0.83997159012E+00  0.81116016866E+00  0.17142564993E+00  0.11802202527E+01  0.00000000000E+00 0. -1.
         11    1    3    3    0    0  0.49106122156E+01  0.91327701944E+00 -0.92772353227E+01  0.10536379015E+02  0.51100000000E-03 0. -1.
        -11    1    3    3    0    0  0.17757790811E+02  0.28629228543E+02  0.20484359044E+02  0.39428173013E+02  0.51100000000E-03 0.  1.
         12    1    3    3    0    0 -0.23508374617E+02 -0.30353665731E+02 -0.11378549371E+02  0.40043227720E+02  0.00000000000E+00 0. -1.
</event>
<event>
 7    1  0.3568207E-015  0.9000773E+02  0.7816164E-02  0.1186339E+00
        -11   -1    0    0    0    0  0.00000000000E+00  0.00000000000E+00  0.45593999997E+02  0.45594000000E+02  0.51100000000E-03 0.  1.
         11   -1    0    0    0    0 -0.00000000000E+00 -0.00000000000E+00 -0.45593999997E+02  0.45594000000E+02  0.51100000000E-03 0. -1.
    9900012    2    1    2    0    0  0.34260350221E+00  0.49157109300E+00  0.10168634111E+01  0.90007732871E+02  0.89999994145E+02 0.  0.
         12    1    1    2    0    0 -0.34260350221E+00 -0.49157109300E+00 -0.10168634111E+01  0.11802671291E+01  0.00000000000E+00 0. -1.
         11    1    3    3    0    0 -0.22066334044E+02 -0.26369712305E+02 -0.20025939524E+02  0.39790992439E+02  0.51100000000E-03 0. -1.
        -11    1    3    3    0    0 -0.61994554648E+01  0.68067838811E+01 -0.41470838885E+00  0.92161563665E+01  0.51100000000E-03 0.  1.
        -12    1    3    3    0    0  0.28608393011E+02  0.20054499516E+02  0.21457511324E+02  0.41000584066E+02  0.00000000000E+00 0.  1.
</event>
<event>
 7    1  0.3568207E-015  0.9000762E+02  0.7816164E-02  0.1186339E+00
        -11   -1    0    0    0    0  0.00000000000E+00  0.00000000000E+00  0.45593999997E+02  0.45594000000E+02  0.51100000000E-03 0. -1.
         11   -1    0    0    0    0 -0.00000000000E+00 -0.00000000000E+00 -0.45593999997E+02  0.45594000000E+02  0.51100000000E-03 0.  1.
    9900012    2    1    2    0    0  0.52255259718E+00  0.51825578262E+00 -0.92284376366E+00  0.90007622567E+02  0.89999882384E+02 0.  0.
         12    1    1    2    0    0 -0.52255259718E+00 -0.51825578262E+00  0.92284376366E+00  0.11803774333E+01  0.00000000000E+00 0. -1.
         11    1    3    3    0    0  0.19381074380E+02 -0.30310447115E+02  0.10748523832E+02  0.37548368983E+02  0.51100000000E-03 0. -1.
        -11    1    3    3    0    0  0.10872333135E+02  0.62442238945E+01 -0.21215969417E+01  0.12716097424E+02  0.51100000000E-03 0.  1.
        -12    1    3    3    0    0 -0.29730854918E+02  0.24584479003E+02 -0.95497706542E+01  0.39743156160E+02  0.00000000000E+00 0.  1.
</event>
<event>
 7    1  0.3568207E-015  0.9000770E+02  0.7816164E-02  0.1186339E+00
        -11   -1    0    0    0    0  0.00000000000E+00  0.00000000000E+00  0.45593999997E+02  0.45594000000E+02  0.51100000000E-03 0. -1.
         11   -1    0    0    0    0 -0.00000000000E+00 -0.00000000000E+00 -0.45593999997E+02  0.45594000000E+02  0.51100000000E-03 0.  1.
    9900012    2    1    2    0    0 -0.42676107496E+00  0.91718900598E+00 -0.60807209954E+00  0.90007698189E+02  0.89999959005E+02 0.  0.
         12    1    1    2    0    0  0.42676107496E+00 -0.91718900598E+00  0.60807209954E+00  0.11803018114E+01  0.00000000000E+00 0. -1.
         11    1    3    3    0    0 -0.58717386766E+01  0.12171469941E+02 -0.74373722497E+01  0.15425190496E+02  0.51100000000E-03 0. -1.
        -11    1    3    3    0    0  0.13037281771E+01 -0.24684018370E+02 -0.27806034884E+02  0.37204516477E+02  0.51100000000E-03 0.  1.
         12    1    3    3    0    0  0.41412494245E+01  0.13429737436E+02  0.34635335034E+02  0.37377991215E+02  0.00000000000E+00 0. -1.
</event>
<event>
 7    1  0.3568207E-015  0.9000772E+02  0.7816164E-02  0.1186339E+00
        -11   -1    0    0    0    0  0.00000000000E+00  0.00000000000E+00  0.45593999997E+02  0.45594000000E+02  0.51100000000E-03 0.  1.
         11   -1    0    0    0    0 -0.00000000000E+00 -0.00000000000E+00 -0.45593999997E+02  0.45594000000E+02  0.51100000000E-03 0. -1.
    9900012    2    1    2    0    0  0.96137534014E+00  0.58100222067E+00  0.36227851732E+00  0.90007723825E+02  0.89999984980E+02 0.  0.
         12    1    1    2    0    0 -0.96137534014E+00 -0.58100222067E+00 -0.36227851732E+00  0.11802761750E+01  0.00000000000E+00 0. -1.
         11    1    3    3    0    0  0.93178958229E+01  0.35274715554E+01 -0.47108725342E-02  0.99632454850E+01  0.51100000000E-03 0. -1.
        -11    1    3    3    0    0 -0.14146616862E+02  0.31388001246E+02 -0.19890290060E+02  0.39761250355E+02  0.51100000000E-03 0.  1.
         12    1    3    3    0    0  0.57900963796E+01 -0.34334470581E+02  0.20257279450E+02  0.40283227985E+02  0.00000000000E+00 0. -1.
</event>
<event>
 7    1  0.3568207E-015  0.9000817E+02  0.7816164E-02  0.1186338E+00
        -11   -1    0    0    0    0  0.00000000000E+00  0.00000000000E+00  0.45593999997E+02  0.45594000000E+02  0.51100000000E-03 0. -1.
         11   -1    0    0    0    0 -0.00000000000E+00 -0.00000000000E+00 -0.45593999997E+02  0.45594000000E+02  0.51100000000E-03 0.  1.
    9900012    2    1    2    0    0 -0.82707531929E+00  0.62586643656E+00 -0.56234417494E+00  0.90008172321E+02  0.90000439395E+02 0.  0.
         12    1    1    2    0    0  0.82707531929E+00 -0.62586643656E+00  0.56234417494E+00  0.11798276786E+01  0.00000000000E+00 0. -1.
         11    1    3    3    0    0  0.22934741909E+01  0.11567157174E+01  0.67242884819E+01  0.71981991473E+01  0.51100000000E-03 0. -1.
        -11    1    3    3    0    0 -0.17582325853E+02  0.33974464969E+02 -0.20162875321E+02  0.43242849048E+02  0.51100000000E-03 0.  1.
         12    1    3    3    0    0  0.14461776342E+02 -0.34505314250E+02  0.12876242665E+02  0.39567124126E+02  0.00000000000E+00 0. -1.
</event>
<event>
 7    1  0.3568207E-015  0.9000770E+02  0.7816164E-02  0.1186339E+00
        -11   -1    0    0    0    0  0.00000000000E+00  0.00000000000E+00  0.45593999997E+02  0.45594000000E+02  0.51100000000E-03 0. -1.
         11   -1    0    0    0    0 -0.00000000000E+00 -0.00000000000E+00 -0.45593999997E+02  0.45594000000E+02  0.51100000000E-03 0.  1.
    9900012    2    1    2    0    0  0.49299083588E+00 -0.96000893465E+00  0.47795472721E+00  0.90007704342E+02  0.89999965239E+02 0.  0.
         12    1    1    2    0    0 -0.49299083588E+00  0.96000893465E+00 -0.47795472721E+00  0.11802956579E+01  0.00000000000E+00 0. -1.
         11    1    3    3    0    0 -0.18112990978E+01  0.35156091692E+02  0.22979468164E+02  0.42039119221E+02  0.51100000000E-03 0. -1.
        -11    1    3    3    0    0 -0.67490759344E+01 -0.20264665858E+01 -0.45911932287E+01  0.84104487583E+01  0.51100000000E-03 0.  1.
        -12    1    3    3    0    0  0.90533658681E+01 -0.34089634041E+02 -0.17910320208E+02  0.39558136363E+02  0.00000000000E+00 0.  1.
</event>
<event>
 7    1  0.3568207E-015  0.9000846E+02  0.7816164E-02  0.1186338E+00
        -11   -1    0    0    0    0  0.00000000000E+00  0.00000000000E+00  0.45593999997E+02  0.45594000000E+02  0.51100000000E-03 0.  1.
         11   -1    0    0    0    0 -0.00000000000E+00 -0.00000000000E+00 -0.45593999997E+02  0.45594000000E+02  0.51100000000E-03 0. -1.
    9900012    2    1    2    0    0 -0.46278713224E+00 -0.77635814755E+00  0.75790660165E+00  0.90008455037E+02  0.90000725841E+02 0.  0.
         12    1    1    2    0    0  0.46278713224E+00  0.77635814755E+00 -0.75790660165E+00  0.11795449631E+01  0.00000000000E+00 0. -1.
         11    1    3    3    0    0 -0.36104732748E+02 -0.16859140858E+02 -0.40412184405E+01  0.40051389539E+02  0.51100000000E-03 0. -1.
        -11    1    3    3    0    0  0.64201761498E+00 -0.24576468088E+01  0.97188731831E+01  0.10045332780E+02  0.51100000000E-03 0.  1.
        -12    1    3    3    0    0  0.34999928001E+02  0.18540429519E+02 -0.49197481410E+01  0.39911732718E+02  0.00000000000E+00 0.  1.
</event>
<event>
 7    1  0.3568207E-015  0.9000775E+02  0.7816164E-02  0.1186339E+00
        -11   -1    0    0    0    0  0.00000000000E+00  0.00000000000E+00  0.45593999997E+02  0.45594000000E+02  0.51100000000E-03 0. -1.
         11   -1    0    0    0    0 -0.00000000000E+00 -0.00000000000E+00 -0.45593999997E+02  0.45594000000E+02  0.51100000000E-03 0.  1.
    9900012    2    1    2    0    0 -0.50117614235E+00 -0.81528696759E+00  0.69074569022E+00  0.90007745801E+02  0.90000007246E+02 0.  0.
         12    1    1    2    0    0  0.50117614235E+00  0.81528696759E+00 -0.69074569022E+00  0.11802541988E+01  0.00000000000E+00 0. -1.
         11    1    3    3    0    0 -0.10425188740E+02 -0.34530955834E+01 -0.87251926517E+00  0.11016792614E+02  0.51100000000E-03 0. -1.
        -11    1    3    3    0    0 -0.99485249343E+00  0.30621419000E+02 -0.24494287291E+02  0.39225389013E+02  0.51100000000E-03 0.  1.
         12    1    3    3    0    0  0.10918865091E+02 -0.27983610384E+02  0.26057552246E+02  0.39765564174E+02  0.00000000000E+00 0. -1.
</event>
<event>
 7    1  0.3568207E-015  0.9000773E+02  0.7816164E-02  0.1186339E+00
        -11   -1    0    0    0    0  0.00000000000E+00  0.00000000000E+00  0.45593999997E+02  0.45594000000E+02  0.51100000000E-03 0.  1.
         11   -1    0    0    0    0 -0.00000000000E+00 -0.00000000000E+00 -0.45593999997E+02  0.45594000000E+02  0.51100000000E-03 0. -1.
    9900012    2    1    2    0    0  0.29462234653E+00  0.91796331193E-01  0.11392103134E+01  0.90007733491E+02  0.89999994773E+02 0.  0.
         12    1    1    2    0    0 -0.29462234653E+00 -0.91796331193E-01 -0.11392103134E+01  0.11802665088E+01  0.00000000000E+00 0. -1.
         11    1    3    3    0    0  0.13390514494E+02 -0.12798445091E+02 -0.37178268775E+02  0.41537088782E+02  0.51100000000E-03 0. -1.
        -11    1    3    3    0    0 -0.44212027232E+01  0.71697353539E+01 -0.35072657234E+00  0.84306078045E+01  0.51100000000E-03 0.  1.
        -12    1    3    3    0    0 -0.86746894246E+01  0.57205060681E+01  0.38668205661E+02  0.40040036904E+02  0.00000000000E+00 0.  1.
</event>
<event>
 7    1  0.3568207E-015  0.9000770E+02  0.7816164E-02  0.1186339E+00
        -11   -1    0    0    0    0  0.00000000000E+00  0.00000000000E+00  0.45593999997E+02  0.45594000000E+02  0.51100000000E-03 0.  1.
         11   -1    0    0    0    0 -0.00000000000E+00 -0.00000000000E+00 -0.45593999997E+02  0.45594000000E+02  0.51100000000E-03 0. -1.
    9900012    2    1    2    0    0 -0.46981774621E+00  0.17940322503E+00  0.10677961528E+01  0.90007702217E+02  0.89999963087E+02 0.  0.
         12    1    1    2    0    0  0.46981774621E+00 -0.17940322503E+00 -0.10677961528E+01  0.11802977826E+01  0.00000000000E+00 0. -1.
         11    1    3    3    0    0  0.37473582967E+00 -0.10384953831E+02 -0.74154838321E+01  0.12766248225E+02  0.51100000000E-03 0. -1.
        -11    1    3    3    0    0  0.36701188564E+01 -0.27516815053E+02  0.23188124781E+02  0.36170900102E+02  0.51100000000E-03 0.  1.
         12    1    3    3    0    0 -0.45146724323E+01  0.38081172109E+02 -0.14704844796E+02  0.41070553890E+02  0.00000000000E+00 0. -1.
</event>
<event>
 7    1  0.3568207E-015  0.9000758E+02  0.7816164E-02  0.1186339E+00
        -11   -1    0    0    0    0  0.00000000000E+00  0.00000000000E+00  0.45593999997E+02  0.45594000000E+02  0.51100000000E-03 0. -1.
         11   -1    0    0    0    0 -0.00000000000E+00 -0.00000000000E+00 -0.45593999997E+02  0.45594000000E+02  0.51100000000E-03 0.  1.
    9900012    2    1    2    0    0 -0.34315160296E-01  0.85697111429E+00 -0.81106156552E+00  0.90007577244E+02  0.89999836463E+02 0.  0.
         12    1    1    2    0    0  0.34315160296E-01 -0.85697111429E+00  0.81106156552E+00  0.11804227565E+01  0.00000000000E+00 0. -1.
         11    1    3    3    0    0 -0.10671246300E+02 -0.14529480771E+02  0.31660889904E+02  0.36433408553E+02  0.51100000000E-03 0. -1.
        -11    1    3    3    0    0  0.81444420607E+01  0.24267149714E+00  0.73024070559E+01  0.10941479562E+02  0.51100000000E-03 0.  1.
        -12    1    3    3    0    0  0.24924890787E+01  0.15143780388E+02 -0.39774358525E+02  0.42632689128E+02  0.00000000000E+00 0.  1.
</event>
<event>
 7    1  0.3568207E-015  0.9000779E+02  0.7816164E-02  0.1186339E+00
        -11   -1    0    0    0    0  0.00000000000E+00  0.00000000000E+00  0.45593999997E+02  0.45594000000E+02  0.51100000000E-03 0.  1.
         11   -1    0    0    0    0 -0.00000000000E+00 -0.00000000000E+00 -0.45593999997E+02  0.45594000000E+02  0.51100000000E-03 0. -1.
    9900012    2    1    2    0    0 -0.45054074775E+00 -0.35368086861E+00  0.10318964834E+01  0.90007793461E+02  0.90000055535E+02 0.  0.
         12    1    1    2    0    0  0.45054074775E+00  0.35368086861E+00 -0.10318964834E+01  0.11802065390E+01  0.00000000000E+00 0. -1.
         11    1    3    3    0    0  0.66134485179E+01  0.86059963273E+01 -0.23190735483E+01  0.11098602456E+02  0.51100000000E-03 0. -1.
        -11    1    3    3    0    0 -0.83786030685E+01  0.30634016788E+02  0.18197361726E+02  0.36603113911E+02  0.51100000000E-03 0.  1.
         12    1    3    3    0    0  0.13146138028E+01 -0.39593693984E+02 -0.14846391694E+02  0.42306077094E+02  0.00000000000E+00 0. -1.
</event>
<event>
 7    1  0.3568207E-015  0.9000772E+02  0.7816164E-02  0.1186339E+00
        -11   -1    0    0    0    0  0.00000000000E+00  0.00000000000E+00  0.45593999997E+02  0.45594000000E+02  0.51100000000E-03 0. -1.
         11   -1    0    0    0    0 -0.00000000000E+00 -0.00000000000E+00 -0.45593999997E+02  0.45594000000E+02  0.51100000000E-03 0.  1.
    9900012    2    1    2    0    0  0.63749255326E+00  0.35699861848E+00 -0.92694015030E+00  0.90007719181E+02  0.89999980274E+02 0.  0.
         12    1    1    2    0    0 -0.63749255326E+00 -0.35699861848E+00  0.92694015030E+00  0.11802808188E+01  0.00000000000E+00 0. -1.
         11    1    3    3    0    0  0.97606839058E+01 -0.89169698826E+01  0.11897034506E+00  0.13221098910E+02  0.51100000000E-03 0. -1.
        -11    1    3    3    0    0 -0.14016567061E+01 -0.21067648793E+02 -0.28278518394E+02  0.35291430546E+02  0.51100000000E-03 0.  1.
         12    1    3    3    0    0 -0.77215346465E+01  0.30341617294E+02  0.27232607899E+02  0.41495189724E+02  0.00000000000E+00 0. -1.
</event>
<event>
 7    1  0.3568207E-015  0.9000772E+02  0.7816164E-02  0.1186339E+00
        -11   -1    0    0    0    0  0.00000000000E+00  0.00000000000E+00  0.45593999997E+02  0.45594000000E+02  0.51100000000E-03 0.  1.
         11   -1    0    0    0    0 -0.00000000000E+00 -0.00000000000E+00 -0.45593999997E+02  0.45594000000E+02  0.51100000000E-03 0. -1.
    9900012    2    1    2    0    0 -0.95356363708E+00 -0.15557457370E+00 -0.67792578394E+00  0.90007715955E+02  0.89999977006E+02 0.  0.
         12    1    1    2    0    0  0.95356363708E+00  0.15557457370E+00  0.67792578394E+00  0.11802840448E+01  0.00000000000E+00 0. -1.
         11    1    3    3    0    0  0.37635456539E+02  0.60851771907E+01  0.11018858676E+02  0.39684659720E+02  0.51100000000E-03 0. -1.
        -11    1    3    3    0    0  0.17023394183E+01 -0.71350807573E+01 -0.62857809939E+01  0.96601438847E+01  0.51100000000E-03 0.  1.
        -12    1    3    3    0    0 -0.40291359594E+02  0.89432899296E+00 -0.54110034661E+01  0.40662912350E+02  0.00000000000E+00 0.  1.
</event>
<event>
 7    1  0.3568207E-015  0.9000774E+02  0.7816164E-02  0.1186339E+00
        -11   -1    0    0    0    0  0.00000000000E+00  0.00000000000E+00  0.45593999997E+02  0.45594000000E+02  0.51100000000E-03 0.  1.
         11   -1    0    0    0    0 -0.00000000000E+00 -0.00000000000E+00 -0.45593999997E+02  0.45594000000E+02  0.51100000000E-03 0. -1.
    9900012    2    1    2    0    0  0.60355510344E+00  0.68857956001E+00  0.74471482812E+00  0.90007737000E+02  0.89999998329E+02 0.  0.
         12    1    1    2    0    0 -0.60355510344E+00 -0.68857956001E+00 -0.74471482812E+00  0.11802629997E+01  0.00000000000E+00 0. -1.
         11    1    3    3    0    0 -0.29911353956E+02  0.12259568872E+02 -0.15723683242E+02  0.35947466383E+02  0.51100000000E-03 0. -1.
        -11    1    3    3    0    0 -0.11055285491E+01  0.15840341866E+01 -0.10370564214E+02  0.10548931702E+02  0.51100000000E-03 0.  1.
        -12    1    3    3    0    0  0.31620437608E+02 -0.13155023498E+02  0.26838962284E+02  0.43511338916E+02  0.00000000000E+00 0.  1.
</event>
<event>
 7    1  0.3568207E-015  0.9000773E+02  0.7816164E-02  0.1186339E+00
        -11   -1    0    0    0    0  0.00000000000E+00  0.00000000000E+00  0.45593999997E+02  0.45594000000E+02  0.51100000000E-03 0. -1.
         11   -1    0    0    0    0 -0.00000000000E+00 -0.00000000000E+00 -0.45593999997E+02  0.45594000000E+02  0.51100000000E-03 0.  1.
    9900012    2    1    2    0    0  0.78866523159E+00 -0.86953983199E+00  0.12227609476E+00  0.90007727231E+02  0.89999988430E+02 0.  0.
         12    1    1    2    0    0 -0.78866523159E+00  0.86953983199E+00 -0.12227609476E+00  0.11802727694E+01  0.00000000000E+00 0. -1.
         11    1    3    3    0    0  0.79173985214E+01 -0.42198365620E+01  0.24216955887E+01  0.92928375506E+01  0.51100000000E-03 0. -1.
        -11    1    3    3    0    0  0.35932138859E+02  0.48942668668E+01 -0.83245604394E+01  0.37207133159E+02  0.51100000000E-03 0.  1.
         12    1    3    3    0    0 -0.43060872149E+02 -0.15439701368E+01  0.60251409455E+01  0.43507756520E+02  0.00000000000E+00 0. -1.
</event>
<event>
 7    1  0.4664554E-015  0.9000758E+02  0.7816164E-02  0.1186339E+00
        -11   -1    0    0    0    0  0.00000000000E+00  0.00000000000E+00  0.45593999997E+02  0.45594000000E+02  0.51100000000E-03 0. -1.
         11   -1    0    0    0    0 -0.00000000000E+00 -0.00000000000E+00 -0.45593999997E+02  0.45594000000E+02  0.51100000000E-03 0.  1.
    9900012    2    1    2    0    0  0.66146487353E+00  0.26544869558E+00 -0.94094832620E+00  0.90007583742E+02  0.89999843048E+02 0.  0.
         12    1    1    2    0    0 -0.66146487353E+00 -0.26544869558E+00  0.94094832620E+00  0.11804162577E+01  0.00000000000E+00 0. -1.
         11    1    3    3    0    0  0.20388988905E+01  0.19223133522E+01  0.88539017097E+01  0.92867633250E+01  0.51100000000E-03 0. -1.
        -11    1    3    3    0    0 -0.26979288458E+02  0.29380154892E+02 -0.45670292165E+01  0.40148888693E+02  0.51100000000E-03 0.  1.
         12    1    3    3    0    0  0.25601854441E+02 -0.31037019549E+02 -0.52278208193E+01  0.40571931724E+02  0.00000000000E+00 0. -1.
</event>
<event>
 7    1  0.3568207E-015  0.9000760E+02  0.7816164E-02  0.1186339E+00
        -11   -1    0    0    0    0  0.00000000000E+00  0.00000000000E+00  0.45593999997E+02  0.45594000000E+02  0.51100000000E-03 0.  1.
         11   -1    0    0    0    0 -0.00000000000E+00 -0.00000000000E+00 -0.45593999997E+02  0.45594000000E+02  0.51100000000E-03 0. -1.
    9900012    2    1    2    0    0 -0.55056349486E+00  0.10197833027E+01  0.22418153783E+00  0.90007603665E+02  0.89999863233E+02 0.  0.
         12    1    1    2    0    0  0.55056349486E+00 -0.10197833027E+01 -0.22418153783E+00  0.11803963352E+01  0.00000000000E+00 0. -1.
         11    1    3    3    0    0 -0.11213442835E+02 -0.26454620528E+00 -0.42877542641E+01  0.12008168961E+02  0.51100000000E-03 0. -1.
        -11    1    3    3    0    0  0.11763880705E+02 -0.12403407353E+02  0.38074637525E+02  0.41736212407E+02  0.51100000000E-03 0.  1.
         12    1    3    3    0    0 -0.11010013647E+01  0.13687736861E+02 -0.33562701723E+02  0.36263222296E+02  0.00000000000E+00 0. -1.
</event>
<event>
 7    1  0.3568207E-015  0.9000775E+02  0.7816164E-02  0.1186339E+00
        -11   -1    0    0    0    0  0.00000000000E+00  0.00000000000E+00  0.45593999997E+02  0.45594000000E+02  0.51100000000E-03 0.  1.
         11   -1    0    0    0    0 -0.00000000000E+00 -0.00000000000E+00 -0.45593999997E+02  0.45594000000E+02  0.51100000000E-03 0. -1.
    9900012    2    1    2    0    0 -0.79575174201E+00 -0.86282017993E+00 -0.12375986819E+00  0.90007747483E+02  0.90000008950E+02 0.  0.
         12    1    1    2    0    0  0.79575174201E+00  0.86282017993E+00  0.12375986819E+00  0.11802525165E+01  0.00000000000E+00 0. -1.
         11    1    3    3    0    0 -0.63501010577E+01  0.11182167682E+02  0.25113299296E+01  0.13102344667E+02  0.51100000000E-03 0. -1.
        -11    1    3    3    0    0 -0.28645229798E+02  0.15319093843E+02  0.35243598226E+01  0.32674836477E+02  0.51100000000E-03 0.  1.
         12    1    3    3    0    0  0.34199579114E+02 -0.27364081704E+02 -0.61594496203E+01  0.44230566340E+02  0.00000000000E+00 0. -1.
</event>
<event>
 7    1  0.3568207E-015  0.9000777E+02  0.7816164E-02  0.1186339E+00
        -11   -1    0    0    0    0  0.00000000000E+00  0.00000000000E+00  0.45593999997E+02  0.45594000000E+02  0.51100000000E-03 0.  1.
         11   -1    0    0    0    0 -0.00000000000E+00 -0.00000000000E+00 -0.45593999997E+02  0.45594000000E+02  0.51100000000E-03 0. -1.
    9900012    2    1    2    0    0  0.25195067276E+00  0.80287506113E+00  0.82755471650E+00  0.90007773617E+02  0.90000035429E+02 0.  0.
         12    1    1    2    0    0 -0.25195067276E+00 -0.80287506113E+00 -0.82755471650E+00  0.11802263826E+01  0.00000000000E+00 0. -1.
         11    1    3    3    0    0  0.82976133472E+01 -0.57695859062E+00  0.56805371915E+01  0.10072327016E+02  0.51100000000E-03 0. -1.
        -11    1    3    3    0    0  0.34399410032E+02 -0.99750481342E+01 -0.10215743113E+01  0.35831056503E+02  0.51100000000E-03 0.  1.
         12    1    3    3    0    0 -0.42445072706E+02  0.11354881786E+02 -0.38314081637E+01  0.44104390098E+02  0.00000000000E+00 0. -1.
</event>
<event>
 7    1  0.3568207E-015  0.9000771E+02  0.7816164E-02  0.1186339E+00
        -11   -1    0    0    0    0  0.00000000000E+00  0.00000000000E+00  0.45593999997E+02  0.45594000000E+02  0.51100000000E-03 0. -1.
         11   -1    0    0    0    0 -0.00000000000E+00 -0.00000000000E+00 -0.45593999997E+02  0.45594000000E+02  0.51100000000E-03 0.  1.
    9900012    2    1    2    0    0  0.11748509015E+00 -0.10737643796E+01 -0.47571929639E+00  0.90007711248E+02  0.89999972236E+02 0.  0.
         12    1    1    2    0    0 -0.11748509015E+00  0.10737643796E+01  0.47571929639E+00  0.11802887521E+01  0.00000000000E+00 0. -1.
         11    1    3    3    0    0  0.62447585865E+01  0.30344810933E+02  0.18385772847E+02  0.36025563199E+02  0.51100000000E-03 0. -1.
        -11    1    3    3    0    0  0.90541726231E+01 -0.11361263733E+02  0.84862488009E+01  0.16824766699E+02  0.51100000000E-03 0.  1.
        -12    1    3    3    0    0 -0.15181446120E+02 -0.20057311580E+02 -0.27347740944E+02  0.37157381351E+02  0.00000000000E+00 0.  1.
</event>
<event>
 7    1  0.3568207E-015  0.9000770E+02  0.7816164E-02  0.1186339E+00
        -11   -1    0    0    0    0  0.00000000000E+00  0.00000000000E+00  0.45593999997E+02  0.45594000000E+02  0.51100000000E-03 0.  1.
         11   -1    0    0    0    0 -0.00000000000E+00 -0.00000000000E+00 -0.45593999997E+02  0.45594000000E+02  0.51100000000E-03 0. -1.
    9900012    2    1    2    0    0 -0.29141836200E+00 -0.10963186855E+01  0.32597647363E+00  0.90007703434E+02  0.89999964320E+02 0.  0.
         12    1    1    2    0    0  0.29141836200E+00  0.10963186855E+01 -0.32597647363E+00  0.11802965658E+01  0.00000000000E+00 0. -1.
         11    1    3    3    0    0  0.38451903694E+02  0.80688100642E+01 -0.65957500519E+01  0.39839158030E+02  0.51100000000E-03 0. -1.
        -11    1    3    3    0    0  0.20673459100E+01 -0.61002328581E+01  0.66276594623E+01  0.92418953816E+01  0.51100000000E-03 0.  1.
        -12    1    3    3    0    0 -0.40810667966E+02 -0.30648958916E+01  0.29406706323E+00  0.40926650023E+02  0.00000000000E+00 0.  1.
</event>
<event>
 7    1  0.3568207E-015  0.9000771E+02  0.7816164E-02  0.1186339E+00
        -11   -1    0    0    0    0  0.00000000000E+00  0.00000000000E+00  0.45593999997E+02  0.45594000000E+02  0.51100000000E-03 0.  1.
         11   -1    0    0    0    0 -0.00000000000E+00 -0.00000000000E+00 -0.45593999997E+02  0.45594000000E+02  0.51100000000E-03 0. -1.
    9900012    2    1    2    0    0  0.42380283695E-01 -0.13381820030E-01  0.11794480868E+01  0.90007714886E+02  0.89999975922E+02 0.  0.
         12    1    1    2    0    0 -0.42380283695E-01  0.13381820030E-01 -0.11794480868E+01  0.11802851143E+01  0.00000000000E+00 0. -1.
         11    1    3    3    0    0  0.42650501411E+01 -0.23390696780E+01 -0.97485338738E+01  0.10894760787E+02  0.51100000000E-03 0. -1.
        -11    1    3    3    0    0 -0.32729827028E+02 -0.19582553244E+02  0.18469511685E+02  0.42377362246E+02  0.51100000000E-03 0.  1.
         12    1    3    3    0    0  0.28507157171E+02  0.21908241102E+02 -0.75415297245E+01  0.36735591852E+02  0.00000000000E+00 0. -1.
</event>
<event>
 7    1  0.3568207E-015  0.9000771E+02  0.7816164E-02  0.1186339E+00
        -11   -1    0    0    0    0  0.00000000000E+00  0.00000000000E+00  0.45593999997E+02  0.45594000000E+02  0.51100000000E-03 0.  1.
         11   -1    0    0    0    0 -0.00000000000E+00 -0.00000000000E+00 -0.45593999997E+02  0.45594000000E+02  0.51100000000E-03 0. -1.
    9900012    2    1    2    0    0  0.18156309750E+00  0.89693548098E+00  0.74540984105E+00  0.90007705864E+02  0.89999966782E+02 0.  0.
         12    1    1    2    0    0 -0.18156309750E+00 -0.89693548098E+00 -0.74540984105E+00  0.11802941356E+01  0.00000000000E+00 0. -1.
         11    1    3    3    0    0 -0.91938368451E+01 -0.34946513121E+01  0.21904132257E+01  0.10076563605E+02  0.51100000000E-03 0. -1.
        -11    1    3    3    0    0  0.27419736215E+02  0.27597973139E+01  0.31793880762E+02  0.42075043309E+02  0.51100000000E-03 0.  1.
         12    1    3    3    0    0 -0.18044336272E+02  0.16317894792E+01 -0.33238884147E+02  0.37856098950E+02  0.00000000000E+00 0. -1.
</event>
<event>
 7    1  0.3568207E-015  0.9000760E+02  0.7816164E-02  0.1186339E+00
        -11   -1    0    0    0    0  0.00000000000E+00  0.00000000000E+00  0.45593999997E+02  0.45594000000E+02  0.51100000000E-03 0.  1.
         11   -1    0    0    0    0 -0.00000000000E+00 -0.00000000000E+00 -0.45593999997E+02  0.45594000000E+02  0.51100000000E-03 0. -1.
    9900012    2    1    2    0    0 -0.38461364599E+00  0.66953591765E+00  0.89282274018E+00  0.90007602420E+02  0.89999861972E+02 0.  0.
         12    1    1    2    0    0  0.38461364599E+00 -0.66953591765E+00 -0.89282274018E+00  0.11803975801E+01  0.00000000000E+00 0. -1.
         11    1    3    3    0    0  0.72256650568E+01 -0.35911341311E+01  0.34209980267E+01  0.87641147653E+01  0.51100000000E-03 0. -1.
        -11    1    3    3    0    0 -0.34256485701E+02 -0.19977139486E+02 -0.16032964524E+02  0.42774394985E+02  0.51100000000E-03 0.  1.
         12    1    3    3    0    0  0.26646206998E+02  0.24237809535E+02  0.13504789238E+02  0.38469092669E+02  0.00000000000E+00 0. -1.
</event>
<event>
 7    1  0.3568207E-015  0.9000774E+02  0.7816164E-02  0.1186339E+00
        -11   -1    0    0    0    0  0.00000000000E+00  0.00000000000E+00  0.45593999997E+02  0.45594000000E+02  0.51100000000E-03 0. -1.
         11   -1    0    0    0    0 -0.00000000000E+00 -0.00000000000E+00 -0.45593999997E+02  0.45594000000E+02  0.51100000000E-03 0.  1.
    9900012    2    1    2    0    0  0.72293956065E+00 -0.88178993903E+00 -0.30467842400E+00  0.90007735603E+02  0.89999996913E+02 0.  0.
         12    1    1    2    0    0 -0.72293956065E+00  0.88178993903E+00  0.30467842400E+00  0.11802643971E+01  0.00000000000E+00 0. -1.
         11    1    3    3    0    0 -0.57955667689E+01  0.66361678881E+01  0.36339909567E+02  0.37392731192E+02  0.51100000000E-03 0. -1.
        -11    1    3    3    0    0  0.60502632425E+01 -0.15785490749E+01  0.65243671895E+01  0.90368617324E+01  0.51100000000E-03 0.  1.
        -12    1    3    3    0    0  0.46824308699E+00 -0.59394087522E+01 -0.43168955181E+02  0.43578142678E+02  0.00000000000E+00 0.  1.
</event>
<event>
 7    1  0.3568207E-015  0.9000774E+02  0.7816164E-02  0.1186339E+00
        -11   -1    0    0    0    0  0.00000000000E+00  0.00000000000E+00  0.45593999997E+02  0.45594000000E+02  0.51100000000E-03 0.  1.
         11   -1    0    0    0    0 -0.00000000000E+00 -0.00000000000E+00 -0.45593999997E+02  0.45594000000E+02  0.51100000000E-03 0. -1.
    9900012    2    1    2    0    0 -0.32085926162E+00  0.86876727851E+00  0.73164457755E+00  0.90007741114E+02  0.90000002497E+02 0.  0.
         12    1    1    2    0    0  0.32085926162E+00 -0.86876727851E+00 -0.73164457755E+00  0.11802588859E+01  0.00000000000E+00 0. -1.
         11    1    3    3    0    0  0.60427577497E+01 -0.89715459840E+00 -0.55821225070E+01  0.82752582763E+01  0.51100000000E-03 0. -1.
        -11    1    3    3    0    0 -0.19319185838E-01  0.27593258475E+02  0.33701561004E+02  0.43556669993E+02  0.51100000000E-03 0.  1.
         12    1    3    3    0    0 -0.63442978255E+01 -0.25827336598E+02 -0.27387793919E+02  0.38175812845E+02  0.00000000000E+00 0. -1.
</event>
<event>
 7    1  0.3568207E-015  0.9000773E+02  0.7816164E-02  0.1186339E+00
        -11   -1    0    0    0    0  0.00000000000E+00  0.00000000000E+00  0.45593999997E+02  0.45594000000E+02  0.51100000000E-03 0. -1.
         11   -1    0    0    0    0 -0.00000000000E+00 -0.00000000000E+00 -0.45593999997E+02  0.45594000000E+02  0.51100000000E-03 0.  1.
    9900012    2    1    2    0    0  0.55479932682E+00  0.70137638196E+00 -0.77026495401E+00  0.90007729174E+02  0.89999990400E+02 0.  0.
         12    1    1    2    0    0 -0.55479932682E+00 -0.70137638196E+00  0.77026495401E+00  0.11802708255E+01  0.00000000000E+00 0. -1.
         11    1    3    3    0    0  0.15690835814E+01 -0.74563314503E+01 -0.58977791363E+01  0.96354917354E+01  0.51100000000E-03 0. -1.
        -11    1    3    3    0    0  0.52112838443E+01  0.43755316535E+02  0.23256075848E+01  0.44125884187E+02  0.51100000000E-03 0.  1.
         12    1    3    3    0    0 -0.62255680989E+01 -0.35597608703E+02  0.28019065975E+01  0.36246353252E+02  0.00000000000E+00 0. -1.
</event>
<event>
 7    1  0.3568207E-015  0.9000776E+02  0.7816164E-02  0.1186339E+00
        -11   -1    0    0    0    0  0.00000000000E+00  0.00000000000E+00  0.45593999997E+02  0.45594000000E+02  0.51100000000E-03 0.  1.
         11   -1    0    0    0    0 -0.00000000000E+00 -0.00000000000E+00 -0.45593999997E+02  0.45594000000E+02  0.51100000000E-03 0. -1.
    9900012    2    1    2    0    0  0.10392151240E+01 -0.52350398741E+00  0.19735992668E+00  0.90007756195E+02  0.90000017777E+02 0.  0.
         12    1    1    2    0    0 -0.10392151240E+01  0.52350398741E+00 -0.19735992668E+00  0.11802438051E+01  0.00000000000E+00 0. -1.
         11    1    3    3    0    0  0.76737635840E+01  0.52044026729E+01 -0.61603067561E+01  0.11132018430E+02  0.51100000000E-03 0. -1.
        -11    1    3    3    0    0  0.33853554612E+02  0.90686588736E+01 -0.14046402567E+01  0.35075301113E+02  0.51100000000E-03 0.  1.
         12    1    3    3    0    0 -0.40488103072E+02 -0.14796565534E+02  0.77623069395E+01  0.43800436653E+02  0.00000000000E+00 0. -1.
</event>
<event>
 7    1  0.3568207E-015  0.9000778E+02  0.7816164E-02  0.1186339E+00
        -11   -1    0    0    0    0  0.00000000000E+00  0.00000000000E+00  0.45593999997E+02  0.45594000000E+02  0.51100000000E-03 0. -1.
         11   -1    0    0    0    0 -0.00000000000E+00 -0.00000000000E+00 -0.45593999997E+02  0.45594000000E+02  0.51100000000E-03 0.  1.
    9900012    2    1    2    0    0  0.59650411069E+00  0.77832774978E+00 -0.65673378831E+00  0.90007783703E+02  0.90000045647E+02 0.  0.
         12    1    1    2    0    0 -0.59650411069E+00 -0.77832774978E+00  0.65673378831E+00  0.11802162975E+01  0.00000000000E+00 0. -1.
         11    1    3    3    0    0 -0.53196901482E+01  0.73395610367E+01  0.11706175681E+01  0.91399455817E+01  0.51100000000E-03 0. -1.
        -11    1    3    3    0    0  0.64068917108E+01  0.35333398642E+02  0.10105057725E+02  0.37304282769E+02  0.51100000000E-03 0.  1.
         12    1    3    3    0    0 -0.49069745194E+00 -0.41894631929E+02 -0.11932409082E+02  0.43563555352E+02  0.00000000000E+00 0. -1.
</event>
<event>
 7    1  0.3568207E-015  0.9000792E+02  0.7816164E-02  0.1186339E+00
        -11   -1    0    0    0    0  0.00000000000E+00  0.00000000000E+00  0.45593999997E+02  0.45594000000E+02  0.51100000000E-03 0. -1.
         11   -1    0    0    0    0 -0.00000000000E+00 -0.00000000000E+00 -0.45593999997E+02  0.45594000000E+02  0.51100000000E-03 0.  1.
    9900012    2    1    2    0    0 -0.49091280645E+00  0.93317320332E+00  0.52989600592E+00  0.90007916364E+02  0.90000180060E+02 0.  0.
         12    1    1    2    0    0  0.49091280645E+00 -0.93317320332E+00 -0.52989600592E+00  0.11800836360E+01  0.00000000000E+00 0. -1.
         11    1    3    3    0    0 -0.11035160418E+01 -0.94513117419E+01 -0.18082027835E+01  0.96857957270E+01  0.51100000000E-03 0. -1.
        -11    1    3    3    0    0 -0.17595974431E+02 -0.21721164673E+02 -0.22457005207E+02  0.35857278118E+02  0.51100000000E-03 0.  1.
         12    1    3    3    0    0  0.18208577666E+02  0.32105649618E+02  0.24795103996E+02  0.44464842519E+02  0.00000000000E+00 0. -1.
</event>
<event>
 7    1  0.3653653E-015  0.9000775E+02  0.7816164E-02  0.1186339E+00
        -11   -1    0    0    0    0  0.00000000000E+00  0.00000000000E+00  0.45593999997E+02  0.45594000000E+02  0.51100000000E-03 0.  1.
         11   -1    0    0    0    0 -0.00000000000E+00 -0.00000000000E+00 -0.45593999997E+02  0.45594000000E+02  0.51100000000E-03 0. -1.
    9900012    2    1    2    0    0 -0.38715437413E+00 -0.84921211488E+00  0.72244905245E+00  0.90007753264E+02  0.90000014807E+02 0.  0.
         12    1    1    2    0    0  0.38715437413E+00  0.84921211488E+00 -0.72244905245E+00  0.11802467364E+01  0.00000000000E+00 0. -1.
         11    1    3    3    0    0 -0.22240354249E+01  0.82742121787E+01  0.41348816998E+01  0.95134729559E+01  0.51100000000E-03 0. -1.
        -11    1    3    3    0    0 -0.94872692355E+01  0.25691905362E+01  0.36283192398E+02  0.37590943968E+02  0.51100000000E-03 0.  1.
         12    1    3    3    0    0  0.11324150286E+02 -0.11692614830E+02 -0.39695625046E+02  0.42903336339E+02  0.00000000000E+00 0. -1.
</event>
<event>
 7    1  0.3568207E-015  0.9000772E+02  0.7816164E-02  0.1186339E+00
        -11   -1    0    0    0    0  0.00000000000E+00  0.00000000000E+00  0.45593999997E+02  0.45594000000E+02  0.51100000000E-03 0.  1.
         11   -1    0    0    0    0 -0.00000000000E+00 -0.00000000000E+00 -0.45593999997E+02  0.45594000000E+02  0.51100000000E-03 0. -1.
    9900012    2    1    2    0    0 -0.91739011833E+00  0.71495139017E+00 -0.20075909088E+00  0.90007718537E+02  0.89999979622E+02 0.  0.
         12    1    1    2    0    0  0.91739011833E+00 -0.71495139017E+00  0.20075909088E+00  0.11802814631E+01  0.00000000000E+00 0. -1.
         11    1    3    3    0    0  0.23693810646E+02  0.45069461888E+01 -0.75891277587E+01  0.25284463357E+02  0.51100000000E-03 0. -1.
        -11    1    3    3    0    0 -0.27225001562E+01  0.42197889361E+01  0.31082753845E+02  0.31485809703E+02  0.51100000000E-03 0.  1.
         12    1    3    3    0    0 -0.21888700608E+02 -0.80117837347E+01 -0.23694385177E+02  0.33237445477E+02  0.00000000000E+00 0. -1.
</event>
<event>
 7    1  0.3568207E-015  0.9000766E+02  0.7816164E-02  0.1186339E+00
        -11   -1    0    0    0    0  0.00000000000E+00  0.00000000000E+00  0.45593999997E+02  0.45594000000E+02  0.51100000000E-03 0. -1.
         11   -1    0    0    0    0 -0.00000000000E+00 -0.00000000000E+00 -0.45593999997E+02  0.45594000000E+02  0.51100000000E-03 0.  1.
    9900012    2    1    2    0    0  0.10132047705E+01  0.60446496643E+00 -0.35229465215E-01  0.90007659830E+02  0.89999920139E+02 0.  0.
         12    1    1    2    0    0 -0.10132047705E+01 -0.60446496643E+00  0.35229465215E-01  0.11803401704E+01  0.00000000000E+00 0. -1.
         11    1    3    3    0    0  0.86522151530E+01 -0.27630613981E+02  0.65225722572E+01  0.29679211667E+02  0.51100000000E-03 0. -1.
        -11    1    3    3    0    0 -0.59985321372E+01 -0.14594116889E+02  0.38087939955E+01  0.16231991484E+02  0.51100000000E-03 0.  1.
        -12    1    3    3    0    0 -0.16404782454E+01  0.42829195837E+02 -0.10366595718E+02  0.44096456679E+02  0.00000000000E+00 0.  1.
</event>
<event>
 7    1  0.3568207E-015  0.9000772E+02  0.7816164E-02  0.1186339E+00
        -11   -1    0    0    0    0  0.00000000000E+00  0.00000000000E+00  0.45593999997E+02  0.45594000000E+02  0.51100000000E-03 0. -1.
         11   -1    0    0    0    0 -0.00000000000E+00 -0.00000000000E+00 -0.45593999997E+02  0.45594000000E+02  0.51100000000E-03 0.  1.
    9900012    2    1    2    0    0  0.46984503758E+00 -0.78187821507E+00 -0.74898667065E+00  0.90007716587E+02  0.89999977646E+02 0.  0.
         12    1    1    2    0    0 -0.46984503758E+00  0.78187821507E+00  0.74898667065E+00  0.11802834132E+01  0.00000000000E+00 0. -1.
         11    1    3    3    0    0  0.37040413424E+01  0.10549448949E+02 -0.65678349255E+00  0.11200096437E+02  0.51100000000E-03 0. -1.
        -11    1    3    3    0    0  0.13207733546E+02  0.23318435168E+02  0.21888903617E+02  0.34602279490E+02  0.51100000000E-03 0.  1.
         12    1    3    3    0    0 -0.16441929851E+02 -0.34649762331E+02 -0.21981106795E+02  0.44205340659E+02  0.00000000000E+00 0. -1.
</event>
<event>
 7    1  0.3796083E-015  0.9000777E+02  0.7816164E-02  0.1186339E+00
        -11   -1    0    0    0    0  0.00000000000E+00  0.00000000000E+00  0.45593999997E+02  0.45594000000E+02  0.51100000000E-03 0.  1.
         11   -1    0    0    0    0 -0.00000000000E+00 -0.00000000000E+00 -0.45593999997E+02  0.45594000000E+02  0.51100000000E-03 0. -1.
    9900012    2    1    2    0    0  0.11095968933E+01  0.28520570743E+00  0.28352126344E+00  0.90007774654E+02  0.90000036479E+02 0.  0.
         12    1    1    2    0    0 -0.11095968933E+01 -0.28520570743E+00 -0.28352126344E+00  0.11802253462E+01  0.00000000000E+00 0. -1.
         11    1    3    3    0    0  0.56247629127E+01 -0.71076119136E+01 -0.21227155160E+01  0.93092441348E+01  0.51100000000E-03 0. -1.
        -11    1    3    3    0    0 -0.11718656621E+02 -0.17206695696E+02  0.34090318014E+02  0.39944299623E+02  0.51100000000E-03 0.  1.
         12    1    3    3    0    0  0.72034906013E+01  0.24599513317E+02 -0.31684081235E+02  0.40754230896E+02  0.00000000000E+00 0. -1.
</event>
<event>
 7    1  0.3568207E-015  0.9000772E+02  0.7816164E-02  0.1186339E+00
        -11   -1    0    0    0    0  0.00000000000E+00  0.00000000000E+00  0.45593999997E+02  0.45594000000E+02  0.51100000000E-03 0. -1.
         11   -1    0    0    0    0 -0.00000000000E+00 -0.00000000000E+00 -0.45593999997E+02  0.45594000000E+02  0.51100000000E-03 0.  1.
    9900012    2    1    2    0    0  0.50626554841E+00  0.10456615047E+01 -0.20817923281E+00  0.90007724023E+02  0.89999985181E+02 0.  0.
         12    1    1    2    0    0 -0.50626554841E+00 -0.10456615047E+01  0.20817923281E+00  0.11802759766E+01  0.00000000000E+00 0. -1.
         11    1    3    3    0    0 -0.43282844275E+01  0.13876467419E+02  0.36653167805E+02  0.39430256207E+02  0.51100000000E-03 0. -1.
        -11    1    3    3    0    0 -0.73593465813E+01  0.68719502713E+01 -0.51692369360E+01  0.11318334391E+02  0.51100000000E-03 0.  1.
        -12    1    3    3    0    0  0.12193896557E+02 -0.19702756186E+02 -0.31692110102E+02  0.39259133425E+02  0.00000000000E+00 0.  1.
</event>
<event>
 7    1  0.3568207E-015  0.9000773E+02  0.7816164E-02  0.1186339E+00
        -11   -1    0    0    0    0  0.00000000000E+00  0.00000000000E+00  0.45593999997E+02  0.45594000000E+02  0.51100000000E-03 0.  1.
         11   -1    0    0    0    0 -0.00000000000E+00 -0.00000000000E+00 -0.45593999997E+02  0.45594000000E+02  0.51100000000E-03 0. -1.
    9900012    2    1    2    0    0  0.14528236092E+00  0.54468990835E+00  0.10369366867E+01  0.90007732338E+02  0.89999993605E+02 0.  0.
         12    1    1    2    0    0 -0.14528236092E+00 -0.54468990835E+00 -0.10369366867E+01  0.11802676615E+01  0.00000000000E+00 0. -1.
         11    1    3    3    0    0 -0.30955585435E+02  0.20006190129E+02 -0.92188610316E+01  0.37993200866E+02  0.51100000000E-03 0. -1.
        -11    1    3    3    0    0  0.19898567500E+01  0.95196600088E+01  0.37584611766E+01  0.10426384189E+02  0.51100000000E-03 0.  1.
        -12    1    3    3    0    0  0.29111011046E+02 -0.28981160229E+02  0.64973365417E+01  0.41588147284E+02  0.00000000000E+00 0.  1.
</event>
<event>
 7    1  0.3568207E-015  0.9000775E+02  0.7816164E-02  0.1186339E+00
        -11   -1    0    0    0    0  0.00000000000E+00  0.00000000000E+00  0.45593999997E+02  0.45594000000E+02  0.51100000000E-03 0.  1.
         11   -1    0    0    0    0 -0.00000000000E+00 -0.00000000000E+00 -0.45593999997E+02  0.45594000000E+02  0.51100000000E-03 0. -1.
    9900012    2    1    2    0    0 -0.10371006069E+01 -0.39731967764E+00 -0.39943827713E+00  0.90007749377E+02  0.90000010869E+02 0.  0.
         12    1    1    2    0    0  0.10371006069E+01  0.39731967764E+00  0.39943827713E+00  0.11802506227E+01  0.00000000000E+00 0. -1.
         11    1    3    3    0    0  0.28767919273E+02 -0.68564359288E+01 -0.25145351437E+02  0.38818714457E+02  0.51100000000E-03 0. -1.
        -11    1    3    3    0    0  0.70870409726E+01  0.20125827899E+01  0.63477226286E+01  0.97247222102E+01  0.51100000000E-03 0.  1.
        -12    1    3    3    0    0 -0.36892060852E+02  0.44465334613E+01  0.18398190531E+02  0.41464312711E+02  0.00000000000E+00 0.  1.
</event>
<event>
 7    1  0.3568207E-015  0.9000770E+02  0.7816164E-02  0.1186339E+00
        -11   -1    0    0    0    0  0.00000000000E+00  0.00000000000E+00  0.45593999997E+02  0.45594000000E+02  0.51100000000E-03 0. -1.
         11   -1    0    0    0    0 -0.00000000000E+00 -0.00000000000E+00 -0.45593999997E+02  0.45594000000E+02  0.51100000000E-03 0.  1.
    9900012    2    1    2    0    0  0.64255199158E+00  0.53505797508E+00 -0.83303838328E+00  0.90007697900E+02  0.89999958713E+02 0.  0.
         12    1    1    2    0    0 -0.64255199158E+00 -0.53505797508E+00  0.83303838328E+00  0.11803020997E+01  0.00000000000E+00 0. -1.
         11    1    3    3    0    0  0.11322608567E+02  0.21700342721E+01  0.37537571387E+00  0.11534791749E+02  0.51100000000E-03 0. -1.
        -11    1    3    3    0    0  0.90296480773E+01 -0.14272829210E+02 -0.34126733608E+02  0.38077317986E+02  0.51100000000E-03 0.  1.
         12    1    3    3    0    0 -0.19709704653E+02  0.12637852913E+02  0.32918319510E+02  0.40395588164E+02  0.00000000000E+00 0. -1.
</event>
<event>
 7    1  0.3568207E-015  0.9000770E+02  0.7816164E-02  0.1186339E+00
        -11   -1    0    0    0    0  0.00000000000E+00  0.00000000000E+00  0.45593999997E+02  0.45594000000E+02  0.51100000000E-03 0. -1.
         11   -1    0    0    0    0 -0.00000000000E+00 -0.00000000000E+00 -0.45593999997E+02  0.45594000000E+02  0.51100000000E-03 0.  1.
    9900012    2    1    2    0    0 -0.83216492407E+00  0.39569520027E-01 -0.83608912624E+00  0.90007699515E+02  0.89999960349E+02 0.  0.
         12    1    1    2    0    0  0.83216492407E+00 -0.39569520027E-01  0.83608912624E+00  0.11803004850E+01  0.00000000000E+00 0. -1.
         11    1    3    3    0    0 -0.56960955448E+00 -0.65499374612E+01  0.66878183941E+01  0.93783287916E+01  0.51100000000E-03 0. -1.
        -11    1    3    3    0    0  0.31256454321E+02  0.14391160922E+02 -0.26129155436E+02  0.43206529755E+02  0.51100000000E-03 0.  1.
         12    1    3    3    0    0 -0.31519009691E+02 -0.78016539409E+01  0.18605247916E+02  0.37422840968E+02  0.00000000000E+00 0. -1.
</event>
<event>
 7    1  0.3568207E-015  0.9000772E+02  0.7816164E-02  0.1186339E+00
        -11   -1    0    0    0    0  0.00000000000E+00  0.00000000000E+00  0.45593999997E+02  0.45594000000E+02  0.51100000000E-03 0. -1.
         11   -1    0    0    0    0 -0.00000000000E+00 -0.00000000000E+00 -0.45593999997E+02  0.45594000000E+02  0.51100000000E-03 0.  1.
    9900012    2    1    2    0    0 -0.93362074777E+00  0.55903321706E+00 -0.45704321985E+00  0.90007722768E+02  0.89999983909E+02 0.  0.
         12    1    1    2    0    0  0.93362074777E+00 -0.55903321706E+00  0.45704321985E+00  0.11802772315E+01  0.00000000000E+00 0. -1.
         11    1    3    3    0    0 -0.39432054522E+02 -0.63308641652E+01  0.12045243239E+02  0.41713962289E+02  0.51100000000E-03 0. -1.
        -11    1    3    3    0    0  0.41793729296E+00  0.83211928427E+01 -0.52399162466E+00  0.83481428707E+01  0.51100000000E-03 0.  1.
        -12    1    3    3    0    0  0.38080496482E+02 -0.14312954604E+01 -0.11978294834E+02  0.39945617608E+02  0.00000000000E+00 0.  1.
</event>
<event>
 7    1  0.3568207E-015  0.9000774E+02  0.7816164E-02  0.1186339E+00
        -11   -1    0    0    0    0  0.00000000000E+00  0.00000000000E+00  0.45593999997E+02  0.45594000000E+02  0.51100000000E-03 0. -1.
         11   -1    0    0    0    0 -0.00000000000E+00 -0.00000000000E+00 -0.45593999997E+02  0.45594000000E+02  0.51100000000E-03 0.  1.
    9900012    2    1    2    0    0  0.29786451029E+00  0.11410713807E+01  0.47448647279E-01  0.90007737937E+02  0.89999999278E+02 0.  0.
         12    1    1    2    0    0 -0.29786451029E+00 -0.11410713807E+01 -0.47448647279E-01  0.11802620626E+01  0.00000000000E+00 0. -1.
         11    1    3    3    0    0  0.56473749221E+01  0.53780731777E+01 -0.22972268955E+01  0.81298072723E+01  0.51100000000E-03 0. -1.
        -11    1    3    3    0    0 -0.22378434525E+02  0.17252804720E+01 -0.34323826660E+02  0.41010925390E+02  0.51100000000E-03 0.  1.
         12    1    3    3    0    0  0.17028924114E+02 -0.59622822690E+01  0.36668502203E+02  0.40867005275E+02  0.00000000000E+00 0. -1.
</event>
<event>
 7    1  0.4424437E-015  0.9000767E+02  0.7816164E-02  0.1186339E+00
        -11   -1    0    0    0    0  0.00000000000E+00  0.00000000000E+00  0.45593999997E+02  0.45594000000E+02  0.51100000000E-03 0. -1.
         11   -1    0    0    0    0 -0.00000000000E+00 -0.00000000000E+00 -0.45593999997E+02  0.45594000000E+02  0.51100000000E-03 0.  1.
    9900012    2    1    2    0    0 -0.26090519409E+00 -0.23411776731E+00 -0.11270756066E+01  0.90007668660E+02  0.89999929086E+02 0.  0.
         12    1    1    2    0    0  0.26090519409E+00  0.23411776731E+00  0.11270756066E+01  0.11803313400E+01  0.00000000000E+00 0. -1.
         11    1    3    3    0    0  0.91032703335E+01  0.78951544649E+00 -0.13438766655E+01  0.92357387445E+01  0.51100000000E-03 0. -1.
        -11    1    3    3    0    0 -0.14174022464E+02 -0.23756069372E+02 -0.31199059694E+02  0.41696943184E+02  0.51100000000E-03 0.  1.
         12    1    3    3    0    0  0.48098469360E+01  0.22732436158E+02  0.31415860753E+02  0.39074986732E+02  0.00000000000E+00 0. -1.
</event>
<event>
 7    1  0.3568207E-015  0.9000787E+02  0.7816164E-02  0.1186339E+00
        -11   -1    0    0    0    0  0.00000000000E+00  0.00000000000E+00  0.45593999997E+02  0.45594000000E+02  0.51100000000E-03 0.  1.
         11   -1    0    0    0    0 -0.00000000000E+00 -0.00000000000E+00 -0.45593999997E+02  0.45594000000E+02  0.51100000000E-03 0. -1.
    9900012    2    1    2    0    0  0.19199415979E+00  0.37401392769E+00  0.11027013723E+01  0.90007873527E+02  0.90000136658E+02 0.  0.
         12    1    1    2    0    0 -0.19199415979E+00 -0.37401392769E+00 -0.11027013723E+01  0.11801264729E+01  0.00000000000E+00 0. -1.
         11    1    3    3    0    0 -0.10396674239E+02 -0.16623434154E+02 -0.29145235683E+02  0.35126544971E+02  0.51100000000E-03 0. -1.
        -11    1    3    3    0    0  0.39340468216E+01  0.53458818454E+01 -0.10253924778E+02  0.12214669488E+02  0.51100000000E-03 0.  1.
        -12    1    3    3    0    0  0.66546215774E+01  0.11651566237E+02  0.40501861833E+02  0.42666659068E+02  0.00000000000E+00 0.  1.
</event>
<event>
 7    1  0.3568207E-015  0.9000772E+02  0.7816164E-02  0.1186339E+00
        -11   -1    0    0    0    0  0.00000000000E+00  0.00000000000E+00  0.45593999997E+02  0.45594000000E+02  0.51100000000E-03 0.  1.
         11   -1    0    0    0    0 -0.00000000000E+00 -0.00000000000E+00 -0.45593999997E+02  0.45594000000E+02  0.51100000000E-03 0. -1.
    9900012    2    1    2    0    0 -0.37550198894E+00  0.10619748551E+01  0.35251924522E+00  0.90007719459E+02  0.89999980556E+02 0.  0.
         12    1    1    2    0    0  0.37550198894E+00 -0.10619748551E+01 -0.35251924522E+00  0.11802805407E+01  0.00000000000E+00 0. -1.
         11    1    3    3    0    0 -0.10749821553E+02 -0.11027907739E+02 -0.32537958091E+02  0.35998501768E+02  0.51100000000E-03 0. -1.
        -11    1    3    3    0    0 -0.98894600506E+00 -0.12003536948E+02  0.47668131560E+00  0.12053635916E+02  0.51100000000E-03 0.  1.
        -12    1    3    3    0    0  0.11363265569E+02  0.24093419542E+02  0.32413796021E+02  0.41955581775E+02  0.00000000000E+00 0.  1.
</event>
<event>
 7    1  0.3568207E-015  0.9000773E+02  0.7816164E-02  0.1186339E+00
        -11   -1    0    0    0    0  0.00000000000E+00  0.00000000000E+00  0.45593999997E+02  0.45594000000E+02  0.51100000000E-03 0.  1.
         11   -1    0    0    0    0 -0.00000000000E+00 -0.00000000000E+00 -0.45593999997E+02  0.45594000000E+02  0.51100000000E-03 0. -1.
    9900012    2    1    2    0    0 -0.10594361756E+01  0.51667729565E+00  0.60540434043E-01  0.90007734953E+02  0.89999996254E+02 0.  0.
         12    1    1    2    0    0  0.10594361756E+01 -0.51667729565E+00 -0.60540434043E-01  0.11802650474E+01  0.00000000000E+00 0. -1.
         11    1    3    3    0    0 -0.21480255748E+01  0.27439893268E+02 -0.67003844934E+00  0.27531994266E+02  0.51100000000E-03 0. -1.
        -11    1    3    3    0    0  0.77785897072E+01  0.16298405233E+02  0.43938207725E+01  0.18586288823E+02  0.51100000000E-03 0.  1.
         12    1    3    3    0    0 -0.66900003080E+01 -0.43221621206E+02 -0.36632418891E+01  0.43889451864E+02  0.00000000000E+00 0. -1.
</event>
<event>
 7    1  0.3568207E-015  0.9000776E+02  0.7816164E-02  0.1186339E+00
        -11   -1    0    0    0    0  0.00000000000E+00  0.00000000000E+00  0.45593999997E+02  0.45594000000E+02  0.51100000000E-03 0. -1.
         11   -1    0    0    0    0 -0.00000000000E+00 -0.00000000000E+00 -0.45593999997E+02  0.45594000000E+02  0.51100000000E-03 0.  1.
    9900012    2    1    2    0    0  0.98715797101E+00 -0.62619514795E+00  0.16240497533E+00  0.90007755704E+02  0.90000017279E+02 0.  0.
         12    1    1    2    0    0 -0.98715797101E+00  0.62619514795E+00 -0.16240497533E+00  0.11802442963E+01  0.00000000000E+00 0. -1.
         11    1    3    3    0    0 -0.13619531027E+01  0.63112078674E+01 -0.62540853976E+01  0.89888734234E+01  0.51100000000E-03 0. -1.
        -11    1    3    3    0    0 -0.30992021428E+02 -0.21935610626E+02  0.18865899062E+02  0.42398096106E+02  0.51100000000E-03 0.  1.
         12    1    3    3    0    0  0.33341132502E+02  0.14998207611E+02 -0.12449408689E+02  0.38620786174E+02  0.00000000000E+00 0. -1.
</event>
<event>
 7    1  0.3568207E-015  0.9000775E+02  0.7816164E-02  0.1186339E+00
        -11   -1    0    0    0    0  0.00000000000E+00  0.00000000000E+00  0.45593999997E+02  0.45594000000E+02  0.51100000000E-03 0.  1.
         11   -1    0    0    0    0 -0.00000000000E+00 -0.00000000000E+00 -0.45593999997E+02  0.45594000000E+02  0.51100000000E-03 0. -1.
    9900012    2    1    2    0    0  0.55134503121E+00  0.99238212676E+00  0.32278814281E+00  0.90007747563E+02  0.90000009031E+02 0.  0.
         12    1    1    2    0    0 -0.55134503121E+00 -0.99238212676E+00 -0.32278814281E+00  0.11802524366E+01  0.00000000000E+00 0. -1.
         11    1    3    3    0    0  0.11728614343E+02 -0.53546391096E+01 -0.44733426898E+01  0.13647100406E+02  0.51100000000E-03 0. -1.
        -11    1    3    3    0    0 -0.15729610182E+02 -0.29439121683E+02 -0.13387304125E+02  0.35962514288E+02  0.51100000000E-03 0.  1.
         12    1    3    3    0    0  0.45523408702E+01  0.35786142919E+02  0.18183434958E+02  0.40398132869E+02  0.00000000000E+00 0. -1.
</event>
<event>
 7    1  0.3568207E-015  0.9000797E+02  0.7816164E-02  0.1186339E+00
        -11   -1    0    0    0    0  0.00000000000E+00  0.00000000000E+00  0.45593999997E+02  0.45594000000E+02  0.51100000000E-03 0. -1.
         11   -1    0    0    0    0 -0.00000000000E+00 -0.00000000000E+00 -0.45593999997E+02  0.45594000000E+02  0.51100000000E-03 0.  1.
    9900012    2    1    2    0    0 -0.31127696336E+00 -0.86118936772E-01 -0.11349682752E+01  0.90007973388E+02  0.90000237836E+02 0.  0.
         12    1    1    2    0    0  0.31127696336E+00  0.86118936772E-01  0.11349682752E+01  0.11800266119E+01  0.00000000000E+00 0. -1.
         11    1    3    3    0    0 -0.34734993673E+02  0.23596423589E+01  0.21766196054E+02  0.41059164488E+02  0.51100000000E-03 0. -1.
        -11    1    3    3    0    0  0.42635250942E+01  0.31489392643E+01 -0.16874931446E+02  0.17687757808E+02  0.51100000000E-03 0.  1.
        -12    1    3    3    0    0  0.30160191615E+02 -0.55947005600E+01 -0.60262328828E+01  0.31261051092E+02  0.00000000000E+00 0.  1.
</event>
<event>
 7    1  0.3568207E-015  0.9000777E+02  0.7816164E-02  0.1186339E+00
        -11   -1    0    0    0    0  0.00000000000E+00  0.00000000000E+00  0.45593999997E+02  0.45594000000E+02  0.51100000000E-03 0. -1.
         11   -1    0    0    0    0 -0.00000000000E+00 -0.00000000000E+00 -0.45593999997E+02  0.45594000000E+02  0.51100000000E-03 0.  1.
    9900012    2    1    2    0    0 -0.51856778476E-01  0.23329504390E-02 -0.11790841948E+01  0.90007773705E+02  0.90000035518E+02 0.  0.
         12    1    1    2    0    0  0.51856778476E-01 -0.23329504390E-02  0.11790841948E+01  0.11802262946E+01  0.00000000000E+00 0. -1.
         11    1    3    3    0    0 -0.79641904203E+01 -0.50464182450E+01 -0.23140375447E+01  0.97082148808E+01  0.51100000000E-03 0. -1.
        -11    1    3    3    0    0 -0.16081255101E+02 -0.30981614282E+02  0.95753269054E+01  0.36196050541E+02  0.51100000000E-03 0.  1.
         12    1    3    3    0    0  0.23993588743E+02  0.36030365477E+02 -0.84403735556E+01  0.44103508284E+02  0.00000000000E+00 0. -1.
</event>
<event>
 7    1  0.3568207E-015  0.9000811E+02  0.7816164E-02  0.1186338E+00
        -11   -1    0    0    0    0  0.00000000000E+00  0.00000000000E+00  0.45593999997E+02  0.45594000000E+02  0.51100000000E-03 0.  1.
         11   -1    0    0    0    0 -0.00000000000E+00 -0.00000000000E+00 -0.45593999997E+02  0.45594000000E+02  0.51100000000E-03 0. -1.
    9900012    2    1    2    0    0 -0.58829651100E-02 -0.88082465416E+00  0.78501488212E+00  0.90008112274E+02  0.90000378555E+02 0.  0.
         12    1    1    2    0    0  0.58829651100E-02  0.88082465416E+00 -0.78501488212E+00  0.11798877259E+01  0.00000000000E+00 0. -1.
         11    1    3    3    0    0 -0.22877412775E+02 -0.17110322238E+02 -0.18714986075E+02  0.34152450079E+02  0.51100000000E-03 0. -1.
        -11    1    3    3    0    0 -0.10449464642E+02  0.15740937598E+02  0.89078705928E+01  0.20888240389E+02  0.51100000000E-03 0.  1.
        -12    1    3    3    0    0  0.33320994452E+02  0.48855998522E+00  0.10592130364E+02  0.34967421806E+02  0.00000000000E+00 0.  1.
</event>
<event>
 7    1  0.3568207E-015  0.9000757E+02  0.7816164E-02  0.1186339E+00
        -11   -1    0    0    0    0  0.00000000000E+00  0.00000000000E+00  0.45593999997E+02  0.45594000000E+02  0.51100000000E-03 0.  1.
         11   -1    0    0    0    0 -0.00000000000E+00 -0.00000000000E+00 -0.45593999997E+02  0.45594000000E+02  0.51100000000E-03 0. -1.
    9900012    2    1    2    0    0 -0.74633126854E+00 -0.54532940424E+00  0.73418422150E+00  0.90007567455E+02  0.89999826546E+02 0.  0.
         12    1    1    2    0    0  0.74633126854E+00  0.54532940424E+00 -0.73418422150E+00  0.11804325447E+01  0.00000000000E+00 0. -1.
         11    1    3    3    0    0  0.38340829968E+01  0.81876957912E+01  0.95579291835E+00  0.90913197699E+01  0.51100000000E-03 0. -1.
        -11    1    3    3    0    0 -0.15078102384E+02 -0.29145594517E+02  0.28975543281E+02  0.43776671412E+02  0.51100000000E-03 0.  1.
         12    1    3    3    0    0  0.10497688119E+02  0.20412569321E+02 -0.29197151978E+02  0.37139576273E+02  0.00000000000E+00 0. -1.
</event>
<event>
 7    1  0.3568207E-015  0.9000778E+02  0.7816164E-02  0.1186339E+00
        -11   -1    0    0    0    0  0.00000000000E+00  0.00000000000E+00  0.45593999997E+02  0.45594000000E+02  0.51100000000E-03 0. -1.
         11   -1    0    0    0    0 -0.00000000000E+00 -0.00000000000E+00 -0.45593999997E+02  0.45594000000E+02  0.51100000000E-03 0.  1.
    9900012    2    1    2    0    0  0.17813093759E+00 -0.59553488450E+00 -0.10032618753E+01  0.90007776792E+02  0.90000038646E+02 0.  0.
         12    1    1    2    0    0 -0.17813093759E+00  0.59553488450E+00  0.10032618753E+01  0.11802232077E+01  0.00000000000E+00 0. -1.
         11    1    3    3    0    0 -0.11487254690E+02 -0.38888978221E+02  0.69165426475E+01  0.41135729115E+02  0.51100000000E-03 0. -1.
        -11    1    3    3    0    0 -0.32749441636E+01  0.53274374272E+01  0.72968038337E+01  0.96099008977E+01  0.51100000000E-03 0.  1.
        -12    1    3    3    0    0  0.14940329791E+02  0.32966005909E+02 -0.15216608357E+02  0.39262146780E+02  0.00000000000E+00 0.  1.
</event>
<event>
 7    1  0.3568207E-015  0.9000773E+02  0.7816164E-02  0.1186339E+00
        -11   -1    0    0    0    0  0.00000000000E+00  0.00000000000E+00  0.45593999997E+02  0.45594000000E+02  0.51100000000E-03 0.  1.
         11   -1    0    0    0    0 -0.00000000000E+00 -0.00000000000E+00 -0.45593999997E+02  0.45594000000E+02  0.51100000000E-03 0. -1.
    9900012    2    1    2    0    0  0.52880783761E+00  0.31585808074E+00  0.10067988301E+01  0.90007725481E+02  0.89999986657E+02 0.  0.
         12    1    1    2    0    0 -0.52880783761E+00 -0.31585808074E+00 -0.10067988301E+01  0.11802745192E+01  0.00000000000E+00 0. -1.
         11    1    3    3    0    0  0.58262514886E+01  0.19803599284E+02 -0.35068898635E+02  0.40693431937E+02  0.51100000000E-03 0. -1.
        -11    1    3    3    0    0  0.64982519235E+01  0.35886421783E+01  0.55365790227E+01  0.92606337948E+01  0.51100000000E-03 0.  1.
        -12    1    3    3    0    0 -0.11795695575E+02 -0.23076383382E+02  0.30539118443E+02  0.40053659749E+02  0.00000000000E+00 0.  1.
</event>
<event>
 7    1  0.3568207E-015  0.9000775E+02  0.7816164E-02  0.1186339E+00
        -11   -1    0    0    0    0  0.00000000000E+00  0.00000000000E+00  0.45593999997E+02  0.45594000000E+02  0.51100000000E-03 0.  1.
         11   -1    0    0    0    0 -0.00000000000E+00 -0.00000000000E+00 -0.45593999997E+02  0.45594000000E+02  0.51100000000E-03 0. -1.
    9900012    2    1    2    0    0 -0.16594364799E+00 -0.24928126505E-01  0.11682566324E+01  0.90007753303E+02  0.90000014847E+02 0.  0.
         12    1    1    2    0    0  0.16594364799E+00  0.24928126505E-01 -0.11682566324E+01  0.11802466966E+01  0.00000000000E+00 0. -1.
         11    1    3    3    0    0  0.33087729673E+02 -0.75062708442E+01  0.15081804283E+02  0.37129540498E+02  0.51100000000E-03 0. -1.
        -11    1    3    3    0    0  0.82531521549E+01 -0.11576228935E+01 -0.44138667825E+01  0.94306326135E+01  0.51100000000E-03 0.  1.
        -12    1    3    3    0    0 -0.41506825476E+02  0.86389656112E+01 -0.94996808677E+01  0.43447580192E+02  0.00000000000E+00 0.  1.
</event>
<event>
 7    1  0.3568207E-015  0.9000772E+02  0.7816164E-02  0.1186339E+00
        -11   -1    0    0    0    0  0.00000000000E+00  0.00000000000E+00  0.45593999997E+02  0.45594000000E+02  0.51100000000E-03 0.  1.
         11   -1    0    0    0    0 -0.00000000000E+00 -0.00000000000E+00 -0.45593999997E+02  0.45594000000E+02  0.51100000000E-03 0. -1.
    9900012    2    1    2    0    0 -0.42807700169E+00  0.35865208271E+00  0.10397951160E+01  0.90007722440E+02  0.89999983576E+02 0.  0.
         12    1    1    2    0    0  0.42807700169E+00 -0.35865208271E+00 -0.10397951160E+01  0.11802775602E+01  0.00000000000E+00 0. -1.
         11    1    3    3    0    0  0.87072952308E+01  0.30668267002E+01  0.10484791308E+01  0.92909485519E+01  0.51100000000E-03 0. -1.
        -11    1    3    3    0    0  0.15096657528E+02 -0.12793893350E+02  0.33040349642E+02  0.38513081937E+02  0.51100000000E-03 0.  1.
         12    1    3    3    0    0 -0.24232029761E+02  0.10085718732E+02 -0.33049033657E+02  0.42203691951E+02  0.00000000000E+00 0. -1.
</event>
<event>
 7    1  0.3568207E-015  0.9000779E+02  0.7816164E-02  0.1186339E+00
        -11   -1    0    0    0    0  0.00000000000E+00  0.00000000000E+00  0.45593999997E+02  0.45594000000E+02  0.51100000000E-03 0.  1.
         11   -1    0    0    0    0 -0.00000000000E+00 -0.00000000000E+00 -0.45593999997E+02  0.45594000000E+02  0.51100000000E-03 0. -1.
    9900012    2    1    2    0    0 -0.21689725399E+00  0.73682627930E+00  0.89606752095E+00  0.90007790533E+02  0.90000052568E+02 0.  0.
         12    1    1    2    0    0  0.21689725399E+00 -0.73682627930E+00 -0.89606752095E+00  0.11802094673E+01  0.00000000000E+00 0. -1.
         11    1    3    3    0    0 -0.24078837076E+01 -0.59058124210E+01  0.76881242415E+01  0.99891830955E+01  0.51100000000E-03 0. -1.
        -11    1    3    3    0    0 -0.71719455227E+01  0.31513902464E+02  0.23321596564E+02  0.39855485415E+02  0.51100000000E-03 0.  1.
         12    1    3    3    0    0  0.93629319764E+01 -0.24871263764E+02 -0.30113653285E+02  0.40163122022E+02  0.00000000000E+00 0. -1.
</event>
<event>
 7    1  0.3568207E-015  0.9000739E+02  0.7816164E-02  0.1186340E+00
        -11   -1    0    0    0    0  0.00000000000E+00  0.00000000000E+00  0.45593999997E+02  0.45594000000E+02  0.51100000000E-03 0. -1.
         11   -1    0    0    0    0 -0.00000000000E+00 -0.00000000000E+00 -0.45593999997E+02  0.45594000000E+02  0.51100000000E-03 0.  1.
    9900012    2    1    2    0    0  0.36178264415E+00 -0.29323130006E+00 -0.10848836608E+01  0.90007388364E+02  0.89999645090E+02 0.  0.
         12    1    1    2    0    0 -0.36178264415E+00  0.29323130006E+00  0.10848836608E+01  0.11806116357E+01  0.00000000000E+00 0. -1.
         11    1    3    3    0    0  0.42850875525E+00  0.78723277550E+01 -0.33819657084E+01  0.85787444506E+01  0.51100000000E-03 0. -1.
        -11    1    3    3    0    0 -0.37868368849E+01  0.35615809620E+02  0.91287096545E+01  0.36961593157E+02  0.51100000000E-03 0.  1.
         12    1    3    3    0    0  0.37201107739E+01 -0.43781368675E+02 -0.68316276069E+01  0.44467050757E+02  0.00000000000E+00 0. -1.
</event>
<event>
 7    1  0.3568207E-015  0.9000773E+02  0.7816164E-02  0.1186339E+00
        -11   -1    0    0    0    0  0.00000000000E+00  0.00000000000E+00  0.45593999997E+02  0.45594000000E+02  0.51100000000E-03 0.  1.
         11   -1    0    0    0    0 -0.00000000000E+00 -0.00000000000E+00 -0.45593999997E+02  0.45594000000E+02  0.51100000000E-03 0. -1.
    9900012    2    1    2    0    0  0.48183759209E+00  0.10502740549E+01 -0.24038281593E+00  0.90007734372E+02  0.89999995665E+02 0.  0.
         12    1    1    2    0    0 -0.48183759209E+00 -0.10502740549E+01  0.24038281593E+00  0.11802656284E+01  0.00000000000E+00 0. -1.
         11    1    3    3    0    0 -0.38379970373E+01 -0.40560593424E+01 -0.31030903780E+01  0.63883494584E+01  0.51100000000E-03 0. -1.
        -11    1    3    3    0    0 -0.38176646552E+02 -0.15877627075E+00 -0.89226279359E+01  0.39205801119E+02  0.51100000000E-03 0.  1.
         12    1    3    3    0    0  0.42496481181E+02  0.52651096680E+01  0.11785335498E+02  0.44413583794E+02  0.00000000000E+00 0. -1.
</event>
<event>
 7    1  0.3568207E-015  0.9000736E+02  0.7816164E-02  0.1186340E+00
        -11   -1    0    0    0    0  0.00000000000E+00  0.00000000000E+00  0.45593999997E+02  0.45594000000E+02  0.51100000000E-03 0.  1.
         11   -1    0    0    0    0 -0.00000000000E+00 -0.00000000000E+00 -0.45593999997E+02  0.45594000000E+02  0.51100000000E-03 0. -1.
    9900012    2    1    2    0    0  0.67219811875E+00 -0.96129054858E+00  0.13405493232E+00  0.90007364343E+02  0.89999620752E+02 0.  0.
         12    1    1    2    0    0 -0.67219811875E+00  0.96129054858E+00 -0.13405493232E+00  0.11806356570E+01  0.00000000000E+00 0. -1.
         11    1    3    3    0    0  0.54846634356E+01  0.81470176140E+01  0.79454588001E+00  0.98532599895E+01  0.51100000000E-03 0. -1.
        -11    1    3    3    0    0 -0.10872742966E+02 -0.11357020919E+02  0.37912448049E+02  0.41043296421E+02  0.51100000000E-03 0.  1.
         12    1    3    3    0    0  0.60602776495E+01  0.22487127561E+01 -0.38572938997E+02  0.39110807932E+02  0.00000000000E+00 0. -1.
</event>
<event>
 7    1  0.3568207E-015  0.9000781E+02  0.7816164E-02  0.1186339E+00
        -11   -1    0    0    0    0  0.00000000000E+00  0.00000000000E+00  0.45593999997E+02  0.45594000000E+02  0.51100000000E-03 0.  1.
         11   -1    0    0    0    0 -0.00000000000E+00 -0.00000000000E+00 -0.45593999997E+02  0.45594000000E+02  0.51100000000E-03 0. -1.
    9900012    2    1    2    0    0  0.56834768985E+00 -0.85063222857E+00  0.58842627357E+00  0.90007813674E+02  0.90000076014E+02 0.  0.
         12    1    1    2    0    0 -0.56834768985E+00  0.85063222857E+00 -0.58842627357E+00  0.11801863261E+01  0.00000000000E+00 0. -1.
         11    1    3    3    0    0  0.10993187285E+02  0.29824677544E+02 -0.15010696569E+02  0.35152276869E+02  0.51100000000E-03 0. -1.
        -11    1    3    3    0    0 -0.10671750688E+02  0.83221532207E+01  0.28858315563E+01  0.13837359611E+02  0.51100000000E-03 0.  1.
        -12    1    3    3    0    0  0.24691109280E+00 -0.38997462993E+02  0.12713291286E+02  0.41018177194E+02  0.00000000000E+00 0.  1.
</event>
<event>
 7    1  0.3568207E-015  0.9000776E+02  0.7816164E-02  0.1186339E+00
        -11   -1    0    0    0    0  0.00000000000E+00  0.00000000000E+00  0.45593999997E+02  0.45594000000E+02  0.51100000000E-03 0. -1.
         11   -1    0    0    0    0 -0.00000000000E+00 -0.00000000000E+00 -0.45593999997E+02  0.45594000000E+02  0.51100000000E-03 0.  1.
    9900012    2    1    2    0    0 -0.10155056657E+00 -0.93901281310E+00 -0.70775481567E+00  0.90007756610E+02  0.90000018197E+02 0.  0.
         12    1    1    2    0    0  0.10155056657E+00  0.93901281310E+00  0.70775481567E+00  0.11802433901E+01  0.00000000000E+00 0. -1.
         11    1    3    3    0    0 -0.36661632343E+02 -0.17390777976E+02  0.43322445160E+01  0.40807876537E+02  0.51100000000E-03 0. -1.
        -11    1    3    3    0    0  0.14658470191E+02  0.25522599547E+00 -0.14250171489E+02  0.20445128426E+02  0.51100000000E-03 0.  1.
        -12    1    3    3    0    0  0.21901611586E+02  0.16196539167E+02  0.92101721573E+01  0.28754751646E+02  0.00000000000E+00 0.  1.
</event>
<event>
 7    1  0.3568207E-015  0.9000858E+02  0.7816164E-02  0.1186337E+00
        -11   -1    0    0    0    0  0.00000000000E+00  0.00000000000E+00  0.45593999997E+02  0.45594000000E+02  0.51100000000E-03 0. -1.
         11   -1    0    0    0    0 -0.00000000000E+00 -0.00000000000E+00 -0.45593999997E+02  0.45594000000E+02  0.51100000000E-03 0.  1.
    9900012    2    1    2    0    0  0.36700070031E+00 -0.10986397773E+01 -0.22210647204E+00  0.90008580584E+02  0.90000853044E+02 0.  0.
         12    1    1    2    0    0 -0.36700070031E+00  0.10986397773E+01  0.22210647204E+00  0.11794194161E+01  0.00000000000E+00 0. -1.
         11    1    3    3    0    0  0.14037580059E+00 -0.98159571438E+01  0.14918491803E+00  0.98180943372E+01  0.51100000000E-03 0. -1.
        -11    1    3    3    0    0  0.36282928774E+02 -0.12894564118E+01 -0.15953761575E+02  0.39656476482E+02  0.51100000000E-03 0.  1.
         12    1    3    3    0    0 -0.36056303875E+02  0.10006773778E+02  0.15582470185E+02  0.40534009765E+02  0.00000000000E+00 0. -1.
</event>
<event>
 7    1  0.3568207E-015  0.9000773E+02  0.7816164E-02  0.1186339E+00
        -11   -1    0    0    0    0  0.00000000000E+00  0.00000000000E+00  0.45593999997E+02  0.45594000000E+02  0.51100000000E-03 0. -1.
         11   -1    0    0    0    0 -0.00000000000E+00 -0.00000000000E+00 -0.45593999997E+02  0.45594000000E+02  0.51100000000E-03 0.  1.
    9900012    2    1    2    0    0  0.42645438220E+00 -0.90654366826E+00  0.62397210070E+00  0.90007734799E+02  0.89999996098E+02 0.  0.
         12    1    1    2    0    0 -0.42645438220E+00  0.90654366826E+00 -0.62397210070E+00  0.11802652011E+01  0.00000000000E+00 0. -1.
         11    1    3    3    0    0  0.24118709180E+02  0.25891488489E+02 -0.67082149581E-01  0.35384824557E+02  0.51100000000E-03 0. -1.
        -11    1    3    3    0    0  0.71826310198E+01  0.30189780007E+01  0.79044106547E+01  0.11098834380E+02  0.51100000000E-03 0.  1.
        -12    1    3    3    0    0 -0.30874885818E+02 -0.29817010158E+02 -0.72133564045E+01  0.43524075862E+02  0.00000000000E+00 0.  1.
</event>
<event>
 7    1  0.3568207E-015  0.9000773E+02  0.7816164E-02  0.1186339E+00
        -11   -1    0    0    0    0  0.00000000000E+00  0.00000000000E+00  0.45593999997E+02  0.45594000000E+02  0.51100000000E-03 0.  1.
         11   -1    0    0    0    0 -0.00000000000E+00 -0.00000000000E+00 -0.45593999997E+02  0.45594000000E+02  0.51100000000E-03 0. -1.
    9900012    2    1    2    0    0 -0.54096396211E+00 -0.81590785700E+00 -0.65931356736E+00  0.90007727989E+02  0.89999989199E+02 0.  0.
         12    1    1    2    0    0  0.54096396211E+00  0.81590785700E+00  0.65931356736E+00  0.11802720108E+01  0.00000000000E+00 0. -1.
         11    1    3    3    0    0 -0.40566560341E+02  0.20960514672E+01  0.54446615446E+01  0.40983943066E+02  0.51100000000E-03 0. -1.
        -11    1    3    3    0    0 -0.21751725139E+00 -0.50846253391E+01 -0.70691055023E+01  0.87105098276E+01  0.51100000000E-03 0.  1.
        -12    1    3    3    0    0  0.40243113630E+02  0.21726660149E+01  0.96513039034E+00  0.40313275096E+02  0.00000000000E+00 0.  1.
</event>
<event>
 7    1  0.3568207E-015  0.9000774E+02  0.7816164E-02  0.1186339E+00
        -11   -1    0    0    0    0  0.00000000000E+00  0.00000000000E+00  0.45593999997E+02  0.45594000000E+02  0.51100000000E-03 0. -1.
         11   -1    0    0    0    0 -0.00000000000E+00 -0.00000000000E+00 -0.45593999997E+02  0.45594000000E+02  0.51100000000E-03 0.  1.
    9900012    2    1    2    0    0 -0.16818343319E+00 -0.43718103676E+00 -0.10833253920E+01  0.90007742896E+02  0.90000004302E+02 0.  0.
         12    1    1    2    0    0  0.16818343319E+00  0.43718103676E+00  0.10833253920E+01  0.11802571038E+01  0.00000000000E+00 0. -1.
         11    1    3    3    0    0  0.42139430121E+02 -0.58054943291E+01  0.79543844782E+01  0.43274791369E+02  0.51100000000E-03 0. -1.
        -11    1    3    3    0    0 -0.54348740510E+01 -0.46545840064E+01 -0.39827465057E+01  0.81893393025E+01  0.51100000000E-03 0.  1.
        -12    1    3    3    0    0 -0.36872739503E+02  0.10022897299E+02 -0.50549633645E+01  0.38543612225E+02  0.00000000000E+00 0.  1.
</event>
<event>
 7    1  0.3568207E-015  0.9000767E+02  0.7816164E-02  0.1186339E+00
        -11   -1    0    0    0    0  0.00000000000E+00  0.00000000000E+00  0.45593999997E+02  0.45594000000E+02  0.51100000000E-03 0.  1.
         11   -1    0    0    0    0 -0.00000000000E+00 -0.00000000000E+00 -0.45593999997E+02  0.45594000000E+02  0.51100000000E-03 0. -1.
    9900012    2    1    2    0    0  0.91089766666E+00  0.74494111918E+00 -0.92276963736E-01  0.90007666628E+02  0.89999927028E+02 0.  0.
         12    1    1    2    0    0 -0.91089766666E+00 -0.74494111918E+00  0.92276963736E-01  0.11803333716E+01  0.00000000000E+00 0. -1.
         11    1    3    3    0    0  0.21135940191E+02  0.20017192959E+02 -0.24562207026E+02  0.38088292111E+02  0.51100000000E-03 0. -1.
        -11    1    3    3    0    0  0.10687144026E+01  0.74810902718E+01 -0.29272595031E+01  0.81041785882E+01  0.51100000000E-03 0.  1.
        -12    1    3    3    0    0 -0.21293756926E+02 -0.26753342112E+02  0.27397189565E+02  0.43815195929E+02  0.00000000000E+00 0.  1.
</event>
<event>
 7    1  0.3568207E-015  0.9000742E+02  0.7816164E-02  0.1186340E+00
        -11   -1    0    0    0    0  0.00000000000E+00  0.00000000000E+00  0.45593999997E+02  0.45594000000E+02  0.51100000000E-03 0.  1.
         11   -1    0    0    0    0 -0.00000000000E+00 -0.00000000000E+00 -0.45593999997E+02  0.45594000000E+02  0.51100000000E-03 0. -1.
    9900012    2    1    2    0    0  0.22660108141E+00  0.10737704861E+01  0.43523577400E+00  0.90007423325E+02  0.89999680512E+02 0.  0.
         12    1    1    2    0    0 -0.22660108141E+00 -0.10737704861E+01 -0.43523577400E+00  0.11805766752E+01  0.00000000000E+00 0. -1.
         11    1    3    3    0    0  0.21394001357E+01  0.73960079952E+01  0.49977755160E+01  0.91790918709E+01  0.51100000000E-03 0. -1.
        -11    1    3    3    0    0  0.26901545117E+02  0.25263095033E+02  0.43364631782E+01  0.37158067946E+02  0.51100000000E-03 0.  1.
         12    1    3    3    0    0 -0.28814344171E+02 -0.31585332542E+02 -0.88990029201E+01  0.43670263508E+02  0.00000000000E+00 0. -1.
</event>
<event>
 7    1  0.3568207E-015  0.9000770E+02  0.7816164E-02  0.1186339E+00
        -11   -1    0    0    0    0  0.00000000000E+00  0.00000000000E+00  0.45593999997E+02  0.45594000000E+02  0.51100000000E-03 0. -1.
         11   -1    0    0    0    0 -0.00000000000E+00 -0.00000000000E+00 -0.45593999997E+02  0.45594000000E+02  0.51100000000E-03 0.  1.
    9900012    2    1    2    0    0 -0.21844467005E+00  0.10483910187E+01 -0.49626002152E+00  0.90007696729E+02  0.89999957526E+02 0.  0.
         12    1    1    2    0    0  0.21844467005E+00 -0.10483910187E+01  0.49626002152E+00  0.11803032708E+01  0.00000000000E+00 0. -1.
         11    1    3    3    0    0  0.86679266423E+01 -0.84903534579E+00 -0.74287263508E+01  0.11447261190E+02  0.51100000000E-03 0. -1.
        -11    1    3    3    0    0 -0.10190873239E+02 -0.33029256184E+01 -0.34837685175E+02  0.36447599696E+02  0.51100000000E-03 0.  1.
         12    1    3    3    0    0  0.13045019262E+01  0.52003519829E+01  0.41770151504E+02  0.42112835843E+02  0.00000000000E+00 0. -1.
</event>
<event>
 7    1  0.3568207E-015  0.9000785E+02  0.7816164E-02  0.1186339E+00
        -11   -1    0    0    0    0  0.00000000000E+00  0.00000000000E+00  0.45593999997E+02  0.45594000000E+02  0.51100000000E-03 0. -1.
         11   -1    0    0    0    0 -0.00000000000E+00 -0.00000000000E+00 -0.45593999997E+02  0.45594000000E+02  0.51100000000E-03 0.  1.
    9900012    2    1    2    0    0 -0.76562749699E+00  0.90017475080E-03  0.89809074303E+00  0.90007850324E+02  0.90000113148E+02 0.  0.
         12    1    1    2    0    0  0.76562749699E+00 -0.90017475080E-03 -0.89809074303E+00  0.11801496758E+01  0.00000000000E+00 0. -1.
         11    1    3    3    0    0 -0.16690084524E+02  0.13779385182E+02  0.31447445266E+02  0.38175544416E+02  0.51100000000E-03 0. -1.
        -11    1    3    3    0    0 -0.73136914078E+01 -0.15002545077E+01  0.39623707616E+01  0.84522912816E+01  0.51100000000E-03 0.  1.
        -12    1    3    3    0    0  0.23238148435E+02 -0.12278230499E+02 -0.34511725285E+02  0.43380014627E+02  0.00000000000E+00 0.  1.
</event>
<event>
 7    1  0.3648793E-015  0.9000763E+02  0.7816164E-02  0.1186339E+00
        -11   -1    0    0    0    0  0.00000000000E+00  0.00000000000E+00  0.45593999997E+02  0.45594000000E+02  0.51100000000E-03 0. -1.
         11   -1    0    0    0    0 -0.00000000000E+00 -0.00000000000E+00 -0.45593999997E+02  0.45594000000E+02  0.51100000000E-03 0.  1.
    9900012    2    1    2    0    0  0.99627093659E+00 -0.54012952364E+00 -0.33010672239E+00  0.90007633053E+02  0.89999893009E+02 0.  0.
         12    1    1    2    0    0 -0.99627093659E+00  0.54012952364E+00  0.33010672239E+00  0.11803669470E+01  0.00000000000E+00 0. -1.
         11    1    3    3    0    0  0.37174941032E+01  0.47955776721E+01  0.71648392223E+01  0.93889429096E+01  0.51100000000E-03 0. -1.
        -11    1    3    3    0    0  0.61652045508E+01  0.35555662799E+02  0.61455719017E+01  0.36605777666E+02  0.51100000000E-03 0.  1.
         12    1    3    3    0    0 -0.88864277174E+01 -0.40891369995E+02 -0.13640517846E+02  0.44012912478E+02  0.00000000000E+00 0. -1.
</event>
<event>
 7    1  0.3568207E-015  0.9000777E+02  0.7816164E-02  0.1186339E+00
        -11   -1    0    0    0    0  0.00000000000E+00  0.00000000000E+00  0.45593999997E+02  0.45594000000E+02  0.51100000000E-03 0.  1.
         11   -1    0    0    0    0 -0.00000000000E+00 -0.00000000000E+00 -0.45593999997E+02  0.45594000000E+02  0.51100000000E-03 0. -1.
    9900012    2    1    2    0    0  0.33168540035E+00 -0.11298145835E+01  0.80294193939E-01  0.90007769787E+02  0.90000031548E+02 0.  0.
         12    1    1    2    0    0 -0.33168540035E+00  0.11298145835E+01 -0.80294193939E-01  0.11802302129E+01  0.00000000000E+00 0. -1.
         11    1    3    3    0    0 -0.81679371298E+01  0.39458125419E+01 -0.25309180678E+01  0.94175463948E+01  0.51100000000E-03 0. -1.
        -11    1    3    3    0    0 -0.36361348552E+01  0.36781581421E+02  0.16903895879E+01  0.36999508452E+02  0.51100000000E-03 0.  1.
         12    1    3    3    0    0  0.12135757385E+02 -0.41857208546E+02  0.92082267377E+00  0.43590714940E+02  0.00000000000E+00 0. -1.
</event>
<event>
 7    1  0.3568207E-015  0.9000775E+02  0.7816164E-02  0.1186339E+00
        -11   -1    0    0    0    0  0.00000000000E+00  0.00000000000E+00  0.45593999997E+02  0.45594000000E+02  0.51100000000E-03 0.  1.
         11   -1    0    0    0    0 -0.00000000000E+00 -0.00000000000E+00 -0.45593999997E+02  0.45594000000E+02  0.51100000000E-03 0. -1.
    9900012    2    1    2    0    0  0.11087860785E+01  0.33965020159E+00  0.21959024918E+00  0.90007750575E+02  0.90000012083E+02 0.  0.
         12    1    1    2    0    0 -0.11087860785E+01 -0.33965020159E+00 -0.21959024918E+00  0.11802494249E+01  0.00000000000E+00 0. -1.
         11    1    3    3    0    0  0.35065852585E+01  0.14923768627E+02  0.62103993768E+01  0.16540376987E+02  0.51100000000E-03 0. -1.
        -11    1    3    3    0    0 -0.22638202013E+02  0.14816391380E+02 -0.21491578409E+02  0.34552881018E+02  0.51100000000E-03 0.  1.
         12    1    3    3    0    0  0.20240402833E+02 -0.29400509805E+02  0.15500769281E+02  0.38914492570E+02  0.00000000000E+00 0. -1.
</event>
<event>
 7    1  0.3568207E-015  0.9000775E+02  0.7816164E-02  0.1186339E+00
        -11   -1    0    0    0    0  0.00000000000E+00  0.00000000000E+00  0.45593999997E+02  0.45594000000E+02  0.51100000000E-03 0.  1.
         11   -1    0    0    0    0 -0.00000000000E+00 -0.00000000000E+00 -0.45593999997E+02  0.45594000000E+02  0.51100000000E-03 0. -1.
    9900012    2    1    2    0    0 -0.10312478112E+01 -0.40788972908E+00  0.40391396183E+00  0.90007748939E+02  0.90000010425E+02 0.  0.
         12    1    1    2    0    0  0.10312478112E+01  0.40788972908E+00 -0.40391396183E+00  0.11802510613E+01  0.00000000000E+00 0. -1.
         11    1    3    3    0    0  0.26064247414E+02  0.21031203647E+02 -0.16100012807E+02  0.37160017932E+02  0.51100000000E-03 0. -1.
        -11    1    3    3    0    0 -0.80921189746E+00 -0.17690896373E+01 -0.10289172786E+02  0.10471464984E+02  0.51100000000E-03 0.  1.
        -12    1    3    3    0    0 -0.26286283327E+02 -0.19670003739E+02  0.26793099554E+02  0.42376266022E+02  0.00000000000E+00 0.  1.
</event>
<event>
 7    1  0.3568207E-015  0.9000723E+02  0.7816164E-02  0.1186340E+00
        -11   -1    0    0    0    0  0.00000000000E+00  0.00000000000E+00  0.45593999997E+02  0.45594000000E+02  0.51100000000E-03 0. -1.
         11   -1    0    0    0    0 -0.00000000000E+00 -0.00000000000E+00 -0.45593999997E+02  0.45594000000E+02  0.51100000000E-03 0.  1.
    9900012    2    1    2    0    0  0.55668137915E+00  0.10118500513E+01 -0.24591296521E+00  0.90007234202E+02  0.89999488892E+02 0.  0.
         12    1    1    2    0    0 -0.55668137915E+00 -0.10118500513E+01  0.24591296521E+00  0.11807657984E+01  0.00000000000E+00 0. -1.
         11    1    3    3    0    0  0.96714602672E+01 -0.21980172658E+01 -0.37946254459E+01  0.10619209299E+02  0.51100000000E-03 0. -1.
        -11    1    3    3    0    0 -0.14369729409E+02 -0.18574932797E+02 -0.30581499585E+02  0.38558337215E+02  0.51100000000E-03 0.  1.
         12    1    3    3    0    0  0.52549505212E+01  0.21784800114E+02  0.34130212065E+02  0.40829687687E+02  0.00000000000E+00 0. -1.
</event>
<event>
 7    1  0.3568207E-015  0.9000771E+02  0.7816164E-02  0.1186339E+00
        -11   -1    0    0    0    0  0.00000000000E+00  0.00000000000E+00  0.45593999997E+02  0.45594000000E+02  0.51100000000E-03 0.  1.
         11   -1    0    0    0    0 -0.00000000000E+00 -0.00000000000E+00 -0.45593999997E+02  0.45594000000E+02  0.51100000000E-03 0. -1.
    9900012    2    1    2    0    0 -0.54038000501E-01 -0.84061067149E-01  0.11760517494E+01  0.90007710169E+02  0.89999971143E+02 0.  0.
         12    1    1    2    0    0  0.54038000501E-01  0.84061067149E-01 -0.11760517494E+01  0.11802898313E+01  0.00000000000E+00 0. -1.
         11    1    3    3    0    0 -0.20204676379E+02 -0.27468359351E+02 -0.55107995432E+01  0.34541404500E+02  0.51100000000E-03 0. -1.
        -11    1    3    3    0    0 -0.39056531977E+01 -0.66925016970E+01  0.11082556268E+02  0.13522823653E+02  0.51100000000E-03 0.  1.
        -12    1    3    3    0    0  0.24056291576E+02  0.34076799980E+02 -0.43957049755E+01  0.41943482015E+02  0.00000000000E+00 0.  1.
</event>
<event>
 7    1  0.3568207E-015  0.9000775E+02  0.7816164E-02  0.1186339E+00
        -11   -1    0    0    0    0  0.00000000000E+00  0.00000000000E+00  0.45593999997E+02  0.45594000000E+02  0.51100000000E-03 0. -1.
         11   -1    0    0    0    0 -0.00000000000E+00 -0.00000000000E+00 -0.45593999997E+02  0.45594000000E+02  0.51100000000E-03 0.  1.
    9900012    2    1    2    0    0 -0.38991430596E-02  0.91244406083E+00 -0.74860631230E+00  0.90007753933E+02  0.90000015485E+02 0.  0.
         12    1    1    2    0    0  0.38991430596E-02 -0.91244406083E+00  0.74860631230E+00  0.11802460668E+01  0.00000000000E+00 0. -1.
         11    1    3    3    0    0 -0.40496828986E+01 -0.49862896496E+01 -0.62682218021E+01  0.89751668993E+01  0.51100000000E-03 0. -1.
        -11    1    3    3    0    0 -0.28427611728E+02  0.27944329804E+02 -0.55620283091E+01  0.40248612845E+02  0.51100000000E-03 0.  1.
         12    1    3    3    0    0  0.32473395484E+02 -0.22045596094E+02  0.11081643799E+02  0.40783974189E+02  0.00000000000E+00 0. -1.
</event>
<event>
 7    1  0.3568207E-015  0.9000772E+02  0.7816164E-02  0.1186339E+00
        -11   -1    0    0    0    0  0.00000000000E+00  0.00000000000E+00  0.45593999997E+02  0.45594000000E+02  0.51100000000E-03 0.  1.
         11   -1    0    0    0    0 -0.00000000000E+00 -0.00000000000E+00 -0.45593999997E+02  0.45594000000E+02  0.51100000000E-03 0. -1.
    9900012    2    1    2    0    0  0.42412659771E+00  0.60815060228E+00  0.91832920701E+00  0.90007720771E+02  0.89999981885E+02 0.  0.
         12    1    1    2    0    0 -0.42412659771E+00 -0.60815060228E+00 -0.91832920701E+00  0.11802792290E+01  0.00000000000E+00 0. -1.
         11    1    3    3    0    0  0.16035607794E+02 -0.14899489387E+02  0.28917481246E+02  0.36267840068E+02  0.51100000000E-03 0. -1.
        -11    1    3    3    0    0  0.80487939779E+01  0.10348051135E+02  0.39115915460E+01  0.13680855071E+02  0.51100000000E-03 0.  1.
        -12    1    3    3    0    0 -0.23660275174E+02  0.51595888545E+01 -0.31910743585E+02  0.40059025632E+02  0.00000000000E+00 0.  1.
</event>
<event>
 7    1  0.3568207E-015  0.9000785E+02  0.7816164E-02  0.1186339E+00
        -11   -1    0    0    0    0  0.00000000000E+00  0.00000000000E+00  0.45593999997E+02  0.45594000000E+02  0.51100000000E-03 0. -1.
         11   -1    0    0    0    0 -0.00000000000E+00 -0.00000000000E+00 -0.45593999997E+02  0.45594000000E+02  0.51100000000E-03 0.  1.
    9900012    2    1    2    0    0  0.11155584394E+01  0.21467273591E+00 -0.31970038355E+00  0.90007846048E+02  0.90000108816E+02 0.  0.
         12    1    1    2    0    0 -0.11155584394E+01 -0.21467273591E+00  0.31970038355E+00  0.11801539521E+01  0.00000000000E+00 0. -1.
         11    1    3    3    0    0 -0.14042748818E+02  0.16530316719E+02 -0.35688387978E+01  0.21981509862E+02  0.51100000000E-03 0.  1.
        -11    1    3    3    0    0  0.33982329851E+02  0.10145099091E+02  0.23083483236E+01  0.35539418255E+02  0.51100000000E-03 0. -1.
         12    1    3    3    0    0 -0.18824022594E+02 -0.26460743074E+02  0.94079009060E+00  0.32486917931E+02  0.00000000000E+00 0. -1.
</event>
<event>
 7    1  0.3568207E-015  0.9000805E+02  0.7816164E-02  0.1186338E+00
        -11   -1    0    0    0    0  0.00000000000E+00  0.00000000000E+00  0.45593999997E+02  0.45594000000E+02  0.51100000000E-03 0. -1.
         11   -1    0    0    0    0 -0.00000000000E+00 -0.00000000000E+00 -0.45593999997E+02  0.45594000000E+02  0.51100000000E-03 0.  1.
    9900012    2    1    2    0    0  0.27344462166E+00  0.11271502310E+01  0.21686955665E+00  0.90008054235E+02  0.90000319750E+02 0.  0.
         12    1    1    2    0    0 -0.27344462166E+00 -0.11271502310E+01 -0.21686955665E+00  0.11799457653E+01  0.00000000000E+00 0. -1.
         11    1    3    3    0    0 -0.14137550094E+02  0.21968792173E+02  0.23662988513E+02  0.35248193966E+02  0.51100000000E-03 0. -1.
        -11    1    3    3    0    0 -0.14317616297E+02 -0.97317512326E+01 -0.24543924382E+01  0.17484998170E+02  0.51100000000E-03 0.  1.
        -12    1    3    3    0    0  0.28728611013E+02 -0.11109890709E+02 -0.20991726518E+02  0.37274862099E+02  0.00000000000E+00 0.  1.
</event>
<event>
 7    1  0.3568207E-015  0.9000738E+02  0.7816164E-02  0.1186340E+00
        -11   -1    0    0    0    0  0.00000000000E+00  0.00000000000E+00  0.45593999997E+02  0.45594000000E+02  0.51100000000E-03 0. -1.
         11   -1    0    0    0    0 -0.00000000000E+00 -0.00000000000E+00 -0.45593999997E+02  0.45594000000E+02  0.51100000000E-03 0.  1.
    9900012    2    1    2    0    0  0.65265316403E+00  0.44828322506E+00 -0.87575185358E+00  0.90007383504E+02  0.89999640165E+02 0.  0.
         12    1    1    2    0    0 -0.65265316403E+00 -0.44828322506E+00  0.87575185358E+00  0.11806164963E+01  0.00000000000E+00 0. -1.
         11    1    3    3    0    0 -0.47582674427E+01  0.44958041294E-01  0.34263937853E+02  0.34592782018E+02  0.51100000000E-03 0. -1.
        -11    1    3    3    0    0 -0.79834518419E+00 -0.92631923700E+01  0.70629828725E+01  0.11676035938E+02  0.51100000000E-03 0.  1.
        -12    1    3    3    0    0  0.62092657910E+01  0.96665175537E+01 -0.42202672579E+02  0.43738565547E+02  0.00000000000E+00 0.  1.
</event>
<event>
 7    1  0.3568207E-015  0.9000774E+02  0.7816164E-02  0.1186339E+00
        -11   -1    0    0    0    0  0.00000000000E+00  0.00000000000E+00  0.45593999997E+02  0.45594000000E+02  0.51100000000E-03 0. -1.
         11   -1    0    0    0    0 -0.00000000000E+00 -0.00000000000E+00 -0.45593999997E+02  0.45594000000E+02  0.51100000000E-03 0.  1.
    9900012    2    1    2    0    0 -0.47105077676E+00 -0.44242686307E+00 -0.98761229524E+00  0.90007742228E+02  0.90000003625E+02 0.  0.
         12    1    1    2    0    0  0.47105077676E+00  0.44242686307E+00  0.98761229524E+00  0.11802577723E+01  0.00000000000E+00 0. -1.
         11    1    3    3    0    0  0.33409998013E+02  0.10117385293E+02  0.15886448215E+02  0.38353209638E+02  0.51100000000E-03 0. -1.
        -11    1    3    3    0    0 -0.83963488615E+00  0.97430568755E+01 -0.13071876199E+01  0.98661483750E+01  0.51100000000E-03 0.  1.
        -12    1    3    3    0    0 -0.33041413904E+02 -0.20302869032E+02 -0.15566872890E+02  0.41788384215E+02  0.00000000000E+00 0.  1.
</event>
<event>
 7    1  0.3568207E-015  0.9000784E+02  0.7816164E-02  0.1186339E+00
        -11   -1    0    0    0    0  0.00000000000E+00  0.00000000000E+00  0.45593999997E+02  0.45594000000E+02  0.51100000000E-03 0.  1.
         11   -1    0    0    0    0 -0.00000000000E+00 -0.00000000000E+00 -0.45593999997E+02  0.45594000000E+02  0.51100000000E-03 0. -1.
    9900012    2    1    2    0    0  0.10888996973E+01  0.44225312583E+00 -0.10716360653E+00  0.90007841360E+02  0.90000104065E+02 0.  0.
         12    1    1    2    0    0 -0.10888996973E+01 -0.44225312583E+00  0.10716360653E+00  0.11801586404E+01  0.00000000000E+00 0. -1.
         11    1    3    3    0    0 -0.89451137462E+01 -0.73779864776E+01 -0.34802995654E+02  0.36683760047E+02  0.51100000000E-03 0. -1.
        -11    1    3    3    0    0 -0.43990274802E+01 -0.88506534528E+01 -0.23986478949E+01  0.10170497593E+02  0.51100000000E-03 0.  1.
        -12    1    3    3    0    0  0.14433040924E+02  0.16670893056E+02  0.37094479943E+02  0.43153583719E+02  0.00000000000E+00 0.  1.
</event>
<event>
 7    1  0.3568207E-015  0.9000765E+02  0.7816164E-02  0.1186339E+00
        -11   -1    0    0    0    0  0.00000000000E+00  0.00000000000E+00  0.45593999997E+02  0.45594000000E+02  0.51100000000E-03 0. -1.
         11   -1    0    0    0    0 -0.00000000000E+00 -0.00000000000E+00 -0.45593999997E+02  0.45594000000E+02  0.51100000000E-03 0.  1.
    9900012    2    1    2    0    0 -0.56440199416E-01 -0.78411545047E+00 -0.88045817996E+00  0.90007648721E+02  0.89999908884E+02 0.  0.
         12    1    1    2    0    0  0.56440199416E-01  0.78411545047E+00  0.88045817996E+00  0.11803512793E+01  0.00000000000E+00 0. -1.
         11    1    3    3    0    0 -0.35829484342E+00 -0.10248417838E+02 -0.30825953474E+01  0.10707980095E+02  0.51100000000E-03 0. -1.
        -11    1    3    3    0    0  0.28277346946E+02 -0.97657883989E+01 -0.22401590966E+02  0.37373924753E+02  0.51100000000E-03 0.  1.
         12    1    3    3    0    0 -0.27975492302E+02  0.19230090786E+02  0.24603728134E+02  0.41925743873E+02  0.00000000000E+00 0. -1.
</event>
<event>
 7    1  0.3568207E-015  0.9000743E+02  0.7816164E-02  0.1186340E+00
        -11   -1    0    0    0    0  0.00000000000E+00  0.00000000000E+00  0.45593999997E+02  0.45594000000E+02  0.51100000000E-03 0.  1.
         11   -1    0    0    0    0 -0.00000000000E+00 -0.00000000000E+00 -0.45593999997E+02  0.45594000000E+02  0.51100000000E-03 0. -1.
    9900012    2    1    2    0    0 -0.30938052614E+00 -0.83295258744E+00  0.77731488024E+00  0.90007430330E+02  0.89999687610E+02 0.  0.
         12    1    1    2    0    0  0.30938052614E+00  0.83295258744E+00 -0.77731488024E+00  0.11805696701E+01  0.00000000000E+00 0. -1.
         11    1    3    3    0    0 -0.64492426117E+00 -0.12673898862E+01  0.93301904078E+01  0.94379371545E+01  0.51100000000E-03 0. -1.
        -11    1    3    3    0    0 -0.22691313345E+02 -0.32431746124E+02 -0.21462977298E+00  0.39582318327E+02  0.51100000000E-03 0.  1.
         12    1    3    3    0    0  0.23026857081E+02  0.32866183422E+02 -0.83382457546E+01  0.40987174848E+02  0.00000000000E+00 0. -1.
</event>
<event>
 7    1  0.3568207E-015  0.9000772E+02  0.7816164E-02  0.1186339E+00
        -11   -1    0    0    0    0  0.00000000000E+00  0.00000000000E+00  0.45593999997E+02  0.45594000000E+02  0.51100000000E-03 0. -1.
         11   -1    0    0    0    0 -0.00000000000E+00 -0.00000000000E+00 -0.45593999997E+02  0.45594000000E+02  0.51100000000E-03 0.  1.
    9900012    2    1    2    0    0 -0.49104766389E+00 -0.10125797927E+01  0.35583917991E+00  0.90007717336E+02  0.89999978405E+02 0.  0.
         12    1    1    2    0    0  0.49104766389E+00  0.10125797927E+01 -0.35583917991E+00  0.11802826639E+01  0.00000000000E+00 0. -1.
         11    1    3    3    0    0 -0.18361462725E+01  0.70921961274E+01  0.95917611068E+00  0.73885518280E+01  0.51100000000E-03 0. -1.
        -11    1    3    3    0    0  0.30954076065E+02 -0.26496769983E+02  0.16294069665E+02  0.43883144271E+02  0.51100000000E-03 0.  1.
         12    1    3    3    0    0 -0.29608977456E+02  0.18391994063E+02 -0.16897406596E+02  0.38736021237E+02  0.00000000000E+00 0. -1.
</event>
<event>
 7    1  0.3568207E-015  0.9000785E+02  0.7816164E-02  0.1186339E+00
        -11   -1    0    0    0    0  0.00000000000E+00  0.00000000000E+00  0.45593999997E+02  0.45594000000E+02  0.51100000000E-03 0.  1.
         11   -1    0    0    0    0 -0.00000000000E+00 -0.00000000000E+00 -0.45593999997E+02  0.45594000000E+02  0.51100000000E-03 0. -1.
    9900012    2    1    2    0    0  0.72221395068E+00 -0.27211984596E+00  0.89281235649E+00  0.90007849118E+02  0.90000111926E+02 0.  0.
         12    1    1    2    0    0 -0.72221395068E+00  0.27211984596E+00 -0.89281235649E+00  0.11801508823E+01  0.00000000000E+00 0. -1.
         11    1    3    3    0    0  0.83817787864E+01 -0.58483121205E+01 -0.26577850160E+01  0.10560340512E+02  0.51100000000E-03 0. -1.
        -11    1    3    3    0    0 -0.42573860132E+02 -0.10209065253E+01 -0.50637520791E+01  0.42886098005E+02  0.51100000000E-03 0.  1.
         12    1    3    3    0    0  0.34914295297E+02  0.65970987999E+01  0.86143494516E+01  0.36561410601E+02  0.00000000000E+00 0. -1.
</event>
<event>
 7    1  0.3568207E-015  0.9000768E+02  0.7816164E-02  0.1186339E+00
        -11   -1    0    0    0    0  0.00000000000E+00  0.00000000000E+00  0.45593999997E+02  0.45594000000E+02  0.51100000000E-03 0. -1.
         11   -1    0    0    0    0 -0.00000000000E+00 -0.00000000000E+00 -0.45593999997E+02  0.45594000000E+02  0.51100000000E-03 0.  1.
    9900012    2    1    2    0    0  0.82161642534E+00  0.72943419930E+00  0.43130276849E+00  0.90007682297E+02  0.89999942903E+02 0.  0.
         12    1    1    2    0    0 -0.82161642534E+00 -0.72943419930E+00 -0.43130276849E+00  0.11803177028E+01  0.00000000000E+00 0. -1.
         11    1    3    3    0    0  0.42868649695E+01  0.67896056206E+01 -0.65087340472E+01  0.10336323085E+02  0.51100000000E-03 0. -1.
        -11    1    3    3    0    0 -0.17235240946E+01  0.22302898801E+02  0.33824763772E+02  0.40552490364E+02  0.51100000000E-03 0.  1.
         12    1    3    3    0    0 -0.17417244496E+01 -0.28363070223E+02 -0.26884726956E+02  0.39118868849E+02  0.00000000000E+00 0. -1.
</event>
<event>
 7    1  0.3568207E-015  0.9000774E+02  0.7816164E-02  0.1186339E+00
        -11   -1    0    0    0    0  0.00000000000E+00  0.00000000000E+00  0.45593999997E+02  0.45594000000E+02  0.51100000000E-03 0. -1.
         11   -1    0    0    0    0 -0.00000000000E+00 -0.00000000000E+00 -0.45593999997E+02  0.45594000000E+02  0.51100000000E-03 0.  1.
    9900012    2    1    2    0    0  0.61749753571E+00  0.97050555624E+00 -0.26427245975E+00  0.90007735549E+02  0.89999996858E+02 0.  0.
         12    1    1    2    0    0 -0.61749753571E+00 -0.97050555624E+00  0.26427245975E+00  0.11802644510E+01  0.00000000000E+00 0. -1.
         11    1    3    3    0    0  0.33343147421E+01 -0.55107189154E+01 -0.11936301525E+02  0.13563221303E+02  0.51100000000E-03 0. -1.
        -11    1    3    3    0    0 -0.11450383207E+02 -0.23095706889E+01 -0.30409832954E+02  0.32576115989E+02  0.51100000000E-03 0.  1.
         12    1    3    3    0    0  0.87335660007E+01  0.87907951605E+01  0.42081862019E+02  0.43868398257E+02  0.00000000000E+00 0. -1.
</event>
<event>
 7    1  0.3568207E-015  0.9000882E+02  0.7816164E-02  0.1186337E+00
        -11   -1    0    0    0    0  0.00000000000E+00  0.00000000000E+00  0.45593999997E+02  0.45594000000E+02  0.51100000000E-03 0.  1.
         11   -1    0    0    0    0 -0.00000000000E+00 -0.00000000000E+00 -0.45593999997E+02  0.45594000000E+02  0.51100000000E-03 0. -1.
    9900012    2    1    2    0    0  0.11599481577E+01 -0.88794674349E-01  0.19262096822E+00  0.90008819327E+02  0.90001094935E+02 0.  0.
         12    1    1    2    0    0 -0.11599481577E+01  0.88794674349E-01 -0.19262096822E+00  0.11791806733E+01  0.00000000000E+00 0. -1.
         11    1    3    3    0    0 -0.10515595259E+01 -0.33725344840E+02 -0.11722652052E+02  0.35720095652E+02  0.51100000000E-03 0. -1.
        -11    1    3    3    0    0  0.22639536062E+01 -0.95187816429E+01  0.28576432779E+01  0.10193076830E+02  0.51100000000E-03 0.  1.
        -12    1    3    3    0    0 -0.52445922539E-01  0.43155331809E+02  0.90576297423E+01  0.44095646845E+02  0.00000000000E+00 0.  1.
</event>
<event>
 7    1  0.3568207E-015  0.9000776E+02  0.7816164E-02  0.1186339E+00
        -11   -1    0    0    0    0  0.00000000000E+00  0.00000000000E+00  0.45593999997E+02  0.45594000000E+02  0.51100000000E-03 0.  1.
         11   -1    0    0    0    0 -0.00000000000E+00 -0.00000000000E+00 -0.45593999997E+02  0.45594000000E+02  0.51100000000E-03 0. -1.
    9900012    2    1    2    0    0  0.98331213790E+00 -0.21692477791E+00 -0.61563392147E+00  0.90007760937E+02  0.90000022582E+02 0.  0.
         12    1    1    2    0    0 -0.98331213790E+00  0.21692477791E+00  0.61563392147E+00  0.11802390627E+01  0.00000000000E+00 0. -1.
         11    1    3    3    0    0 -0.89241398154E+01 -0.31986924807E+01  0.21382308818E+00  0.94824904748E+01  0.51100000000E-03 0. -1.
        -11    1    3    3    0    0 -0.26094683745E+02  0.26238901378E+02  0.47252166357E+01  0.37306033531E+02  0.51100000000E-03 0.  1.
         12    1    3    3    0    0  0.36002135698E+02 -0.23257133675E+02 -0.55546736454E+01  0.43219236932E+02  0.00000000000E+00 0. -1.
</event>
<event>
 7    1  0.3568207E-015  0.9000785E+02  0.7816164E-02  0.1186339E+00
        -11   -1    0    0    0    0  0.00000000000E+00  0.00000000000E+00  0.45593999997E+02  0.45594000000E+02  0.51100000000E-03 0. -1.
         11   -1    0    0    0    0 -0.00000000000E+00 -0.00000000000E+00 -0.45593999997E+02  0.45594000000E+02  0.51100000000E-03 0.  1.
    9900012    2    1    2    0    0 -0.62115768553E+00 -0.89831320811E+00  0.44716663801E+00  0.90007846835E+02  0.90000109613E+02 0.  0.
         12    1    1    2    0    0  0.62115768553E+00  0.89831320811E+00 -0.44716663801E+00  0.11801531648E+01  0.00000000000E+00 0. -1.
         11    1    3    3    0    0 -0.53764156609E+01  0.56909624506E+01 -0.14615504456E+01  0.79642343599E+01  0.51100000000E-03 0. -1.
        -11    1    3    3    0    0  0.19158930270E+02 -0.10145693928E+02 -0.35614381357E+02  0.41693930902E+02  0.51100000000E-03 0.  1.
         12    1    3    3    0    0 -0.14403672294E+02  0.35564182691E+01  0.37523098441E+02  0.40349681573E+02  0.00000000000E+00 0. -1.
</event>
<event>
 7    1  0.3568207E-015  0.9000643E+02  0.7816164E-02  0.1186342E+00
        -11   -1    0    0    0    0  0.00000000000E+00  0.00000000000E+00  0.45593999997E+02  0.45594000000E+02  0.51100000000E-03 0. -1.
         11   -1    0    0    0    0 -0.00000000000E+00 -0.00000000000E+00 -0.45593999997E+02  0.45594000000E+02  0.51100000000E-03 0.  1.
    9900012    2    1    2    0    0 -0.14832898863E+00  0.69398729806E+00  0.94472011377E+00  0.90006426493E+02  0.89998670513E+02 0.  0.
         12    1    1    2    0    0  0.14832898863E+00 -0.69398729806E+00 -0.94472011377E+00  0.11815735069E+01  0.00000000000E+00 0. -1.
         11    1    3    3    0    0  0.11370510346E+02 -0.21018401051E+02  0.26179377642E+02  0.35446036482E+02  0.51100000000E-03 0. -1.
        -11    1    3    3    0    0  0.72000977670E+00 -0.11790603977E+02 -0.19709021938E+01  0.11975859550E+02  0.51100000000E-03 0.  1.
        -12    1    3    3    0    0 -0.12238849112E+02  0.33502992326E+02 -0.23263755335E+02  0.42584530462E+02  0.00000000000E+00 0.  1.
</event>
<event>
 7    1  0.3568207E-015  0.9000752E+02  0.7816164E-02  0.1186339E+00
        -11   -1    0    0    0    0  0.00000000000E+00  0.00000000000E+00  0.45593999997E+02  0.45594000000E+02  0.51100000000E-03 0.  1.
         11   -1    0    0    0    0 -0.00000000000E+00 -0.00000000000E+00 -0.45593999997E+02  0.45594000000E+02  0.51100000000E-03 0. -1.
    9900012    2    1    2    0    0 -0.25133582893E+00  0.75731431552E+00  0.86996805227E+00  0.90007517436E+02  0.89999775866E+02 0.  0.
         12    1    1    2    0    0  0.25133582893E+00 -0.75731431552E+00 -0.86996805227E+00  0.11804825638E+01  0.00000000000E+00 0. -1.
         11    1    3    3    0    0 -0.87195425265E+01 -0.32352189621E+02 -0.14974562589E+02  0.36700573840E+02  0.51100000000E-03 0. -1.
        -11    1    3    3    0    0  0.29603172637E+01 -0.84607470515E+01  0.26994270646E+01  0.93613367480E+01  0.51100000000E-03 0.  1.
        -12    1    3    3    0    0  0.55078894338E+01  0.41570250988E+02  0.13145103577E+02  0.43945606849E+02  0.00000000000E+00 0.  1.
</event>
<event>
 7    1  0.3568207E-015  0.9000773E+02  0.7816164E-02  0.1186339E+00
        -11   -1    0    0    0    0  0.00000000000E+00  0.00000000000E+00  0.45593999997E+02  0.45594000000E+02  0.51100000000E-03 0. -1.
         11   -1    0    0    0    0 -0.00000000000E+00 -0.00000000000E+00 -0.45593999997E+02  0.45594000000E+02  0.51100000000E-03 0.  1.
    9900012    2    1    2    0    0 -0.94969110927E+00 -0.10406015341E+00 -0.69303567802E+00  0.90007728773E+02  0.89999989993E+02 0.  0.
         12    1    1    2    0    0  0.94969110927E+00  0.10406015341E+00  0.69303567802E+00  0.11802712271E+01  0.00000000000E+00 0. -1.
         11    1    3    3    0    0  0.25875009415E+02  0.26035942706E+02 -0.15725110614E+02  0.39933263439E+02  0.51100000000E-03 0. -1.
        -11    1    3    3    0    0 -0.44708915170E+00 -0.90132657615E+00 -0.72401656235E+01  0.73097384921E+01  0.51100000000E-03 0.  1.
        -12    1    3    3    0    0 -0.26377611373E+02 -0.25238676284E+02  0.22272240560E+02  0.42764726841E+02  0.00000000000E+00 0.  1.
</event>
<event>
 7    1  0.3568207E-015  0.9000772E+02  0.7816164E-02  0.1186339E+00
        -11   -1    0    0    0    0  0.00000000000E+00  0.00000000000E+00  0.45593999997E+02  0.45594000000E+02  0.51100000000E-03 0.  1.
         11   -1    0    0    0    0 -0.00000000000E+00 -0.00000000000E+00 -0.45593999997E+02  0.45594000000E+02  0.51100000000E-03 0. -1.
    9900012    2    1    2    0    0 -0.89371242213E-01  0.78194957038E+00  0.87956145163E+00  0.90007720077E+02  0.89999981182E+02 0.  0.
         12    1    1    2    0    0  0.89371242213E-01 -0.78194957038E+00 -0.87956145163E+00  0.11802799231E+01  0.00000000000E+00 0. -1.
         11    1    3    3    0    0  0.94446444230E+01  0.22784950677E+01 -0.26639667951E+01  0.10074203065E+02  0.51100000000E-03 0. -1.
        -11    1    3    3    0    0 -0.33331158142E+01 -0.35202741969E+02 -0.17770645083E+02  0.39574468159E+02  0.51100000000E-03 0.  1.
         12    1    3    3    0    0 -0.62008998510E+01  0.33706196471E+02  0.21314173330E+02  0.40359048853E+02  0.00000000000E+00 0. -1.
</event>
<event>
 7    1  0.3568207E-015  0.9000760E+02  0.7816164E-02  0.1186339E+00
        -11   -1    0    0    0    0  0.00000000000E+00  0.00000000000E+00  0.45593999997E+02  0.45594000000E+02  0.51100000000E-03 0. -1.
         11   -1    0    0    0    0 -0.00000000000E+00 -0.00000000000E+00 -0.45593999997E+02  0.45594000000E+02  0.51100000000E-03 0.  1.
    9900012    2    1    2    0    0 -0.38139944879E+00  0.34881922154E+00 -0.10612231615E+01  0.90007603885E+02  0.89999863457E+02 0.  0.
         12    1    1    2    0    0  0.38139944879E+00 -0.34881922154E+00  0.10612231615E+01  0.11803961146E+01  0.00000000000E+00 0. -1.
         11    1    3    3    0    0 -0.32407342186E+01 -0.54872278404E+01 -0.70237752280E+01  0.94839573155E+01  0.51100000000E-03 0. -1.
        -11    1    3    3    0    0  0.18947877583E+02 -0.32808141153E+02  0.75607845512E+01  0.38633685484E+02  0.51100000000E-03 0.  1.
         12    1    3    3    0    0 -0.16088542813E+02  0.38644188215E+02 -0.15982324847E+01  0.41889961085E+02  0.00000000000E+00 0. -1.
</event>
<event>
 7    1  0.3955336E-015  0.9000779E+02  0.7816164E-02  0.1186339E+00
        -11   -1    0    0    0    0  0.00000000000E+00  0.00000000000E+00  0.45593999997E+02  0.45594000000E+02  0.51100000000E-03 0.  1.
         11   -1    0    0    0    0 -0.00000000000E+00 -0.00000000000E+00 -0.45593999997E+02  0.45594000000E+02  0.51100000000E-03 0. -1.
    9900012    2    1    2    0    0 -0.49696614204E+00 -0.66810781771E+00  0.83638695137E+00  0.90007793859E+02  0.90000055938E+02 0.  0.
         12    1    1    2    0    0  0.49696614204E+00  0.66810781771E+00 -0.83638695137E+00  0.11802061408E+01  0.00000000000E+00 0. -1.
         11    1    3    3    0    0  0.85128722043E+01 -0.21649156700E+01 -0.25059704038E+01  0.91343166658E+01  0.51100000000E-03 0. -1.
        -11    1    3    3    0    0 -0.18895613209E+01 -0.62427853559E+01  0.41132934324E+02  0.41646861795E+02  0.51100000000E-03 0.  1.
         12    1    3    3    0    0 -0.71202770254E+01  0.77395932082E+01 -0.37790576969E+02  0.39226615398E+02  0.00000000000E+00 0. -1.
</event>
<event>
 7    1  0.3568207E-015  0.9000776E+02  0.7816164E-02  0.1186339E+00
        -11   -1    0    0    0    0  0.00000000000E+00  0.00000000000E+00  0.45593999997E+02  0.45594000000E+02  0.51100000000E-03 0. -1.
         11   -1    0    0    0    0 -0.00000000000E+00 -0.00000000000E+00 -0.45593999997E+02  0.45594000000E+02  0.51100000000E-03 0.  1.
    9900012    2    1    2    0    0 -0.22647961436E+00 -0.47552269685E+00 -0.10562016014E+01  0.90007755672E+02  0.90000017247E+02 0.  0.
         12    1    1    2    0    0  0.22647961436E+00  0.47552269685E+00  0.10562016014E+01  0.11802443280E+01  0.00000000000E+00 0. -1.
         11    1    3    3    0    0 -0.69133002004E+01  0.16827222513E+02 -0.61990965925E+01  0.19219207476E+02  0.51100000000E-03 0. -1.
        -11    1    3    3    0    0  0.40499457144E+01  0.21276501459E+02 -0.15802875387E+02  0.26810864317E+02  0.51100000000E-03 0.  1.
        -12    1    3    3    0    0  0.26368748717E+01 -0.38579246669E+02  0.20945770379E+02  0.43977683880E+02  0.00000000000E+00 0.  1.
</event>
<event>
 7    1  0.3568207E-015  0.9000768E+02  0.7816164E-02  0.1186339E+00
        -11   -1    0    0    0    0  0.00000000000E+00  0.00000000000E+00  0.45593999997E+02  0.45594000000E+02  0.51100000000E-03 0.  1.
         11   -1    0    0    0    0 -0.00000000000E+00 -0.00000000000E+00 -0.45593999997E+02  0.45594000000E+02  0.51100000000E-03 0. -1.
    9900012    2    1    2    0    0 -0.40930614275E-01  0.25850460365E-02  0.11796086705E+01  0.90007678597E+02  0.89999939155E+02 0.  0.
         12    1    1    2    0    0  0.40930614275E-01 -0.25850460365E-02 -0.11796086705E+01  0.11803214025E+01  0.00000000000E+00 0. -1.
         11    1    3    3    0    0 -0.16175853337E+01 -0.11041122659E+02 -0.19087138879E+00  0.11160618443E+02  0.51100000000E-03 0. -1.
        -11    1    3    3    0    0  0.77776745271E+01 -0.27926166329E+02  0.19991514020E+02  0.35213969103E+02  0.51100000000E-03 0.  1.
         12    1    3    3    0    0 -0.62010198077E+01  0.38969874035E+02 -0.18621033960E+02  0.43633091051E+02  0.00000000000E+00 0. -1.
</event>
<event>
 7    1  0.3568207E-015  0.9000778E+02  0.7816164E-02  0.1186339E+00
        -11   -1    0    0    0    0  0.00000000000E+00  0.00000000000E+00  0.45593999997E+02  0.45594000000E+02  0.51100000000E-03 0.  1.
         11   -1    0    0    0    0 -0.00000000000E+00 -0.00000000000E+00 -0.45593999997E+02  0.45594000000E+02  0.51100000000E-03 0. -1.
    9900012    2    1    2    0    0 -0.49253809647E+00  0.10723959263E+01  0.17415385711E-01  0.90007775405E+02  0.90000037240E+02 0.  0.
         12    1    1    2    0    0  0.49253809647E+00 -0.10723959263E+01 -0.17415385711E-01  0.11802245951E+01  0.00000000000E+00 0. -1.
         11    1    3    3    0    0  0.18336189926E+02 -0.22377658863E+02  0.25112724377E+02  0.38309586308E+02  0.51100000000E-03 0. -1.
        -11    1    3    3    0    0  0.69662670574E+01  0.43744260402E+01  0.32919930381E+01  0.88601184145E+01  0.51100000000E-03 0.  1.
        -12    1    3    3    0    0 -0.25794995079E+02  0.19075628749E+02 -0.28387302029E+02  0.42838070683E+02  0.00000000000E+00 0.  1.
</event>
<event>
 7    1  0.3568207E-015  0.9000768E+02  0.7816164E-02  0.1186339E+00
        -11   -1    0    0    0    0  0.00000000000E+00  0.00000000000E+00  0.45593999997E+02  0.45594000000E+02  0.51100000000E-03 0.  1.
         11   -1    0    0    0    0 -0.00000000000E+00 -0.00000000000E+00 -0.45593999997E+02  0.45594000000E+02  0.51100000000E-03 0. -1.
    9900012    2    1    2    0    0  0.24411047074E-01 -0.11540050553E+01  0.24662046644E+00  0.90007684270E+02  0.89999944903E+02 0.  0.
         12    1    1    2    0    0 -0.24411047074E-01  0.11540050553E+01 -0.24662046644E+00  0.11803157296E+01  0.00000000000E+00 0. -1.
         11    1    3    3    0    0 -0.50051904304E+01  0.72486886988E+01  0.40910176942E+01  0.97124582435E+01  0.51100000000E-03 0. -1.
        -11    1    3    3    0    0  0.25588989406E+02  0.40663321305E+01  0.29450363819E+02  0.39225697765E+02  0.51100000000E-03 0.  1.
         12    1    3    3    0    0 -0.20559387929E+02 -0.12469025885E+02 -0.33294761046E+02  0.41069528262E+02  0.00000000000E+00 0. -1.
</event>
<event>
 7    1  0.3568207E-015  0.9000766E+02  0.7816164E-02  0.1186339E+00
        -11   -1    0    0    0    0  0.00000000000E+00  0.00000000000E+00  0.45593999997E+02  0.45594000000E+02  0.51100000000E-03 0.  1.
         11   -1    0    0    0    0 -0.00000000000E+00 -0.00000000000E+00 -0.45593999997E+02  0.45594000000E+02  0.51100000000E-03 0. -1.
    9900012    2    1    2    0    0 -0.43158137593E+00  0.86668241420E-02  0.10985785548E+01  0.90007655796E+02  0.89999916053E+02 0.  0.
         12    1    1    2    0    0  0.43158137593E+00 -0.86668241420E-02 -0.10985785548E+01  0.11803442036E+01  0.00000000000E+00 0. -1.
         11    1    3    3    0    0  0.42271238579E+01  0.23620037202E+02  0.37739402326E+02  0.44721775699E+02  0.51100000000E-03 0. -1.
        -11    1    3    3    0    0 -0.10133913598E+01 -0.73108993909E+00 -0.95822707448E+01  0.96634035120E+01  0.51100000000E-03 0.  1.
        -12    1    3    3    0    0 -0.36453138740E+01 -0.22880280439E+02 -0.27058553026E+02  0.35622476585E+02  0.00000000000E+00 0.  1.
</event>
<event>
 7    1  0.3568207E-015  0.9000773E+02  0.7816164E-02  0.1186339E+00
        -11   -1    0    0    0    0  0.00000000000E+00  0.00000000000E+00  0.45593999997E+02  0.45594000000E+02  0.51100000000E-03 0. -1.
         11   -1    0    0    0    0 -0.00000000000E+00 -0.00000000000E+00 -0.45593999997E+02  0.45594000000E+02  0.51100000000E-03 0.  1.
    9900012    2    1    2    0    0  0.86827395910E+00  0.27685457404E+00 -0.74999773865E+00  0.90007726840E+02  0.89999988035E+02 0.  0.
         12    1    1    2    0    0 -0.86827395910E+00 -0.27685457404E+00  0.74999773865E+00  0.11802731596E+01  0.00000000000E+00 0. -1.
         11    1    3    3    0    0 -0.68760895114E+01 -0.26851966802E+01 -0.63660735897E+01  0.97477064682E+01  0.51100000000E-03 0. -1.
        -11    1    3    3    0    0 -0.58723414424E+01 -0.23731553762E+02 -0.26691097470E+02  0.36195106332E+02  0.51100000000E-03 0.  1.
         12    1    3    3    0    0  0.13616704913E+02  0.26693605016E+02  0.32307173321E+02  0.44064914041E+02  0.00000000000E+00 0. -1.
</event>
<event>
 7    1  0.3568207E-015  0.9000791E+02  0.7816164E-02  0.1186339E+00
        -11   -1    0    0    0    0  0.00000000000E+00  0.00000000000E+00  0.45593999997E+02  0.45594000000E+02  0.51100000000E-03 0.  1.
         11   -1    0    0    0    0 -0.00000000000E+00 -0.00000000000E+00 -0.45593999997E+02  0.45594000000E+02  0.51100000000E-03 0. -1.
    9900012    2    1    2    0    0  0.84050903047E+00 -0.23989215052E+00  0.79284318289E+00  0.90007913568E+02  0.90000177227E+02 0.  0.
         12    1    1    2    0    0 -0.84050903047E+00  0.23989215052E+00 -0.79284318289E+00  0.11800864319E+01  0.00000000000E+00 0. -1.
         11    1    3    3    0    0  0.10165973628E+01 -0.17419047777E+02 -0.88733244900E+01  0.19575305449E+02  0.51100000000E-03 0. -1.
        -11    1    3    3    0    0 -0.30416292016E+02 -0.31635423856E+01 -0.52951948899E+01  0.31035429909E+02  0.51100000000E-03 0.  1.
         12    1    3    3    0    0  0.30240203684E+02  0.20342698012E+02  0.14961362563E+02  0.39397178211E+02  0.00000000000E+00 0. -1.
</event>
<event>
 7    1  0.3568207E-015  0.9000768E+02  0.7816164E-02  0.1186339E+00
        -11   -1    0    0    0    0  0.00000000000E+00  0.00000000000E+00  0.45593999997E+02  0.45594000000E+02  0.51100000000E-03 0.  1.
         11   -1    0    0    0    0 -0.00000000000E+00 -0.00000000000E+00 -0.45593999997E+02  0.45594000000E+02  0.51100000000E-03 0. -1.
    9900012    2    1    2    0    0 -0.33995110600E+00 -0.55748716368E+00  0.98325574062E+00  0.90007682016E+02  0.89999942618E+02 0.  0.
         12    1    1    2    0    0  0.33995110600E+00  0.55748716368E+00 -0.98325574062E+00  0.11803179841E+01  0.00000000000E+00 0. -1.
         11    1    3    3    0    0  0.54640921280E+01  0.13223523759E+01 -0.13632556864E+02  0.14746237673E+02  0.51100000000E-03 0. -1.
        -11    1    3    3    0    0  0.32338439258E+02  0.95062577242E+01  0.10173926969E+02  0.35208697502E+02  0.51100000000E-03 0.  1.
         12    1    3    3    0    0 -0.38142482492E+02 -0.11386097264E+02  0.44418856356E+01  0.40052746841E+02  0.00000000000E+00 0. -1.
</event>
<event>
 7    1  0.3568207E-015  0.9000774E+02  0.7816164E-02  0.1186339E+00
        -11   -1    0    0    0    0  0.00000000000E+00  0.00000000000E+00  0.45593999997E+02  0.45594000000E+02  0.51100000000E-03 0.  1.
         11   -1    0    0    0    0 -0.00000000000E+00 -0.00000000000E+00 -0.45593999997E+02  0.45594000000E+02  0.51100000000E-03 0. -1.
    9900012    2    1    2    0    0  0.11190577889E+01  0.22518652695E+00  0.30000992949E+00  0.90007743560E+02  0.90000004975E+02 0.  0.
         12    1    1    2    0    0 -0.11190577889E+01 -0.22518652695E+00 -0.30000992949E+00  0.11802564402E+01  0.00000000000E+00 0. -1.
         11    1    3    3    0    0  0.15412566824E+01 -0.18688444109E+01  0.98987402086E+01  0.10190834587E+02  0.51100000000E-03 0. -1.
        -11    1    3    3    0    0 -0.31220092390E+02 -0.21757992117E+02  0.46532633667E+01  0.38337413189E+02  0.51100000000E-03 0.  1.
         12    1    3    3    0    0  0.30797893497E+02  0.23852023055E+02 -0.14251993646E+02  0.41479495784E+02  0.00000000000E+00 0. -1.
</event>
<event>
 7    1  0.3568207E-015  0.9000772E+02  0.7816164E-02  0.1186339E+00
        -11   -1    0    0    0    0  0.00000000000E+00  0.00000000000E+00  0.45593999997E+02  0.45594000000E+02  0.51100000000E-03 0. -1.
         11   -1    0    0    0    0 -0.00000000000E+00 -0.00000000000E+00 -0.45593999997E+02  0.45594000000E+02  0.51100000000E-03 0.  1.
    9900012    2    1    2    0    0  0.58759882144E+00  0.91334146620E+00 -0.46216518344E+00  0.90007719667E+02  0.89999980766E+02 0.  0.
         12    1    1    2    0    0 -0.58759882144E+00 -0.91334146620E+00  0.46216518344E+00  0.11802803335E+01  0.00000000000E+00 0. -1.
         11    1    3    3    0    0 -0.32378356979E+02 -0.18306123008E+02  0.74131181631E+01  0.37926593063E+02  0.51100000000E-03 0. -1.
        -11    1    3    3    0    0 -0.22778745861E+01  0.14429117863E+01  0.88196187037E+01  0.92226016607E+01  0.51100000000E-03 0.  1.
        -12    1    3    3    0    0  0.35243830386E+02  0.17776552688E+02 -0.16694902050E+02  0.42858524942E+02  0.00000000000E+00 0.  1.
</event>
<event>
 7    1  0.3568207E-015  0.9000773E+02  0.7816164E-02  0.1186339E+00
        -11   -1    0    0    0    0  0.00000000000E+00  0.00000000000E+00  0.45593999997E+02  0.45594000000E+02  0.51100000000E-03 0. -1.
         11   -1    0    0    0    0 -0.00000000000E+00 -0.00000000000E+00 -0.45593999997E+02  0.45594000000E+02  0.51100000000E-03 0.  1.
    9900012    2    1    2    0    0  0.42224988832E+00  0.38786023309E+00 -0.10316531184E+01  0.90007729402E+02  0.89999990630E+02 0.  0.
         12    1    1    2    0    0 -0.42224988832E+00 -0.38786023309E+00  0.10316531184E+01  0.11802705984E+01  0.00000000000E+00 0. -1.
         11    1    3    3    0    0 -0.90083146633E+01 -0.47755805307E+01  0.31501905268E+01  0.10671438661E+02  0.51100000000E-03 0. -1.
        -11    1    3    3    0    0 -0.72039913209E+01 -0.17833881817E+02 -0.33437690319E+02  0.38574913684E+02  0.51100000000E-03 0.  1.
         12    1    3    3    0    0  0.16634555872E+02  0.22997322581E+02  0.29255846674E+02  0.40761377057E+02  0.00000000000E+00 0. -1.
</event>
<event>
 7    1  0.3568207E-015  0.9000774E+02  0.7816164E-02  0.1186339E+00
        -11   -1    0    0    0    0  0.00000000000E+00  0.00000000000E+00  0.45593999997E+02  0.45594000000E+02  0.51100000000E-03 0.  1.
         11   -1    0    0    0    0 -0.00000000000E+00 -0.00000000000E+00 -0.45593999997E+02  0.45594000000E+02  0.51100000000E-03 0. -1.
    9900012    2    1    2    0    0 -0.74242864060E+00 -0.16673347889E+00  0.90222572299E+00  0.90007740878E+02  0.90000002258E+02 0.  0.
         12    1    1    2    0    0  0.74242864060E+00  0.16673347889E+00 -0.90222572299E+00  0.11802591218E+01  0.00000000000E+00 0. -1.
         11    1    3    3    0    0 -0.67783855695E+01  0.11450806370E+02 -0.35536842824E+02  0.37946471188E+02  0.51100000000E-03 0. -1.
        -11    1    3    3    0    0  0.91216915972E+01  0.44755873537E+01 -0.19276716431E+01  0.10341762808E+02  0.51100000000E-03 0.  1.
        -12    1    3    3    0    0 -0.30857346683E+01 -0.16093127203E+02  0.38366740191E+02  0.41719506882E+02  0.00000000000E+00 0.  1.
</event>
<event>
 7    1  0.3568207E-015  0.9000740E+02  0.7816164E-02  0.1186340E+00
        -11   -1    0    0    0    0  0.00000000000E+00  0.00000000000E+00  0.45593999997E+02  0.45594000000E+02  0.51100000000E-03 0. -1.
         11   -1    0    0    0    0 -0.00000000000E+00 -0.00000000000E+00 -0.45593999997E+02  0.45594000000E+02  0.51100000000E-03 0.  1.
    9900012    2    1    2    0    0  0.73051159155E+00 -0.88434685579E+00 -0.27947424309E+00  0.90007397442E+02  0.89999654288E+02 0.  0.
         12    1    1    2    0    0 -0.73051159155E+00  0.88434685579E+00  0.27947424309E+00  0.11806025577E+01  0.00000000000E+00 0. -1.
         11    1    3    3    0    0 -0.23144070799E+02  0.26464081309E+02 -0.11135919765E+02  0.36878236426E+02  0.51100000000E-03 0. -1.
        -11    1    3    3    0    0 -0.30453520782E+01  0.12325692918E+01 -0.86753565447E+01  0.92765946219E+01  0.51100000000E-03 0.  1.
        -12    1    3    3    0    0  0.26919934469E+02 -0.28580997456E+02  0.19531802066E+02  0.43852566394E+02  0.00000000000E+00 0.  1.
</event>
<event>
 7    1  0.3568207E-015  0.9000773E+02  0.7816164E-02  0.1186339E+00
        -11   -1    0    0    0    0  0.00000000000E+00  0.00000000000E+00  0.45593999997E+02  0.45594000000E+02  0.51100000000E-03 0.  1.
         11   -1    0    0    0    0 -0.00000000000E+00 -0.00000000000E+00 -0.45593999997E+02  0.45594000000E+02  0.51100000000E-03 0. -1.
    9900012    2    1    2    0    0  0.46612102910E+00 -0.99289444911E+00  0.43579535656E+00  0.90007734863E+02  0.89999996163E+02 0.  0.
         12    1    1    2    0    0 -0.46612102910E+00  0.99289444911E+00 -0.43579535656E+00  0.11802651370E+01  0.00000000000E+00 0. -1.
         11    1    3    3    0    0 -0.11396981571E+02 -0.37408263226E+01  0.36785689201E+01  0.12546586789E+02  0.51100000000E-03 0. -1.
        -11    1    3    3    0    0  0.17370117414E+02 -0.27213455088E+02  0.21013100242E+02  0.38520689231E+02  0.51100000000E-03 0.  1.
         12    1    3    3    0    0 -0.55070148140E+01  0.29961386961E+02 -0.24255873806E+02  0.38940458843E+02  0.00000000000E+00 0. -1.
</event>
<event>
 7    1  0.3568207E-015  0.9000720E+02  0.7816164E-02  0.1186340E+00
        -11   -1    0    0    0    0  0.00000000000E+00  0.00000000000E+00  0.45593999997E+02  0.45594000000E+02  0.51100000000E-03 0.  1.
         11   -1    0    0    0    0 -0.00000000000E+00 -0.00000000000E+00 -0.45593999997E+02  0.45594000000E+02  0.51100000000E-03 0. -1.
    9900012    2    1    2    0    0  0.10999876433E+01 -0.32576070685E+00  0.27962279282E+00  0.90007202913E+02  0.89999457190E+02 0.  0.
         12    1    1    2    0    0 -0.10999876433E+01  0.32576070685E+00 -0.27962279282E+00  0.11807970866E+01  0.00000000000E+00 0. -1.
         11    1    3    3    0    0 -0.64829782335E+01  0.70596080472E+00  0.87691153830E+01  0.10928164178E+02  0.51100000000E-03 0. -1.
        -11    1    3    3    0    0  0.68493967521E+01 -0.21568742400E+02  0.28724472697E+02  0.36568021775E+02  0.51100000000E-03 0.  1.
         12    1    3    3    0    0  0.73356912471E+00  0.20537020889E+02 -0.37213965287E+02  0.42511016960E+02  0.00000000000E+00 0. -1.
</event>
<event>
 7    1  0.3568207E-015  0.9000770E+02  0.7816164E-02  0.1186339E+00
        -11   -1    0    0    0    0  0.00000000000E+00  0.00000000000E+00  0.45593999997E+02  0.45594000000E+02  0.51100000000E-03 0. -1.
         11   -1    0    0    0    0 -0.00000000000E+00 -0.00000000000E+00 -0.45593999997E+02  0.45594000000E+02  0.51100000000E-03 0.  1.
    9900012    2    1    2    0    0 -0.53986035181E+00 -0.62496009233E+00 -0.84325160420E+00  0.90007704450E+02  0.89999965349E+02 0.  0.
         12    1    1    2    0    0  0.53986035181E+00  0.62496009233E+00  0.84325160420E+00  0.11802955496E+01  0.00000000000E+00 0. -1.
         11    1    3    3    0    0 -0.24240654089E+02  0.23717153542E+02 -0.16170864561E+02  0.37571392624E+02  0.51100000000E-03 0. -1.
        -11    1    3    3    0    0 -0.49375637935E+01 -0.31280215119E+01 -0.79505867819E+01  0.98679220321E+01  0.51100000000E-03 0.  1.
        -12    1    3    3    0    0  0.28638357530E+02 -0.21214092123E+02  0.23278199739E+02  0.42568389794E+02  0.00000000000E+00 0.  1.
</event>
<event>
 7    1  0.3568207E-015  0.9000781E+02  0.7816164E-02  0.1186339E+00
        -11   -1    0    0    0    0  0.00000000000E+00  0.00000000000E+00  0.45593999997E+02  0.45594000000E+02  0.51100000000E-03 0. -1.
         11   -1    0    0    0    0 -0.00000000000E+00 -0.00000000000E+00 -0.45593999997E+02  0.45594000000E+02  0.51100000000E-03 0.  1.
    9900012    2    1    2    0    0  0.38194703043E-01  0.19217646558E-01 -0.11794191114E+01  0.90007806120E+02  0.90000068361E+02 0.  0.
         12    1    1    2    0    0 -0.38194703043E-01 -0.19217646558E-01  0.11794191114E+01  0.11801938797E+01  0.00000000000E+00 0. -1.
         11    1    3    3    0    0  0.27685880552E+02 -0.69823489446E+01  0.20232058240E+02  0.34994247522E+02  0.51100000000E-03 0. -1.
        -11    1    3    3    0    0  0.78651721116E+01 -0.77298416396E+00  0.56315488978E+01  0.97042660780E+01  0.51100000000E-03 0.  1.
        -12    1    3    3    0    0 -0.35512857961E+02  0.77745507551E+01 -0.27043026249E+02  0.45309292520E+02  0.00000000000E+00 0.  1.
</event>
<event>
 7    1  0.3568207E-015  0.9000781E+02  0.7816164E-02  0.1186339E+00
        -11   -1    0    0    0    0  0.00000000000E+00  0.00000000000E+00  0.45593999997E+02  0.45594000000E+02  0.51100000000E-03 0. -1.
         11   -1    0    0    0    0 -0.00000000000E+00 -0.00000000000E+00 -0.45593999997E+02  0.45594000000E+02  0.51100000000E-03 0.  1.
    9900012    2    1    2    0    0 -0.95344084494E+00  0.68764273596E+00 -0.10461691890E+00  0.90007810745E+02  0.90000073047E+02 0.  0.
         12    1    1    2    0    0  0.95344084494E+00 -0.68764273596E+00  0.10461691890E+00  0.11801892547E+01  0.00000000000E+00 0. -1.
         11    1    3    3    0    0  0.34571830393E+02 -0.60505989677E+01  0.15463028497E+02  0.38352659036E+02  0.51100000000E-03 0. -1.
        -11    1    3    3    0    0  0.25799955126E+01  0.86181305239E+01 -0.93948970308E+01  0.13007407161E+02  0.51100000000E-03 0.  1.
        -12    1    3    3    0    0 -0.38105266750E+02 -0.18798888202E+01 -0.61727483849E+01  0.38647744549E+02  0.00000000000E+00 0.  1.
</event>
<event>
 7    1  0.3568207E-015  0.9000774E+02  0.7816164E-02  0.1186339E+00
        -11   -1    0    0    0    0  0.00000000000E+00  0.00000000000E+00  0.45593999997E+02  0.45594000000E+02  0.51100000000E-03 0. -1.
         11   -1    0    0    0    0 -0.00000000000E+00 -0.00000000000E+00 -0.45593999997E+02  0.45594000000E+02  0.51100000000E-03 0.  1.
    9900012    2    1    2    0    0  0.93266533825E+00 -0.32601607614E+00 -0.64564755366E+00  0.90007740758E+02  0.90000002136E+02 0.  0.
         12    1    1    2    0    0 -0.93266533825E+00  0.32601607614E+00  0.64564755366E+00  0.11802592421E+01  0.00000000000E+00 0. -1.
         11    1    3    3    0    0 -0.11497559746E+01  0.17797484664E+02  0.28636937754E+02  0.33736428432E+02  0.51100000000E-03 0. -1.
        -11    1    3    3    0    0 -0.70517920147E+01  0.41788618308E+01  0.82741006392E+01  0.11646948032E+02  0.51100000000E-03 0.  1.
        -12    1    3    3    0    0  0.91342133276E+01 -0.22302362571E+02 -0.37556685946E+02  0.44624364294E+02  0.00000000000E+00 0.  1.
</event>
<event>
 7    1  0.3568207E-015  0.9000771E+02  0.7816164E-02  0.1186339E+00
        -11   -1    0    0    0    0  0.00000000000E+00  0.00000000000E+00  0.45593999997E+02  0.45594000000E+02  0.51100000000E-03 0.  1.
         11   -1    0    0    0    0 -0.00000000000E+00 -0.00000000000E+00 -0.45593999997E+02  0.45594000000E+02  0.51100000000E-03 0. -1.
    9900012    2    1    2    0    0 -0.97830503901E+00  0.59630461186E+00  0.28358373350E+00  0.90007712038E+02  0.89999973037E+02 0.  0.
         12    1    1    2    0    0  0.97830503901E+00 -0.59630461186E+00 -0.28358373350E+00  0.11802879621E+01  0.00000000000E+00 0. -1.
         11    1    3    3    0    0 -0.52040757318E+01  0.49137877852E+01  0.52394114015E+01  0.88701266460E+01  0.51100000000E-03 0. -1.
        -11    1    3    3    0    0 -0.37333491774E+02  0.46432562442E+01  0.35240456905E+01  0.37785821877E+02  0.51100000000E-03 0.  1.
         12    1    3    3    0    0  0.41559262467E+02 -0.89607394175E+01 -0.84798733585E+01  0.43351763515E+02  0.00000000000E+00 0. -1.
</event>
<event>
 7    1  0.3568207E-015  0.9000770E+02  0.7816164E-02  0.1186339E+00
        -11   -1    0    0    0    0  0.00000000000E+00  0.00000000000E+00  0.45593999997E+02  0.45594000000E+02  0.51100000000E-03 0. -1.
         11   -1    0    0    0    0 -0.00000000000E+00 -0.00000000000E+00 -0.45593999997E+02  0.45594000000E+02  0.51100000000E-03 0.  1.
    9900012    2    1    2    0    0  0.14656743022E+00  0.56267642779E+00 -0.10271403803E+01  0.90007701676E+02  0.89999962538E+02 0.  0.
         12    1    1    2    0    0 -0.14656743022E+00 -0.56267642779E+00  0.10271403803E+01  0.11802983245E+01  0.00000000000E+00 0. -1.
         11    1    3    3    0    0  0.20474050023E+02  0.24870377534E+02  0.15205802665E+02  0.35622167789E+02  0.51100000000E-03 0. -1.
        -11    1    3    3    0    0  0.11643218076E+01  0.64582697755E+01  0.75124848086E+01  0.99750850635E+01  0.51100000000E-03 0.  1.
        -12    1    3    3    0    0 -0.21491804401E+02 -0.30765970882E+02 -0.23745427854E+02  0.44410448823E+02  0.00000000000E+00 0.  1.
</event>
<event>
 7    1  0.3568207E-015  0.9000776E+02  0.7816164E-02  0.1186339E+00
        -11   -1    0    0    0    0  0.00000000000E+00  0.00000000000E+00  0.45593999997E+02  0.45594000000E+02  0.51100000000E-03 0. -1.
         11   -1    0    0    0    0 -0.00000000000E+00 -0.00000000000E+00 -0.45593999997E+02  0.45594000000E+02  0.51100000000E-03 0.  1.
    9900012    2    1    2    0    0  0.60441573891E+00 -0.62118085247E+00 -0.80110807763E+00  0.90007763503E+02  0.90000025181E+02 0.  0.
         12    1    1    2    0    0 -0.60441573891E+00  0.62118085247E+00  0.80110807763E+00  0.11802364970E+01  0.00000000000E+00 0. -1.
         11    1    3    3    0    0  0.29467803516E+02 -0.18515195579E+02  0.19294534572E+02  0.39792498992E+02  0.51100000000E-03 0. -1.
        -11    1    3    3    0    0  0.55904869308E+01 -0.15345865360E+01 -0.56796610083E+01  0.81158517354E+01  0.51100000000E-03 0.  1.
        -12    1    3    3    0    0 -0.34453874708E+02  0.19428601262E+02 -0.14415981641E+02  0.42099412776E+02  0.00000000000E+00 0.  1.
</event>
<event>
 7    1  0.3568207E-015  0.9000763E+02  0.7816164E-02  0.1186339E+00
        -11   -1    0    0    0    0  0.00000000000E+00  0.00000000000E+00  0.45593999997E+02  0.45594000000E+02  0.51100000000E-03 0.  1.
         11   -1    0    0    0    0 -0.00000000000E+00 -0.00000000000E+00 -0.45593999997E+02  0.45594000000E+02  0.51100000000E-03 0. -1.
    9900012    2    1    2    0    0  0.67800120530E+00 -0.31677878104E+00 -0.91281779130E+00  0.90007631096E+02  0.89999891026E+02 0.  0.
         12    1    1    2    0    0 -0.67800120530E+00  0.31677878104E+00  0.91281779130E+00  0.11803689045E+01  0.00000000000E+00 0. -1.
         11    1    3    3    0    0  0.17648708397E+02  0.12176350298E+01 -0.38507377097E+02  0.42376616598E+02  0.51100000000E-03 0. -1.
        -11    1    3    3    0    0 -0.92977760641E+01  0.47014603901E+00  0.10335382556E+00  0.93102287464E+01  0.51100000000E-03 0.  1.
        -12    1    3    3    0    0 -0.76729311274E+01 -0.20045598499E+01  0.37491205480E+02  0.38320785751E+02  0.00000000000E+00 0.  1.
</event>
<event>
 7    1  0.3568207E-015  0.9000785E+02  0.7816164E-02  0.1186339E+00
        -11   -1    0    0    0    0  0.00000000000E+00  0.00000000000E+00  0.45593999997E+02  0.45594000000E+02  0.51100000000E-03 0. -1.
         11   -1    0    0    0    0 -0.00000000000E+00 -0.00000000000E+00 -0.45593999997E+02  0.45594000000E+02  0.51100000000E-03 0.  1.
    9900012    2    1    2    0    0  0.17120144297E+00 -0.11671831656E+01  0.33646721316E-01  0.90007848070E+02  0.90000110864E+02 0.  0.
         12    1    1    2    0    0 -0.17120144297E+00  0.11671831656E+01 -0.33646721316E-01  0.11801519301E+01  0.00000000000E+00 0. -1.
         11    1    3    3    0    0 -0.28143297161E+02  0.17287366498E+02  0.60800430689E+01  0.33583703482E+02  0.51100000000E-03 0. -1.
        -11    1    3    3    0    0 -0.10292880213E+02  0.43424154961E+01  0.81689990676E-01  0.11171688723E+02  0.51100000000E-03 0.  1.
        -12    1    3    3    0    0  0.38607378817E+02 -0.22796965160E+02 -0.61280863382E+01  0.45252455865E+02  0.00000000000E+00 0.  1.
</event>
<event>
 7    1  0.3568207E-015  0.9000799E+02  0.7816164E-02  0.1186339E+00
        -11   -1    0    0    0    0  0.00000000000E+00  0.00000000000E+00  0.45593999997E+02  0.45594000000E+02  0.51100000000E-03 0.  1.
         11   -1    0    0    0    0 -0.00000000000E+00 -0.00000000000E+00 -0.45593999997E+02  0.45594000000E+02  0.51100000000E-03 0. -1.
    9900012    2    1    2    0    0 -0.28088134850E+00  0.10911709413E+01  0.35054868855E+00  0.90007986128E+02  0.90000250745E+02 0.  0.
         12    1    1    2    0    0  0.28088134850E+00 -0.10911709413E+01 -0.35054868855E+00  0.11800138720E+01  0.00000000000E+00 0. -1.
         11    1    3    3    0    0  0.15679403288E+02 -0.23133981035E+02 -0.30142982793E+02  0.41105038352E+02  0.51100000000E-03 0. -1.
        -11    1    3    3    0    0  0.44917914486E+01  0.10286951141E+02  0.24302684336E+01  0.11484936182E+02  0.51100000000E-03 0.  1.
        -12    1    3    3    0    0 -0.20452076085E+02  0.13938200835E+02  0.28063263048E+02  0.37418011594E+02  0.00000000000E+00 0.  1.
</event>
<event>
 7    1  0.3568207E-015  0.9000778E+02  0.7816164E-02  0.1186339E+00
        -11   -1    0    0    0    0  0.00000000000E+00  0.00000000000E+00  0.45593999997E+02  0.45594000000E+02  0.51100000000E-03 0. -1.
         11   -1    0    0    0    0 -0.00000000000E+00 -0.00000000000E+00 -0.45593999997E+02  0.45594000000E+02  0.51100000000E-03 0.  1.
    9900012    2    1    2    0    0 -0.86198068650E+00  0.76832096463E-01 -0.80250367165E+00  0.90007777132E+02  0.90000038990E+02 0.  0.
         12    1    1    2    0    0  0.86198068650E+00 -0.76832096463E-01  0.80250367165E+00  0.11802228679E+01  0.00000000000E+00 0. -1.
         11    1    3    3    0    0 -0.30245153654E+02 -0.11712193359E+02  0.38412370590E+01  0.32660371940E+02  0.51100000000E-03 0. -1.
        -11    1    3    3    0    0  0.68652459190E+01  0.17692293429E+02 -0.21446833313E+02  0.28637658908E+02  0.51100000000E-03 0.  1.
         12    1    3    3    0    0  0.22517927049E+02 -0.59032679732E+01  0.16803092583E+02  0.28709746284E+02  0.00000000000E+00 0. -1.
</event>
<event>
 7    1  0.3568207E-015  0.9000775E+02  0.7816164E-02  0.1186339E+00
        -11   -1    0    0    0    0  0.00000000000E+00  0.00000000000E+00  0.45593999997E+02  0.45594000000E+02  0.51100000000E-03 0. -1.
         11   -1    0    0    0    0 -0.00000000000E+00 -0.00000000000E+00 -0.45593999997E+02  0.45594000000E+02  0.51100000000E-03 0.  1.
    9900012    2    1    2    0    0  0.36093329282E+00 -0.97514279164E+00  0.55840118902E+00  0.90007750792E+02  0.90000012302E+02 0.  0.
         12    1    1    2    0    0 -0.36093329282E+00  0.97514279164E+00 -0.55840118902E+00  0.11802492084E+01  0.00000000000E+00 0. -1.
         11    1    3    3    0    0  0.10664893680E+01  0.38449788032E+01 -0.61075508650E+01  0.72954396303E+01  0.51100000000E-03 0. -1.
        -11    1    3    3    0    0 -0.38521292795E+02  0.94359656792E+01  0.13146628444E+02  0.41782308297E+02  0.51100000000E-03 0.  1.
         12    1    3    3    0    0  0.37815736720E+02 -0.14256087274E+02 -0.64806763904E+01  0.40930002865E+02  0.00000000000E+00 0. -1.
</event>
<event>
 7    1  0.3568207E-015  0.9000761E+02  0.7816164E-02  0.1186339E+00
        -11   -1    0    0    0    0  0.00000000000E+00  0.00000000000E+00  0.45593999997E+02  0.45594000000E+02  0.51100000000E-03 0. -1.
         11   -1    0    0    0    0 -0.00000000000E+00 -0.00000000000E+00 -0.45593999997E+02  0.45594000000E+02  0.51100000000E-03 0.  1.
    9900012    2    1    2    0    0 -0.74934906315E-02  0.87151216548E+00 -0.79606548585E+00  0.90007614527E+02  0.89999874239E+02 0.  0.
         12    1    1    2    0    0  0.74934906315E-02 -0.87151216548E+00  0.79606548585E+00  0.11803854729E+01  0.00000000000E+00 0. -1.
         11    1    3    3    0    0 -0.41008304206E+01  0.21423112649E+01  0.19507832282E+01  0.50211416190E+01  0.51100000000E-03 0. -1.
        -11    1    3    3    0    0  0.39076614766E+02  0.54820577568E+01 -0.21273409978E+02  0.44828481473E+02  0.51100000000E-03 0.  1.
         12    1    3    3    0    0 -0.34983277836E+02 -0.67528568562E+01  0.18526561264E+02  0.40157991435E+02  0.00000000000E+00 0. -1.
</event>
<event>
 7    1  0.3568207E-015  0.9000775E+02  0.7816164E-02  0.1186339E+00
        -11   -1    0    0    0    0  0.00000000000E+00  0.00000000000E+00  0.45593999997E+02  0.45594000000E+02  0.51100000000E-03 0.  1.
         11   -1    0    0    0    0 -0.00000000000E+00 -0.00000000000E+00 -0.45593999997E+02  0.45594000000E+02  0.51100000000E-03 0. -1.
    9900012    2    1    2    0    0 -0.41457944663E+00  0.11005369466E+01  0.99628957984E-01  0.90007752730E+02  0.90000014266E+02 0.  0.
         12    1    1    2    0    0  0.41457944663E+00 -0.11005369466E+01 -0.99628957984E-01  0.11802472697E+01  0.00000000000E+00 0. -1.
         11    1    3    3    0    0 -0.38343907734E+01 -0.43334423810E+01 -0.90342242340E+01  0.10728396117E+02  0.51100000000E-03 0. -1.
        -11    1    3    3    0    0 -0.21549532792E+02  0.34346312442E+02  0.43837463890E+01  0.40783192305E+02  0.51100000000E-03 0.  1.
         12    1    3    3    0    0  0.24969344119E+02 -0.28912333114E+02  0.47501068030E+01  0.38496164309E+02  0.00000000000E+00 0. -1.
</event>
<event>
 7    1  0.3568207E-015  0.9000774E+02  0.7816164E-02  0.1186339E+00
        -11   -1    0    0    0    0  0.00000000000E+00  0.00000000000E+00  0.45593999997E+02  0.45594000000E+02  0.51100000000E-03 0.  1.
         11   -1    0    0    0    0 -0.00000000000E+00 -0.00000000000E+00 -0.45593999997E+02  0.45594000000E+02  0.51100000000E-03 0. -1.
    9900012    2    1    2    0    0 -0.12553431788E+00  0.52764148574E+00  0.10482574264E+01  0.90007742386E+02  0.90000003786E+02 0.  0.
         12    1    1    2    0    0  0.12553431788E+00 -0.52764148574E+00 -0.10482574264E+01  0.11802576136E+01  0.00000000000E+00 0. -1.
         11    1    3    3    0    0  0.33851653768E+02  0.60577108168E+01 -0.19295545433E+02  0.39432833996E+02  0.51100000000E-03 0. -1.
        -11    1    3    3    0    0  0.56767853311E+01 -0.32868979262E+00  0.55127570890E+01  0.79198749775E+01  0.51100000000E-03 0.  1.
        -12    1    3    3    0    0 -0.39653973417E+02 -0.52013795385E+01  0.14831045770E+02  0.42655033413E+02  0.00000000000E+00 0.  1.
</event>
<event>
 7    1  0.3568207E-015  0.9000780E+02  0.7816164E-02  0.1186339E+00
        -11   -1    0    0    0    0  0.00000000000E+00  0.00000000000E+00  0.45593999997E+02  0.45594000000E+02  0.51100000000E-03 0. -1.
         11   -1    0    0    0    0 -0.00000000000E+00 -0.00000000000E+00 -0.45593999997E+02  0.45594000000E+02  0.51100000000E-03 0.  1.
    9900012    2    1    2    0    0 -0.10703791661E+01 -0.15874224770E+00 -0.47112651135E+00  0.90007800504E+02  0.90000062671E+02 0.  0.
         12    1    1    2    0    0  0.10703791661E+01  0.15874224770E+00  0.47112651135E+00  0.11801994959E+01  0.00000000000E+00 0. -1.
         11    1    3    3    0    0  0.63942326450E+01 -0.38024227495E+01  0.93409078185E+01  0.11941406492E+02  0.51100000000E-03 0. -1.
        -11    1    3    3    0    0  0.16650738974E+02 -0.21441932842E+02 -0.27832510039E+02  0.38879971808E+02  0.51100000000E-03 0.  1.
         12    1    3    3    0    0 -0.24115350785E+02  0.25085613344E+02  0.18020475710E+02  0.39186422204E+02  0.00000000000E+00 0. -1.
</event>
<event>
 7    1  0.3568207E-015  0.9000771E+02  0.7816164E-02  0.1186339E+00
        -11   -1    0    0    0    0  0.00000000000E+00  0.00000000000E+00  0.45593999997E+02  0.45594000000E+02  0.51100000000E-03 0.  1.
         11   -1    0    0    0    0 -0.00000000000E+00 -0.00000000000E+00 -0.45593999997E+02  0.45594000000E+02  0.51100000000E-03 0. -1.
    9900012    2    1    2    0    0  0.61431212762E+00  0.85050959615E+00 -0.54067619800E+00  0.90007713291E+02  0.89999974307E+02 0.  0.
         12    1    1    2    0    0 -0.61431212762E+00 -0.85050959615E+00  0.54067619800E+00  0.11802867085E+01  0.00000000000E+00 0. -1.
         11    1    3    3    0    0 -0.51575955006E+01  0.14622003432E+01 -0.40156611892E+01  0.66980860131E+01  0.51100000000E-03 0. -1.
        -11    1    3    3    0    0 -0.90742274874E+01 -0.61178016586E+01  0.41076894140E+02  0.42509767513E+02  0.51100000000E-03 0.  1.
         12    1    3    3    0    0  0.14846135116E+02  0.55061109116E+01 -0.37601909148E+02  0.40799859765E+02  0.00000000000E+00 0. -1.
</event>
<event>
 7    1  0.3568207E-015  0.9000841E+02  0.7816164E-02  0.1186338E+00
        -11   -1    0    0    0    0  0.00000000000E+00  0.00000000000E+00  0.45593999997E+02  0.45594000000E+02  0.51100000000E-03 0. -1.
         11   -1    0    0    0    0 -0.00000000000E+00 -0.00000000000E+00 -0.45593999997E+02  0.45594000000E+02  0.51100000000E-03 0.  1.
    9900012    2    1    2    0    0 -0.65086004931E+00 -0.68103262533E+00  0.70994333807E+00  0.90008405246E+02  0.90000675393E+02 0.  0.
         12    1    1    2    0    0  0.65086004931E+00  0.68103262533E+00 -0.70994333807E+00  0.11795947541E+01  0.00000000000E+00 0. -1.
         11    1    3    3    0    0  0.69850472319E+01 -0.14256822149E+01  0.67672157334E+01  0.98294793175E+01  0.51100000000E-03 0. -1.
        -11    1    3    3    0    0  0.11954165300E+02  0.11980803082E+02 -0.37687819874E+02  0.41313599185E+02  0.51100000000E-03 0.  1.
         12    1    3    3    0    0 -0.19590072581E+02 -0.11236153493E+02  0.31630547479E+02  0.38865326743E+02  0.00000000000E+00 0. -1.
</event>
<event>
 7    1  0.3568207E-015  0.9000764E+02  0.7816164E-02  0.1186339E+00
        -11   -1    0    0    0    0  0.00000000000E+00  0.00000000000E+00  0.45593999997E+02  0.45594000000E+02  0.51100000000E-03 0.  1.
         11   -1    0    0    0    0 -0.00000000000E+00 -0.00000000000E+00 -0.45593999997E+02  0.45594000000E+02  0.51100000000E-03 0. -1.
    9900012    2    1    2    0    0  0.98768225604E+00  0.16460787349E+00  0.62501494962E+00  0.90007637480E+02  0.89999897495E+02 0.  0.
         12    1    1    2    0    0 -0.98768225604E+00 -0.16460787349E+00 -0.62501494962E+00  0.11803625198E+01  0.00000000000E+00 0. -1.
         11    1    3    3    0    0  0.25053401595E+01 -0.24896094870E+02 -0.23791763875E+02  0.34527384750E+02  0.51100000000E-03 0. -1.
        -11    1    3    3    0    0  0.30856579324E+01 -0.11929913822E+02  0.38664142137E+01  0.12914847572E+02  0.51100000000E-03 0.  1.
        -12    1    3    3    0    0 -0.46033158359E+01  0.36990616566E+02  0.20550364611E+02  0.42565405158E+02  0.00000000000E+00 0.  1.
</event>
<event>
 7    1  0.3568207E-015  0.9000873E+02  0.7816164E-02  0.1186337E+00
        -11   -1    0    0    0    0  0.00000000000E+00  0.00000000000E+00  0.45593999997E+02  0.45594000000E+02  0.51100000000E-03 0.  1.
         11   -1    0    0    0    0 -0.00000000000E+00 -0.00000000000E+00 -0.45593999997E+02  0.45594000000E+02  0.51100000000E-03 0. -1.
    9900012    2    1    2    0    0 -0.10304663396E+01 -0.31231890249E-01  0.57257856273E+00  0.90008727971E+02  0.90001002375E+02 0.  0.
         12    1    1    2    0    0  0.10304663396E+01  0.31231890249E-01 -0.57257856273E+00  0.11792720290E+01  0.00000000000E+00 0. -1.
         11    1    3    3    0    0 -0.11633086693E+02  0.21164859329E+02 -0.25625866155E+02  0.35213136652E+02  0.51100000000E-03 0. -1.
        -11    1    3    3    0    0 -0.40967031587E+01  0.92705731225E+01 -0.24949457031E+01  0.10437971887E+02  0.51100000000E-03 0.  1.
        -12    1    3    3    0    0  0.14699323513E+02 -0.30466664342E+02  0.28693390420E+02  0.44357619432E+02  0.00000000000E+00 0.  1.
</event>
<event>
 7    1  0.3568207E-015  0.9000756E+02  0.7816164E-02  0.1186339E+00
        -11   -1    0    0    0    0  0.00000000000E+00  0.00000000000E+00  0.45593999997E+02  0.45594000000E+02  0.51100000000E-03 0.  1.
         11   -1    0    0    0    0 -0.00000000000E+00 -0.00000000000E+00 -0.45593999997E+02  0.45594000000E+02  0.51100000000E-03 0. -1.
    9900012    2    1    2    0    0  0.95375007620E+00 -0.46542884727E+00  0.51689606024E+00  0.90007557389E+02  0.89999816347E+02 0.  0.
         12    1    1    2    0    0 -0.95375007620E+00  0.46542884727E+00 -0.51689606024E+00  0.11804426106E+01  0.00000000000E+00 0. -1.
         11    1    3    3    0    0 -0.16765862989E+01 -0.94281480040E+01  0.99362288257E-02  0.95760647132E+01  0.51100000000E-03 0. -1.
        -11    1    3    3    0    0 -0.18659878247E+02 -0.24620790519E+02  0.19325712456E+02  0.36439779694E+02  0.51100000000E-03 0.  1.
         12    1    3    3    0    0  0.21290214622E+02  0.33583509675E+02 -0.18818752624E+02  0.43991712982E+02  0.00000000000E+00 0. -1.
</event>
<event>
 7    1  0.3568207E-015  0.9000777E+02  0.7816164E-02  0.1186339E+00
        -11   -1    0    0    0    0  0.00000000000E+00  0.00000000000E+00  0.45593999997E+02  0.45594000000E+02  0.51100000000E-03 0. -1.
         11   -1    0    0    0    0 -0.00000000000E+00 -0.00000000000E+00 -0.45593999997E+02  0.45594000000E+02  0.51100000000E-03 0.  1.
    9900012    2    1    2    0    0 -0.74832947858E-01  0.23647828228E+00 -0.11538738327E+01  0.90007768341E+02  0.90000030083E+02 0.  0.
         12    1    1    2    0    0  0.74832947858E-01 -0.23647828228E+00  0.11538738327E+01  0.11802316594E+01  0.00000000000E+00 0. -1.
         11    1    3    3    0    0 -0.88871347689E+01 -0.34954235689E+00 -0.83827777888E+01  0.12221878251E+02  0.51100000000E-03 0. -1.
        -11    1    3    3    0    0  0.88224485611E+01 -0.31022151564E+02 -0.18365449739E+02  0.37114676756E+02  0.51100000000E-03 0.  1.
         12    1    3    3    0    0 -0.10146740044E-01  0.31608172204E+02  0.25594353695E+02  0.40671213334E+02  0.00000000000E+00 0. -1.
</event>
<event>
 7    1  0.3568207E-015  0.9000776E+02  0.7816164E-02  0.1186339E+00
        -11   -1    0    0    0    0  0.00000000000E+00  0.00000000000E+00  0.45593999997E+02  0.45594000000E+02  0.51100000000E-03 0. -1.
         11   -1    0    0    0    0 -0.00000000000E+00 -0.00000000000E+00 -0.45593999997E+02  0.45594000000E+02  0.51100000000E-03 0.  1.
    9900012    2    1    2    0    0  0.10670711038E+01 -0.49270399175E+00 -0.10759472355E+00  0.90007756555E+02  0.90000018142E+02 0.  0.
         12    1    1    2    0    0 -0.10670711038E+01  0.49270399175E+00  0.10759472355E+00  0.11802434447E+01  0.00000000000E+00 0. -1.
         11    1    3    3    0    0 -0.21510749106E+01 -0.16467210868E+01 -0.60514917842E+01  0.66301860219E+01  0.51100000000E-03 0. -1.
        -11    1    3    3    0    0 -0.32103886345E+02 -0.22565568525E+02 -0.46934278665E+01  0.39520787779E+02  0.51100000000E-03 0.  1.
         12    1    3    3    0    0  0.35322032359E+02  0.23719585620E+02  0.10637324927E+02  0.43856782754E+02  0.00000000000E+00 0. -1.
</event>
<event>
 7    1  0.3568207E-015  0.9000778E+02  0.7816164E-02  0.1186339E+00
        -11   -1    0    0    0    0  0.00000000000E+00  0.00000000000E+00  0.45593999997E+02  0.45594000000E+02  0.51100000000E-03 0.  1.
         11   -1    0    0    0    0 -0.00000000000E+00 -0.00000000000E+00 -0.45593999997E+02  0.45594000000E+02  0.51100000000E-03 0. -1.
    9900012    2    1    2    0    0 -0.10779971964E+01 -0.29321205921E+00 -0.38060562530E+00  0.90007783109E+02  0.90000045046E+02 0.  0.
         12    1    1    2    0    0  0.10779971964E+01  0.29321205921E+00  0.38060562530E+00  0.11802168907E+01  0.00000000000E+00 0. -1.
         11    1    3    3    0    0 -0.25200088392E+02  0.27519807683E+02 -0.90645184966E+01  0.38399866741E+02  0.51100000000E-03 0. -1.
        -11    1    3    3    0    0  0.45407669166E+01  0.84758316057E+01  0.10535436766E+01  0.96730677729E+01  0.51100000000E-03 0.  1.
        -12    1    3    3    0    0  0.19581324279E+02 -0.36288851348E+02  0.76303691947E+01  0.41934848595E+02  0.00000000000E+00 0.  1.
</event>
<event>
 7    1  0.3568207E-015  0.9000772E+02  0.7816164E-02  0.1186339E+00
        -11   -1    0    0    0    0  0.00000000000E+00  0.00000000000E+00  0.45593999997E+02  0.45594000000E+02  0.51100000000E-03 0. -1.
         11   -1    0    0    0    0 -0.00000000000E+00 -0.00000000000E+00 -0.45593999997E+02  0.45594000000E+02  0.51100000000E-03 0.  1.
    9900012    2    1    2    0    0  0.53213901692E+00  0.10300909223E+01 -0.22088937787E+00  0.90007724033E+02  0.89999985190E+02 0.  0.
         12    1    1    2    0    0 -0.53213901692E+00 -0.10300909223E+01  0.22088937787E+00  0.11802759672E+01  0.00000000000E+00 0. -1.
         11    1    3    3    0    0  0.39950107351E+02  0.10241118193E+02  0.11660648765E+02  0.42858631676E+02  0.51100000000E-03 0. -1.
        -11    1    3    3    0    0 -0.35078323759E+01 -0.82206285003E+01  0.98225782084E+00  0.89915767029E+01  0.51100000000E-03 0.  1.
        -12    1    3    3    0    0 -0.35910135959E+02 -0.99039877009E+00 -0.12863795964E+02  0.38157515654E+02  0.00000000000E+00 0.  1.
</event>
<event>
 7    1  0.3568207E-015  0.9000775E+02  0.7816164E-02  0.1186339E+00
        -11   -1    0    0    0    0  0.00000000000E+00  0.00000000000E+00  0.45593999997E+02  0.45594000000E+02  0.51100000000E-03 0. -1.
         11   -1    0    0    0    0 -0.00000000000E+00 -0.00000000000E+00 -0.45593999997E+02  0.45594000000E+02  0.51100000000E-03 0.  1.
    9900012    2    1    2    0    0 -0.10707335399E+01  0.26240374007E+00 -0.42151253365E+00  0.90007746276E+02  0.90000007727E+02 0.  0.
         12    1    1    2    0    0  0.10707335399E+01 -0.26240374007E+00  0.42151253365E+00  0.11802537237E+01  0.00000000000E+00 0. -1.
         11    1    3    3    0    0  0.23613889087E+01 -0.85457695680E+01 -0.16817790414E+01  0.90241185771E+01  0.51100000000E-03 0. -1.
        -11    1    3    3    0    0  0.30235946811E+02  0.16838338747E+02  0.21639973891E+02  0.40817038129E+02  0.51100000000E-03 0.  1.
         12    1    3    3    0    0 -0.33668069260E+02 -0.80301654387E+01 -0.20379707384E+02  0.40166589570E+02  0.00000000000E+00 0. -1.
</event>
<event>
 7    1  0.3568207E-015  0.9000780E+02  0.7816164E-02  0.1186339E+00
        -11   -1    0    0    0    0  0.00000000000E+00  0.00000000000E+00  0.45593999997E+02  0.45594000000E+02  0.51100000000E-03 0.  1.
         11   -1    0    0    0    0 -0.00000000000E+00 -0.00000000000E+00 -0.45593999997E+02  0.45594000000E+02  0.51100000000E-03 0. -1.
    9900012    2    1    2    0    0  0.96486313017E+00 -0.42920872083E+00  0.52696688006E+00  0.90007798713E+02  0.90000060856E+02 0.  0.
         12    1    1    2    0    0 -0.96486313017E+00  0.42920872083E+00 -0.52696688006E+00  0.11802012874E+01  0.00000000000E+00 0. -1.
         11    1    3    3    0    0 -0.64095590300E+01 -0.10828905522E+02 -0.12030701787E+02  0.17409348854E+02  0.51100000000E-03 0. -1.
        -11    1    3    3    0    0 -0.26267221175E+02 -0.10192130726E+02 -0.63121762806E+01  0.28873690562E+02  0.51100000000E-03 0.  1.
         12    1    3    3    0    0  0.33641643335E+02  0.20591827528E+02  0.18869844947E+02  0.43724759297E+02  0.00000000000E+00 0. -1.
</event>
<event>
 7    1  0.3568207E-015  0.9000771E+02  0.7816164E-02  0.1186339E+00
        -11   -1    0    0    0    0  0.00000000000E+00  0.00000000000E+00  0.45593999997E+02  0.45594000000E+02  0.51100000000E-03 0. -1.
         11   -1    0    0    0    0 -0.00000000000E+00 -0.00000000000E+00 -0.45593999997E+02  0.45594000000E+02  0.51100000000E-03 0.  1.
    9900012    2    1    2    0    0 -0.17622503726E+00  0.10578805354E+01 -0.49286590013E+00  0.90007710507E+02  0.89999971486E+02 0.  0.
         12    1    1    2    0    0  0.17622503726E+00 -0.10578805354E+01  0.49286590013E+00  0.11802894926E+01  0.00000000000E+00 0. -1.
         11    1    3    3    0    0 -0.10408881977E+02  0.10122919109E+01 -0.14768254225E+01  0.10561750447E+02  0.51100000000E-03 0. -1.
        -11    1    3    3    0    0 -0.80020869807E+01 -0.21876279789E+02 -0.29576901003E+02  0.37648347728E+02  0.51100000000E-03 0.  1.
         12    1    3    3    0    0  0.18234743920E+02  0.21921868414E+02  0.30560860526E+02  0.41797612332E+02  0.00000000000E+00 0. -1.
</event>
<event>
 7    1  0.3568207E-015  0.9000772E+02  0.7816164E-02  0.1186339E+00
        -11   -1    0    0    0    0  0.00000000000E+00  0.00000000000E+00  0.45593999997E+02  0.45594000000E+02  0.51100000000E-03 0.  1.
         11   -1    0    0    0    0 -0.00000000000E+00 -0.00000000000E+00 -0.45593999997E+02  0.45594000000E+02  0.51100000000E-03 0. -1.
    9900012    2    1    2    0    0 -0.10454552614E+01 -0.52428405007E+00  0.15878343909E+00  0.90007719250E+02  0.89999980344E+02 0.  0.
         12    1    1    2    0    0  0.10454552614E+01  0.52428405007E+00 -0.15878343909E+00  0.11802807502E+01  0.00000000000E+00 0. -1.
         11    1    3    3    0    0  0.28873156834E+02 -0.30388141022E+01 -0.20093837388E+02  0.35308014359E+02  0.51100000000E-03 0. -1.
        -11    1    3    3    0    0  0.10298248726E+02  0.22212757844E+01  0.31458254335E+01  0.10994735597E+02  0.51100000000E-03 0.  1.
        -12    1    3    3    0    0 -0.40216860821E+02  0.29325426769E+00  0.17106795394E+02  0.43704969294E+02  0.00000000000E+00 0.  1.
</event>
<event>
 7    1  0.3568207E-015  0.9000782E+02  0.7816164E-02  0.1186339E+00
        -11   -1    0    0    0    0  0.00000000000E+00  0.00000000000E+00  0.45593999997E+02  0.45594000000E+02  0.51100000000E-03 0. -1.
         11   -1    0    0    0    0 -0.00000000000E+00 -0.00000000000E+00 -0.45593999997E+02  0.45594000000E+02  0.51100000000E-03 0.  1.
    9900012    2    1    2    0    0  0.10981132330E+01  0.34164977821E+00 -0.26504752287E+00  0.90007818898E+02  0.90000081308E+02 0.  0.
         12    1    1    2    0    0 -0.10981132330E+01 -0.34164977821E+00  0.26504752287E+00  0.11801811017E+01  0.00000000000E+00 0. -1.
         11    1    3    3    0    0  0.25258391562E+01  0.38721071660E+02  0.41019074114E+00  0.38805534537E+02  0.51100000000E-03 0. -1.
        -11    1    3    3    0    0  0.67710107886E+01  0.39262712076E+01  0.18251052938E+01  0.80369896286E+01  0.51100000000E-03 0.  1.
        -12    1    3    3    0    0 -0.81987367118E+01 -0.42305693090E+02 -0.25003435578E+01  0.43165294733E+02  0.00000000000E+00 0.  1.
</event>
<event>
 7    1  0.3568207E-015  0.9000779E+02  0.7816164E-02  0.1186339E+00
        -11   -1    0    0    0    0  0.00000000000E+00  0.00000000000E+00  0.45593999997E+02  0.45594000000E+02  0.51100000000E-03 0. -1.
         11   -1    0    0    0    0 -0.00000000000E+00 -0.00000000000E+00 -0.45593999997E+02  0.45594000000E+02  0.51100000000E-03 0.  1.
    9900012    2    1    2    0    0  0.24027632004E+00  0.11372728785E+01 -0.20439813045E+00  0.90007787771E+02  0.90000049769E+02 0.  0.
         12    1    1    2    0    0 -0.24027632004E+00 -0.11372728785E+01  0.20439813045E+00  0.11802122291E+01  0.00000000000E+00 0. -1.
         11    1    3    3    0    0 -0.31530740992E+02 -0.18061660619E+02 -0.10825024331E+02  0.37915595259E+02  0.51100000000E-03 0. -1.
        -11    1    3    3    0    0 -0.33711364085E+01  0.15003371713E+02  0.96854928273E+00  0.15407913922E+02  0.51100000000E-03 0.  1.
        -12    1    3    3    0    0  0.35142153721E+02  0.41955617844E+01  0.96520769181E+01  0.36684278590E+02  0.00000000000E+00 0.  1.
</event>
<event>
 7    1  0.3568207E-015  0.9000773E+02  0.7816164E-02  0.1186339E+00
        -11   -1    0    0    0    0  0.00000000000E+00  0.00000000000E+00  0.45593999997E+02  0.45594000000E+02  0.51100000000E-03 0. -1.
         11   -1    0    0    0    0 -0.00000000000E+00 -0.00000000000E+00 -0.45593999997E+02  0.45594000000E+02  0.51100000000E-03 0.  1.
    9900012    2    1    2    0    0 -0.53541989063E+00  0.83086656476E+00  0.64500497056E+00  0.90007726676E+02  0.89999987868E+02 0.  0.
         12    1    1    2    0    0  0.53541989063E+00 -0.83086656476E+00 -0.64500497056E+00  0.11802733242E+01  0.00000000000E+00 0. -1.
         11    1    3    3    0    0  0.69417153339E+01 -0.38463877758E+01  0.38443856573E+01  0.88182431380E+01  0.51100000000E-03 0. -1.
        -11    1    3    3    0    0  0.29637482753E+02  0.21277894262E+02 -0.14069469245E+02  0.39103441450E+02  0.51100000000E-03 0.  1.
         12    1    3    3    0    0 -0.37114617977E+02 -0.16600639921E+02  0.10870088558E+02  0.42086042088E+02  0.00000000000E+00 0. -1.
</event>
<event>
 7    1  0.3568207E-015  0.9000772E+02  0.7816164E-02  0.1186339E+00
        -11   -1    0    0    0    0  0.00000000000E+00  0.00000000000E+00  0.45593999997E+02  0.45594000000E+02  0.51100000000E-03 0.  1.
         11   -1    0    0    0    0 -0.00000000000E+00 -0.00000000000E+00 -0.45593999997E+02  0.45594000000E+02  0.51100000000E-03 0. -1.
    9900012    2    1    2    0    0  0.79175630557E+00  0.36710417092E+00  0.79462481803E+00  0.90007715237E+02  0.89999976278E+02 0.  0.
         12    1    1    2    0    0 -0.79175630557E+00 -0.36710417092E+00 -0.79462481803E+00  0.11802847627E+01  0.00000000000E+00 0. -1.
         11    1    3    3    0    0 -0.25563816751E+01 -0.42903775095E+01 -0.73403235198E+00  0.50478936397E+01  0.51100000000E-03 0. -1.
        -11    1    3    3    0    0 -0.16403818037E+01  0.10113720554E+02  0.42300222396E+02  0.43523407621E+02  0.51100000000E-03 0.  1.
         12    1    3    3    0    0  0.49885197844E+01 -0.54562388737E+01 -0.40771565226E+02  0.41436413977E+02  0.00000000000E+00 0. -1.
</event>
<event>
 7    1  0.3568207E-015  0.9000772E+02  0.7816164E-02  0.1186339E+00
        -11   -1    0    0    0    0  0.00000000000E+00  0.00000000000E+00  0.45593999997E+02  0.45594000000E+02  0.51100000000E-03 0. -1.
         11   -1    0    0    0    0 -0.00000000000E+00 -0.00000000000E+00 -0.45593999997E+02  0.45594000000E+02  0.51100000000E-03 0.  1.
    9900012    2    1    2    0    0 -0.11701621066E+01 -0.84091505095E-01  0.12930797050E+00  0.90007715590E+02  0.89999976636E+02 0.  0.
         12    1    1    2    0    0  0.11701621066E+01  0.84091505095E-01 -0.12930797050E+00  0.11802844099E+01  0.00000000000E+00 0. -1.
         11    1    3    3    0    0 -0.72279448237E+01  0.10448222270E+00 -0.10186326409E+02  0.12490610428E+02  0.51100000000E-03 0. -1.
        -11    1    3    3    0    0  0.19362882068E+02 -0.19346256619E+01 -0.29590276519E+02  0.35415370154E+02  0.51100000000E-03 0.  1.
         12    1    3    3    0    0 -0.13305099351E+02  0.17460519341E+01  0.39905910898E+02  0.42101735008E+02  0.00000000000E+00 0. -1.
</event>
<event>
 7    1  0.3568207E-015  0.9000781E+02  0.7816164E-02  0.1186339E+00
        -11   -1    0    0    0    0  0.00000000000E+00  0.00000000000E+00  0.45593999997E+02  0.45594000000E+02  0.51100000000E-03 0.  1.
         11   -1    0    0    0    0 -0.00000000000E+00 -0.00000000000E+00 -0.45593999997E+02  0.45594000000E+02  0.51100000000E-03 0. -1.
    9900012    2    1    2    0    0  0.60583743418E+00  0.10054687916E+01  0.12185184977E+00  0.90007807490E+02  0.90000069749E+02 0.  0.
         12    1    1    2    0    0 -0.60583743418E+00 -0.10054687916E+01 -0.12185184977E+00  0.11801925101E+01  0.00000000000E+00 0. -1.
         11    1    3    3    0    0  0.23989670824E-01 -0.86566665122E+01  0.56680717190E+01  0.10347245425E+02  0.51100000000E-03 0. -1.
        -11    1    3    3    0    0 -0.28027809949E+02 -0.20287286716E+02  0.90191067160E+01  0.35755788609E+02  0.51100000000E-03 0.  1.
         12    1    3    3    0    0  0.28609657712E+02  0.29949422020E+02 -0.14565326585E+02  0.43904773456E+02  0.00000000000E+00 0. -1.
</event>
<event>
 7    1  0.3568207E-015  0.9000705E+02  0.7816164E-02  0.1186340E+00
        -11   -1    0    0    0    0  0.00000000000E+00  0.00000000000E+00  0.45593999997E+02  0.45594000000E+02  0.51100000000E-03 0. -1.
         11   -1    0    0    0    0 -0.00000000000E+00 -0.00000000000E+00 -0.45593999997E+02  0.45594000000E+02  0.51100000000E-03 0.  1.
    9900012    2    1    2    0    0  0.11497474764E+01  0.26545922368E+00  0.47568104657E-01  0.90007046748E+02  0.89999298962E+02 0.  0.
         12    1    1    2    0    0 -0.11497474764E+01 -0.26545922368E+00 -0.47568104657E-01  0.11809532520E+01  0.00000000000E+00 0. -1.
         11    1    3    3    0    0 -0.16596490341E+01  0.55494216394E+00  0.87329891720E+01  0.89065984451E+01  0.51100000000E-03 0. -1.
        -11    1    3    3    0    0  0.39305611767E+02 -0.69500003670E+00 -0.18291705598E+02  0.43358974104E+02  0.51100000000E-03 0.  1.
         12    1    3    3    0    0 -0.36496215257E+02  0.40551709644E+00  0.96062845303E+01  0.37741474198E+02  0.00000000000E+00 0. -1.
</event>
<event>
 7    1  0.3568207E-015  0.9000770E+02  0.7816164E-02  0.1186339E+00
        -11   -1    0    0    0    0  0.00000000000E+00  0.00000000000E+00  0.45593999997E+02  0.45594000000E+02  0.51100000000E-03 0.  1.
         11   -1    0    0    0    0 -0.00000000000E+00 -0.00000000000E+00 -0.45593999997E+02  0.45594000000E+02  0.51100000000E-03 0. -1.
    9900012    2    1    2    0    0 -0.10291611661E+01  0.45508412524E+00  0.35613381359E+00  0.90007701072E+02  0.89999961926E+02 0.  0.
         12    1    1    2    0    0  0.10291611661E+01 -0.45508412524E+00 -0.35613381359E+00  0.11802989282E+01  0.00000000000E+00 0. -1.
         11    1    3    3    0    0 -0.26691696398E+02  0.24173847742E+02  0.26003017430E+02  0.44418222465E+02  0.51100000000E-03 0. -1.
        -11    1    3    3    0    0  0.33714253435E+01 -0.53559455571E+00 -0.84623692575E+01  0.91249692650E+01  0.51100000000E-03 0.  1.
        -12    1    3    3    0    0  0.22291109889E+02 -0.23183169061E+02 -0.17184514359E+02  0.36464509342E+02  0.00000000000E+00 0.  1.
</event>
<event>
 7    1  0.3568207E-015  0.9000764E+02  0.7816164E-02  0.1186339E+00
        -11   -1    0    0    0    0  0.00000000000E+00  0.00000000000E+00  0.45593999997E+02  0.45594000000E+02  0.51100000000E-03 0.  1.
         11   -1    0    0    0    0 -0.00000000000E+00 -0.00000000000E+00 -0.45593999997E+02  0.45594000000E+02  0.51100000000E-03 0. -1.
    9900012    2    1    2    0    0 -0.56474957743E+00  0.51090212359E-01  0.10352294971E+01  0.90007638866E+02  0.89999898899E+02 0.  0.
         12    1    1    2    0    0  0.56474957743E+00 -0.51090212359E-01 -0.10352294971E+01  0.11803611340E+01  0.00000000000E+00 0. -1.
         11    1    3    3    0    0 -0.24686433607E+02  0.16323393520E+01  0.27016370944E+02  0.36632892805E+02  0.51100000000E-03 0. -1.
        -11    1    3    3    0    0  0.24383142397E+01 -0.14925784533E+01  0.10529443526E+02  0.10910652959E+02  0.51100000000E-03 0.  1.
        -12    1    3    3    0    0  0.21683369790E+02 -0.88670686318E-01 -0.36510584973E+02  0.42464093102E+02  0.00000000000E+00 0.  1.
</event>
<event>
 7    1  0.3568207E-015  0.9000772E+02  0.7816164E-02  0.1186339E+00
        -11   -1    0    0    0    0  0.00000000000E+00  0.00000000000E+00  0.45593999997E+02  0.45594000000E+02  0.51100000000E-03 0.  1.
         11   -1    0    0    0    0 -0.00000000000E+00 -0.00000000000E+00 -0.45593999997E+02  0.45594000000E+02  0.51100000000E-03 0. -1.
    9900012    2    1    2    0    0 -0.89915132217E+00 -0.31456781883E+00  0.69687133406E+00  0.90007722207E+02  0.89999983340E+02 0.  0.
         12    1    1    2    0    0  0.89915132217E+00  0.31456781883E+00 -0.69687133406E+00  0.11802777932E+01  0.00000000000E+00 0. -1.
         11    1    3    3    0    0  0.27484368294E+02 -0.94813808831E+01  0.21685218745E+02  0.36270315635E+02  0.51100000000E-03 0. -1.
        -11    1    3    3    0    0  0.31640959645E+01 -0.74662614470E+01  0.50738500435E+01  0.95655903003E+01  0.51100000000E-03 0.  1.
        -12    1    3    3    0    0 -0.31547615581E+02  0.16633074511E+02 -0.26062197455E+02  0.44171816271E+02  0.00000000000E+00 0.  1.
</event>
<event>
 7    1  0.3568207E-015  0.9000783E+02  0.7816164E-02  0.1186339E+00
        -11   -1    0    0    0    0  0.00000000000E+00  0.00000000000E+00  0.45593999997E+02  0.45594000000E+02  0.51100000000E-03 0.  1.
         11   -1    0    0    0    0 -0.00000000000E+00 -0.00000000000E+00 -0.45593999997E+02  0.45594000000E+02  0.51100000000E-03 0. -1.
    9900012    2    1    2    0    0 -0.11329152752E+01 -0.20262735594E+00  0.26122012589E+00  0.90007834410E+02  0.90000097024E+02 0.  0.
         12    1    1    2    0    0  0.11329152752E+01  0.20262735594E+00 -0.26122012589E+00  0.11801655902E+01  0.00000000000E+00 0. -1.
         11    1    3    3    0    0  0.93394272112E+01 -0.43418955855E+01 -0.15526343855E+01  0.10415739614E+02  0.51100000000E-03 0. -1.
        -11    1    3    3    0    0 -0.27617313518E+02 -0.21266013312E+02  0.23507363129E+02  0.42042305475E+02  0.51100000000E-03 0.  1.
         12    1    3    3    0    0  0.17144971031E+02  0.25405281542E+02 -0.21693508617E+02  0.37549789321E+02  0.00000000000E+00 0. -1.
</event>
<event>
 7    1  0.3568207E-015  0.9000809E+02  0.7816164E-02  0.1186338E+00
        -11   -1    0    0    0    0  0.00000000000E+00  0.00000000000E+00  0.45593999997E+02  0.45594000000E+02  0.51100000000E-03 0. -1.
         11   -1    0    0    0    0 -0.00000000000E+00 -0.00000000000E+00 -0.45593999997E+02  0.45594000000E+02  0.51100000000E-03 0.  1.
    9900012    2    1    2    0    0  0.76110916085E+00 -0.27188838571E+00 -0.85964033256E+00  0.90008088160E+02  0.90000354123E+02 0.  0.
         12    1    1    2    0    0 -0.76110916085E+00  0.27188838571E+00  0.85964033256E+00  0.11799118401E+01  0.00000000000E+00 0. -1.
         11    1    3    3    0    0 -0.28638560127E+02 -0.97656584064E+01 -0.20317409190E+02  0.36446293731E+02  0.51100000000E-03 0. -1.
        -11    1    3    3    0    0 -0.81641317225E+01 -0.23333315593E+00 -0.30326638391E+01  0.87123212386E+01  0.51100000000E-03 0.  1.
        -12    1    3    3    0    0  0.37563801011E+02  0.97271031766E+01  0.22490432696E+02  0.44849473190E+02  0.00000000000E+00 0.  1.
</event>
<event>
 7    1  0.3568207E-015  0.9000781E+02  0.7816164E-02  0.1186339E+00
        -11   -1    0    0    0    0  0.00000000000E+00  0.00000000000E+00  0.45593999997E+02  0.45594000000E+02  0.51100000000E-03 0.  1.
         11   -1    0    0    0    0 -0.00000000000E+00 -0.00000000000E+00 -0.45593999997E+02  0.45594000000E+02  0.51100000000E-03 0. -1.
    9900012    2    1    2    0    0 -0.63005817537E+00  0.99612924024E+00 -0.60033144488E-01  0.90007809021E+02  0.90000071300E+02 0.  0.
         12    1    1    2    0    0  0.63005817537E+00 -0.99612924024E+00  0.60033144488E-01  0.11801909786E+01  0.00000000000E+00 0. -1.
         11    1    3    3    0    0 -0.24697855750E+02 -0.77200300118E+01 -0.21118461726E+02  0.33400185149E+02  0.51100000000E-03 0. -1.
        -11    1    3    3    0    0 -0.96460180831E+01  0.34425425188E+01 -0.70199764662E+01  0.12416796435E+02  0.51100000000E-03 0.  1.
        -12    1    3    3    0    0  0.33713815658E+02  0.52736167333E+01  0.28078405048E+02  0.44190827438E+02  0.00000000000E+00 0.  1.
</event>
<event>
 7    1  0.3568207E-015  0.9000784E+02  0.7816164E-02  0.1186339E+00
        -11   -1    0    0    0    0  0.00000000000E+00  0.00000000000E+00  0.45593999997E+02  0.45594000000E+02  0.51100000000E-03 0.  1.
         11   -1    0    0    0    0 -0.00000000000E+00 -0.00000000000E+00 -0.45593999997E+02  0.45594000000E+02  0.51100000000E-03 0. -1.
    9900012    2    1    2    0    0  0.46320499732E+00  0.10337644917E+01 -0.33099552652E+00  0.90007836481E+02  0.90000099122E+02 0.  0.
         12    1    1    2    0    0 -0.46320499732E+00 -0.10337644917E+01  0.33099552652E+00  0.11801635194E+01  0.00000000000E+00 0. -1.
         11    1    3    3    0    0  0.14997921505E+01  0.13060139394E+02 -0.38829141356E+02  0.40994131728E+02  0.51100000000E-03 0. -1.
        -11    1    3    3    0    0  0.27166062461E+01  0.70220948250E+01  0.21908983324E+01  0.78415432787E+01  0.51100000000E-03 0.  1.
        -12    1    3    3    0    0 -0.37531933993E+01 -0.19048469727E+02  0.36307247497E+02  0.41172161474E+02  0.00000000000E+00 0.  1.
</event>
<event>
 7    1  0.3568207E-015  0.9000777E+02  0.7816164E-02  0.1186339E+00
        -11   -1    0    0    0    0  0.00000000000E+00  0.00000000000E+00  0.45593999997E+02  0.45594000000E+02  0.51100000000E-03 0. -1.
         11   -1    0    0    0    0 -0.00000000000E+00 -0.00000000000E+00 -0.45593999997E+02  0.45594000000E+02  0.51100000000E-03 0.  1.
    9900012    2    1    2    0    0  0.91070217470E+00  0.23958375853E+00 -0.71145158781E+00  0.90007770281E+02  0.90000032048E+02 0.  0.
         12    1    1    2    0    0 -0.91070217470E+00 -0.23958375853E+00  0.71145158781E+00  0.11802297192E+01  0.00000000000E+00 0. -1.
         11    1    3    3    0    0 -0.10983118282E+02  0.23932811284E+01 -0.20194127730E+01  0.11420801634E+02  0.51100000000E-03 0. -1.
        -11    1    3    3    0    0 -0.16670662954E+02  0.11408007132E+02  0.29814850212E+02  0.36013593593E+02  0.51100000000E-03 0.  1.
         12    1    3    3    0    0  0.28564483410E+02 -0.13561704502E+02 -0.28506889027E+02  0.42573375054E+02  0.00000000000E+00 0. -1.
</event>
<event>
 7    1  0.3568207E-015  0.9000772E+02  0.7816164E-02  0.1186339E+00
        -11   -1    0    0    0    0  0.00000000000E+00  0.00000000000E+00  0.45593999997E+02  0.45594000000E+02  0.51100000000E-03 0.  1.
         11   -1    0    0    0    0 -0.00000000000E+00 -0.00000000000E+00 -0.45593999997E+02  0.45594000000E+02  0.51100000000E-03 0. -1.
    9900012    2    1    2    0    0  0.81752808990E+00  0.77474372255E+00 -0.35282709195E+00  0.90007717419E+02  0.89999978489E+02 0.  0.
         12    1    1    2    0    0 -0.81752808990E+00 -0.77474372255E+00  0.35282709195E+00  0.11802825807E+01  0.00000000000E+00 0. -1.
         11    1    3    3    0    0 -0.18648816658E+01  0.95447903080E+01  0.14166138208E+01  0.98278990954E+01  0.51100000000E-03 0. -1.
        -11    1    3    3    0    0  0.19606270154E+02  0.26926642241E+02  0.15893124774E+02  0.36905843806E+02  0.51100000000E-03 0.  1.
         12    1    3    3    0    0 -0.16923860398E+02 -0.35696688826E+02 -0.17662565687E+02  0.43273974518E+02  0.00000000000E+00 0. -1.
</event>
<event>
 7    1  0.3568207E-015  0.9000775E+02  0.7816164E-02  0.1186339E+00
        -11   -1    0    0    0    0  0.00000000000E+00  0.00000000000E+00  0.45593999997E+02  0.45594000000E+02  0.51100000000E-03 0.  1.
         11   -1    0    0    0    0 -0.00000000000E+00 -0.00000000000E+00 -0.45593999997E+02  0.45594000000E+02  0.51100000000E-03 0. -1.
    9900012    2    1    2    0    0 -0.22656081974E+00  0.93483380299E+00  0.68392454672E+00  0.90007747133E+02  0.90000008595E+02 0.  0.
         12    1    1    2    0    0  0.22656081974E+00 -0.93483380299E+00 -0.68392454672E+00  0.11802528669E+01  0.00000000000E+00 0. -1.
         11    1    3    3    0    0 -0.31470740306E+02  0.13801572466E+02  0.20204384535E+02  0.39863618158E+02  0.51100000000E-03 0. -1.
        -11    1    3    3    0    0  0.26105122691E+01 -0.14863662265E+00  0.80162624437E+01  0.84319233263E+01  0.51100000000E-03 0.  1.
        -12    1    3    3    0    0  0.28633667217E+02 -0.12718102040E+02 -0.27536722432E+02  0.41712205649E+02  0.00000000000E+00 0.  1.
</event>
<event>
 7    1  0.3568207E-015  0.9000775E+02  0.7816164E-02  0.1186339E+00
        -11   -1    0    0    0    0  0.00000000000E+00  0.00000000000E+00  0.45593999997E+02  0.45594000000E+02  0.51100000000E-03 0. -1.
         11   -1    0    0    0    0 -0.00000000000E+00 -0.00000000000E+00 -0.45593999997E+02  0.45594000000E+02  0.51100000000E-03 0.  1.
    9900012    2    1    2    0    0 -0.71305492291E-01  0.82932322600E+00  0.83674291208E+00  0.90007745711E+02  0.90000007154E+02 0.  0.
         12    1    1    2    0    0  0.71305492291E-01 -0.82932322600E+00 -0.83674291208E+00  0.11802542893E+01  0.00000000000E+00 0. -1.
         11    1    3    3    0    0  0.27438210752E+01 -0.90545049182E+00  0.50735235931E+01  0.58385817282E+01  0.51100000000E-03 0. -1.
        -11    1    3    3    0    0 -0.42220932404E+02  0.10846789496E+02 -0.11742311331E+01  0.43607783645E+02  0.51100000000E-03 0.  1.
         12    1    3    3    0    0  0.39405805836E+02 -0.91120157781E+01 -0.30625495479E+01  0.40561380338E+02  0.00000000000E+00 0. -1.
</event>
<event>
 7    1  0.3568207E-015  0.9000775E+02  0.7816164E-02  0.1186339E+00
        -11   -1    0    0    0    0  0.00000000000E+00  0.00000000000E+00  0.45593999997E+02  0.45594000000E+02  0.51100000000E-03 0. -1.
         11   -1    0    0    0    0 -0.00000000000E+00 -0.00000000000E+00 -0.45593999997E+02  0.45594000000E+02  0.51100000000E-03 0.  1.
    9900012    2    1    2    0    0  0.83395117541E+00  0.50600243772E+00 -0.66443298428E+00  0.90007752475E+02  0.90000014008E+02 0.  0.
         12    1    1    2    0    0 -0.83395117541E+00 -0.50600243772E+00  0.66443298428E+00  0.11802475251E+01  0.00000000000E+00 0. -1.
         11    1    3    3    0    0  0.40108959419E+02  0.10606190210E+02  0.27061130894E+01  0.41575749479E+02  0.51100000000E-03 0. -1.
        -11    1    3    3    0    0 -0.31429470793E+00 -0.93344634725E+01 -0.33610860484E+00  0.93457989888E+01  0.51100000000E-03 0.  1.
        -12    1    3    3    0    0 -0.38960713536E+02 -0.76572429944E+00 -0.30344374689E+01  0.39086204007E+02  0.00000000000E+00 0.  1.
</event>
<event>
 7    1  0.3568207E-015  0.9000775E+02  0.7816164E-02  0.1186339E+00
        -11   -1    0    0    0    0  0.00000000000E+00  0.00000000000E+00  0.45593999997E+02  0.45594000000E+02  0.51100000000E-03 0. -1.
         11   -1    0    0    0    0 -0.00000000000E+00 -0.00000000000E+00 -0.45593999997E+02  0.45594000000E+02  0.51100000000E-03 0.  1.
    9900012    2    1    2    0    0  0.97753056120E+00  0.25184538588E+00 -0.61155752564E+00  0.90007748034E+02  0.90000009508E+02 0.  0.
         12    1    1    2    0    0 -0.97753056120E+00 -0.25184538588E+00  0.61155752564E+00  0.11802519662E+01  0.00000000000E+00 0. -1.
         11    1    3    3    0    0  0.61829048727E+01  0.16456757689E+01 -0.78369349851E+01  0.10117020887E+02  0.51100000000E-03 0. -1.
        -11    1    3    3    0    0 -0.40273082223E+02  0.11976887116E+02  0.46357275002E+01  0.42271230719E+02  0.51100000000E-03 0.  1.
         12    1    3    3    0    0  0.35067707912E+02 -0.13370717499E+02  0.25896499592E+01  0.37619496429E+02  0.00000000000E+00 0. -1.
</event>
<event>
 7    1  0.3568207E-015  0.9000769E+02  0.7816164E-02  0.1186339E+00
        -11   -1    0    0    0    0  0.00000000000E+00  0.00000000000E+00  0.45593999997E+02  0.45594000000E+02  0.51100000000E-03 0. -1.
         11   -1    0    0    0    0 -0.00000000000E+00 -0.00000000000E+00 -0.45593999997E+02  0.45594000000E+02  0.51100000000E-03 0.  1.
    9900012    2    1    2    0    0 -0.86459884526E+00  0.74050777184E+00  0.31185635997E+00  0.90007687621E+02  0.89999948297E+02 0.  0.
         12    1    1    2    0    0  0.86459884526E+00 -0.74050777184E+00 -0.31185635997E+00  0.11803123793E+01  0.00000000000E+00 0. -1.
         11    1    3    3    0    0 -0.10750377960E+02  0.53651514175E+01 -0.13302682086E+01  0.12088221117E+02  0.51100000000E-03 0. -1.
        -11    1    3    3    0    0 -0.50016272467E+01  0.29386440135E+02 -0.19088612644E+02  0.35397094116E+02  0.51100000000E-03 0.  1.
         12    1    3    3    0    0  0.14887406361E+02 -0.34011083780E+02  0.20730737213E+02  0.42522372388E+02  0.00000000000E+00 0. -1.
</event>
<event>
 7    1  0.3568207E-015  0.9000775E+02  0.7816164E-02  0.1186339E+00
        -11   -1    0    0    0    0  0.00000000000E+00  0.00000000000E+00  0.45593999997E+02  0.45594000000E+02  0.51100000000E-03 0. -1.
         11   -1    0    0    0    0 -0.00000000000E+00 -0.00000000000E+00 -0.45593999997E+02  0.45594000000E+02  0.51100000000E-03 0.  1.
    9900012    2    1    2    0    0  0.82601469361E+00  0.33005600578E+00 -0.77573197261E+00  0.90007746919E+02  0.90000008379E+02 0.  0.
         12    1    1    2    0    0 -0.82601469361E+00 -0.33005600578E+00  0.77573197261E+00  0.11802530806E+01  0.00000000000E+00 0. -1.
         11    1    3    3    0    0 -0.13538296412E+02 -0.26755374783E+02 -0.24839907714E+02  0.38937855167E+02  0.51100000000E-03 0. -1.
        -11    1    3    3    0    0 -0.89026367204E+01  0.39729924573E+01 -0.99057492221E+00  0.97991248884E+01  0.51100000000E-03 0.  1.
        -12    1    3    3    0    0  0.23266947826E+02  0.23112438331E+02  0.25054750664E+02  0.41270766864E+02  0.00000000000E+00 0.  1.
</event>
<event>
 7    1  0.3568207E-015  0.9000753E+02  0.7816164E-02  0.1186339E+00
        -11   -1    0    0    0    0  0.00000000000E+00  0.00000000000E+00  0.45593999997E+02  0.45594000000E+02  0.51100000000E-03 0. -1.
         11   -1    0    0    0    0 -0.00000000000E+00 -0.00000000000E+00 -0.45593999997E+02  0.45594000000E+02  0.51100000000E-03 0.  1.
    9900012    2    1    2    0    0  0.81228745257E+00  0.39562465060E+00  0.75971653260E+00  0.90007534422E+02  0.89999793077E+02 0.  0.
         12    1    1    2    0    0 -0.81228745257E+00 -0.39562465060E+00 -0.75971653260E+00  0.11804655775E+01  0.00000000000E+00 0. -1.
         11    1    3    3    0    0 -0.25539069310E-02 -0.73567907083E+01  0.41746980327E+02  0.42390243486E+02  0.51100000000E-03 0. -1.
        -11    1    3    3    0    0  0.77853992049E+01 -0.31775952475E+01 -0.60689130073E+01  0.10370210108E+02  0.51100000000E-03 0.  1.
        -12    1    3    3    0    0 -0.69705578454E+01  0.10930010606E+02 -0.34918350788E+02  0.37247080829E+02  0.00000000000E+00 0.  1.
</event>
<event>
 7    1  0.3568207E-015  0.9000774E+02  0.7816164E-02  0.1186339E+00
        -11   -1    0    0    0    0  0.00000000000E+00  0.00000000000E+00  0.45593999997E+02  0.45594000000E+02  0.51100000000E-03 0.  1.
         11   -1    0    0    0    0 -0.00000000000E+00 -0.00000000000E+00 -0.45593999997E+02  0.45594000000E+02  0.51100000000E-03 0. -1.
    9900012    2    1    2    0    0  0.40924431750E+00  0.69811991163E+00 -0.85916369174E+00  0.90007739617E+02  0.90000000980E+02 0.  0.
         12    1    1    2    0    0 -0.40924431750E+00 -0.69811991163E+00  0.85916369174E+00  0.11802603830E+01  0.00000000000E+00 0. -1.
         11    1    3    3    0    0 -0.36053184251E+01 -0.44940667086E+01  0.87619779911E+01  0.10486525407E+02  0.51100000000E-03 0. -1.
        -11    1    3    3    0    0  0.29178723422E+02 -0.25543207945E+02 -0.89201777931E+01  0.39792247295E+02  0.51100000000E-03 0.  1.
         12    1    3    3    0    0 -0.25164160680E+02  0.30735394565E+02 -0.70096388971E+00  0.39728966915E+02  0.00000000000E+00 0. -1.
</event>
<event>
 7    1  0.3568207E-015  0.9000764E+02  0.7816164E-02  0.1186339E+00
        -11   -1    0    0    0    0  0.00000000000E+00  0.00000000000E+00  0.45593999997E+02  0.45594000000E+02  0.51100000000E-03 0.  1.
         11   -1    0    0    0    0 -0.00000000000E+00 -0.00000000000E+00 -0.45593999997E+02  0.45594000000E+02  0.51100000000E-03 0. -1.
    9900012    2    1    2    0    0  0.90132170027E+00  0.59013864743E+00 -0.48229288414E+00  0.90007639523E+02  0.89999899564E+02 0.  0.
         12    1    1    2    0    0 -0.90132170027E+00 -0.59013864743E+00  0.48229288414E+00  0.11803604774E+01  0.00000000000E+00 0. -1.
         11    1    3    3    0    0 -0.96828963508E+01  0.14740177539E+01  0.30789157142E+01  0.10266982629E+02  0.51100000000E-03 0. -1.
        -11    1    3    3    0    0 -0.24553957026E+02 -0.21390188015E+02  0.13977136544E+02  0.35437230354E+02  0.51100000000E-03 0.  1.
         12    1    3    3    0    0  0.35138175077E+02  0.20506308908E+02 -0.17538345143E+02  0.44303426539E+02  0.00000000000E+00 0. -1.
</event>
<event>
 7    1  0.3568207E-015  0.9000772E+02  0.7816164E-02  0.1186339E+00
        -11   -1    0    0    0    0  0.00000000000E+00  0.00000000000E+00  0.45593999997E+02  0.45594000000E+02  0.51100000000E-03 0. -1.
         11   -1    0    0    0    0 -0.00000000000E+00 -0.00000000000E+00 -0.45593999997E+02  0.45594000000E+02  0.51100000000E-03 0.  1.
    9900012    2    1    2    0    0 -0.98677866904E+00  0.16158164968E+00 -0.62706340369E+00  0.90007724912E+02  0.89999986081E+02 0.  0.
         12    1    1    2    0    0  0.98677866904E+00 -0.16158164968E+00  0.62706340369E+00  0.11802750880E+01  0.00000000000E+00 0. -1.
         11    1    3    3    0    0  0.14820539353E+01 -0.41482987939E+01 -0.73926412093E+01  0.86055802280E+01  0.51100000000E-03 0. -1.
        -11    1    3    3    0    0  0.27366968866E+02 -0.23133713029E+02 -0.10498913317E+02  0.37340953985E+02  0.51100000000E-03 0.  1.
         12    1    3    3    0    0 -0.29835801470E+02  0.27443593473E+02  0.17264491123E+02  0.44061190699E+02  0.00000000000E+00 0. -1.
</event>
<event>
 7    1  0.4030643E-015  0.9000770E+02  0.7816164E-02  0.1186339E+00
        -11   -1    0    0    0    0  0.00000000000E+00  0.00000000000E+00  0.45593999997E+02  0.45594000000E+02  0.51100000000E-03 0. -1.
         11   -1    0    0    0    0 -0.00000000000E+00 -0.00000000000E+00 -0.45593999997E+02  0.45594000000E+02  0.51100000000E-03 0.  1.
    9900012    2    1    2    0    0 -0.70603083337E+00  0.73156324227E+00 -0.59953216374E+00  0.90007702101E+02  0.89999962969E+02 0.  0.
         12    1    1    2    0    0  0.70603083337E+00 -0.73156324227E+00  0.59953216374E+00  0.11802978990E+01  0.00000000000E+00 0. -1.
         11    1    3    3    0    0  0.89601890870E+00  0.10160471530E+02  0.12253912095E+01  0.10273247562E+02  0.51100000000E-03 0. -1.
        -11    1    3    3    0    0  0.89446632568E+01  0.72839776147E+01 -0.37345473817E+02  0.39086413823E+02  0.51100000000E-03 0.  1.
         12    1    3    3    0    0 -0.10546712999E+02 -0.16712885902E+02  0.35520550444E+02  0.40648040716E+02  0.00000000000E+00 0. -1.
</event>
<event>
 7    1  0.3568207E-015  0.9000770E+02  0.7816164E-02  0.1186339E+00
        -11   -1    0    0    0    0  0.00000000000E+00  0.00000000000E+00  0.45593999997E+02  0.45594000000E+02  0.51100000000E-03 0.  1.
         11   -1    0    0    0    0 -0.00000000000E+00 -0.00000000000E+00 -0.45593999997E+02  0.45594000000E+02  0.51100000000E-03 0. -1.
    9900012    2    1    2    0    0 -0.16848941929E+00 -0.42325781723E+00  0.10888380499E+01  0.90007701663E+02  0.89999962525E+02 0.  0.
         12    1    1    2    0    0  0.16848941929E+00  0.42325781723E+00 -0.10888380499E+01  0.11802983365E+01  0.00000000000E+00 0. -1.
         11    1    3    3    0    0  0.28489379830E+01 -0.38142027430E+01  0.83648015802E+01  0.96246816017E+01  0.51100000000E-03 0. -1.
        -11    1    3    3    0    0  0.22926192816E+02  0.20618603552E+02  0.21811794403E+02  0.37768922473E+02  0.51100000000E-03 0.  1.
         12    1    3    3    0    0 -0.25943620218E+02 -0.17227658626E+02 -0.29087757933E+02  0.42614097589E+02  0.00000000000E+00 0. -1.
</event>
<event>
 7    1  0.3568207E-015  0.9000774E+02  0.7816164E-02  0.1186339E+00
        -11   -1    0    0    0    0  0.00000000000E+00  0.00000000000E+00  0.45593999997E+02  0.45594000000E+02  0.51100000000E-03 0.  1.
         11   -1    0    0    0    0 -0.00000000000E+00 -0.00000000000E+00 -0.45593999997E+02  0.45594000000E+02  0.51100000000E-03 0. -1.
    9900012    2    1    2    0    0 -0.78204931411E+00 -0.64360601307E+00  0.60595067446E+00  0.90007743227E+02  0.90000004638E+02 0.  0.
         12    1    1    2    0    0  0.78204931411E+00  0.64360601307E+00 -0.60595067446E+00  0.11802567728E+01  0.00000000000E+00 0. -1.
         11    1    3    3    0    0  0.67605871642E+01 -0.40003226573E+00 -0.54557949679E+01  0.86966236904E+01  0.51100000000E-03 0. -1.
        -11    1    3    3    0    0 -0.99079419243E+01 -0.55766606802E+01  0.42712046637E+02  0.44199382187E+02  0.51100000000E-03 0.  1.
         12    1    3    3    0    0  0.23653054459E+01  0.53330869328E+01 -0.36650300995E+02  0.37111737350E+02  0.00000000000E+00 0. -1.
</event>
<event>
 7    1  0.3568207E-015  0.9000784E+02  0.7816164E-02  0.1186339E+00
        -11   -1    0    0    0    0  0.00000000000E+00  0.00000000000E+00  0.45593999997E+02  0.45594000000E+02  0.51100000000E-03 0.  1.
         11   -1    0    0    0    0 -0.00000000000E+00 -0.00000000000E+00 -0.45593999997E+02  0.45594000000E+02  0.51100000000E-03 0. -1.
    9900012    2    1    2    0    0 -0.20005377627E+00  0.11000299678E+01 -0.37774933546E+00  0.90007838145E+02  0.90000100808E+02 0.  0.
         12    1    1    2    0    0  0.20005377627E+00 -0.11000299678E+01  0.37774933546E+00  0.11801618550E+01  0.00000000000E+00 0. -1.
         11    1    3    3    0    0 -0.10610965891E+02 -0.18781953968E+02 -0.28740799971E+02  0.35935887010E+02  0.51100000000E-03 0. -1.
        -11    1    3    3    0    0 -0.14722119284E+01 -0.10557835006E+02 -0.21354590543E+00  0.10662124089E+02  0.51100000000E-03 0.  1.
        -12    1    3    3    0    0  0.11883124043E+02  0.30439818942E+02  0.28576596541E+02  0.43409827045E+02  0.00000000000E+00 0.  1.
</event>
<event>
 7    1  0.3568207E-015  0.9000778E+02  0.7816164E-02  0.1186339E+00
        -11   -1    0    0    0    0  0.00000000000E+00  0.00000000000E+00  0.45593999997E+02  0.45594000000E+02  0.51100000000E-03 0. -1.
         11   -1    0    0    0    0 -0.00000000000E+00 -0.00000000000E+00 -0.45593999997E+02  0.45594000000E+02  0.51100000000E-03 0.  1.
    9900012    2    1    2    0    0 -0.11214074005E+01 -0.29602042728E+00 -0.21850796908E+00  0.90007776130E+02  0.90000037975E+02 0.  0.
         12    1    1    2    0    0  0.11214074005E+01  0.29602042728E+00  0.21850796908E+00  0.11802238702E+01  0.00000000000E+00 0. -1.
         11    1    3    3    0    0 -0.10170071991E+01  0.79315005874E+01  0.21053115571E+01  0.82689383977E+01  0.51100000000E-03 0. -1.
        -11    1    3    3    0    0 -0.13174676925E+02 -0.41672000210E+02  0.78794269303E+01  0.44409605747E+02  0.51100000000E-03 0.  1.
         12    1    3    3    0    0  0.13070276724E+02  0.33444479196E+02 -0.10203246457E+02  0.37329231985E+02  0.00000000000E+00 0. -1.
</event>
<event>
 7    1  0.3568207E-015  0.9000763E+02  0.7816164E-02  0.1186339E+00
        -11   -1    0    0    0    0  0.00000000000E+00  0.00000000000E+00  0.45593999997E+02  0.45594000000E+02  0.51100000000E-03 0.  1.
         11   -1    0    0    0    0 -0.00000000000E+00 -0.00000000000E+00 -0.45593999997E+02  0.45594000000E+02  0.51100000000E-03 0. -1.
    9900012    2    1    2    0    0  0.10887908451E+01  0.28376704615E+00 -0.35677035715E+00  0.90007629580E+02  0.89999889490E+02 0.  0.
         12    1    1    2    0    0 -0.10887908451E+01 -0.28376704615E+00  0.35677035715E+00  0.11803704201E+01  0.00000000000E+00 0. -1.
         11    1    3    3    0    0  0.13224696801E+02  0.34727863713E+02  0.52683248915E+01  0.37532284382E+02  0.51100000000E-03 0. -1.
        -11    1    3    3    0    0  0.64054229735E+01  0.52747432893E+01 -0.16677112684E+01  0.84636647720E+01  0.51100000000E-03 0.  1.
        -12    1    3    3    0    0 -0.18541328929E+02 -0.39718839956E+02 -0.39573839803E+01  0.44011680426E+02  0.00000000000E+00 0.  1.
</event>
<event>
 7    1  0.3568207E-015  0.9000776E+02  0.7816164E-02  0.1186339E+00
        -11   -1    0    0    0    0  0.00000000000E+00  0.00000000000E+00  0.45593999997E+02  0.45594000000E+02  0.51100000000E-03 0.  1.
         11   -1    0    0    0    0 -0.00000000000E+00 -0.00000000000E+00 -0.45593999997E+02  0.45594000000E+02  0.51100000000E-03 0. -1.
    9900012    2    1    2    0    0 -0.12980987702E+00  0.11693591688E+01 -0.93317049650E-01  0.90007762930E+02  0.90000024601E+02 0.  0.
         12    1    1    2    0    0  0.12980987702E+00 -0.11693591688E+01  0.93317049650E-01  0.11802370701E+01  0.00000000000E+00 0. -1.
         11    1    3    3    0    0 -0.76397000085E+01  0.67120180387E+01 -0.97792230972E+00  0.10216287715E+02  0.51100000000E-03 0. -1.
        -11    1    3    3    0    0 -0.15859074845E+02 -0.16519740986E+01  0.34882241151E+02  0.38353748465E+02  0.51100000000E-03 0.  1.
         12    1    3    3    0    0  0.23368964976E+02 -0.38906847713E+01 -0.33997635891E+02  0.41437726750E+02  0.00000000000E+00 0. -1.
</event>
<event>
 7    1  0.3568207E-015  0.9000773E+02  0.7816164E-02  0.1186339E+00
        -11   -1    0    0    0    0  0.00000000000E+00  0.00000000000E+00  0.45593999997E+02  0.45594000000E+02  0.51100000000E-03 0.  1.
         11   -1    0    0    0    0 -0.00000000000E+00 -0.00000000000E+00 -0.45593999997E+02  0.45594000000E+02  0.51100000000E-03 0. -1.
    9900012    2    1    2    0    0 -0.72779052297E+00 -0.30087407664E+00  0.87910706440E+00  0.90007731604E+02  0.89999992861E+02 0.  0.
         12    1    1    2    0    0  0.72779052297E+00  0.30087407664E+00 -0.87910706440E+00  0.11802683957E+01  0.00000000000E+00 0. -1.
         11    1    3    3    0    0 -0.35964677061E+01  0.13697330785E+01  0.83017299955E+01  0.91503808580E+01  0.51100000000E-03 0. -1.
        -11    1    3    3    0    0  0.29842776717E+02 -0.19200831890E+02  0.18060012349E+02  0.39817424750E+02  0.51100000000E-03 0.  1.
         12    1    3    3    0    0 -0.26974099533E+02  0.17530224735E+02 -0.25482635281E+02  0.41039925996E+02  0.00000000000E+00 0. -1.
</event>
<event>
 7    1  0.3568207E-015  0.9000771E+02  0.7816164E-02  0.1186339E+00
        -11   -1    0    0    0    0  0.00000000000E+00  0.00000000000E+00  0.45593999997E+02  0.45594000000E+02  0.51100000000E-03 0.  1.
         11   -1    0    0    0    0 -0.00000000000E+00 -0.00000000000E+00 -0.45593999997E+02  0.45594000000E+02  0.51100000000E-03 0. -1.
    9900012    2    1    2    0    0 -0.32415575381E+00  0.66927912040E+00  0.91655230048E+00  0.90007712063E+02  0.89999973063E+02 0.  0.
         12    1    1    2    0    0  0.32415575381E+00 -0.66927912040E+00 -0.91655230048E+00  0.11802879366E+01  0.00000000000E+00 0. -1.
         11    1    3    3    0    0 -0.11942592270E+02 -0.20431405292E+02 -0.33987112166E+02  0.41414872039E+02  0.51100000000E-03 0. -1.
        -11    1    3    3    0    0  0.25939036158E+01  0.79380140852E+01 -0.18237141777E+01  0.85478849576E+01  0.51100000000E-03 0.  1.
        -12    1    3    3    0    0  0.90245329008E+01  0.13162670327E+02  0.36727378644E+02  0.40044955067E+02  0.00000000000E+00 0.  1.
</event>
<event>
 7    1  0.3568207E-015  0.9000749E+02  0.7816164E-02  0.1186340E+00
        -11   -1    0    0    0    0  0.00000000000E+00  0.00000000000E+00  0.45593999997E+02  0.45594000000E+02  0.51100000000E-03 0. -1.
         11   -1    0    0    0    0 -0.00000000000E+00 -0.00000000000E+00 -0.45593999997E+02  0.45594000000E+02  0.51100000000E-03 0.  1.
    9900012    2    1    2    0    0  0.95963677798E+00 -0.68748664229E+00  0.86330690379E-02  0.90007485214E+02  0.89999743219E+02 0.  0.
         12    1    1    2    0    0 -0.95963677798E+00  0.68748664229E+00 -0.86330690379E-02  0.11805147855E+01  0.00000000000E+00 0. -1.
         11    1    3    3    0    0 -0.46829511562E+00 -0.18803884458E+02  0.32392832479E+02  0.37457989365E+02  0.51100000000E-03 0. -1.
        -11    1    3    3    0    0 -0.42290615038E+01  0.50957644126E+01  0.76233288561E+01  0.10097867065E+02  0.51100000000E-03 0.  1.
        -12    1    3    3    0    0  0.56569933974E+01  0.13020633403E+02 -0.40007528266E+02  0.42451628784E+02  0.00000000000E+00 0.  1.
</event>
<event>
 7    1  0.3568207E-015  0.9000772E+02  0.7816164E-02  0.1186339E+00
        -11   -1    0    0    0    0  0.00000000000E+00  0.00000000000E+00  0.45593999997E+02  0.45594000000E+02  0.51100000000E-03 0.  1.
         11   -1    0    0    0    0 -0.00000000000E+00 -0.00000000000E+00 -0.45593999997E+02  0.45594000000E+02  0.51100000000E-03 0. -1.
    9900012    2    1    2    0    0 -0.63571973310E+00 -0.56079308449E+00  0.82124244298E+00  0.90007717147E+02  0.89999978213E+02 0.  0.
         12    1    1    2    0    0  0.63571973310E+00  0.56079308449E+00 -0.82124244298E+00  0.11802828529E+01  0.00000000000E+00 0. -1.
         11    1    3    3    0    0  0.39950220345E+01 -0.11450252180E+01 -0.18748599633E+02  0.19203678613E+02  0.51100000000E-03 0. -1.
        -11    1    3    3    0    0 -0.17198659003E+02  0.19138091705E+02 -0.14867608718E+02  0.29717103070E+02  0.51100000000E-03 0.  1.
         12    1    3    3    0    0  0.12567917235E+02 -0.18553859571E+02  0.34437450794E+02  0.41086935464E+02  0.00000000000E+00 0. -1.
</event>
<event>
 7    1  0.3568207E-015  0.9000757E+02  0.7816164E-02  0.1186339E+00
        -11   -1    0    0    0    0  0.00000000000E+00  0.00000000000E+00  0.45593999997E+02  0.45594000000E+02  0.51100000000E-03 0.  1.
         11   -1    0    0    0    0 -0.00000000000E+00 -0.00000000000E+00 -0.45593999997E+02  0.45594000000E+02  0.51100000000E-03 0. -1.
    9900012    2    1    2    0    0  0.17117802641E+00 -0.19493571217E+00  0.11515714221E+01  0.90007568473E+02  0.89999827577E+02 0.  0.
         12    1    1    2    0    0 -0.17117802641E+00  0.19493571217E+00 -0.11515714221E+01  0.11804315265E+01  0.00000000000E+00 0. -1.
         11    1    3    3    0    0  0.31256450142E+02 -0.23613108591E+02  0.63632521514E+01  0.39686717564E+02  0.51100000000E-03 0. -1.
        -11    1    3    3    0    0 -0.28077786665E+01 -0.18098042893E+01  0.91921208782E+01  0.97802913610E+01  0.51100000000E-03 0.  1.
        -12    1    3    3    0    0 -0.28277493449E+02  0.25227977168E+02 -0.14403801608E+02  0.40540559548E+02  0.00000000000E+00 0.  1.
</event>
<event>
 7    1  0.3568207E-015  0.9000773E+02  0.7816164E-02  0.1186339E+00
        -11   -1    0    0    0    0  0.00000000000E+00  0.00000000000E+00  0.45593999997E+02  0.45594000000E+02  0.51100000000E-03 0.  1.
         11   -1    0    0    0    0 -0.00000000000E+00 -0.00000000000E+00 -0.45593999997E+02  0.45594000000E+02  0.51100000000E-03 0. -1.
    9900012    2    1    2    0    0  0.14137921510E-01 -0.22831393377E+00  0.11578911186E+01  0.90007729279E+02  0.89999990505E+02 0.  0.
         12    1    1    2    0    0 -0.14137921510E-01  0.22831393377E+00 -0.11578911186E+01  0.11802707213E+01  0.00000000000E+00 0. -1.
         11    1    3    3    0    0 -0.90777400561E+01  0.49477863653E+01  0.29521149322E+01  0.10751787632E+02  0.51100000000E-03 0. -1.
        -11    1    3    3    0    0  0.29483111105E+02  0.25746739676E+01  0.29054467683E+02  0.41473423768E+02  0.51100000000E-03 0.  1.
         12    1    3    3    0    0 -0.20391233127E+02 -0.77507742668E+01 -0.30848691497E+02  0.37782517879E+02  0.00000000000E+00 0. -1.
</event>
<event>
 7    1  0.3568207E-015  0.9000774E+02  0.7816164E-02  0.1186339E+00
        -11   -1    0    0    0    0  0.00000000000E+00  0.00000000000E+00  0.45593999997E+02  0.45594000000E+02  0.51100000000E-03 0.  1.
         11   -1    0    0    0    0 -0.00000000000E+00 -0.00000000000E+00 -0.45593999997E+02  0.45594000000E+02  0.51100000000E-03 0. -1.
    9900012    2    1    2    0    0 -0.41203496305E+00 -0.10814838645E+01  0.23157762383E+00  0.90007742250E+02  0.90000003648E+02 0.  0.
         12    1    1    2    0    0  0.41203496305E+00  0.10814838645E+01 -0.23157762383E+00  0.11802577497E+01  0.00000000000E+00 0. -1.
         11    1    3    3    0    0 -0.17131847214E+01  0.52819910008E+01  0.49128499122E+01  0.74142110398E+01  0.51100000000E-03 0. -1.
        -11    1    3    3    0    0 -0.27744163921E+02  0.56706302728E+01  0.26160339430E+02  0.38552017311E+02  0.51100000000E-03 0.  1.
         12    1    3    3    0    0  0.29045313680E+02 -0.12034105138E+02 -0.30841611718E+02  0.44041513900E+02  0.00000000000E+00 0. -1.
</event>
<event>
 7    1  0.3568207E-015  0.9000767E+02  0.7816164E-02  0.1186339E+00
        -11   -1    0    0    0    0  0.00000000000E+00  0.00000000000E+00  0.45593999997E+02  0.45594000000E+02  0.51100000000E-03 0.  1.
         11   -1    0    0    0    0 -0.00000000000E+00 -0.00000000000E+00 -0.45593999997E+02  0.45594000000E+02  0.51100000000E-03 0. -1.
    9900012    2    1    2    0    0 -0.34123651889E+00 -0.78115059808E+00  0.81641715181E+00  0.90007671408E+02  0.89999931871E+02 0.  0.
         12    1    1    2    0    0  0.34123651889E+00  0.78115059808E+00 -0.81641715181E+00  0.11803285917E+01  0.00000000000E+00 0. -1.
         11    1    3    3    0    0  0.79277833625E+01 -0.66779935189E+01 -0.35724319077E+02  0.37197746172E+02  0.51100000000E-03 0. -1.
        -11    1    3    3    0    0  0.58987314199E+01 -0.90805580770E+01 -0.29848612791E-01  0.10828317439E+02  0.51100000000E-03 0.  1.
        -12    1    3    3    0    0 -0.14167751301E+02  0.14977400998E+02  0.36570584842E+02  0.41981607797E+02  0.00000000000E+00 0.  1.
</event>
<event>
 7    1  0.3568207E-015  0.9000772E+02  0.7816164E-02  0.1186339E+00
        -11   -1    0    0    0    0  0.00000000000E+00  0.00000000000E+00  0.45593999997E+02  0.45594000000E+02  0.51100000000E-03 0.  1.
         11   -1    0    0    0    0 -0.00000000000E+00 -0.00000000000E+00 -0.45593999997E+02  0.45594000000E+02  0.51100000000E-03 0. -1.
    9900012    2    1    2    0    0  0.10883174093E+00  0.79223104531E+00  0.86809626691E+00  0.90007718040E+02  0.89999979118E+02 0.  0.
         12    1    1    2    0    0 -0.10883174093E+00 -0.79223104531E+00 -0.86809626691E+00  0.11802819602E+01  0.00000000000E+00 0. -1.
         11    1    3    3    0    0  0.20243895189E+01  0.32484604673E+00 -0.82199187963E+01  0.84717615144E+01  0.51100000000E-03 0. -1.
        -11    1    3    3    0    0 -0.17622226855E+01 -0.21819358862E+02 -0.29643343333E+02  0.36849934250E+02  0.51100000000E-03 0.  1.
         12    1    3    3    0    0 -0.15333509244E+00  0.22286743861E+02  0.38731358397E+02  0.44686022276E+02  0.00000000000E+00 0. -1.
</event>
<event>
 7    1  0.3568207E-015  0.9000786E+02  0.7816164E-02  0.1186339E+00
        -11   -1    0    0    0    0  0.00000000000E+00  0.00000000000E+00  0.45593999997E+02  0.45594000000E+02  0.51100000000E-03 0. -1.
         11   -1    0    0    0    0 -0.00000000000E+00 -0.00000000000E+00 -0.45593999997E+02  0.45594000000E+02  0.51100000000E-03 0.  1.
    9900012    2    1    2    0    0 -0.74212989049E-01  0.74310736203E+00 -0.91378868661E+00  0.90007861922E+02  0.90000124899E+02 0.  0.
         12    1    1    2    0    0  0.74212989049E-01 -0.74310736203E+00  0.91378868661E+00  0.11801380779E+01  0.00000000000E+00 0. -1.
         11    1    3    3    0    0  0.35278789974E+01  0.72433436831E+01  0.12418308811E+01  0.81519385504E+01  0.51100000000E-03 0. -1.
        -11    1    3    3    0    0 -0.41838789635E+02  0.39501066129E+01 -0.36951218532E+01  0.42186983610E+02  0.51100000000E-03 0.  1.
         12    1    3    3    0    0  0.38236697648E+02 -0.10450342934E+02  0.15395022855E+01  0.39668939761E+02  0.00000000000E+00 0. -1.
</event>
<event>
 7    1  0.3568207E-015  0.9000775E+02  0.7816164E-02  0.1186339E+00
        -11   -1    0    0    0    0  0.00000000000E+00  0.00000000000E+00  0.45593999997E+02  0.45594000000E+02  0.51100000000E-03 0. -1.
         11   -1    0    0    0    0 -0.00000000000E+00 -0.00000000000E+00 -0.45593999997E+02  0.45594000000E+02  0.51100000000E-03 0.  1.
    9900012    2    1    2    0    0  0.32381131971E+00 -0.18189529029E+00 -0.11202906072E+01  0.90007749725E+02  0.90000011221E+02 0.  0.
         12    1    1    2    0    0 -0.32381131971E+00  0.18189529029E+00  0.11202906072E+01  0.11802502751E+01  0.00000000000E+00 0. -1.
         11    1    3    3    0    0 -0.36309006550E+02 -0.14891190657E+01  0.15117196090E+02  0.39358494002E+02  0.51100000000E-03 0. -1.
        -11    1    3    3    0    0  0.91787716854E+00 -0.76416313412E+01  0.39586481290E+01  0.86549363558E+01  0.51100000000E-03 0.  1.
        -12    1    3    3    0    0  0.35714940701E+02  0.89488551167E+01 -0.20196134826E+02  0.41994319367E+02  0.00000000000E+00 0.  1.
</event>
<event>
 7    1  0.3568207E-015  0.9000773E+02  0.7816164E-02  0.1186339E+00
        -11   -1    0    0    0    0  0.00000000000E+00  0.00000000000E+00  0.45593999997E+02  0.45594000000E+02  0.51100000000E-03 0.  1.
         11   -1    0    0    0    0 -0.00000000000E+00 -0.00000000000E+00 -0.45593999997E+02  0.45594000000E+02  0.51100000000E-03 0. -1.
    9900012    2    1    2    0    0 -0.31168552929E+00  0.86024206283E+00  0.74556230330E+00  0.90007734172E+02  0.89999995463E+02 0.  0.
         12    1    1    2    0    0  0.31168552929E+00 -0.86024206283E+00 -0.74556230330E+00  0.11802658277E+01  0.00000000000E+00 0. -1.
         11    1    3    3    0    0 -0.84593589413E+01  0.99997176155E+00  0.39971504020E+01  0.94094584764E+01  0.51100000000E-03 0. -1.
        -11    1    3    3    0    0  0.20333831924E+02  0.33792274118E+02  0.12330881086E+02  0.41321097994E+02  0.51100000000E-03 0.  1.
         12    1    3    3    0    0 -0.12186158512E+02 -0.33932003817E+02 -0.15582469185E+02  0.39277177702E+02  0.00000000000E+00 0. -1.
</event>
<event>
 7    1  0.3568207E-015  0.9000777E+02  0.7816164E-02  0.1186339E+00
        -11   -1    0    0    0    0  0.00000000000E+00  0.00000000000E+00  0.45593999997E+02  0.45594000000E+02  0.51100000000E-03 0. -1.
         11   -1    0    0    0    0 -0.00000000000E+00 -0.00000000000E+00 -0.45593999997E+02  0.45594000000E+02  0.51100000000E-03 0.  1.
    9900012    2    1    2    0    0 -0.73863436826E+00 -0.88912271976E+00  0.23839276666E+00  0.90007766527E+02  0.90000028245E+02 0.  0.
         12    1    1    2    0    0  0.73863436826E+00  0.88912271976E+00 -0.23839276666E+00  0.11802334735E+01  0.00000000000E+00 0. -1.
         11    1    3    3    0    0  0.15896663001E+02  0.14543267848E+02 -0.22894339645E+02  0.31438214362E+02  0.51100000000E-03 0. -1.
        -11    1    3    3    0    0 -0.47338967513E+01  0.16609667765E+02 -0.45285963109E-01  0.17271157830E+02  0.51100000000E-03 0.  1.
        -12    1    3    3    0    0 -0.11901400618E+02 -0.32042058332E+02  0.23178018375E+02  0.41298394334E+02  0.00000000000E+00 0.  1.
</event>
<event>
 7    1  0.3568207E-015  0.9000765E+02  0.7816164E-02  0.1186339E+00
        -11   -1    0    0    0    0  0.00000000000E+00  0.00000000000E+00  0.45593999997E+02  0.45594000000E+02  0.51100000000E-03 0.  1.
         11   -1    0    0    0    0 -0.00000000000E+00 -0.00000000000E+00 -0.45593999997E+02  0.45594000000E+02  0.51100000000E-03 0. -1.
    9900012    2    1    2    0    0  0.10743503315E+01  0.26693914512E+00 -0.40954960247E+00  0.90007654280E+02  0.89999914516E+02 0.  0.
         12    1    1    2    0    0 -0.10743503315E+01 -0.26693914512E+00  0.40954960247E+00  0.11803457200E+01  0.00000000000E+00 0. -1.
         11    1    3    3    0    0  0.70136541558E+01 -0.31520644026E+01 -0.41885589259E+02  0.42585554387E+02  0.51100000000E-03 0. -1.
        -11    1    3    3    0    0  0.14108248236E+01  0.79080254142E+01  0.40086076580E+01  0.89775402116E+01  0.51100000000E-03 0.  1.
        -12    1    3    3    0    0 -0.73501286479E+01 -0.44890218664E+01  0.37467431999E+02  0.38444559681E+02  0.00000000000E+00 0.  1.
</event>
<event>
 7    1  0.3568207E-015  0.9000782E+02  0.7816164E-02  0.1186339E+00
        -11   -1    0    0    0    0  0.00000000000E+00  0.00000000000E+00  0.45593999997E+02  0.45594000000E+02  0.51100000000E-03 0. -1.
         11   -1    0    0    0    0 -0.00000000000E+00 -0.00000000000E+00 -0.45593999997E+02  0.45594000000E+02  0.51100000000E-03 0.  1.
    9900012    2    1    2    0    0  0.43021484806E+00  0.50781640678E+00 -0.97461449742E+00  0.90007815380E+02  0.90000077743E+02 0.  0.
         12    1    1    2    0    0 -0.43021484806E+00 -0.50781640678E+00  0.97461449742E+00  0.11801846199E+01  0.00000000000E+00 0. -1.
         11    1    3    3    0    0 -0.28369409588E+02 -0.81283408997E+01 -0.30395207662E+02  0.42364631183E+02  0.51100000000E-03 0. -1.
        -11    1    3    3    0    0 -0.27895152425E+01  0.36634581854E+01  0.77475590580E+01  0.90126018875E+01  0.51100000000E-03 0.  1.
        -12    1    3    3    0    0  0.31589139679E+02  0.49726991211E+01  0.21673034107E+02  0.38630582310E+02  0.00000000000E+00 0.  1.
</event>
<event>
 7    1  0.3568207E-015  0.9000777E+02  0.7816164E-02  0.1186339E+00
        -11   -1    0    0    0    0  0.00000000000E+00  0.00000000000E+00  0.45593999997E+02  0.45594000000E+02  0.51100000000E-03 0.  1.
         11   -1    0    0    0    0 -0.00000000000E+00 -0.00000000000E+00 -0.45593999997E+02  0.45594000000E+02  0.51100000000E-03 0. -1.
    9900012    2    1    2    0    0  0.16257986759E+00  0.12613058250E+00  0.11621504845E+01  0.90007773375E+02  0.90000035184E+02 0.  0.
         12    1    1    2    0    0 -0.16257986759E+00 -0.12613058250E+00 -0.11621504845E+01  0.11802266248E+01  0.00000000000E+00 0. -1.
         11    1    3    3    0    0  0.29719248596E+02 -0.59015567318E+01 -0.24404926418E+02  0.38905816309E+02  0.51100000000E-03 0. -1.
        -11    1    3    3    0    0  0.84259642464E+00  0.11794111376E+02  0.15336220824E+01  0.11923213864E+02  0.51100000000E-03 0.  1.
        -12    1    3    3    0    0 -0.30399265153E+02 -0.57664240618E+01  0.24033454820E+02  0.39178743202E+02  0.00000000000E+00 0.  1.
</event>
<event>
 7    1  0.3568207E-015  0.9000780E+02  0.7816164E-02  0.1186339E+00
        -11   -1    0    0    0    0  0.00000000000E+00  0.00000000000E+00  0.45593999997E+02  0.45594000000E+02  0.51100000000E-03 0. -1.
         11   -1    0    0    0    0 -0.00000000000E+00 -0.00000000000E+00 -0.45593999997E+02  0.45594000000E+02  0.51100000000E-03 0.  1.
    9900012    2    1    2    0    0  0.32391054664E-01  0.10091796373E+01  0.61105414959E+00  0.90007796672E+02  0.90000058788E+02 0.  0.
         12    1    1    2    0    0 -0.32391054664E-01 -0.10091796373E+01 -0.61105414959E+00  0.11802033276E+01  0.00000000000E+00 0. -1.
         11    1    3    3    0    0  0.21200668487E+01 -0.58671555006E+01  0.47001871007E+01  0.78108870273E+01  0.51100000000E-03 0. -1.
        -11    1    3    3    0    0  0.20277403240E+02 -0.31526843207E+02  0.75681489654E+00  0.37492501834E+02  0.51100000000E-03 0.  1.
         12    1    3    3    0    0 -0.22365079034E+02  0.38403178345E+02 -0.48459478476E+01  0.44704407811E+02  0.00000000000E+00 0. -1.
</event>
<event>
 7    1  0.3568207E-015  0.9000773E+02  0.7816164E-02  0.1186339E+00
        -11   -1    0    0    0    0  0.00000000000E+00  0.00000000000E+00  0.45593999997E+02  0.45594000000E+02  0.51100000000E-03 0.  1.
         11   -1    0    0    0    0 -0.00000000000E+00 -0.00000000000E+00 -0.45593999997E+02  0.45594000000E+02  0.51100000000E-03 0. -1.
    9900012    2    1    2    0    0 -0.51619202129E+00 -0.10613225267E+01 -0.13133277199E-01  0.90007732153E+02  0.89999993417E+02 0.  0.
         12    1    1    2    0    0  0.51619202129E+00  0.10613225267E+01  0.13133277199E-01  0.11802678474E+01  0.00000000000E+00 0. -1.
         11    1    3    3    0    0 -0.70777825857E+01  0.47713915218E+01 -0.14691439421E+01  0.86613836983E+01  0.51100000000E-03 0. -1.
        -11    1    3    3    0    0  0.38026101353E+01 -0.43414239274E+02 -0.90432854413E+00  0.43589836269E+02  0.51100000000E-03 0.  1.
         12    1    3    3    0    0  0.27589804291E+01  0.37581525225E+02  0.23603392090E+01  0.37756512186E+02  0.00000000000E+00 0. -1.
</event>
<event>
 7    1  0.3568207E-015  0.9000754E+02  0.7816164E-02  0.1186339E+00
        -11   -1    0    0    0    0  0.00000000000E+00  0.00000000000E+00  0.45593999997E+02  0.45594000000E+02  0.51100000000E-03 0.  1.
         11   -1    0    0    0    0 -0.00000000000E+00 -0.00000000000E+00 -0.45593999997E+02  0.45594000000E+02  0.51100000000E-03 0. -1.
    9900012    2    1    2    0    0  0.44789210900E+00  0.10671135819E+01 -0.23267802276E+00  0.90007543393E+02  0.89999802166E+02 0.  0.
         12    1    1    2    0    0 -0.44789210900E+00 -0.10671135819E+01  0.23267802276E+00  0.11804566066E+01  0.00000000000E+00 0. -1.
         11    1    3    3    0    0 -0.10872161147E+02  0.15502161144E+02  0.37007013409E+01  0.19292902291E+02  0.51100000000E-03 0. -1.
        -11    1    3    3    0    0  0.22707838284E+02  0.10028776829E+02  0.22087739095E+02  0.33227857331E+02  0.51100000000E-03 0.  1.
         12    1    3    3    0    0 -0.11387785028E+02 -0.24463824391E+02 -0.26021118459E+02  0.37486783771E+02  0.00000000000E+00 0. -1.
</event>
<event>
 7    1  0.3568207E-015  0.9000776E+02  0.7816164E-02  0.1186339E+00
        -11   -1    0    0    0    0  0.00000000000E+00  0.00000000000E+00  0.45593999997E+02  0.45594000000E+02  0.51100000000E-03 0. -1.
         11   -1    0    0    0    0 -0.00000000000E+00 -0.00000000000E+00 -0.45593999997E+02  0.45594000000E+02  0.51100000000E-03 0.  1.
    9900012    2    1    2    0    0 -0.22543060326E+00 -0.24564319284E+00 -0.11321739876E+01  0.90007755333E+02  0.90000016904E+02 0.  0.
         12    1    1    2    0    0  0.22543060326E+00  0.24564319284E+00  0.11321739876E+01  0.11802446667E+01  0.00000000000E+00 0. -1.
         11    1    3    3    0    0  0.18163162572E+02 -0.31984336641E+02 -0.29161282426E+01  0.36897182402E+02  0.51100000000E-03 0. -1.
        -11    1    3    3    0    0 -0.36822161862E+01 -0.41315669273E+01 -0.10979660060E+02  0.12295588502E+02  0.51100000000E-03 0.  1.
        -12    1    3    3    0    0 -0.14706376989E+02  0.35870260376E+02  0.12763614315E+02  0.40814984429E+02  0.00000000000E+00 0.  1.
</event>
<event>
 7    1  0.3568207E-015  0.9000735E+02  0.7816164E-02  0.1186340E+00
        -11   -1    0    0    0    0  0.00000000000E+00  0.00000000000E+00  0.45593999997E+02  0.45594000000E+02  0.51100000000E-03 0.  1.
         11   -1    0    0    0    0 -0.00000000000E+00 -0.00000000000E+00 -0.45593999997E+02  0.45594000000E+02  0.51100000000E-03 0. -1.
    9900012    2    1    2    0    0  0.66883931221E+00  0.66246674893E+00  0.71254661716E+00  0.90007351492E+02  0.89999607730E+02 0.  0.
         12    1    1    2    0    0 -0.66883931221E+00 -0.66246674893E+00 -0.71254661716E+00  0.11806485085E+01  0.00000000000E+00 0. -1.
         11    1    3    3    0    0  0.81808323549E+00 -0.17681930231E+02 -0.30925155368E+01  0.17968961280E+02  0.51100000000E-03 0. -1.
        -11    1    3    3    0    0  0.24343089936E+02 -0.61371528217E+01  0.21587329307E+02  0.33109869514E+02  0.51100000000E-03 0.  1.
         12    1    3    3    0    0 -0.24492333859E+02  0.24481549802E+02 -0.17782267153E+02  0.38928520697E+02  0.00000000000E+00 0. -1.
</event>
<event>
 7    1  0.3568207E-015  0.9000770E+02  0.7816164E-02  0.1186339E+00
        -11   -1    0    0    0    0  0.00000000000E+00  0.00000000000E+00  0.45593999997E+02  0.45594000000E+02  0.51100000000E-03 0.  1.
         11   -1    0    0    0    0 -0.00000000000E+00 -0.00000000000E+00 -0.45593999997E+02  0.45594000000E+02  0.51100000000E-03 0. -1.
    9900012    2    1    2    0    0 -0.34231178607E-01  0.11762960725E+01  0.90898288165E-01  0.90007700579E+02  0.89999961427E+02 0.  0.
         12    1    1    2    0    0  0.34231178607E-01 -0.11762960725E+01 -0.90898288165E-01  0.11802994208E+01  0.00000000000E+00 0. -1.
         11    1    3    3    0    0  0.27910315778E+01 -0.29922356582E+01  0.51284818852E+00  0.41238750016E+01  0.51100000000E-03 0. -1.
        -11    1    3    3    0    0 -0.11614552084E+02  0.10346829126E+02  0.40600322230E+02  0.43478050307E+02  0.51100000000E-03 0.  1.
         12    1    3    3    0    0  0.87892893280E+01 -0.61782973948E+01 -0.41022272130E+02  0.42405775271E+02  0.00000000000E+00 0. -1.
</event>
<event>
 7    1  0.3568207E-015  0.9000766E+02  0.7816164E-02  0.1186339E+00
        -11   -1    0    0    0    0  0.00000000000E+00  0.00000000000E+00  0.45593999997E+02  0.45594000000E+02  0.51100000000E-03 0.  1.
         11   -1    0    0    0    0 -0.00000000000E+00 -0.00000000000E+00 -0.45593999997E+02  0.45594000000E+02  0.51100000000E-03 0. -1.
    9900012    2    1    2    0    0 -0.85957459072E+00  0.79890240882E+00 -0.12686624273E+00  0.90007657431E+02  0.89999917709E+02 0.  0.
         12    1    1    2    0    0  0.85957459072E+00 -0.79890240882E+00  0.12686624273E+00  0.11803425687E+01  0.00000000000E+00 0. -1.
         11    1    3    3    0    0  0.83611366305E+01 -0.12713772764E+02 -0.16649799985E+01  0.15307540048E+02  0.51100000000E-03 0. -1.
        -11    1    3    3    0    0  0.29441790463E+02 -0.29493363228E+01  0.11103542061E+02  0.31603896231E+02  0.51100000000E-03 0.  1.
         12    1    3    3    0    0 -0.38662501684E+02  0.16462011496E+02 -0.95654283056E+01  0.43096221153E+02  0.00000000000E+00 0. -1.
</event>
<event>
 7    1  0.3568207E-015  0.9000772E+02  0.7816164E-02  0.1186339E+00
        -11   -1    0    0    0    0  0.00000000000E+00  0.00000000000E+00  0.45593999997E+02  0.45594000000E+02  0.51100000000E-03 0. -1.
         11   -1    0    0    0    0 -0.00000000000E+00 -0.00000000000E+00 -0.45593999997E+02  0.45594000000E+02  0.51100000000E-03 0.  1.
    9900012    2    1    2    0    0 -0.21100628525E+00 -0.93088192895E+00  0.69425622660E+00  0.90007721844E+02  0.89999982972E+02 0.  0.
         12    1    1    2    0    0  0.21100628525E+00  0.93088192895E+00 -0.69425622660E+00  0.11802781563E+01  0.00000000000E+00 0. -1.
         11    1    3    3    0    0 -0.19188617520E+02  0.28510313194E+02  0.19215432791E+02  0.39373517221E+02  0.51100000000E-03 0. -1.
        -11    1    3    3    0    0  0.68849446484E-01  0.56470842718E+01 -0.72931066811E+01  0.92240829540E+01  0.51100000000E-03 0.  1.
        -12    1    3    3    0    0  0.18908761789E+02 -0.35088279395E+02 -0.11228069884E+02  0.41410121668E+02  0.00000000000E+00 0.  1.
</event>
<event>
 7    1  0.3568207E-015  0.9000778E+02  0.7816164E-02  0.1186339E+00
        -11   -1    0    0    0    0  0.00000000000E+00  0.00000000000E+00  0.45593999997E+02  0.45594000000E+02  0.51100000000E-03 0. -1.
         11   -1    0    0    0    0 -0.00000000000E+00 -0.00000000000E+00 -0.45593999997E+02  0.45594000000E+02  0.51100000000E-03 0.  1.
    9900012    2    1    2    0    0 -0.74480543434E-01  0.11527107932E+01 -0.24215474411E+00  0.90007776104E+02  0.90000037949E+02 0.  0.
         12    1    1    2    0    0  0.74480543434E-01 -0.11527107932E+01  0.24215474411E+00  0.11802238958E+01  0.00000000000E+00 0. -1.
         11    1    3    3    0    0 -0.10652424212E+02  0.15397160784E+00 -0.14716082977E+00  0.10654553272E+02  0.51100000000E-03 0. -1.
        -11    1    3    3    0    0  0.25095740020E+00 -0.35824170800E+02 -0.14276459368E+02  0.38564899656E+02  0.51100000000E-03 0.  1.
         12    1    3    3    0    0  0.10326986269E+02  0.36822909985E+02  0.14181465454E+02  0.40788323177E+02  0.00000000000E+00 0. -1.
</event>
<event>
 7    1  0.3568207E-015  0.9000773E+02  0.7816164E-02  0.1186339E+00
        -11   -1    0    0    0    0  0.00000000000E+00  0.00000000000E+00  0.45593999997E+02  0.45594000000E+02  0.51100000000E-03 0.  1.
         11   -1    0    0    0    0 -0.00000000000E+00 -0.00000000000E+00 -0.45593999997E+02  0.45594000000E+02  0.51100000000E-03 0. -1.
    9900012    2    1    2    0    0 -0.23641362244E+00 -0.38155085697E+00  0.10915921480E+01  0.90007726356E+02  0.89999987544E+02 0.  0.
         12    1    1    2    0    0  0.23641362244E+00  0.38155085697E+00 -0.10915921480E+01  0.11802736441E+01  0.00000000000E+00 0. -1.
         11    1    3    3    0    0  0.37471432725E+02  0.24818086680E+01 -0.99537354581E+01  0.38850283070E+02  0.51100000000E-03 0. -1.
        -11    1    3    3    0    0  0.35585398158E+01  0.59040837023E+01 -0.16746529836E+01  0.70940730797E+01  0.51100000000E-03 0.  1.
        -12    1    3    3    0    0 -0.41266386164E+02 -0.87674432273E+01  0.12719980590E+02  0.44063370206E+02  0.00000000000E+00 0.  1.
</event>
<event>
 7    1  0.3568207E-015  0.9000792E+02  0.7816164E-02  0.1186339E+00
        -11   -1    0    0    0    0  0.00000000000E+00  0.00000000000E+00  0.45593999997E+02  0.45594000000E+02  0.51100000000E-03 0. -1.
         11   -1    0    0    0    0 -0.00000000000E+00 -0.00000000000E+00 -0.45593999997E+02  0.45594000000E+02  0.51100000000E-03 0.  1.
    9900012    2    1    2    0    0  0.56766743492E-01 -0.74039782452E+00 -0.91715152473E+00  0.90007924443E+02  0.90000188245E+02 0.  0.
         12    1    1    2    0    0 -0.56766743492E-01  0.74039782452E+00  0.91715152473E+00  0.11800755573E+01  0.00000000000E+00 0. -1.
         11    1    3    3    0    0  0.42451292922E+02  0.20767344323E+01 -0.48201423521E+01  0.42774511911E+02  0.51100000000E-03 0. -1.
        -11    1    3    3    0    0 -0.54022836880E+01  0.21098254145E+01  0.77908460300E+01  0.97125338841E+01  0.51100000000E-03 0.  1.
        -12    1    3    3    0    0 -0.36992242491E+02 -0.49269576713E+01 -0.38878552026E+01  0.37520878647E+02  0.00000000000E+00 0.  1.
</event>
<event>
 7    1  0.3568207E-015  0.9000775E+02  0.7816164E-02  0.1186339E+00
        -11   -1    0    0    0    0  0.00000000000E+00  0.00000000000E+00  0.45593999997E+02  0.45594000000E+02  0.51100000000E-03 0.  1.
         11   -1    0    0    0    0 -0.00000000000E+00 -0.00000000000E+00 -0.45593999997E+02  0.45594000000E+02  0.51100000000E-03 0. -1.
    9900012    2    1    2    0    0  0.23551612512E+00  0.86532310993E+00  0.76729792103E+00  0.90007746625E+02  0.90000008080E+02 0.  0.
         12    1    1    2    0    0 -0.23551612512E+00 -0.86532310993E+00 -0.76729792103E+00  0.11802533751E+01  0.00000000000E+00 0. -1.
         11    1    3    3    0    0 -0.37574887432E+02 -0.15365839962E+02 -0.16779871821E+02  0.43926589919E+02  0.51100000000E-03 0. -1.
        -11    1    3    3    0    0  0.48619350196E+01  0.17853053408E+01  0.67728344990E+01  0.85262544360E+01  0.51100000000E-03 0.  1.
        -12    1    3    3    0    0  0.32948468538E+02  0.14445857731E+02  0.10774335243E+02  0.37554902270E+02  0.00000000000E+00 0.  1.
</event>
<event>
 7    1  0.3568207E-015  0.9000769E+02  0.7816164E-02  0.1186339E+00
        -11   -1    0    0    0    0  0.00000000000E+00  0.00000000000E+00  0.45593999997E+02  0.45594000000E+02  0.51100000000E-03 0.  1.
         11   -1    0    0    0    0 -0.00000000000E+00 -0.00000000000E+00 -0.45593999997E+02  0.45594000000E+02  0.51100000000E-03 0. -1.
    9900012    2    1    2    0    0 -0.47295643978E+00 -0.85365877374E+00  0.66385422228E+00  0.90007693462E+02  0.89999954215E+02 0.  0.
         12    1    1    2    0    0  0.47295643978E+00  0.85365877374E+00 -0.66385422228E+00  0.11803065383E+01  0.00000000000E+00 0. -1.
         11    1    3    3    0    0 -0.44776027543E+01  0.53358115276E+01  0.21033157598E+01  0.72762454968E+01  0.51100000000E-03 0. -1.
        -11    1    3    3    0    0  0.39349043096E+02  0.71414311347E+01  0.13354969154E+02  0.42162808642E+02  0.51100000000E-03 0.  1.
         12    1    3    3    0    0 -0.35344396782E+02 -0.13330901436E+02 -0.14794430692E+02  0.40568639322E+02  0.00000000000E+00 0. -1.
</event>
<event>
 7    1  0.3568207E-015  0.9000773E+02  0.7816164E-02  0.1186339E+00
        -11   -1    0    0    0    0  0.00000000000E+00  0.00000000000E+00  0.45593999997E+02  0.45594000000E+02  0.51100000000E-03 0. -1.
         11   -1    0    0    0    0 -0.00000000000E+00 -0.00000000000E+00 -0.45593999997E+02  0.45594000000E+02  0.51100000000E-03 0.  1.
    9900012    2    1    2    0    0 -0.89704754470E+00 -0.72438133382E+00  0.25222688517E+00  0.90007728414E+02  0.89999989629E+02 0.  0.
         12    1    1    2    0    0  0.89704754470E+00  0.72438133382E+00 -0.25222688517E+00  0.11802715856E+01  0.00000000000E+00 0. -1.
         11    1    3    3    0    0 -0.37740330689E+01 -0.57545372123E+01  0.73865015560E+01  0.10095465796E+02  0.51100000000E-03 0. -1.
        -11    1    3    3    0    0 -0.27111912041E+02 -0.14081716961E+02 -0.25585431647E+02  0.39849276530E+02  0.51100000000E-03 0.  1.
         12    1    3    3    0    0  0.29988897565E+02  0.19111872840E+02  0.18451156976E+02  0.40062986089E+02  0.00000000000E+00 0. -1.
</event>
<event>
 7    1  0.3568207E-015  0.9000770E+02  0.7816164E-02  0.1186339E+00
        -11   -1    0    0    0    0  0.00000000000E+00  0.00000000000E+00  0.45593999997E+02  0.45594000000E+02  0.51100000000E-03 0. -1.
         11   -1    0    0    0    0 -0.00000000000E+00 -0.00000000000E+00 -0.45593999997E+02  0.45594000000E+02  0.51100000000E-03 0.  1.
    9900012    2    1    2    0    0 -0.29983274165E+00 -0.18946525785E+00 -0.11257480371E+01  0.90007701140E+02  0.89999961995E+02 0.  0.
         12    1    1    2    0    0  0.29983274165E+00  0.18946525785E+00  0.11257480371E+01  0.11802988604E+01  0.00000000000E+00 0. -1.
         11    1    3    3    0    0  0.10028556581E+02  0.24851489231E+01  0.63284001496E+01  0.12115963064E+02  0.51100000000E-03 0. -1.
        -11    1    3    3    0    0  0.91639172670E+00  0.27234291215E+02 -0.28656587043E+02  0.39544233120E+02  0.51100000000E-03 0.  1.
         12    1    3    3    0    0 -0.11244781049E+02 -0.29908905396E+02  0.21202438857E+02  0.38347504956E+02  0.00000000000E+00 0. -1.
</event>
<event>
 7    1  0.3568207E-015  0.9000774E+02  0.7816164E-02  0.1186339E+00
        -11   -1    0    0    0    0  0.00000000000E+00  0.00000000000E+00  0.45593999997E+02  0.45594000000E+02  0.51100000000E-03 0. -1.
         11   -1    0    0    0    0 -0.00000000000E+00 -0.00000000000E+00 -0.45593999997E+02  0.45594000000E+02  0.51100000000E-03 0.  1.
    9900012    2    1    2    0    0  0.78542107446E+00 -0.75951786859E+00 -0.44637619363E+00  0.90007743518E+02  0.90000004932E+02 0.  0.
         12    1    1    2    0    0 -0.78542107446E+00  0.75951786859E+00  0.44637619363E+00  0.11802564819E+01  0.00000000000E+00 0. -1.
         11    1    3    3    0    0  0.15425097720E+02  0.23131577375E+02  0.22407986410E+02  0.35708841576E+02  0.51100000000E-03 0. -1.
        -11    1    3    3    0    0 -0.35866165299E+01  0.11752553375E+01  0.10487523400E+02  0.11145994373E+02  0.51100000000E-03 0.  1.
        -12    1    3    3    0    0 -0.11053060115E+02 -0.25066350581E+02 -0.33341886003E+02  0.43152907569E+02  0.00000000000E+00 0.  1.
</event>
<event>
 7    1  0.3568207E-015  0.9000771E+02  0.7816164E-02  0.1186339E+00
        -11   -1    0    0    0    0  0.00000000000E+00  0.00000000000E+00  0.45593999997E+02  0.45594000000E+02  0.51100000000E-03 0. -1.
         11   -1    0    0    0    0 -0.00000000000E+00 -0.00000000000E+00 -0.45593999997E+02  0.45594000000E+02  0.51100000000E-03 0.  1.
    9900012    2    1    2    0    0 -0.26715985041E+00  0.97711092917E+00 -0.60577433218E+00  0.90007710758E+02  0.89999971740E+02 0.  0.
         12    1    1    2    0    0  0.26715985041E+00 -0.97711092917E+00  0.60577433218E+00  0.11802892421E+01  0.00000000000E+00 0. -1.
         11    1    3    3    0    0 -0.46774000615E+01  0.30045062136E+01 -0.20612776172E+01  0.59290804177E+01  0.51100000000E-03 0. -1.
        -11    1    3    3    0    0 -0.36477505406E+02 -0.17358881067E+02  0.48152132510E+00  0.40400136332E+02  0.51100000000E-03 0.  1.
         12    1    3    3    0    0  0.40887745617E+02  0.15331485783E+02  0.97398195992E+00  0.43678494008E+02  0.00000000000E+00 0. -1.
</event>
<event>
 7    1  0.3568207E-015  0.9000771E+02  0.7816164E-02  0.1186339E+00
        -11   -1    0    0    0    0  0.00000000000E+00  0.00000000000E+00  0.45593999997E+02  0.45594000000E+02  0.51100000000E-03 0.  1.
         11   -1    0    0    0    0 -0.00000000000E+00 -0.00000000000E+00 -0.45593999997E+02  0.45594000000E+02  0.51100000000E-03 0. -1.
    9900012    2    1    2    0    0 -0.25977998039E+00 -0.11426367471E+01 -0.14131398026E+00  0.90007714435E+02  0.89999975466E+02 0.  0.
         12    1    1    2    0    0  0.25977998039E+00  0.11426367471E+01  0.14131398026E+00  0.11802855650E+01  0.00000000000E+00 0. -1.
         11    1    3    3    0    0 -0.11586938778E+02  0.38602233091E+02  0.65270329546E+01  0.40828809796E+02  0.51100000000E-03 0. -1.
        -11    1    3    3    0    0 -0.48159871569E+01 -0.29839365849E+01  0.47981656267E+01  0.74242847117E+01  0.51100000000E-03 0.  1.
        -12    1    3    3    0    0  0.16143145955E+02 -0.36760933253E+02 -0.11466512562E+02  0.41754619928E+02  0.00000000000E+00 0.  1.
</event>
<event>
 7    1  0.3568207E-015  0.9000774E+02  0.7816164E-02  0.1186339E+00
        -11   -1    0    0    0    0  0.00000000000E+00  0.00000000000E+00  0.45593999997E+02  0.45594000000E+02  0.51100000000E-03 0. -1.
         11   -1    0    0    0    0 -0.00000000000E+00 -0.00000000000E+00 -0.45593999997E+02  0.45594000000E+02  0.51100000000E-03 0.  1.
    9900012    2    1    2    0    0 -0.52328129345E+00  0.10318301426E+01 -0.23350523686E+00  0.90007736703E+02  0.89999998027E+02 0.  0.
         12    1    1    2    0    0  0.52328129345E+00 -0.10318301426E+01  0.23350523686E+00  0.11802632972E+01  0.00000000000E+00 0. -1.
         11    1    3    3    0    0  0.59793199026E+01 -0.48882830873E+01 -0.87406836451E+01  0.11663924249E+02  0.51100000000E-03 0. -1.
        -11    1    3    3    0    0 -0.32254104832E+02  0.28761059457E+02  0.78111484072E+01  0.43915143850E+02  0.51100000000E-03 0.  1.
         12    1    3    3    0    0  0.25751503636E+02 -0.22840946227E+02  0.69603000107E+00  0.34428668604E+02  0.00000000000E+00 0. -1.
</event>
<event>
 7    1  0.3568207E-015  0.9000771E+02  0.7816164E-02  0.1186339E+00
        -11   -1    0    0    0    0  0.00000000000E+00  0.00000000000E+00  0.45593999997E+02  0.45594000000E+02  0.51100000000E-03 0. -1.
         11   -1    0    0    0    0 -0.00000000000E+00 -0.00000000000E+00 -0.45593999997E+02  0.45594000000E+02  0.51100000000E-03 0.  1.
    9900012    2    1    2    0    0 -0.73459227440E+00  0.82858907164E+00 -0.40852736011E+00  0.90007711788E+02  0.89999972784E+02 0.  0.
         12    1    1    2    0    0  0.73459227440E+00 -0.82858907164E+00  0.40852736011E+00  0.11802882119E+01  0.00000000000E+00 0. -1.
         11    1    3    3    0    0 -0.86122175721E+01 -0.16846851495E+02  0.31483824678E+02  0.36731701750E+02  0.51100000000E-03 0. -1.
        -11    1    3    3    0    0  0.35046026489E+01  0.79396840644E+00  0.85280698473E+01  0.92542207202E+01  0.51100000000E-03 0.  1.
        -12    1    3    3    0    0  0.43730226488E+01  0.16881472160E+02 -0.40420421885E+02  0.44021789318E+02  0.00000000000E+00 0.  1.
</event>
<event>
 7    1  0.3568207E-015  0.9000761E+02  0.7816164E-02  0.1186339E+00
        -11   -1    0    0    0    0  0.00000000000E+00  0.00000000000E+00  0.45593999997E+02  0.45594000000E+02  0.51100000000E-03 0. -1.
         11   -1    0    0    0    0 -0.00000000000E+00 -0.00000000000E+00 -0.45593999997E+02  0.45594000000E+02  0.51100000000E-03 0.  1.
    9900012    2    1    2    0    0 -0.98129134066E+00 -0.12848424748E+00 -0.64332730022E+00  0.90007614083E+02  0.89999873789E+02 0.  0.
         12    1    1    2    0    0  0.98129134066E+00  0.12848424748E+00  0.64332730022E+00  0.11803859167E+01  0.00000000000E+00 0. -1.
         11    1    3    3    0    0 -0.38960821032E+02 -0.70636761552E+01  0.96700505269E+01  0.40759673376E+02  0.51100000000E-03 0. -1.
        -11    1    3    3    0    0 -0.16086754145E+01 -0.96648786464E-01 -0.88689016710E+01  0.90141330525E+01  0.51100000000E-03 0.  1.
        -12    1    3    3    0    0  0.39588205105E+02  0.70318406942E+01 -0.14444761561E+01  0.40233807655E+02  0.00000000000E+00 0.  1.
</event>
<event>
 7    1  0.3568207E-015  0.9000752E+02  0.7816164E-02  0.1186339E+00
        -11   -1    0    0    0    0  0.00000000000E+00  0.00000000000E+00  0.45593999997E+02  0.45594000000E+02  0.51100000000E-03 0.  1.
         11   -1    0    0    0    0 -0.00000000000E+00 -0.00000000000E+00 -0.45593999997E+02  0.45594000000E+02  0.51100000000E-03 0. -1.
    9900012    2    1    2    0    0 -0.97815811059E+00  0.63163010856E+00 -0.19435041794E+00  0.90007524685E+02  0.89999783211E+02 0.  0.
         12    1    1    2    0    0  0.97815811059E+00 -0.63163010856E+00  0.19435041794E+00  0.11804753146E+01  0.00000000000E+00 0. -1.
         11    1    3    3    0    0 -0.39911313994E+02 -0.92836740411E+01 -0.13606687365E+02  0.43176863362E+02  0.51100000000E-03 0. -1.
        -11    1    3    3    0    0  0.35860148943E+01  0.36205521755E+01  0.94149318518E+01  0.10705551967E+02  0.51100000000E-03 0.  1.
        -12    1    3    3    0    0  0.35347140989E+02  0.62947519742E+01  0.39974050956E+01  0.36125109357E+02  0.00000000000E+00 0.  1.
</event>
<event>
 7    1  0.3568207E-015  0.9000787E+02  0.7816164E-02  0.1186339E+00
        -11   -1    0    0    0    0  0.00000000000E+00  0.00000000000E+00  0.45593999997E+02  0.45594000000E+02  0.51100000000E-03 0. -1.
         11   -1    0    0    0    0 -0.00000000000E+00 -0.00000000000E+00 -0.45593999997E+02  0.45594000000E+02  0.51100000000E-03 0.  1.
    9900012    2    1    2    0    0 -0.51213599575E+00 -0.10604515874E+01 -0.76663670422E-01  0.90007865192E+02  0.90000128212E+02 0.  0.
         12    1    1    2    0    0  0.51213599575E+00  0.10604515874E+01  0.76663670422E-01  0.11801348083E+01  0.00000000000E+00 0. -1.
         11    1    3    3    0    0 -0.88291680082E+00 -0.70480416581E+01  0.75356176541E+01  0.10355673179E+02  0.51100000000E-03 0. -1.
        -11    1    3    3    0    0 -0.12996204724E+02 -0.29752810428E+02  0.14491021800E+02  0.35554476211E+02  0.51100000000E-03 0.  1.
         12    1    3    3    0    0  0.13366985529E+02  0.35740400498E+02 -0.22103303125E+02  0.44097715802E+02  0.00000000000E+00 0. -1.
</event>
<event>
 7    1  0.3568207E-015  0.9000771E+02  0.7816164E-02  0.1186339E+00
        -11   -1    0    0    0    0  0.00000000000E+00  0.00000000000E+00  0.45593999997E+02  0.45594000000E+02  0.51100000000E-03 0. -1.
         11   -1    0    0    0    0 -0.00000000000E+00 -0.00000000000E+00 -0.45593999997E+02  0.45594000000E+02  0.51100000000E-03 0.  1.
    9900012    2    1    2    0    0  0.87657235746E+00  0.70678208568E+00  0.35380112863E+00  0.90007705438E+02  0.89999966350E+02 0.  0.
         12    1    1    2    0    0 -0.87657235746E+00 -0.70678208568E+00 -0.35380112863E+00  0.11802945620E+01  0.00000000000E+00 0. -1.
         11    1    3    3    0    0  0.67894075961E+01  0.37547492736E+01 -0.44363180021E+01  0.89372879159E+01  0.51100000000E-03 0. -1.
        -11    1    3    3    0    0 -0.76426894226E+00  0.61216820357E+01 -0.37238529501E+02  0.37746088242E+02  0.51100000000E-03 0.  1.
         12    1    3    3    0    0 -0.51485662964E+01 -0.91696492236E+01  0.42028648631E+02  0.43324329280E+02  0.00000000000E+00 0. -1.
</event>
<event>
 7    1  0.3568207E-015  0.9000773E+02  0.7816164E-02  0.1186339E+00
        -11   -1    0    0    0    0  0.00000000000E+00  0.00000000000E+00  0.45593999997E+02  0.45594000000E+02  0.51100000000E-03 0. -1.
         11   -1    0    0    0    0 -0.00000000000E+00 -0.00000000000E+00 -0.45593999997E+02  0.45594000000E+02  0.51100000000E-03 0.  1.
    9900012    2    1    2    0    0  0.75158751126E+00 -0.89976904041E+00  0.13625155812E+00  0.90007731979E+02  0.89999993242E+02 0.  0.
         12    1    1    2    0    0 -0.75158751126E+00  0.89976904041E+00 -0.13625155812E+00  0.11802680205E+01  0.00000000000E+00 0. -1.
         11    1    3    3    0    0  0.12486312992E+02  0.31774057997E+02 -0.73873096847E+01  0.34929516435E+02  0.51100000000E-03 0. -1.
        -11    1    3    3    0    0 -0.12925633611E+01  0.10276211097E+02  0.16759975694E+01  0.10491911297E+02  0.51100000000E-03 0.  1.
        -12    1    3    3    0    0 -0.10442162120E+02 -0.42950038135E+02  0.58475636734E+01  0.44586304247E+02  0.00000000000E+00 0.  1.
</event>
<event>
 7    1  0.3568207E-015  0.9000773E+02  0.7816164E-02  0.1186339E+00
        -11   -1    0    0    0    0  0.00000000000E+00  0.00000000000E+00  0.45593999997E+02  0.45594000000E+02  0.51100000000E-03 0.  1.
         11   -1    0    0    0    0 -0.00000000000E+00 -0.00000000000E+00 -0.45593999997E+02  0.45594000000E+02  0.51100000000E-03 0. -1.
    9900012    2    1    2    0    0  0.76499002114E+00 -0.64374988460E+00  0.62723441045E+00  0.90007726027E+02  0.89999987210E+02 0.  0.
         12    1    1    2    0    0 -0.76499002114E+00  0.64374988460E+00 -0.62723441045E+00  0.11802739733E+01  0.00000000000E+00 0. -1.
         11    1    3    3    0    0  0.29185859038E+01  0.67355510607E+01 -0.89877388052E+01  0.11604535357E+02  0.51100000000E-03 0. -1.
        -11    1    3    3    0    0 -0.18928339769E+02  0.19167473394E+02  0.30497429441E+02  0.40691120475E+02  0.51100000000E-03 0.  1.
         12    1    3    3    0    0  0.16774743886E+02 -0.26546774340E+02 -0.20882456226E+02  0.37712070194E+02  0.00000000000E+00 0. -1.
</event>
<event>
 7    1  0.3568207E-015  0.9000775E+02  0.7816164E-02  0.1186339E+00
        -11   -1    0    0    0    0  0.00000000000E+00  0.00000000000E+00  0.45593999997E+02  0.45594000000E+02  0.51100000000E-03 0.  1.
         11   -1    0    0    0    0 -0.00000000000E+00 -0.00000000000E+00 -0.45593999997E+02  0.45594000000E+02  0.51100000000E-03 0. -1.
    9900012    2    1    2    0    0 -0.94683855072E+00  0.68231292148E+00 -0.17589225286E+00  0.90007749074E+02  0.90000010562E+02 0.  0.
         12    1    1    2    0    0  0.94683855072E+00 -0.68231292148E+00  0.17589225286E+00  0.11802509261E+01  0.00000000000E+00 0. -1.
         11    1    3    3    0    0  0.23939030879E+02 -0.24413741098E+02  0.82081359560E+01  0.35163638179E+02  0.51100000000E-03 0. -1.
        -11    1    3    3    0    0  0.82266320919E+01 -0.34976617904E+00 -0.10121308379E+02  0.13047631797E+02  0.51100000000E-03 0.  1.
        -12    1    3    3    0    0 -0.33112501521E+02  0.25445820199E+02  0.17372801702E+01  0.41796479098E+02  0.00000000000E+00 0.  1.
</event>
<event>
 7    1  0.3568207E-015  0.9000771E+02  0.7816164E-02  0.1186339E+00
        -11   -1    0    0    0    0  0.00000000000E+00  0.00000000000E+00  0.45593999997E+02  0.45594000000E+02  0.51100000000E-03 0. -1.
         11   -1    0    0    0    0 -0.00000000000E+00 -0.00000000000E+00 -0.45593999997E+02  0.45594000000E+02  0.51100000000E-03 0.  1.
    9900012    2    1    2    0    0 -0.79805295767E+00  0.33149859122E+00 -0.80392819490E+00  0.90007711738E+02  0.89999972733E+02 0.  0.
         12    1    1    2    0    0  0.79805295767E+00 -0.33149859122E+00  0.80392819490E+00  0.11802882622E+01  0.00000000000E+00 0. -1.
         11    1    3    3    0    0  0.26112661064E+02  0.49712041306E+01  0.28823466968E+02  0.39209389011E+02  0.51100000000E-03 0. -1.
        -11    1    3    3    0    0 -0.48945127907E+01 -0.32518436931E+01  0.63149964734E+01  0.86261186859E+01  0.51100000000E-03 0.  1.
        -12    1    3    3    0    0 -0.22016201231E+02 -0.13878618463E+01 -0.35942391636E+02  0.42172204041E+02  0.00000000000E+00 0.  1.
</event>
<event>
 7    1  0.3568207E-015  0.9000771E+02  0.7816164E-02  0.1186339E+00
        -11   -1    0    0    0    0  0.00000000000E+00  0.00000000000E+00  0.45593999997E+02  0.45594000000E+02  0.51100000000E-03 0.  1.
         11   -1    0    0    0    0 -0.00000000000E+00 -0.00000000000E+00 -0.45593999997E+02  0.45594000000E+02  0.51100000000E-03 0. -1.
    9900012    2    1    2    0    0 -0.60996005378E+00 -0.86009495741E+00 -0.53035497584E+00  0.90007707238E+02  0.89999968174E+02 0.  0.
         12    1    1    2    0    0  0.60996005378E+00  0.86009495741E+00  0.53035497584E+00  0.11802927617E+01  0.00000000000E+00 0. -1.
         11    1    3    3    0    0 -0.77239639243E+01  0.55184767305E+01  0.15709625366E+01  0.96219087338E+01  0.51100000000E-03 0. -1.
        -11    1    3    3    0    0 -0.98185553456E+01  0.13739786531E+02  0.32678584157E+02  0.36784176296E+02  0.51100000000E-03 0.  1.
         12    1    3    3    0    0  0.16932559216E+02 -0.20118358219E+02 -0.34779901670E+02  0.43601622208E+02  0.00000000000E+00 0. -1.
</event>
<event>
 7    1  0.3568207E-015  0.9000773E+02  0.7816164E-02  0.1186339E+00
        -11   -1    0    0    0    0  0.00000000000E+00  0.00000000000E+00  0.45593999997E+02  0.45594000000E+02  0.51100000000E-03 0.  1.
         11   -1    0    0    0    0 -0.00000000000E+00 -0.00000000000E+00 -0.45593999997E+02  0.45594000000E+02  0.51100000000E-03 0. -1.
    9900012    2    1    2    0    0  0.95215373200E+00  0.18626988429E+00  0.67211215424E+00  0.90007733951E+02  0.89999995239E+02 0.  0.
         12    1    1    2    0    0 -0.95215373200E+00 -0.18626988429E+00 -0.67211215424E+00  0.11802660493E+01  0.00000000000E+00 0. -1.
         11    1    3    3    0    0 -0.22909266367E+02 -0.23460900824E+01 -0.29772362613E+02  0.37639503184E+02  0.51100000000E-03 0. -1.
        -11    1    3    3    0    0 -0.73965159512E+01 -0.48755690269E+01  0.12245181725E+01  0.89431016190E+01  0.51100000000E-03 0.  1.
        -12    1    3    3    0    0  0.31257936050E+02  0.74079289936E+01  0.29219956595E+02  0.43425129147E+02  0.00000000000E+00 0.  1.
</event>
<event>
 7    1  0.3568207E-015  0.9000769E+02  0.7816164E-02  0.1186339E+00
        -11   -1    0    0    0    0  0.00000000000E+00  0.00000000000E+00  0.45593999997E+02  0.45594000000E+02  0.51100000000E-03 0. -1.
         11   -1    0    0    0    0 -0.00000000000E+00 -0.00000000000E+00 -0.45593999997E+02  0.45594000000E+02  0.51100000000E-03 0.  1.
    9900012    2    1    2    0    0  0.25401407544E+00 -0.17420140311E+00 -0.11394104762E+01  0.90007692619E+02  0.89999953362E+02 0.  0.
         12    1    1    2    0    0 -0.25401407544E+00  0.17420140311E+00  0.11394104762E+01  0.11803073806E+01  0.00000000000E+00 0. -1.
         11    1    3    3    0    0 -0.85737880208E+01 -0.75514271443E+01 -0.10245828141E+01  0.11470992248E+02  0.51100000000E-03 0. -1.
        -11    1    3    3    0    0  0.22924465122E+02  0.69229426901E+01 -0.34141656248E+02  0.41702648936E+02  0.51100000000E-03 0.  1.
         12    1    3    3    0    0 -0.14096663026E+02  0.45428305109E+00  0.34026828586E+02  0.36834051436E+02  0.00000000000E+00 0. -1.
</event>
<event>
 7    1  0.3568207E-015  0.9000681E+02  0.7816164E-02  0.1186341E+00
        -11   -1    0    0    0    0  0.00000000000E+00  0.00000000000E+00  0.45593999997E+02  0.45594000000E+02  0.51100000000E-03 0.  1.
         11   -1    0    0    0    0 -0.00000000000E+00 -0.00000000000E+00 -0.45593999997E+02  0.45594000000E+02  0.51100000000E-03 0. -1.
    9900012    2    1    2    0    0 -0.20038092400E+00 -0.43331435254E+00  0.10804148238E+01  0.90006809908E+02  0.89999058994E+02 0.  0.
         12    1    1    2    0    0  0.20038092400E+00  0.43331435254E+00 -0.10804148238E+01  0.11811900923E+01  0.00000000000E+00 0. -1.
         11    1    3    3    0    0  0.25081349991E+01 -0.11128448638E+02  0.63192526235E+01  0.13040938013E+02  0.51100000000E-03 0. -1.
        -11    1    3    3    0    0 -0.55577708440E+01 -0.20695158993E+02  0.25247486236E+02  0.33115162449E+02  0.51100000000E-03 0.  1.
         12    1    3    3    0    0  0.28492549209E+01  0.31390293279E+02 -0.30486324035E+02  0.43850709446E+02  0.00000000000E+00 0. -1.
</event>
<event>
 7    1  0.3568207E-015  0.9000758E+02  0.7816164E-02  0.1186339E+00
        -11   -1    0    0    0    0  0.00000000000E+00  0.00000000000E+00  0.45593999997E+02  0.45594000000E+02  0.51100000000E-03 0.  1.
         11   -1    0    0    0    0 -0.00000000000E+00 -0.00000000000E+00 -0.45593999997E+02  0.45594000000E+02  0.51100000000E-03 0. -1.
    9900012    2    1    2    0    0 -0.12190971580E-01  0.28298036924E+00  0.11459373808E+01  0.90007576775E+02  0.89999835988E+02 0.  0.
         12    1    1    2    0    0  0.12190971580E-01 -0.28298036924E+00 -0.11459373808E+01  0.11804232249E+01  0.00000000000E+00 0. -1.
         11    1    3    3    0    0 -0.32479646039E+02 -0.30344310104E+02 -0.29273568824E+00  0.44449862283E+02  0.51100000000E-03 0. -1.
        -11    1    3    3    0    0  0.28879425091E+01  0.73400839935E+01  0.36036637447E+00  0.78960058987E+01  0.51100000000E-03 0.  1.
        -12    1    3    3    0    0  0.29579512559E+02  0.23287206480E+02  0.10783066946E+01  0.37661708593E+02  0.00000000000E+00 0.  1.
</event>
<event>
 7    1  0.3568207E-015  0.9000778E+02  0.7816164E-02  0.1186339E+00
        -11   -1    0    0    0    0  0.00000000000E+00  0.00000000000E+00  0.45593999997E+02  0.45594000000E+02  0.51100000000E-03 0.  1.
         11   -1    0    0    0    0 -0.00000000000E+00 -0.00000000000E+00 -0.45593999997E+02  0.45594000000E+02  0.51100000000E-03 0. -1.
    9900012    2    1    2    0    0  0.57116955226E-01 -0.11249135747E+01  0.35245828152E+00  0.90007779793E+02  0.90000041686E+02 0.  0.
         12    1    1    2    0    0 -0.57116955226E-01  0.11249135747E+01 -0.35245828152E+00  0.11802202072E+01  0.00000000000E+00 0. -1.
         11    1    3    3    0    0 -0.38843922930E+02  0.11679659668E+02  0.26684075688E+01  0.40649541175E+02  0.51100000000E-03 0. -1.
        -11    1    3    3    0    0  0.30783679001E+01 -0.10001368020E+01  0.93366382245E+01  0.98817729253E+01  0.51100000000E-03 0.  1.
        -12    1    3    3    0    0  0.35822671985E+02 -0.11804436441E+02 -0.11652587512E+02  0.39476465692E+02  0.00000000000E+00 0.  1.
</event>
<event>
 7    1  0.3568207E-015  0.9000787E+02  0.7816164E-02  0.1186339E+00
        -11   -1    0    0    0    0  0.00000000000E+00  0.00000000000E+00  0.45593999997E+02  0.45594000000E+02  0.51100000000E-03 0.  1.
         11   -1    0    0    0    0 -0.00000000000E+00 -0.00000000000E+00 -0.45593999997E+02  0.45594000000E+02  0.51100000000E-03 0. -1.
    9900012    2    1    2    0    0  0.10952169153E+01  0.27092691299E+00 -0.34612973151E+00  0.90007869806E+02  0.90000132887E+02 0.  0.
         12    1    1    2    0    0 -0.10952169153E+01 -0.27092691299E+00  0.34612973151E+00  0.11801301940E+01  0.00000000000E+00 0. -1.
         11    1    3    3    0    0  0.21857589358E+02  0.14405050642E+02 -0.29564854125E+02  0.39488483083E+02  0.51100000000E-03 0. -1.
        -11    1    3    3    0    0 -0.43775029852E+01 -0.46584106651E+01 -0.71066201474E+01  0.95586281699E+01  0.51100000000E-03 0.  1.
        -12    1    3    3    0    0 -0.16384869457E+02 -0.94757130639E+01  0.36325344541E+02  0.40960758553E+02  0.00000000000E+00 0.  1.
</event>
<event>
 7    1  0.3568207E-015  0.9000775E+02  0.7816164E-02  0.1186339E+00
        -11   -1    0    0    0    0  0.00000000000E+00  0.00000000000E+00  0.45593999997E+02  0.45594000000E+02  0.51100000000E-03 0. -1.
         11   -1    0    0    0    0 -0.00000000000E+00 -0.00000000000E+00 -0.45593999997E+02  0.45594000000E+02  0.51100000000E-03 0.  1.
    9900012    2    1    2    0    0 -0.85224390531E+00 -0.71992794945E+00 -0.38520218454E+00  0.90007747209E+02  0.90000008673E+02 0.  0.
         12    1    1    2    0    0  0.85224390531E+00  0.71992794945E+00  0.38520218454E+00  0.11802527905E+01  0.00000000000E+00 0. -1.
         11    1    3    3    0    0  0.55464122990E+01 -0.33278535466E+02  0.33487172158E+01  0.33903355578E+02  0.51100000000E-03 0. -1.
        -11    1    3    3    0    0 -0.62815914585E+01 -0.26408613483E+01 -0.17134860414E+02  0.18440064576E+02  0.51100000000E-03 0.  1.
        -12    1    3    3    0    0 -0.11706474583E+00  0.35199468865E+02  0.13400941013E+02  0.37664327056E+02  0.00000000000E+00 0.  1.
</event>
<event>
 7    1  0.3568207E-015  0.9000775E+02  0.7816164E-02  0.1186339E+00
        -11   -1    0    0    0    0  0.00000000000E+00  0.00000000000E+00  0.45593999997E+02  0.45594000000E+02  0.51100000000E-03 0. -1.
         11   -1    0    0    0    0 -0.00000000000E+00 -0.00000000000E+00 -0.45593999997E+02  0.45594000000E+02  0.51100000000E-03 0.  1.
    9900012    2    1    2    0    0 -0.45040015061E+00 -0.49406139550E+00 -0.97263924589E+00  0.90007752543E+02  0.90000014076E+02 0.  0.
         12    1    1    2    0    0  0.45040015061E+00  0.49406139550E+00  0.97263924589E+00  0.11802474575E+01  0.00000000000E+00 0. -1.
         11    1    3    3    0    0 -0.40316502633E+01 -0.98799822124E+01  0.49040425904E+01  0.11743844615E+02  0.51100000000E-03 0. -1.
        -11    1    3    3    0    0  0.32164942057E+01 -0.32406416862E+02 -0.14403965911E+02  0.35608930383E+02  0.51100000000E-03 0.  1.
         12    1    3    3    0    0  0.36475590691E+00  0.41792337679E+02  0.85272840751E+01  0.42654977544E+02  0.00000000000E+00 0. -1.
</event>
<event>
 7    1  0.3568207E-015  0.9000772E+02  0.7816164E-02  0.1186339E+00
        -11   -1    0    0    0    0  0.00000000000E+00  0.00000000000E+00  0.45593999997E+02  0.45594000000E+02  0.51100000000E-03 0. -1.
         11   -1    0    0    0    0 -0.00000000000E+00 -0.00000000000E+00 -0.45593999997E+02  0.45594000000E+02  0.51100000000E-03 0.  1.
    9900012    2    1    2    0    0 -0.70747782299E+00 -0.90281310118E+00 -0.27834535026E+00  0.90007715077E+02  0.89999976116E+02 0.  0.
         12    1    1    2    0    0  0.70747782299E+00  0.90281310118E+00  0.27834535026E+00  0.11802849231E+01  0.00000000000E+00 0. -1.
         11    1    3    3    0    0  0.52105536738E+00  0.11177154808E+01  0.11215707281E+02  0.11283300787E+02  0.51100000000E-03 0. -1.
        -11    1    3    3    0    0  0.10633198128E+02 -0.38226148947E+02 -0.38289145814E+01  0.39861810707E+02  0.51100000000E-03 0.  1.
         12    1    3    3    0    0 -0.11861731319E+02  0.36205620365E+02 -0.76651380494E+01  0.38862603582E+02  0.00000000000E+00 0. -1.
</event>
<event>
 7    1  0.3568207E-015  0.9000769E+02  0.7816164E-02  0.1186339E+00
        -11   -1    0    0    0    0  0.00000000000E+00  0.00000000000E+00  0.45593999997E+02  0.45594000000E+02  0.51100000000E-03 0.  1.
         11   -1    0    0    0    0 -0.00000000000E+00 -0.00000000000E+00 -0.45593999997E+02  0.45594000000E+02  0.51100000000E-03 0. -1.
    9900012    2    1    2    0    0  0.10577977047E+00  0.88600963903E+00  0.77261130360E+00  0.90007690436E+02  0.89999951150E+02 0.  0.
         12    1    1    2    0    0 -0.10577977047E+00 -0.88600963903E+00 -0.77261130360E+00  0.11803095639E+01  0.00000000000E+00 0. -1.
         11    1    3    3    0    0  0.63192881299E+01  0.99808037565E+01 -0.36236492704E+02  0.38113426110E+02  0.51100000000E-03 0. -1.
        -11    1    3    3    0    0  0.74435334305E+01  0.53730944205E+01 -0.75355943683E+00  0.92110903627E+01  0.51100000000E-03 0.  1.
        -12    1    3    3    0    0 -0.13657041790E+02 -0.14467888538E+02  0.37762663444E+02  0.42683173964E+02  0.00000000000E+00 0.  1.
</event>
<event>
 7    1  0.3568207E-015  0.9000736E+02  0.7816164E-02  0.1186340E+00
        -11   -1    0    0    0    0  0.00000000000E+00  0.00000000000E+00  0.45593999997E+02  0.45594000000E+02  0.51100000000E-03 0.  1.
         11   -1    0    0    0    0 -0.00000000000E+00 -0.00000000000E+00 -0.45593999997E+02  0.45594000000E+02  0.51100000000E-03 0. -1.
    9900012    2    1    2    0    0 -0.11382844205E+01 -0.48694956677E-01  0.30957544546E+00  0.90007364757E+02  0.89999621171E+02 0.  0.
         12    1    1    2    0    0  0.11382844205E+01  0.48694956677E-01 -0.30957544546E+00  0.11806352431E+01  0.00000000000E+00 0. -1.
         11    1    3    3    0    0  0.11344466295E+02 -0.25967126203E+02 -0.26404944590E+02  0.38732540039E+02  0.51100000000E-03 0. -1.
        -11    1    3    3    0    0 -0.86960597106E+01 -0.52802844459E+01  0.23067726437E+00  0.10176250320E+02  0.51100000000E-03 0.  1.
        -12    1    3    3    0    0 -0.37866910048E+01  0.31198715693E+02  0.26483842771E+02  0.41098574398E+02  0.00000000000E+00 0.  1.
</event>
<event>
 7    1  0.3568207E-015  0.9000773E+02  0.7816164E-02  0.1186339E+00
        -11   -1    0    0    0    0  0.00000000000E+00  0.00000000000E+00  0.45593999997E+02  0.45594000000E+02  0.51100000000E-03 0.  1.
         11   -1    0    0    0    0 -0.00000000000E+00 -0.00000000000E+00 -0.45593999997E+02  0.45594000000E+02  0.51100000000E-03 0. -1.
    9900012    2    1    2    0    0  0.71465707058E+00 -0.34429246827E+00 -0.87393130761E+00  0.90007733944E+02  0.89999995232E+02 0.  0.
         12    1    1    2    0    0 -0.71465707058E+00  0.34429246827E+00  0.87393130761E+00  0.11802660559E+01  0.00000000000E+00 0. -1.
         11    1    3    3    0    0  0.30485737515E+02  0.31579920978E+02  0.73484991533E+01  0.44504741780E+02  0.51100000000E-03 0. -1.
        -11    1    3    3    0    0 -0.56875301587E+01 -0.66316973294E+01  0.22878632749E+01  0.90311531601E+01  0.51100000000E-03 0.  1.
        -12    1    3    3    0    0 -0.24083550286E+02 -0.25292516117E+02 -0.10510293736E+02  0.36471839004E+02  0.00000000000E+00 0.  1.
</event>
<event>
 7    1  0.3568207E-015  0.9000770E+02  0.7816164E-02  0.1186339E+00
        -11   -1    0    0    0    0  0.00000000000E+00  0.00000000000E+00  0.45593999997E+02  0.45594000000E+02  0.51100000000E-03 0. -1.
         11   -1    0    0    0    0 -0.00000000000E+00 -0.00000000000E+00 -0.45593999997E+02  0.45594000000E+02  0.51100000000E-03 0.  1.
    9900012    2    1    2    0    0 -0.14730807203E+00 -0.23068602636E-02 -0.11710663802E+01  0.90007702810E+02  0.89999963687E+02 0.  0.
         12    1    1    2    0    0  0.14730807203E+00  0.23068602636E-02  0.11710663802E+01  0.11802971900E+01  0.00000000000E+00 0. -1.
         11    1    3    3    0    0 -0.93275729318E+01 -0.29318615784E+01  0.17067861961E+01  0.99253487844E+01  0.51100000000E-03 0. -1.
        -11    1    3    3    0    0 -0.14079638956E+02  0.36081392073E+02  0.42445961702E+01  0.38963055373E+02  0.51100000000E-03 0.  1.
         12    1    3    3    0    0  0.23259903816E+02 -0.33151837355E+02 -0.71224487465E+01  0.41119298653E+02  0.00000000000E+00 0. -1.
</event>
<event>
 7    1  0.3568207E-015  0.9000773E+02  0.7816164E-02  0.1186339E+00
        -11   -1    0    0    0    0  0.00000000000E+00  0.00000000000E+00  0.45593999997E+02  0.45594000000E+02  0.51100000000E-03 0.  1.
         11   -1    0    0    0    0 -0.00000000000E+00 -0.00000000000E+00 -0.45593999997E+02  0.45594000000E+02  0.51100000000E-03 0. -1.
    9900012    2    1    2    0    0 -0.43641729054E+00  0.14435999074E-01  0.10965244307E+01  0.90007731269E+02  0.89999992522E+02 0.  0.
         12    1    1    2    0    0  0.43641729054E+00 -0.14435999074E-01 -0.10965244307E+01  0.11802687307E+01  0.00000000000E+00 0. -1.
         11    1    3    3    0    0  0.30534997316E+00  0.92300985202E+01  0.22464321479E+01  0.95044418539E+01  0.51100000000E-03 0. -1.
        -11    1    3    3    0    0  0.25320696608E+02  0.26131970615E+02 -0.32801979698E+01  0.36534603650E+02  0.51100000000E-03 0.  1.
         12    1    3    3    0    0 -0.26062463871E+02 -0.35347633136E+02  0.21302902526E+01  0.43968685765E+02  0.00000000000E+00 0. -1.
</event>
<event>
 7    1  0.3568207E-015  0.9000781E+02  0.7816164E-02  0.1186339E+00
        -11   -1    0    0    0    0  0.00000000000E+00  0.00000000000E+00  0.45593999997E+02  0.45594000000E+02  0.51100000000E-03 0. -1.
         11   -1    0    0    0    0 -0.00000000000E+00 -0.00000000000E+00 -0.45593999997E+02  0.45594000000E+02  0.51100000000E-03 0.  1.
    9900012    2    1    2    0    0  0.29532982509E+00  0.11305537074E+01 -0.16577578962E+00  0.90007808065E+02  0.90000070331E+02 0.  0.
         12    1    1    2    0    0 -0.29532982509E+00 -0.11305537074E+01  0.16577578962E+00  0.11801919349E+01  0.00000000000E+00 0. -1.
         11    1    3    3    0    0 -0.21836833600E+02  0.19430248137E+01  0.32656367797E+02  0.39332696387E+02  0.51100000000E-03 0. -1.
        -11    1    3    3    0    0 -0.73054813467E+01  0.44515788175E+01 -0.55140295643E+01  0.10177972980E+02  0.51100000000E-03 0.  1.
        -12    1    3    3    0    0  0.29437644772E+02 -0.52640499238E+01 -0.27308114022E+02  0.40497138699E+02  0.00000000000E+00 0.  1.
</event>
<event>
 7    1  0.3568207E-015  0.9000787E+02  0.7816164E-02  0.1186339E+00
        -11   -1    0    0    0    0  0.00000000000E+00  0.00000000000E+00  0.45593999997E+02  0.45594000000E+02  0.51100000000E-03 0.  1.
         11   -1    0    0    0    0 -0.00000000000E+00 -0.00000000000E+00 -0.45593999997E+02  0.45594000000E+02  0.51100000000E-03 0. -1.
    9900012    2    1    2    0    0  0.46819061137E+00  0.10663693813E+01  0.19067478668E+00  0.90007871626E+02  0.90000134731E+02 0.  0.
         12    1    1    2    0    0 -0.46819061137E+00 -0.10663693813E+01 -0.19067478668E+00  0.11801283745E+01  0.00000000000E+00 0. -1.
         11    1    3    3    0    0  0.36683230705E+02 -0.12870831399E+02 -0.96592499049E+01  0.40057693703E+02  0.51100000000E-03 0. -1.
        -11    1    3    3    0    0  0.32269391015E+01 -0.14463521409E+01  0.66026314583E+01  0.74899808355E+01  0.51100000000E-03 0.  1.
        -12    1    3    3    0    0 -0.39441979195E+02  0.15383552921E+02  0.32472932332E+01  0.42460197087E+02  0.00000000000E+00 0.  1.
</event>
<event>
 7    1  0.3568207E-015  0.9000812E+02  0.7816164E-02  0.1186338E+00
        -11   -1    0    0    0    0  0.00000000000E+00  0.00000000000E+00  0.45593999997E+02  0.45594000000E+02  0.51100000000E-03 0.  1.
         11   -1    0    0    0    0 -0.00000000000E+00 -0.00000000000E+00 -0.45593999997E+02  0.45594000000E+02  0.51100000000E-03 0. -1.
    9900012    2    1    2    0    0  0.99572106078E-01 -0.11629646740E+01  0.17238292874E+00  0.90008119789E+02  0.90000386170E+02 0.  0.
         12    1    1    2    0    0 -0.99572106078E-01  0.11629646740E+01 -0.17238292874E+00  0.11798802106E+01  0.00000000000E+00 0. -1.
         11    1    3    3    0    0  0.27815825323E+02 -0.22225787331E+02  0.38317021725E+01  0.35810441252E+02  0.51100000000E-03 0. -1.
        -11    1    3    3    0    0  0.10400527143E+02  0.34124884013E+00  0.14735451225E+01  0.10509935828E+02  0.51100000000E-03 0.  1.
        -12    1    3    3    0    0 -0.38116780360E+02  0.20721573817E+02 -0.51328643662E+01  0.43687742709E+02  0.00000000000E+00 0.  1.
</event>
<event>
 7    1  0.3568207E-015  0.9000774E+02  0.7816164E-02  0.1186339E+00
        -11   -1    0    0    0    0  0.00000000000E+00  0.00000000000E+00  0.45593999997E+02  0.45594000000E+02  0.51100000000E-03 0.  1.
         11   -1    0    0    0    0 -0.00000000000E+00 -0.00000000000E+00 -0.45593999997E+02  0.45594000000E+02  0.51100000000E-03 0. -1.
    9900012    2    1    2    0    0  0.81122923407E+00  0.81390431125E+00  0.26920412758E+00  0.90007744112E+02  0.90000005535E+02 0.  0.
         12    1    1    2    0    0 -0.81122923407E+00 -0.81390431125E+00 -0.26920412758E+00  0.11802558877E+01  0.00000000000E+00 0. -1.
         11    1    3    3    0    0 -0.12222631303E+02  0.18561207818E+02 -0.31324980105E+02  0.38407883702E+02  0.51100000000E-03 0. -1.
        -11    1    3    3    0    0  0.77992228153E+01 -0.17981036776E+01 -0.62793201982E+01  0.10173048499E+02  0.51100000000E-03 0.  1.
        -12    1    3    3    0    0  0.52346377221E+01 -0.15949199829E+02  0.37873504430E+02  0.41426811911E+02  0.00000000000E+00 0.  1.
</event>
<event>
 7    1  0.3568207E-015  0.9000765E+02  0.7816164E-02  0.1186339E+00
        -11   -1    0    0    0    0  0.00000000000E+00  0.00000000000E+00  0.45593999997E+02  0.45594000000E+02  0.51100000000E-03 0.  1.
         11   -1    0    0    0    0 -0.00000000000E+00 -0.00000000000E+00 -0.45593999997E+02  0.45594000000E+02  0.51100000000E-03 0. -1.
    9900012    2    1    2    0    0 -0.50763811566E+00  0.10647919411E+01 -0.41722672760E-01  0.90007652968E+02  0.89999913187E+02 0.  0.
         12    1    1    2    0    0  0.50763811566E+00 -0.10647919411E+01  0.41722672760E-01  0.11803470319E+01  0.00000000000E+00 0. -1.
         11    1    3    3    0    0  0.35225402606E+01 -0.75026299104E+01 -0.37058626167E+02  0.37974195438E+02  0.51100000000E-03 0. -1.
        -11    1    3    3    0    0  0.25095425381E+00 -0.90509642950E+01 -0.17629114915E+01  0.92244669166E+01  0.51100000000E-03 0.  1.
        -12    1    3    3    0    0 -0.42811326301E+01  0.17618386147E+02  0.38779814986E+02  0.42808990614E+02  0.00000000000E+00 0.  1.
</event>
<event>
 7    1  0.3568207E-015  0.9000777E+02  0.7816164E-02  0.1186339E+00
        -11   -1    0    0    0    0  0.00000000000E+00  0.00000000000E+00  0.45593999997E+02  0.45594000000E+02  0.51100000000E-03 0. -1.
         11   -1    0    0    0    0 -0.00000000000E+00 -0.00000000000E+00 -0.45593999997E+02  0.45594000000E+02  0.51100000000E-03 0.  1.
    9900012    2    1    2    0    0  0.33312198678E-01  0.11329244046E+01 -0.32913033951E+00  0.90007765197E+02  0.90000026898E+02 0.  0.
         12    1    1    2    0    0 -0.33312198678E-01 -0.11329244046E+01  0.32913033951E+00  0.11802348027E+01  0.00000000000E+00 0. -1.
         11    1    3    3    0    0  0.10287340218E+02 -0.33329752834E+02  0.97592008479E+01  0.36220764682E+02  0.51100000000E-03 0. -1.
        -11    1    3    3    0    0 -0.24068215747E+01 -0.72579192676E+01  0.45308720010E+01  0.88881372367E+01  0.51100000000E-03 0.  1.
        -12    1    3    3    0    0 -0.78472064443E+01  0.41720596506E+02 -0.14619203188E+02  0.44898863278E+02  0.00000000000E+00 0.  1.
</event>
<event>
 7    1  0.3568207E-015  0.9000775E+02  0.7816164E-02  0.1186339E+00
        -11   -1    0    0    0    0  0.00000000000E+00  0.00000000000E+00  0.45593999997E+02  0.45594000000E+02  0.51100000000E-03 0.  1.
         11   -1    0    0    0    0 -0.00000000000E+00 -0.00000000000E+00 -0.45593999997E+02  0.45594000000E+02  0.51100000000E-03 0. -1.
    9900012    2    1    2    0    0 -0.31181214914E-01 -0.50687096486E-01  0.11787457569E+01  0.90007752988E+02  0.90000014527E+02 0.  0.
         12    1    1    2    0    0  0.31181214914E-01  0.50687096486E-01 -0.11787457569E+01  0.11802470120E+01  0.00000000000E+00 0. -1.
         11    1    3    3    0    0  0.38056116869E+02 -0.75886219107E+01  0.10762066032E+02  0.40270054373E+02  0.51100000000E-03 0. -1.
        -11    1    3    3    0    0 -0.95589828235E+00 -0.66137606297E+01 -0.73566215697E+01  0.99385840226E+01  0.51100000000E-03 0.  1.
        -12    1    3    3    0    0 -0.37131399802E+02  0.14151695444E+02 -0.22266987057E+01  0.39799114592E+02  0.00000000000E+00 0.  1.
</event>
<event>
 7    1  0.3568207E-015  0.9000769E+02  0.7816164E-02  0.1186339E+00
        -11   -1    0    0    0    0  0.00000000000E+00  0.00000000000E+00  0.45593999997E+02  0.45594000000E+02  0.51100000000E-03 0.  1.
         11   -1    0    0    0    0 -0.00000000000E+00 -0.00000000000E+00 -0.45593999997E+02  0.45594000000E+02  0.51100000000E-03 0. -1.
    9900012    2    1    2    0    0  0.93717398295E+00 -0.69316262416E+00  0.18538856455E+00  0.90007687153E+02  0.89999947823E+02 0.  0.
         12    1    1    2    0    0 -0.93717398295E+00  0.69316262416E+00 -0.18538856455E+00  0.11803128474E+01  0.00000000000E+00 0. -1.
         11    1    3    3    0    0  0.29521258112E+02 -0.27459804943E+02 -0.87842426390E+01  0.41263888414E+02  0.51100000000E-03 0. -1.
        -11    1    3    3    0    0 -0.11290721542E+01  0.25135204255E+01 -0.79339024780E+01  0.83987735801E+01  0.51100000000E-03 0.  1.
        -12    1    3    3    0    0 -0.27455011975E+02  0.24253121893E+02  0.16903533682E+02  0.40345025159E+02  0.00000000000E+00 0.  1.
</event>
<event>
 7    1  0.7633499E-015  0.9000798E+02  0.7816164E-02  0.1186339E+00
        -11   -1    0    0    0    0  0.00000000000E+00  0.00000000000E+00  0.45593999997E+02  0.45594000000E+02  0.51100000000E-03 0.  1.
         11   -1    0    0    0    0 -0.00000000000E+00 -0.00000000000E+00 -0.45593999997E+02  0.45594000000E+02  0.51100000000E-03 0. -1.
    9900012    2    1    2    0    0 -0.72094784966E+00 -0.33035892549E+00  0.87380794525E+00  0.90007981718E+02  0.90000246276E+02 0.  0.
         12    1    1    2    0    0  0.72094784966E+00  0.33035892549E+00 -0.87380794525E+00  0.11800182824E+01  0.00000000000E+00 0. -1.
         11    1    3    3    0    0 -0.99267788709E+01  0.90642929255E+00 -0.53224230232E+00  0.99822760402E+01  0.51100000000E-03 0. -1.
        -11    1    3    3    0    0 -0.26879351072E+02 -0.22629050313E+01  0.25098940567E+02  0.36845312742E+02  0.51100000000E-03 0.  1.
         12    1    3    3    0    0  0.36085182093E+02  0.10261168132E+01 -0.23692890319E+02  0.43180392936E+02  0.00000000000E+00 0. -1.
</event>
<event>
 7    1  0.3568207E-015  0.9000794E+02  0.7816164E-02  0.1186339E+00
        -11   -1    0    0    0    0  0.00000000000E+00  0.00000000000E+00  0.45593999997E+02  0.45594000000E+02  0.51100000000E-03 0.  1.
         11   -1    0    0    0    0 -0.00000000000E+00 -0.00000000000E+00 -0.45593999997E+02  0.45594000000E+02  0.51100000000E-03 0. -1.
    9900012    2    1    2    0    0 -0.63823622464E+00  0.41885655604E+00  0.89986733360E+00  0.90007937497E+02  0.90000201472E+02 0.  0.
         12    1    1    2    0    0  0.63823622464E+00 -0.41885655604E+00 -0.89986733360E+00  0.11800625030E+01  0.00000000000E+00 0. -1.
         11    1    3    3    0    0 -0.84725687138E+01 -0.49869487951E+01 -0.92872736391E+00  0.98750500592E+01  0.51100000000E-03 0. -1.
        -11    1    3    3    0    0  0.11106261857E+02 -0.36459736450E+02  0.13181129475E+01  0.38136581604E+02  0.51100000000E-03 0.  1.
         12    1    3    3    0    0 -0.32719293676E+01  0.41865541801E+02  0.51048174997E+00  0.41996305834E+02  0.00000000000E+00 0. -1.
</event>
<event>
 7    1  0.3568207E-015  0.9000783E+02  0.7816164E-02  0.1186339E+00
        -11   -1    0    0    0    0  0.00000000000E+00  0.00000000000E+00  0.45593999997E+02  0.45594000000E+02  0.51100000000E-03 0.  1.
         11   -1    0    0    0    0 -0.00000000000E+00 -0.00000000000E+00 -0.45593999997E+02  0.45594000000E+02  0.51100000000E-03 0. -1.
    9900012    2    1    2    0    0 -0.61438627030E+00 -0.71895061525E+00  0.70600364047E+00  0.90007829836E+02  0.90000092390E+02 0.  0.
         12    1    1    2    0    0  0.61438627030E+00  0.71895061525E+00 -0.70600364047E+00  0.11801701643E+01  0.00000000000E+00 0. -1.
         11    1    3    3    0    0  0.12362326967E+02 -0.30163192431E+02  0.15066077423E+02  0.35911446571E+02  0.51100000000E-03 0. -1.
        -11    1    3    3    0    0  0.12126576334E+02  0.96498301827E+00  0.27233568647E+01  0.12466022569E+02  0.51100000000E-03 0.  1.
        -12    1    3    3    0    0 -0.25103289572E+02  0.28479258797E+02 -0.17083430648E+02  0.41630360696E+02  0.00000000000E+00 0.  1.
</event>
<event>
 7    1  0.3568207E-015  0.9000774E+02  0.7816164E-02  0.1186339E+00
        -11   -1    0    0    0    0  0.00000000000E+00  0.00000000000E+00  0.45593999997E+02  0.45594000000E+02  0.51100000000E-03 0. -1.
         11   -1    0    0    0    0 -0.00000000000E+00 -0.00000000000E+00 -0.45593999997E+02  0.45594000000E+02  0.51100000000E-03 0.  1.
    9900012    2    1    2    0    0 -0.11583383571E+01  0.18363298615E+00 -0.13247844706E+00  0.90007737588E+02  0.89999998924E+02 0.  0.
         12    1    1    2    0    0  0.11583383571E+01 -0.18363298615E+00  0.13247844706E+00  0.11802624123E+01  0.00000000000E+00 0. -1.
         11    1    3    3    0    0  0.52988213934E+01 -0.70019973955E+01  0.13021175834E+01  0.88769919538E+01  0.51100000000E-03 0. -1.
        -11    1    3    3    0    0 -0.32192435212E+02 -0.19190791380E+02  0.15521706323E+02  0.40565536186E+02  0.51100000000E-03 0.  1.
         12    1    3    3    0    0  0.25735275462E+02  0.26376421761E+02 -0.16956302353E+02  0.40565209447E+02  0.00000000000E+00 0. -1.
</event>
<event>
 7    1  0.3568207E-015  0.9000769E+02  0.7816164E-02  0.1186339E+00
        -11   -1    0    0    0    0  0.00000000000E+00  0.00000000000E+00  0.45593999997E+02  0.45594000000E+02  0.51100000000E-03 0. -1.
         11   -1    0    0    0    0 -0.00000000000E+00 -0.00000000000E+00 -0.45593999997E+02  0.45594000000E+02  0.51100000000E-03 0.  1.
    9900012    2    1    2    0    0 -0.59867131444E+00  0.98238738027E+00  0.26390461547E+00  0.90007687349E+02  0.89999948022E+02 0.  0.
         12    1    1    2    0    0  0.59867131444E+00 -0.98238738027E+00 -0.26390461547E+00  0.11803126508E+01  0.00000000000E+00 0. -1.
         11    1    3    3    0    0  0.73429102162E+01  0.70222118369E+00  0.78392932238E+01  0.10764105329E+02  0.51100000000E-03 0. -1.
        -11    1    3    3    0    0 -0.76702055274E+01  0.21619578465E+02 -0.36613732858E+02  0.43206523349E+02  0.51100000000E-03 0.  1.
         12    1    3    3    0    0 -0.27137600321E+00 -0.21339412268E+02  0.29038344250E+02  0.36037058671E+02  0.00000000000E+00 0. -1.
</event>
<event>
 7    1  0.3568207E-015  0.9000766E+02  0.7816164E-02  0.1186339E+00
        -11   -1    0    0    0    0  0.00000000000E+00  0.00000000000E+00  0.45593999997E+02  0.45594000000E+02  0.51100000000E-03 0.  1.
         11   -1    0    0    0    0 -0.00000000000E+00 -0.00000000000E+00 -0.45593999997E+02  0.45594000000E+02  0.51100000000E-03 0. -1.
    9900012    2    1    2    0    0  0.97692401748E+00  0.19035717077E+00 -0.63450140641E+00  0.90007657498E+02  0.89999917776E+02 0.  0.
         12    1    1    2    0    0 -0.97692401748E+00 -0.19035717077E+00  0.63450140641E+00  0.11803425025E+01  0.00000000000E+00 0. -1.
         11    1    3    3    0    0  0.39837333934E+02 -0.17511380222E+02 -0.78579752244E-01  0.43516293354E+02  0.51100000000E-03 0. -1.
        -11    1    3    3    0    0 -0.25649464655E+01  0.64809088311E+01  0.43034057098E+01  0.81914852506E+01  0.51100000000E-03 0.  1.
        -12    1    3    3    0    0 -0.36295463451E+02  0.11220828562E+02 -0.48593273639E+01  0.38299878893E+02  0.00000000000E+00 0.  1.
</event>
<event>
 7    1  0.3568207E-015  0.9000774E+02  0.7816164E-02  0.1186339E+00
        -11   -1    0    0    0    0  0.00000000000E+00  0.00000000000E+00  0.45593999997E+02  0.45594000000E+02  0.51100000000E-03 0.  1.
         11   -1    0    0    0    0 -0.00000000000E+00 -0.00000000000E+00 -0.45593999997E+02  0.45594000000E+02  0.51100000000E-03 0. -1.
    9900012    2    1    2    0    0 -0.31579891355E+00  0.95903554989E+00 -0.61117060350E+00  0.90007742551E+02  0.90000003953E+02 0.  0.
         12    1    1    2    0    0  0.31579891355E+00 -0.95903554989E+00  0.61117060350E+00  0.11802574492E+01  0.00000000000E+00 0. -1.
         11    1    3    3    0    0 -0.32854058614E+01 -0.83840385061E+01  0.13967218349E+00  0.90058593108E+01  0.51100000000E-03 0. -1.
        -11    1    3    3    0    0  0.71928549796E+01 -0.23634564782E+02  0.27790889627E+02  0.37184181606E+02  0.51100000000E-03 0.  1.
         12    1    3    3    0    0 -0.42232480317E+01  0.32977638838E+02 -0.28541732414E+02  0.43817701634E+02  0.00000000000E+00 0. -1.
</event>
<event>
 7    1  0.3568207E-015  0.9000774E+02  0.7816164E-02  0.1186339E+00
        -11   -1    0    0    0    0  0.00000000000E+00  0.00000000000E+00  0.45593999997E+02  0.45594000000E+02  0.51100000000E-03 0.  1.
         11   -1    0    0    0    0 -0.00000000000E+00 -0.00000000000E+00 -0.45593999997E+02  0.45594000000E+02  0.51100000000E-03 0. -1.
    9900012    2    1    2    0    0 -0.56295990088E+00 -0.93442634243E+00  0.45048684251E+00  0.90007739506E+02  0.90000000867E+02 0.  0.
         12    1    1    2    0    0  0.56295990088E+00  0.93442634243E+00 -0.45048684251E+00  0.11802604944E+01  0.00000000000E+00 0. -1.
         11    1    3    3    0    0 -0.32484576731E+02 -0.11452682087E+02 -0.13725391846E+02  0.37078269026E+02  0.51100000000E-03 0. -1.
        -11    1    3    3    0    0 -0.30276621731E+01 -0.84284473548E+01 -0.32447894445E+01  0.95254460183E+01  0.51100000000E-03 0.  1.
        -12    1    3    3    0    0  0.34949279004E+02  0.18946703100E+02  0.17420668133E+02  0.43404024461E+02  0.00000000000E+00 0.  1.
</event>
<event>
 7    1  0.3568207E-015  0.9000731E+02  0.7816164E-02  0.1186340E+00
        -11   -1    0    0    0    0  0.00000000000E+00  0.00000000000E+00  0.45593999997E+02  0.45594000000E+02  0.51100000000E-03 0. -1.
         11   -1    0    0    0    0 -0.00000000000E+00 -0.00000000000E+00 -0.45593999997E+02  0.45594000000E+02  0.51100000000E-03 0.  1.
    9900012    2    1    2    0    0  0.10633354625E+01 -0.36340277565E+00 -0.36233341806E+00  0.90007309783E+02  0.89999565471E+02 0.  0.
         12    1    1    2    0    0 -0.10633354625E+01  0.36340277565E+00  0.36233341806E+00  0.11806902172E+01  0.00000000000E+00 0. -1.
         11    1    3    3    0    0 -0.17356153175E+01 -0.65487525306E+01  0.37621276037E+01  0.77493305908E+01  0.51100000000E-03 0. -1.
        -11    1    3    3    0    0 -0.31065033844E+02  0.27704724925E+02 -0.61887981558E+01  0.42081935956E+02  0.51100000000E-03 0.  1.
         12    1    3    3    0    0  0.33863984624E+02 -0.21519375170E+02  0.20643371341E+01  0.40176043236E+02  0.00000000000E+00 0. -1.
</event>
<event>
 7    1  0.3568207E-015  0.9000777E+02  0.7816164E-02  0.1186339E+00
        -11   -1    0    0    0    0  0.00000000000E+00  0.00000000000E+00  0.45593999997E+02  0.45594000000E+02  0.51100000000E-03 0.  1.
         11   -1    0    0    0    0 -0.00000000000E+00 -0.00000000000E+00 -0.45593999997E+02  0.45594000000E+02  0.51100000000E-03 0. -1.
    9900012    2    1    2    0    0  0.24279006448E+00  0.11399522571E+01  0.18575217613E+00  0.90007770347E+02  0.90000032115E+02 0.  0.
         12    1    1    2    0    0 -0.24279006448E+00 -0.11399522571E+01 -0.18575217613E+00  0.11802296534E+01  0.00000000000E+00 0. -1.
         11    1    3    3    0    0  0.78418594250E+01  0.27736076664E+01 -0.53964089119E+01  0.99150838693E+01  0.51100000000E-03 0. -1.
        -11    1    3    3    0    0  0.13796000504E+02  0.33778261332E+02  0.11594246981E+02  0.38284815943E+02  0.51100000000E-03 0.  1.
         12    1    3    3    0    0 -0.21395069864E+02 -0.35411916741E+02 -0.60120858926E+01  0.41807870534E+02  0.00000000000E+00 0. -1.
</event>
<event>
 7    1  0.3568207E-015  0.9000774E+02  0.7816164E-02  0.1186339E+00
        -11   -1    0    0    0    0  0.00000000000E+00  0.00000000000E+00  0.45593999997E+02  0.45594000000E+02  0.51100000000E-03 0. -1.
         11   -1    0    0    0    0 -0.00000000000E+00 -0.00000000000E+00 -0.45593999997E+02  0.45594000000E+02  0.51100000000E-03 0.  1.
    9900012    2    1    2    0    0 -0.28225398118E+00  0.29729858774E+00 -0.11067784839E+01  0.90007740549E+02  0.90000001924E+02 0.  0.
         12    1    1    2    0    0  0.28225398118E+00 -0.29729858774E+00  0.11067784839E+01  0.11802594514E+01  0.00000000000E+00 0. -1.
         11    1    3    3    0    0 -0.74420996882E+00 -0.73097895484E+01  0.80107640051E+01  0.10870106344E+02  0.51100000000E-03 0. -1.
        -11    1    3    3    0    0  0.39233855804E+02  0.59721247540E+01 -0.24378863561E+01  0.39760596141E+02  0.51100000000E-03 0.  1.
         12    1    3    3    0    0 -0.38771899816E+02  0.16349633822E+01 -0.66796561329E+01  0.39377038064E+02  0.00000000000E+00 0. -1.
</event>
<event>
 7    1  0.3568207E-015  0.9000771E+02  0.7816164E-02  0.1186339E+00
        -11   -1    0    0    0    0  0.00000000000E+00  0.00000000000E+00  0.45593999997E+02  0.45594000000E+02  0.51100000000E-03 0. -1.
         11   -1    0    0    0    0 -0.00000000000E+00 -0.00000000000E+00 -0.45593999997E+02  0.45594000000E+02  0.51100000000E-03 0.  1.
    9900012    2    1    2    0    0  0.10441040193E+01  0.43833371439E+00  0.33285729731E+00  0.90007710362E+02  0.89999971339E+02 0.  0.
         12    1    1    2    0    0 -0.10441040193E+01 -0.43833371439E+00 -0.33285729731E+00  0.11802896376E+01  0.00000000000E+00 0. -1.
         11    1    3    3    0    0  0.33291288146E+00  0.31209432641E+01  0.84798192784E+01  0.90420381054E+01  0.51100000000E-03 0. -1.
        -11    1    3    3    0    0  0.31145549908E+02  0.24588544427E+02 -0.45759026708E+01  0.39944720323E+02  0.51100000000E-03 0.  1.
         12    1    3    3    0    0 -0.30434358770E+02 -0.27271153977E+02 -0.35710593102E+01  0.41020951934E+02  0.00000000000E+00 0. -1.
</event>
<event>
 7    1  0.3568207E-015  0.9000770E+02  0.7816164E-02  0.1186339E+00
        -11   -1    0    0    0    0  0.00000000000E+00  0.00000000000E+00  0.45593999997E+02  0.45594000000E+02  0.51100000000E-03 0. -1.
         11   -1    0    0    0    0 -0.00000000000E+00 -0.00000000000E+00 -0.45593999997E+02  0.45594000000E+02  0.51100000000E-03 0.  1.
    9900012    2    1    2    0    0  0.10031267319E+01 -0.61549303343E+00  0.89528943518E-01  0.90007699044E+02  0.89999959872E+02 0.  0.
         12    1    1    2    0    0 -0.10031267319E+01  0.61549303343E+00 -0.89528943518E-01  0.11803009557E+01  0.00000000000E+00 0. -1.
         11    1    3    3    0    0  0.34269768202E+02  0.12627660394E+02 -0.56650925517E+01  0.36959005581E+02  0.51100000000E-03 0. -1.
        -11    1    3    3    0    0  0.52908914641E+01  0.72338138622E+01  0.23113350167E+01  0.92554775835E+01  0.51100000000E-03 0.  1.
        -12    1    3    3    0    0 -0.38557532934E+02 -0.20476967290E+02  0.34432864786E+01  0.43793215880E+02  0.00000000000E+00 0.  1.
</event>
<event>
 7    1  0.3568207E-015  0.9000769E+02  0.7816164E-02  0.1186339E+00
        -11   -1    0    0    0    0  0.00000000000E+00  0.00000000000E+00  0.45593999997E+02  0.45594000000E+02  0.51100000000E-03 0. -1.
         11   -1    0    0    0    0 -0.00000000000E+00 -0.00000000000E+00 -0.45593999997E+02  0.45594000000E+02  0.51100000000E-03 0.  1.
    9900012    2    1    2    0    0  0.13197290827E+00 -0.11528595906E+01 -0.21593539472E+00  0.90007690643E+02  0.89999951359E+02 0.  0.
         12    1    1    2    0    0 -0.13197290827E+00  0.11528595906E+01  0.21593539472E+00  0.11803093573E+01  0.00000000000E+00 0. -1.
         11    1    3    3    0    0  0.35673239287E+01  0.48971973391E+01  0.58098563266E+01  0.83942106590E+01  0.51100000000E-03 0. -1.
        -11    1    3    3    0    0  0.29865180345E+02  0.21518849293E+02 -0.10154686180E+02  0.38185174134E+02  0.51100000000E-03 0.  1.
         12    1    3    3    0    0 -0.33300531365E+02 -0.27568906223E+02  0.41288944589E+01  0.43428305850E+02  0.00000000000E+00 0. -1.
</event>
<event>
 7    1  0.3568207E-015  0.9000795E+02  0.7816164E-02  0.1186339E+00
        -11   -1    0    0    0    0  0.00000000000E+00  0.00000000000E+00  0.45593999997E+02  0.45594000000E+02  0.51100000000E-03 0.  1.
         11   -1    0    0    0    0 -0.00000000000E+00 -0.00000000000E+00 -0.45593999997E+02  0.45594000000E+02  0.51100000000E-03 0. -1.
    9900012    2    1    2    0    0 -0.11345132274E+01 -0.30741048047E-01  0.32319845434E+00  0.90007948088E+02  0.90000212202E+02 0.  0.
         12    1    1    2    0    0  0.11345132274E+01  0.30741048047E-01 -0.32319845434E+00  0.11800519124E+01  0.00000000000E+00 0. -1.
         11    1    3    3    0    0  0.91541701518E+01  0.20306238978E+02 -0.35344028210E+02  0.41777296501E+02  0.51100000000E-03 0. -1.
        -11    1    3    3    0    0 -0.62993401672E+01  0.42049463421E+01  0.74945492936E+01  0.10655117534E+02  0.51100000000E-03 0.  1.
        -12    1    3    3    0    0 -0.39893432119E+01 -0.24541926368E+02  0.28172677371E+02  0.37575534053E+02  0.00000000000E+00 0.  1.
</event>
<event>
 7    1  0.3568207E-015  0.9000790E+02  0.7816164E-02  0.1186339E+00
        -11   -1    0    0    0    0  0.00000000000E+00  0.00000000000E+00  0.45593999997E+02  0.45594000000E+02  0.51100000000E-03 0. -1.
         11   -1    0    0    0    0 -0.00000000000E+00 -0.00000000000E+00 -0.45593999997E+02  0.45594000000E+02  0.51100000000E-03 0.  1.
    9900012    2    1    2    0    0  0.44226344027E+00 -0.10626509453E+01  0.26043008351E+00  0.90007895000E+02  0.90000158414E+02 0.  0.
         12    1    1    2    0    0 -0.44226344027E+00  0.10626509453E+01 -0.26043008351E+00  0.11801049998E+01  0.00000000000E+00 0. -1.
         11    1    3    3    0    0  0.10887574668E+01  0.80298277038E+01  0.26973942629E+01  0.85404602829E+01  0.51100000000E-03 0. -1.
        -11    1    3    3    0    0 -0.17615898179E+02  0.15265005547E+02 -0.31988394146E+02  0.39580268106E+02  0.51100000000E-03 0.  1.
         12    1    3    3    0    0  0.16969404153E+02 -0.24357484197E+02  0.29551429966E+02  0.41887166612E+02  0.00000000000E+00 0. -1.
</event>
<event>
 7    1  0.3568207E-015  0.9000773E+02  0.7816164E-02  0.1186339E+00
        -11   -1    0    0    0    0  0.00000000000E+00  0.00000000000E+00  0.45593999997E+02  0.45594000000E+02  0.51100000000E-03 0. -1.
         11   -1    0    0    0    0 -0.00000000000E+00 -0.00000000000E+00 -0.45593999997E+02  0.45594000000E+02  0.51100000000E-03 0.  1.
    9900012    2    1    2    0    0 -0.99485924656E+00  0.57346451955E+00 -0.27281954538E+00  0.90007730124E+02  0.89999991362E+02 0.  0.
         12    1    1    2    0    0  0.99485924656E+00 -0.57346451955E+00  0.27281954538E+00  0.11802698759E+01  0.00000000000E+00 0. -1.
         11    1    3    3    0    0 -0.67195765908E+00 -0.58573585323E+01 -0.35937557492E+01  0.69047271284E+01  0.51100000000E-03 0. -1.
        -11    1    3    3    0    0  0.11928775278E+02 -0.29255088322E+02 -0.21251883357E+02  0.38076218547E+02  0.51100000000E-03 0.  1.
         12    1    3    3    0    0 -0.12251676866E+02  0.35685911374E+02  0.24572819561E+02  0.45026784449E+02  0.00000000000E+00 0. -1.
</event>
<event>
 7    1  0.3568207E-015  0.9000790E+02  0.7816164E-02  0.1186339E+00
        -11   -1    0    0    0    0  0.00000000000E+00  0.00000000000E+00  0.45593999997E+02  0.45594000000E+02  0.51100000000E-03 0.  1.
         11   -1    0    0    0    0 -0.00000000000E+00 -0.00000000000E+00 -0.45593999997E+02  0.45594000000E+02  0.51100000000E-03 0. -1.
    9900012    2    1    2    0    0  0.84321895653E+00  0.13195482878E+00  0.81498453866E+00  0.90007902511E+02  0.90000166024E+02 0.  0.
         12    1    1    2    0    0 -0.84321895653E+00 -0.13195482878E+00 -0.81498453866E+00  0.11800974891E+01  0.00000000000E+00 0. -1.
         11    1    3    3    0    0  0.31331236949E+02 -0.18089023789E+02 -0.15749066455E+02  0.39457474385E+02  0.51100000000E-03 0. -1.
        -11    1    3    3    0    0  0.61335236597E+01  0.72766368334E+01  0.39032774565E+01  0.10286162125E+02  0.51100000000E-03 0.  1.
        -12    1    3    3    0    0 -0.36621541652E+02  0.10944341784E+02  0.12660773537E+02  0.40264266001E+02  0.00000000000E+00 0.  1.
</event>
<event>
 7    1  0.3568207E-015  0.9000777E+02  0.7816164E-02  0.1186339E+00
        -11   -1    0    0    0    0  0.00000000000E+00  0.00000000000E+00  0.45593999997E+02  0.45594000000E+02  0.51100000000E-03 0.  1.
         11   -1    0    0    0    0 -0.00000000000E+00 -0.00000000000E+00 -0.45593999997E+02  0.45594000000E+02  0.51100000000E-03 0. -1.
    9900012    2    1    2    0    0  0.57825846253E+00 -0.10156174248E+01  0.16458663386E+00  0.90007766818E+02  0.90000028540E+02 0.  0.
         12    1    1    2    0    0 -0.57825846253E+00  0.10156174248E+01 -0.16458663386E+00  0.11802331817E+01  0.00000000000E+00 0. -1.
         11    1    3    3    0    0 -0.20955172147E+01  0.47344414575E+01 -0.39539179750E+02  0.39876720826E+02  0.51100000000E-03 0. -1.
        -11    1    3    3    0    0 -0.95640275476E+01  0.18122798816E+01  0.22237271094E+01  0.99849859198E+01  0.51100000000E-03 0.  1.
        -12    1    3    3    0    0  0.12237803225E+02 -0.75623387639E+01  0.37480039274E+02  0.40146060072E+02  0.00000000000E+00 0.  1.
</event>
<event>
 7    1  0.3568207E-015  0.9000769E+02  0.7816164E-02  0.1186339E+00
        -11   -1    0    0    0    0  0.00000000000E+00  0.00000000000E+00  0.45593999997E+02  0.45594000000E+02  0.51100000000E-03 0.  1.
         11   -1    0    0    0    0 -0.00000000000E+00 -0.00000000000E+00 -0.45593999997E+02  0.45594000000E+02  0.51100000000E-03 0. -1.
    9900012    2    1    2    0    0 -0.86080719484E+00  0.44006085896E+00 -0.67711243439E+00  0.90007693330E+02  0.89999954082E+02 0.  0.
         12    1    1    2    0    0  0.86080719484E+00 -0.44006085896E+00  0.67711243439E+00  0.11803066699E+01  0.00000000000E+00 0. -1.
         11    1    3    3    0    0 -0.61685275938E+01 -0.56836463495E+01  0.23141091868E+01  0.87011303916E+01  0.51100000000E-03 0. -1.
        -11    1    3    3    0    0 -0.71917688560E+01 -0.28778651024E+02  0.21708863090E+02  0.36758768082E+02  0.51100000000E-03 0.  1.
         12    1    3    3    0    0  0.12499489255E+02  0.34902358232E+02 -0.24700084711E+02  0.44547794856E+02  0.00000000000E+00 0. -1.
</event>
<event>
 7    1  0.3568207E-015  0.9000771E+02  0.7816164E-02  0.1186339E+00
        -11   -1    0    0    0    0  0.00000000000E+00  0.00000000000E+00  0.45593999997E+02  0.45594000000E+02  0.51100000000E-03 0.  1.
         11   -1    0    0    0    0 -0.00000000000E+00 -0.00000000000E+00 -0.45593999997E+02  0.45594000000E+02  0.51100000000E-03 0. -1.
    9900012    2    1    2    0    0 -0.59051892527E-01  0.35847174406E-01  0.11782661246E+01  0.90007710541E+02  0.89999971520E+02 0.  0.
         12    1    1    2    0    0  0.59051892527E-01 -0.35847174406E-01 -0.11782661246E+01  0.11802894587E+01  0.00000000000E+00 0. -1.
         11    1    3    3    0    0 -0.15243808904E+01  0.75441513120E+01 -0.39435195517E+01  0.86480808758E+01  0.51100000000E-03 0. -1.
        -11    1    3    3    0    0  0.38198921456E+02 -0.19050972785E+02  0.21293223073E+01  0.42739105959E+02  0.51100000000E-03 0.  1.
         12    1    3    3    0    0 -0.36733592458E+02  0.11542668647E+02  0.29924633691E+01  0.38620523707E+02  0.00000000000E+00 0. -1.
</event>
<event>
 7    1  0.3568207E-015  0.9000771E+02  0.7816164E-02  0.1186339E+00
        -11   -1    0    0    0    0  0.00000000000E+00  0.00000000000E+00  0.45593999997E+02  0.45594000000E+02  0.51100000000E-03 0. -1.
         11   -1    0    0    0    0 -0.00000000000E+00 -0.00000000000E+00 -0.45593999997E+02  0.45594000000E+02  0.51100000000E-03 0.  1.
    9900012    2    1    2    0    0  0.31411195727E+00  0.30659987161E+00  0.10956342919E+01  0.90007710076E+02  0.89999971049E+02 0.  0.
         12    1    1    2    0    0 -0.31411195727E+00 -0.30659987161E+00 -0.10956342919E+01  0.11802899239E+01  0.00000000000E+00 0. -1.
         11    1    3    3    0    0 -0.36174190252E+02 -0.10961553117E+02 -0.56478180633E+01  0.38218130989E+02  0.51100000000E-03 0. -1.
        -11    1    3    3    0    0 -0.31645925461E+01  0.54019732244E+01 -0.70217087544E+01  0.94074627181E+01  0.51100000000E-03 0.  1.
        -12    1    3    3    0    0  0.39652894756E+02  0.58661797643E+01  0.13765161110E+02  0.42382116369E+02  0.00000000000E+00 0.  1.
</event>
<event>
 7    1  0.3568207E-015  0.9000805E+02  0.7816164E-02  0.1186338E+00
        -11   -1    0    0    0    0  0.00000000000E+00  0.00000000000E+00  0.45593999997E+02  0.45594000000E+02  0.51100000000E-03 0.  1.
         11   -1    0    0    0    0 -0.00000000000E+00 -0.00000000000E+00 -0.45593999997E+02  0.45594000000E+02  0.51100000000E-03 0. -1.
    9900012    2    1    2    0    0  0.56349624467E+00 -0.61106399271E+00  0.83746521977E+00  0.90008052876E+02  0.90000318373E+02 0.  0.
         12    1    1    2    0    0 -0.56349624467E+00  0.61106399271E+00 -0.83746521977E+00  0.11799471239E+01  0.00000000000E+00 0. -1.
         11    1    3    3    0    0 -0.56909601192E+01  0.67277669590E+01  0.49089751244E+01  0.10087017020E+02  0.51100000000E-03 0. -1.
        -11    1    3    3    0    0 -0.14632576585E+01  0.18020739100E+02  0.31043083581E+02  0.35924381681E+02  0.51100000000E-03 0.  1.
         12    1    3    3    0    0  0.77177140224E+01 -0.25359570051E+02 -0.35114593486E+02  0.43996654175E+02  0.00000000000E+00 0. -1.
</event>
<event>
 7    1  0.3568207E-015  0.9000764E+02  0.7816164E-02  0.1186339E+00
        -11   -1    0    0    0    0  0.00000000000E+00  0.00000000000E+00  0.45593999997E+02  0.45594000000E+02  0.51100000000E-03 0. -1.
         11   -1    0    0    0    0 -0.00000000000E+00 -0.00000000000E+00 -0.45593999997E+02  0.45594000000E+02  0.51100000000E-03 0.  1.
    9900012    2    1    2    0    0 -0.69866934284E+00  0.43848966182E+00 -0.84429842109E+00  0.90007639098E+02  0.89999899134E+02 0.  0.
         12    1    1    2    0    0  0.69866934284E+00 -0.43848966182E+00  0.84429842109E+00  0.11803609016E+01  0.00000000000E+00 0. -1.
         11    1    3    3    0    0 -0.12065993518E+02 -0.30477942591E+02  0.19455465994E+02  0.38118346520E+02  0.51100000000E-03 0. -1.
        -11    1    3    3    0    0 -0.94941963880E+01 -0.71376301873E+00 -0.66583213325E+01  0.11618195468E+02  0.51100000000E-03 0.  1.
        -12    1    3    3    0    0  0.20861520563E+02  0.31630195271E+02 -0.13641443083E+02  0.40271097110E+02  0.00000000000E+00 0.  1.
</event>
<event>
 7    1  0.3568207E-015  0.9000774E+02  0.7816164E-02  0.1186339E+00
        -11   -1    0    0    0    0  0.00000000000E+00  0.00000000000E+00  0.45593999997E+02  0.45594000000E+02  0.51100000000E-03 0.  1.
         11   -1    0    0    0    0 -0.00000000000E+00 -0.00000000000E+00 -0.45593999997E+02  0.45594000000E+02  0.51100000000E-03 0. -1.
    9900012    2    1    2    0    0  0.64114880206E+00 -0.98970694403E+00  0.49189266457E-01  0.90007741043E+02  0.90000002425E+02 0.  0.
         12    1    1    2    0    0 -0.64114880206E+00  0.98970694403E+00 -0.49189266457E-01  0.11802589569E+01  0.00000000000E+00 0. -1.
         11    1    3    3    0    0  0.30688447708E+02  0.12877157304E+02 -0.20487407188E+02  0.39081144514E+02  0.51100000000E-03 0. -1.
        -11    1    3    3    0    0  0.62688644376E+01 -0.62092515157E+01  0.71984550576E+00  0.88527760356E+01  0.51100000000E-03 0.  1.
        -12    1    3    3    0    0 -0.36316163344E+02 -0.76576127318E+01  0.19816750949E+02  0.42073820494E+02  0.00000000000E+00 0.  1.
</event>
<event>
 7    1  0.3568207E-015  0.9000770E+02  0.7816164E-02  0.1186339E+00
        -11   -1    0    0    0    0  0.00000000000E+00  0.00000000000E+00  0.45593999997E+02  0.45594000000E+02  0.51100000000E-03 0. -1.
         11   -1    0    0    0    0 -0.00000000000E+00 -0.00000000000E+00 -0.45593999997E+02  0.45594000000E+02  0.51100000000E-03 0.  1.
    9900012    2    1    2    0    0 -0.55545732600E+00 -0.86204077953E+00 -0.58435407718E+00  0.90007696296E+02  0.89999957087E+02 0.  0.
         12    1    1    2    0    0  0.55545732600E+00  0.86204077953E+00  0.58435407718E+00  0.11803037042E+01  0.00000000000E+00 0. -1.
         11    1    3    3    0    0  0.32195208253E+02 -0.17357756895E+02 -0.27942832222E+01  0.36682845826E+02  0.51100000000E-03 0. -1.
        -11    1    3    3    0    0  0.72067730575E+01  0.47251097228E+00 -0.61312295278E+01  0.94737965096E+01  0.51100000000E-03 0.  1.
        -12    1    3    3    0    0 -0.39957438636E+02  0.16023205144E+02  0.83411586728E+01  0.43851053961E+02  0.00000000000E+00 0.  1.
</event>
<event>
 7    1  0.3568207E-015  0.9000776E+02  0.7816164E-02  0.1186339E+00
        -11   -1    0    0    0    0  0.00000000000E+00  0.00000000000E+00  0.45593999997E+02  0.45594000000E+02  0.51100000000E-03 0. -1.
         11   -1    0    0    0    0 -0.00000000000E+00 -0.00000000000E+00 -0.45593999997E+02  0.45594000000E+02  0.51100000000E-03 0.  1.
    9900012    2    1    2    0    0 -0.80638493644E+00  0.19813253294E+00 -0.83872100502E+00  0.90007760155E+02  0.90000021790E+02 0.  0.
         12    1    1    2    0    0  0.80638493644E+00 -0.19813253294E+00  0.83872100502E+00  0.11802398445E+01  0.00000000000E+00 0. -1.
         11    1    3    3    0    0 -0.41988316841E+01  0.25653112105E+02  0.28469651240E+02  0.38551697630E+02  0.51100000000E-03 0. -1.
        -11    1    3    3    0    0 -0.46615785926E+00  0.82792637883E+01 -0.48088543851E+01  0.95858537849E+01  0.51100000000E-03 0.  1.
        -12    1    3    3    0    0  0.38586046069E+01 -0.33734243360E+02 -0.24499517860E+02  0.41870208740E+02  0.00000000000E+00 0.  1.
</event>
<event>
 7    1  0.3568207E-015  0.9000778E+02  0.7816164E-02  0.1186339E+00
        -11   -1    0    0    0    0  0.00000000000E+00  0.00000000000E+00  0.45593999997E+02  0.45594000000E+02  0.51100000000E-03 0. -1.
         11   -1    0    0    0    0 -0.00000000000E+00 -0.00000000000E+00 -0.45593999997E+02  0.45594000000E+02  0.51100000000E-03 0.  1.
    9900012    2    1    2    0    0 -0.78240985610E+00 -0.41102717171E+00 -0.78218744014E+00  0.90007777262E+02  0.90000039122E+02 0.  0.
         12    1    1    2    0    0  0.78240985610E+00  0.41102717171E+00  0.78218744014E+00  0.11802227376E+01  0.00000000000E+00 0. -1.
         11    1    3    3    0    0  0.26014707353E+02  0.22382111131E+02  0.22135104326E+02  0.40837320445E+02  0.51100000000E-03 0. -1.
        -11    1    3    3    0    0  0.33481707062E+01 -0.84161270431E+01 -0.75732778226E+00  0.90892786906E+01  0.51100000000E-03 0.  1.
        -12    1    3    3    0    0 -0.30145287915E+02 -0.14377011260E+02 -0.22159963984E+02  0.40081178127E+02  0.00000000000E+00 0.  1.
</event>
<event>
 7    1  0.3568207E-015  0.9000716E+02  0.7816164E-02  0.1186340E+00
        -11   -1    0    0    0    0  0.00000000000E+00  0.00000000000E+00  0.45593999997E+02  0.45594000000E+02  0.51100000000E-03 0.  1.
         11   -1    0    0    0    0 -0.00000000000E+00 -0.00000000000E+00 -0.45593999997E+02  0.45594000000E+02  0.51100000000E-03 0. -1.
    9900012    2    1    2    0    0  0.42680145340E+00  0.75492574467E+00  0.80144716321E+00  0.90007157116E+02  0.89999410788E+02 0.  0.
         12    1    1    2    0    0 -0.42680145340E+00 -0.75492574467E+00 -0.80144716321E+00  0.11808428837E+01  0.00000000000E+00 0. -1.
         11    1    3    3    0    0  0.92432588413E+01 -0.81257237028E+00 -0.48795156329E+01  0.10483691189E+02  0.51100000000E-03 0. -1.
        -11    1    3    3    0    0  0.59838080111E+01 -0.37214238529E+02  0.53705053906E+00  0.37696073153E+02  0.51100000000E-03 0.  1.
         12    1    3    3    0    0 -0.14800265399E+02  0.38781736644E+02  0.51439122571E+01  0.41827392775E+02  0.00000000000E+00 0. -1.
</event>
<event>
 7    1  0.3568207E-015  0.9000779E+02  0.7816164E-02  0.1186339E+00
        -11   -1    0    0    0    0  0.00000000000E+00  0.00000000000E+00  0.45593999997E+02  0.45594000000E+02  0.51100000000E-03 0. -1.
         11   -1    0    0    0    0 -0.00000000000E+00 -0.00000000000E+00 -0.45593999997E+02  0.45594000000E+02  0.51100000000E-03 0.  1.
    9900012    2    1    2    0    0 -0.32859582770E+00 -0.78134026461E+00 -0.82123049428E+00  0.90007793513E+02  0.90000055587E+02 0.  0.
         12    1    1    2    0    0  0.32859582770E+00  0.78134026461E+00  0.82123049428E+00  0.11802064869E+01  0.00000000000E+00 0. -1.
         11    1    3    3    0    0  0.25341639211E+02  0.93409248717E+01 -0.23090125062E+02  0.35533159598E+02  0.51100000000E-03 0. -1.
        -11    1    3    3    0    0  0.95920680517E+01  0.27652158624E+01 -0.14186632330E+01  0.10082995284E+02  0.51100000000E-03 0.  1.
        -12    1    3    3    0    0 -0.35262303091E+02 -0.12887480999E+02  0.23687557801E+02  0.44391638631E+02  0.00000000000E+00 0.  1.
</event>
<event>
 7    1  0.3568207E-015  0.9000780E+02  0.7816164E-02  0.1186339E+00
        -11   -1    0    0    0    0  0.00000000000E+00  0.00000000000E+00  0.45593999997E+02  0.45594000000E+02  0.51100000000E-03 0. -1.
         11   -1    0    0    0    0 -0.00000000000E+00 -0.00000000000E+00 -0.45593999997E+02  0.45594000000E+02  0.51100000000E-03 0.  1.
    9900012    2    1    2    0    0  0.11111425412E+01  0.12303417489E+00 -0.37827212334E+00  0.90007803002E+02  0.90000065201E+02 0.  0.
         12    1    1    2    0    0 -0.11111425412E+01 -0.12303417489E+00  0.37827212334E+00  0.11801969981E+01  0.00000000000E+00 0. -1.
         11    1    3    3    0    0 -0.18902038399E+02  0.81418790673E+00  0.22081124207E+02  0.29077929846E+02  0.51100000000E-03 0. -1.
        -11    1    3    3    0    0 -0.10665009063E+02 -0.22240340300E+01  0.11018910223E+02  0.15495326019E+02  0.51100000000E-03 0.  1.
        -12    1    3    3    0    0  0.30678190003E+02  0.15328802982E+01 -0.33478306553E+02  0.45434547137E+02  0.00000000000E+00 0.  1.
</event>
<event>
 7    1  0.3568207E-015  0.9000770E+02  0.7816164E-02  0.1186339E+00
        -11   -1    0    0    0    0  0.00000000000E+00  0.00000000000E+00  0.45593999997E+02  0.45594000000E+02  0.51100000000E-03 0. -1.
         11   -1    0    0    0    0 -0.00000000000E+00 -0.00000000000E+00 -0.45593999997E+02  0.45594000000E+02  0.51100000000E-03 0.  1.
    9900012    2    1    2    0    0  0.57078688788E+00 -0.38135281309E+00 -0.96014950972E+00  0.90007697191E+02  0.89999957994E+02 0.  0.
         12    1    1    2    0    0 -0.57078688788E+00  0.38135281309E+00  0.96014950972E+00  0.11803028088E+01  0.00000000000E+00 0. -1.
         11    1    3    3    0    0  0.17804026973E+01 -0.36194121627E+01  0.27251750965E+02  0.27548646230E+02  0.51100000000E-03 0. -1.
        -11    1    3    3    0    0 -0.15860067873E+02 -0.11257703461E+02  0.78092793448E+01  0.20958589750E+02  0.51100000000E-03 0.  1.
         12    1    3    3    0    0  0.14650452064E+02  0.14495762811E+02 -0.36021179820E+02  0.41500461211E+02  0.00000000000E+00 0. -1.
</event>
<event>
 7    1  0.3568207E-015  0.9000761E+02  0.7816164E-02  0.1186339E+00
        -11   -1    0    0    0    0  0.00000000000E+00  0.00000000000E+00  0.45593999997E+02  0.45594000000E+02  0.51100000000E-03 0. -1.
         11   -1    0    0    0    0 -0.00000000000E+00 -0.00000000000E+00 -0.45593999997E+02  0.45594000000E+02  0.51100000000E-03 0.  1.
    9900012    2    1    2    0    0 -0.81581952794E+00  0.54545682008E+00  0.65592157668E+00  0.90007611183E+02  0.89999870850E+02 0.  0.
         12    1    1    2    0    0  0.81581952794E+00 -0.54545682008E+00 -0.65592157668E+00  0.11803888171E+01  0.00000000000E+00 0. -1.
         11    1    3    3    0    0  0.10510791930E+02 -0.35102781784E+02  0.15889686794E+02  0.39939506540E+02  0.51100000000E-03 0. -1.
        -11    1    3    3    0    0 -0.31514963561E+01  0.41171087004E+01  0.83669970239E+01  0.98432287789E+01  0.51100000000E-03 0.  1.
        -12    1    3    3    0    0 -0.81751151019E+01  0.31531129903E+02 -0.23600762242E+02  0.40224875864E+02  0.00000000000E+00 0.  1.
</event>
<event>
 7    1  0.3568207E-015  0.9000838E+02  0.7816164E-02  0.1186338E+00
        -11   -1    0    0    0    0  0.00000000000E+00  0.00000000000E+00  0.45593999997E+02  0.45594000000E+02  0.51100000000E-03 0.  1.
         11   -1    0    0    0    0 -0.00000000000E+00 -0.00000000000E+00 -0.45593999997E+02  0.45594000000E+02  0.51100000000E-03 0. -1.
    9900012    2    1    2    0    0  0.76743282355E+00  0.88398061951E+00  0.14538865400E+00  0.90008376020E+02  0.90000645781E+02 0.  0.
         12    1    1    2    0    0 -0.76743282355E+00 -0.88398061951E+00 -0.14538865400E+00  0.11796239804E+01  0.00000000000E+00 0. -1.
         11    1    3    3    0    0  0.24918237055E+01 -0.58376518720E+01 -0.43372247532E+02  0.43834224311E+02  0.51100000000E-03 0. -1.
        -11    1    3    3    0    0  0.40752919649E+01  0.46726308923E+01  0.79667953554E+01  0.10095113301E+02  0.51100000000E-03 0.  1.
        -12    1    3    3    0    0 -0.57996828469E+01  0.20490015992E+01  0.35550840830E+02  0.36079038408E+02  0.00000000000E+00 0.  1.
</event>
<event>
 7    1  0.3568207E-015  0.9000803E+02  0.7816164E-02  0.1186338E+00
        -11   -1    0    0    0    0  0.00000000000E+00  0.00000000000E+00  0.45593999997E+02  0.45594000000E+02  0.51100000000E-03 0.  1.
         11   -1    0    0    0    0 -0.00000000000E+00 -0.00000000000E+00 -0.45593999997E+02  0.45594000000E+02  0.51100000000E-03 0. -1.
    9900012    2    1    2    0    0 -0.56955280175E+00 -0.21746241106E+00  0.10102719571E+01  0.90008029779E+02  0.90000294972E+02 0.  0.
         12    1    1    2    0    0  0.56955280175E+00  0.21746241106E+00 -0.10102719571E+01  0.11799702206E+01  0.00000000000E+00 0. -1.
         11    1    3    3    0    0  0.15304684038E+02  0.37219148940E+02  0.80491335442E+01  0.41040065209E+02  0.51100000000E-03 0. -1.
        -11    1    3    3    0    0  0.11772259638E+01 -0.49151952943E+01  0.78561335802E+01  0.93415117000E+01  0.51100000000E-03 0.  1.
        -12    1    3    3    0    0 -0.17051462803E+02 -0.32521416056E+02 -0.14894995167E+02  0.39626452870E+02  0.00000000000E+00 0.  1.
</event>
<event>
 7    1  0.3568207E-015  0.9000775E+02  0.7816164E-02  0.1186339E+00
        -11   -1    0    0    0    0  0.00000000000E+00  0.00000000000E+00  0.45593999997E+02  0.45594000000E+02  0.51100000000E-03 0.  1.
         11   -1    0    0    0    0 -0.00000000000E+00 -0.00000000000E+00 -0.45593999997E+02  0.45594000000E+02  0.51100000000E-03 0. -1.
    9900012    2    1    2    0    0 -0.62928600389E+00  0.98477662216E+00  0.16492958191E+00  0.90007751027E+02  0.90000012541E+02 0.  0.
         12    1    1    2    0    0  0.62928600389E+00 -0.98477662216E+00 -0.16492958191E+00  0.11802489726E+01  0.00000000000E+00 0. -1.
         11    1    3    3    0    0 -0.21424617973E+02 -0.27714463282E+01 -0.22098284751E+02  0.30903549298E+02  0.51100000000E-03 0. -1.
        -11    1    3    3    0    0 -0.16154996347E+02  0.18010647377E+01  0.68393695422E+00  0.16269465609E+02  0.51100000000E-03 0.  1.
        -12    1    3    3    0    0  0.36950328316E+02  0.19551582127E+01  0.21579277379E+02  0.42834736120E+02  0.00000000000E+00 0.  1.
</event>
<event>
 7    1  0.3568207E-015  0.9000774E+02  0.7816164E-02  0.1186339E+00
        -11   -1    0    0    0    0  0.00000000000E+00  0.00000000000E+00  0.45593999997E+02  0.45594000000E+02  0.51100000000E-03 0.  1.
         11   -1    0    0    0    0 -0.00000000000E+00 -0.00000000000E+00 -0.45593999997E+02  0.45594000000E+02  0.51100000000E-03 0. -1.
    9900012    2    1    2    0    0  0.33956106789E-01  0.72217627602E+00  0.93291219558E+00  0.90007738692E+02  0.90000000043E+02 0.  0.
         12    1    1    2    0    0 -0.33956106789E-01 -0.72217627602E+00 -0.93291219558E+00  0.11802613081E+01  0.00000000000E+00 0. -1.
         11    1    3    3    0    0  0.32980622679E+01  0.59469681126E+01  0.62839071047E+01  0.92591108222E+01  0.51100000000E-03 0. -1.
        -11    1    3    3    0    0  0.17662732291E+02  0.17576602507E+02  0.26474084667E+02  0.36356378077E+02  0.51100000000E-03 0.  1.
         12    1    3    3    0    0 -0.20926838453E+02 -0.22801394343E+02 -0.31825079576E+02  0.44392249793E+02  0.00000000000E+00 0. -1.
</event>
<event>
 7    1  0.3568207E-015  0.9000771E+02  0.7816164E-02  0.1186339E+00
        -11   -1    0    0    0    0  0.00000000000E+00  0.00000000000E+00  0.45593999997E+02  0.45594000000E+02  0.51100000000E-03 0.  1.
         11   -1    0    0    0    0 -0.00000000000E+00 -0.00000000000E+00 -0.45593999997E+02  0.45594000000E+02  0.51100000000E-03 0. -1.
    9900012    2    1    2    0    0 -0.53280026166E+00  0.44320161156E+00  0.95539573957E+00  0.90007709863E+02  0.89999970834E+02 0.  0.
         12    1    1    2    0    0  0.53280026166E+00 -0.44320161156E+00 -0.95539573957E+00  0.11802901366E+01  0.00000000000E+00 0. -1.
         11    1    3    3    0    0 -0.34503467828E+02 -0.15240725897E+01  0.19783317599E+02  0.39801906297E+02  0.51100000000E-03 0. -1.
        -11    1    3    3    0    0  0.40113412210E+01  0.94914836646E+01  0.47494610079E+01  0.11346210851E+02  0.51100000000E-03 0.  1.
        -12    1    3    3    0    0  0.29959326345E+02 -0.75242094633E+01 -0.23577382868E+02  0.38859592715E+02  0.00000000000E+00 0.  1.
</event>
<event>
 7    1  0.3568207E-015  0.9000764E+02  0.7816164E-02  0.1186339E+00
        -11   -1    0    0    0    0  0.00000000000E+00  0.00000000000E+00  0.45593999997E+02  0.45594000000E+02  0.51100000000E-03 0. -1.
         11   -1    0    0    0    0 -0.00000000000E+00 -0.00000000000E+00 -0.45593999997E+02  0.45594000000E+02  0.51100000000E-03 0.  1.
    9900012    2    1    2    0    0 -0.75493217792E+00  0.46785979067E+00 -0.77744635268E+00  0.90007644880E+02  0.89999904993E+02 0.  0.
         12    1    1    2    0    0  0.75493217792E+00 -0.46785979067E+00  0.77744635268E+00  0.11803551196E+01  0.00000000000E+00 0. -1.
         11    1    3    3    0    0  0.99016172151E+00  0.36108208590E+02  0.47521471477E+01  0.36433035155E+02  0.51100000000E-03 0. -1.
        -11    1    3    3    0    0  0.35120994115E+01  0.79912718452E+01 -0.39972801825E+01  0.96007039898E+01  0.51100000000E-03 0.  1.
        -12    1    3    3    0    0 -0.52571933109E+01 -0.43631620644E+02 -0.15323133179E+01  0.43973905736E+02  0.00000000000E+00 0.  1.
</event>
<event>
 7    1  0.3568207E-015  0.9000767E+02  0.7816164E-02  0.1186339E+00
        -11   -1    0    0    0    0  0.00000000000E+00  0.00000000000E+00  0.45593999997E+02  0.45594000000E+02  0.51100000000E-03 0. -1.
         11   -1    0    0    0    0 -0.00000000000E+00 -0.00000000000E+00 -0.45593999997E+02  0.45594000000E+02  0.51100000000E-03 0.  1.
    9900012    2    1    2    0    0  0.97929809035E+00  0.63161921017E+00 -0.18762595439E+00  0.90007673318E+02  0.89999933806E+02 0.  0.
         12    1    1    2    0    0 -0.97929809035E+00 -0.63161921017E+00  0.18762595439E+00  0.11803266815E+01  0.00000000000E+00 0. -1.
         11    1    3    3    0    0  0.10887948376E+02  0.47266127079E+01  0.89519901122E+01  0.14866957145E+02  0.51100000000E-03 0. -1.
        -11    1    3    3    0    0  0.24725075960E+02  0.55586930304E+01 -0.25221424325E+02  0.35754002498E+02  0.51100000000E-03 0.  1.
         12    1    3    3    0    0 -0.34633726246E+02 -0.96536865281E+01  0.16081808258E+02  0.39386713675E+02  0.00000000000E+00 0. -1.
</event>
<event>
 7    1  0.3568207E-015  0.9000809E+02  0.7816164E-02  0.1186338E+00
        -11   -1    0    0    0    0  0.00000000000E+00  0.00000000000E+00  0.45593999997E+02  0.45594000000E+02  0.51100000000E-03 0. -1.
         11   -1    0    0    0    0 -0.00000000000E+00 -0.00000000000E+00 -0.45593999997E+02  0.45594000000E+02  0.51100000000E-03 0.  1.
    9900012    2    1    2    0    0  0.11835890646E+00  0.11185180927E+01  0.35649722568E+00  0.90008092450E+02  0.90000358470E+02 0.  0.
         12    1    1    2    0    0 -0.11835890646E+00 -0.11185180927E+01 -0.35649722568E+00  0.11799075499E+01  0.00000000000E+00 0. -1.
         11    1    3    3    0    0 -0.19827224646E+02 -0.89206243288E-01  0.35119137111E+02  0.40329648977E+02  0.51100000000E-03 0. -1.
        -11    1    3    3    0    0  0.14523198687E+01  0.10281679166E+02 -0.14125423544E+01  0.10479381453E+02  0.51100000000E-03 0.  1.
        -12    1    3    3    0    0  0.18493263683E+02 -0.90739548301E+01 -0.33350097531E+02  0.39199062020E+02  0.00000000000E+00 0.  1.
</event>
<event>
 7    1  0.3568207E-015  0.9000750E+02  0.7816164E-02  0.1186340E+00
        -11   -1    0    0    0    0  0.00000000000E+00  0.00000000000E+00  0.45593999997E+02  0.45594000000E+02  0.51100000000E-03 0.  1.
         11   -1    0    0    0    0 -0.00000000000E+00 -0.00000000000E+00 -0.45593999997E+02  0.45594000000E+02  0.51100000000E-03 0. -1.
    9900012    2    1    2    0    0  0.95868925649E+00 -0.51269454419E+00  0.46003464788E+00  0.90007503213E+02  0.89999761455E+02 0.  0.
         12    1    1    2    0    0 -0.95868925649E+00  0.51269454419E+00 -0.46003464788E+00  0.11804967867E+01  0.00000000000E+00 0. -1.
         11    1    3    3    0    0  0.91966438234E+01  0.61105127736E+01 -0.69471207941E+01  0.13045271617E+02  0.51100000000E-03 0. -1.
        -11    1    3    3    0    0  0.29709147761E+02  0.76764878076E+01  0.17293475200E+02  0.35222524193E+02  0.51100000000E-03 0.  1.
         12    1    3    3    0    0 -0.37947102328E+02 -0.14299695125E+02 -0.98863197576E+01  0.41739707404E+02  0.00000000000E+00 0. -1.
</event>
<event>
 7    1  0.3568207E-015  0.9000773E+02  0.7816164E-02  0.1186339E+00
        -11   -1    0    0    0    0  0.00000000000E+00  0.00000000000E+00  0.45593999997E+02  0.45594000000E+02  0.51100000000E-03 0.  1.
         11   -1    0    0    0    0 -0.00000000000E+00 -0.00000000000E+00 -0.45593999997E+02  0.45594000000E+02  0.51100000000E-03 0. -1.
    9900012    2    1    2    0    0 -0.10688110327E+01 -0.31401957828E+00  0.38996181569E+00  0.90007730735E+02  0.89999991981E+02 0.  0.
         12    1    1    2    0    0  0.10688110327E+01  0.31401957828E+00 -0.38996181569E+00  0.11802692646E+01  0.00000000000E+00 0. -1.
         11    1    3    3    0    0  0.30302202828E+02 -0.20987959108E+02 -0.84175342851E+01  0.37809691978E+02  0.51100000000E-03 0. -1.
        -11    1    3    3    0    0  0.12484495865E+01  0.11557685171E+01 -0.97498490552E+01  0.98971705096E+01  0.51100000000E-03 0.  1.
        -12    1    3    3    0    0 -0.32619463447E+02  0.19518171013E+02  0.18557345156E+02  0.42300868248E+02  0.00000000000E+00 0.  1.
</event>
<event>
 7    1  0.3568207E-015  0.9000773E+02  0.7816164E-02  0.1186339E+00
        -11   -1    0    0    0    0  0.00000000000E+00  0.00000000000E+00  0.45593999997E+02  0.45594000000E+02  0.51100000000E-03 0. -1.
         11   -1    0    0    0    0 -0.00000000000E+00 -0.00000000000E+00 -0.45593999997E+02  0.45594000000E+02  0.51100000000E-03 0.  1.
    9900012    2    1    2    0    0  0.45636501503E+00  0.89612518469E+00 -0.61784251439E+00  0.90007729376E+02  0.89999990604E+02 0.  0.
         12    1    1    2    0    0 -0.45636501503E+00 -0.89612518469E+00  0.61784251439E+00  0.11802706241E+01  0.00000000000E+00 0. -1.
         11    1    3    3    0    0 -0.20983566622E+02 -0.20929929619E+02 -0.15147588594E+02  0.33283952027E+02  0.51100000000E-03 0. -1.
        -11    1    3    3    0    0 -0.13546419234E+02  0.70242673305E+01 -0.18175238942E+01  0.15367146741E+02  0.51100000000E-03 0.  1.
         12    1    3    3    0    0  0.34986350871E+02  0.14801787473E+02  0.16347269974E+02  0.41356630608E+02  0.00000000000E+00 0. -1.
</event>
<event>
 7    1  0.3568207E-015  0.9000741E+02  0.7816164E-02  0.1186340E+00
        -11   -1    0    0    0    0  0.00000000000E+00  0.00000000000E+00  0.45593999997E+02  0.45594000000E+02  0.51100000000E-03 0. -1.
         11   -1    0    0    0    0 -0.00000000000E+00 -0.00000000000E+00 -0.45593999997E+02  0.45594000000E+02  0.51100000000E-03 0.  1.
    9900012    2    1    2    0    0  0.58036849919E+00 -0.10490323874E+00 -0.10227264522E+01  0.90007406217E+02  0.89999663178E+02 0.  0.
         12    1    1    2    0    0 -0.58036849919E+00  0.10490323874E+00  0.10227264522E+01  0.11805937830E+01  0.00000000000E+00 0. -1.
         11    1    3    3    0    0  0.68329993352E+01 -0.80900144655E+01  0.18673283202E+01  0.10752912595E+02  0.51100000000E-03 0. -1.
        -11    1    3    3    0    0 -0.32163547557E+02 -0.22451240374E+02 -0.96130108038E+00  0.39236157888E+02  0.51100000000E-03 0.  1.
         12    1    3    3    0    0  0.25910916721E+02  0.30436351601E+02 -0.19287536921E+01  0.40018335734E+02  0.00000000000E+00 0. -1.
</event>
<event>
 7    1  0.3568207E-015  0.9000756E+02  0.7816164E-02  0.1186339E+00
        -11   -1    0    0    0    0  0.00000000000E+00  0.00000000000E+00  0.45593999997E+02  0.45594000000E+02  0.51100000000E-03 0. -1.
         11   -1    0    0    0    0 -0.00000000000E+00 -0.00000000000E+00 -0.45593999997E+02  0.45594000000E+02  0.51100000000E-03 0.  1.
    9900012    2    1    2    0    0 -0.27202555339E+00 -0.38666693891E+00 -0.10816359464E+01  0.90007557056E+02  0.89999816009E+02 0.  0.
         12    1    1    2    0    0  0.27202555339E+00  0.38666693891E+00  0.10816359464E+01  0.11804429440E+01  0.00000000000E+00 0. -1.
         11    1    3    3    0    0  0.76987309358E+01  0.39982161999E+02 -0.21263924616E+01  0.40772114016E+02  0.51100000000E-03 0. -1.
        -11    1    3    3    0    0  0.83700380521E+01 -0.42667927035E+01 -0.15532212019E+01  0.95223712031E+01  0.51100000000E-03 0.  1.
        -12    1    3    3    0    0 -0.16340794541E+02 -0.36102036235E+02  0.25979777170E+01  0.39713071837E+02  0.00000000000E+00 0.  1.
</event>
<event>
 7    1  0.3568207E-015  0.9000773E+02  0.7816164E-02  0.1186339E+00
        -11   -1    0    0    0    0  0.00000000000E+00  0.00000000000E+00  0.45593999997E+02  0.45594000000E+02  0.51100000000E-03 0.  1.
         11   -1    0    0    0    0 -0.00000000000E+00 -0.00000000000E+00 -0.45593999997E+02  0.45594000000E+02  0.51100000000E-03 0. -1.
    9900012    2    1    2    0    0  0.96714718611E+00 -0.65978899695E+00  0.14944269063E+00  0.90007733794E+02  0.89999995080E+02 0.  0.
         12    1    1    2    0    0 -0.96714718611E+00  0.65978899695E+00 -0.14944269063E+00  0.11802662064E+01  0.00000000000E+00 0. -1.
         11    1    3    3    0    0 -0.38379198670E+02 -0.25687296815E+01 -0.77166057055E+01  0.39231457615E+02  0.51100000000E-03 0. -1.
        -11    1    3    3    0    0  0.13973696160E+02  0.29695652849E+01 -0.11902262891E+02  0.18594256225E+02  0.51100000000E-03 0.  1.
        -12    1    3    3    0    0  0.25372649696E+02 -0.10606246004E+01  0.19768311287E+02  0.32182019953E+02  0.00000000000E+00 0.  1.
</event>
<event>
 7    1  0.3568207E-015  0.9000774E+02  0.7816164E-02  0.1186339E+00
        -11   -1    0    0    0    0  0.00000000000E+00  0.00000000000E+00  0.45593999997E+02  0.45594000000E+02  0.51100000000E-03 0. -1.
         11   -1    0    0    0    0 -0.00000000000E+00 -0.00000000000E+00 -0.45593999997E+02  0.45594000000E+02  0.51100000000E-03 0.  1.
    9900012    2    1    2    0    0  0.37194763893E+00  0.15764556270E+00 -0.11089747439E+01  0.90007736406E+02  0.89999997726E+02 0.  0.
         12    1    1    2    0    0 -0.37194763893E+00 -0.15764556270E+00  0.11089747439E+01  0.11802635943E+01  0.00000000000E+00 0. -1.
         11    1    3    3    0    0 -0.82770855073E+01 -0.19362279871E+02  0.30997054798E+02  0.37472996046E+02  0.51100000000E-03 0. -1.
        -11    1    3    3    0    0  0.22141746210E+01  0.13571913526E+01  0.77995467458E+01  0.82205515217E+01  0.51100000000E-03 0.  1.
        -12    1    3    3    0    0  0.64348585253E+01  0.18162734081E+02 -0.39905576287E+02  0.44314188838E+02  0.00000000000E+00 0.  1.
</event>
<event>
 7    1  0.3568207E-015  0.9000755E+02  0.7816164E-02  0.1186339E+00
        -11   -1    0    0    0    0  0.00000000000E+00  0.00000000000E+00  0.45593999997E+02  0.45594000000E+02  0.51100000000E-03 0. -1.
         11   -1    0    0    0    0 -0.00000000000E+00 -0.00000000000E+00 -0.45593999997E+02  0.45594000000E+02  0.51100000000E-03 0.  1.
    9900012    2    1    2    0    0  0.17267665651E+00  0.10983661769E+01 -0.39654088378E+00  0.90007546630E+02  0.89999805445E+02 0.  0.
         12    1    1    2    0    0 -0.17267665651E+00 -0.10983661769E+01  0.39654088378E+00  0.11804533700E+01  0.00000000000E+00 0. -1.
         11    1    3    3    0    0  0.37945996786E+02  0.42592718228E+01  0.11988208626E+02  0.40021959158E+02  0.51100000000E-03 0. -1.
        -11    1    3    3    0    0  0.78170687688E+00 -0.90394294033E+01 -0.47624467248E+01  0.10247109282E+02  0.51100000000E-03 0.  1.
        -12    1    3    3    0    0 -0.38555027006E+02  0.58785237573E+01 -0.76223027854E+01  0.39738478189E+02  0.00000000000E+00 0.  1.
</event>
<event>
 7    1  0.3568207E-015  0.9000773E+02  0.7816164E-02  0.1186339E+00
        -11   -1    0    0    0    0  0.00000000000E+00  0.00000000000E+00  0.45593999997E+02  0.45594000000E+02  0.51100000000E-03 0. -1.
         11   -1    0    0    0    0 -0.00000000000E+00 -0.00000000000E+00 -0.45593999997E+02  0.45594000000E+02  0.51100000000E-03 0.  1.
    9900012    2    1    2    0    0 -0.95779913794E+00 -0.21951234125E+00 -0.65382041687E+00  0.90007726305E+02  0.89999987493E+02 0.  0.
         12    1    1    2    0    0  0.95779913794E+00  0.21951234125E+00  0.65382041687E+00  0.11802736946E+01  0.00000000000E+00 0. -1.
         11    1    3    3    0    0 -0.26153363150E+02  0.30690476151E+02  0.10527177856E+02  0.41674035133E+02  0.51100000000E-03 0. -1.
        -11    1    3    3    0    0 -0.14625533781E+01  0.26315140416E+01 -0.38155458340E+01  0.48602797047E+01  0.51100000000E-03 0.  1.
        -12    1    3    3    0    0  0.26658117390E+02 -0.33541502534E+02 -0.73654524388E+01  0.43473411468E+02  0.00000000000E+00 0.  1.
</event>
<event>
 7    1  0.3568207E-015  0.9000781E+02  0.7816164E-02  0.1186339E+00
        -11   -1    0    0    0    0  0.00000000000E+00  0.00000000000E+00  0.45593999997E+02  0.45594000000E+02  0.51100000000E-03 0.  1.
         11   -1    0    0    0    0 -0.00000000000E+00 -0.00000000000E+00 -0.45593999997E+02  0.45594000000E+02  0.51100000000E-03 0. -1.
    9900012    2    1    2    0    0  0.10272436166E+01  0.56783936995E+00 -0.12318568169E+00  0.90007811155E+02  0.90000073462E+02 0.  0.
         12    1    1    2    0    0 -0.10272436166E+01 -0.56783936995E+00  0.12318568169E+00  0.11801888451E+01  0.00000000000E+00 0. -1.
         11    1    3    3    0    0  0.36837752034E+01  0.10262277948E+02 -0.34431107281E+02  0.36116280225E+02  0.51100000000E-03 0. -1.
        -11    1    3    3    0    0 -0.70902746672E+01 -0.27986290826E+01 -0.78511218190E+01  0.10942779979E+02  0.51100000000E-03 0.  1.
        -12    1    3    3    0    0  0.44337430804E+01 -0.68958094958E+01  0.42159043418E+02  0.42948750951E+02  0.00000000000E+00 0.  1.
</event>
<event>
 7    1  0.3568207E-015  0.9000773E+02  0.7816164E-02  0.1186339E+00
        -11   -1    0    0    0    0  0.00000000000E+00  0.00000000000E+00  0.45593999997E+02  0.45594000000E+02  0.51100000000E-03 0. -1.
         11   -1    0    0    0    0 -0.00000000000E+00 -0.00000000000E+00 -0.45593999997E+02  0.45594000000E+02  0.51100000000E-03 0.  1.
    9900012    2    1    2    0    0 -0.14143843651E+00  0.75205852263E+00 -0.89857395730E+00  0.90007732230E+02  0.89999993495E+02 0.  0.
         12    1    1    2    0    0  0.14143843651E+00 -0.75205852263E+00  0.89857395730E+00  0.11802677703E+01  0.00000000000E+00 0. -1.
         11    1    3    3    0    0 -0.36669214512E+01  0.62613928495E+01 -0.60567454050E+01  0.94517468495E+01  0.51100000000E-03 0. -1.
        -11    1    3    3    0    0  0.18051311288E+01  0.35723485467E+02  0.13894089176E+02  0.38372798003E+02  0.51100000000E-03 0.  1.
         12    1    3    3    0    0  0.17203518859E+01 -0.41232819794E+02 -0.87359177282E+01  0.42183187377E+02  0.00000000000E+00 0. -1.
</event>
<event>
 7    1  0.3568207E-015  0.9000786E+02  0.7816164E-02  0.1186339E+00
        -11   -1    0    0    0    0  0.00000000000E+00  0.00000000000E+00  0.45593999997E+02  0.45594000000E+02  0.51100000000E-03 0.  1.
         11   -1    0    0    0    0 -0.00000000000E+00 -0.00000000000E+00 -0.45593999997E+02  0.45594000000E+02  0.51100000000E-03 0. -1.
    9900012    2    1    2    0    0 -0.78068815754E+00 -0.21822253523E+00  0.85769699148E+00  0.90007856279E+02  0.90000119181E+02 0.  0.
         12    1    1    2    0    0  0.78068815754E+00  0.21822253523E+00 -0.85769699148E+00  0.11801437215E+01  0.00000000000E+00 0. -1.
         11    1    3    3    0    0  0.10547120410E+02 -0.26202345754E+00  0.12230033050E+01  0.10621023613E+02  0.51100000000E-03 0. -1.
        -11    1    3    3    0    0 -0.31636817777E+00  0.38293397944E+02  0.69412617471E+01  0.38918704113E+02  0.51100000000E-03 0.  1.
         12    1    3    3    0    0 -0.11011440390E+02 -0.38249597021E+02 -0.73065680606E+01  0.40468128553E+02  0.00000000000E+00 0. -1.
</event>
<event>
 7    1  0.3568207E-015  0.9000776E+02  0.7816164E-02  0.1186339E+00
        -11   -1    0    0    0    0  0.00000000000E+00  0.00000000000E+00  0.45593999997E+02  0.45594000000E+02  0.51100000000E-03 0.  1.
         11   -1    0    0    0    0 -0.00000000000E+00 -0.00000000000E+00 -0.45593999997E+02  0.45594000000E+02  0.51100000000E-03 0. -1.
    9900012    2    1    2    0    0  0.78724039741E+00 -0.35447275202E-01  0.87861782674E+00  0.90007757128E+02  0.90000018722E+02 0.  0.
         12    1    1    2    0    0 -0.78724039741E+00  0.35447275202E-01 -0.87861782674E+00  0.11802428725E+01  0.00000000000E+00 0. -1.
         11    1    3    3    0    0 -0.82597041434E+01  0.51383956537E+01  0.30882052748E+01  0.10206019523E+02  0.51100000000E-03 0. -1.
        -11    1    3    3    0    0  0.29217508525E+02 -0.21635756355E+02  0.23437153808E+02  0.43255854359E+02  0.51100000000E-03 0.  1.
         12    1    3    3    0    0 -0.20170563984E+02  0.16461913426E+02 -0.25646741257E+02  0.36545883245E+02  0.00000000000E+00 0. -1.
</event>
<event>
 7    1  0.3568207E-015  0.9000779E+02  0.7816164E-02  0.1186339E+00
        -11   -1    0    0    0    0  0.00000000000E+00  0.00000000000E+00  0.45593999997E+02  0.45594000000E+02  0.51100000000E-03 0.  1.
         11   -1    0    0    0    0 -0.00000000000E+00 -0.00000000000E+00 -0.45593999997E+02  0.45594000000E+02  0.51100000000E-03 0. -1.
    9900012    2    1    2    0    0  0.60197292021E+00 -0.12254793752E+00  0.10077222378E+01  0.90007790907E+02  0.90000052947E+02 0.  0.
         12    1    1    2    0    0 -0.60197292021E+00  0.12254793752E+00 -0.10077222378E+01  0.11802090926E+01  0.00000000000E+00 0. -1.
         11    1    3    3    0    0 -0.48533884306E+01  0.15267056839E+01 -0.86050816756E+01  0.99966814698E+01  0.51100000000E-03 0. -1.
        -11    1    3    3    0    0  0.30650762052E+02  0.23409277779E+02 -0.94180437019E+01  0.39700919989E+02  0.51100000000E-03 0.  1.
         12    1    3    3    0    0 -0.25195400701E+02 -0.25058531401E+02  0.19030847615E+02  0.40310189449E+02  0.00000000000E+00 0. -1.
</event>
<event>
 7    1  0.3568207E-015  0.9000773E+02  0.7816164E-02  0.1186339E+00
        -11   -1    0    0    0    0  0.00000000000E+00  0.00000000000E+00  0.45593999997E+02  0.45594000000E+02  0.51100000000E-03 0. -1.
         11   -1    0    0    0    0 -0.00000000000E+00 -0.00000000000E+00 -0.45593999997E+02  0.45594000000E+02  0.51100000000E-03 0.  1.
    9900012    2    1    2    0    0  0.31990442540E+00 -0.10581270390E+00 -0.11311550947E+01  0.90007725872E+02  0.89999987053E+02 0.  0.
         12    1    1    2    0    0 -0.31990442540E+00  0.10581270390E+00  0.11311550947E+01  0.11802741283E+01  0.00000000000E+00 0. -1.
         11    1    3    3    0    0  0.41702632919E+00  0.22865879755E+02  0.31076987452E+02  0.38584990829E+02  0.51100000000E-03 0. -1.
        -11    1    3    3    0    0  0.78339875328E+00 -0.72231284656E+01  0.64217502970E+01  0.96967095231E+01  0.51100000000E-03 0.  1.
        -12    1    3    3    0    0 -0.88052065707E+00 -0.15748563993E+02 -0.38629892844E+02  0.41726025519E+02  0.00000000000E+00 0.  1.
</event>
<event>
 7    1  0.3568207E-015  0.9000773E+02  0.7816164E-02  0.1186339E+00
        -11   -1    0    0    0    0  0.00000000000E+00  0.00000000000E+00  0.45593999997E+02  0.45594000000E+02  0.51100000000E-03 0. -1.
         11   -1    0    0    0    0 -0.00000000000E+00 -0.00000000000E+00 -0.45593999997E+02  0.45594000000E+02  0.51100000000E-03 0.  1.
    9900012    2    1    2    0    0 -0.31497433578E+00  0.60865837688E+00  0.96091663120E+00  0.90007731122E+02  0.89999992373E+02 0.  0.
         12    1    1    2    0    0  0.31497433578E+00 -0.60865837688E+00 -0.96091663120E+00  0.11802688779E+01  0.00000000000E+00 0. -1.
         11    1    3    3    0    0 -0.17065893238E+02  0.12813248333E+02  0.31233995603E+02  0.37828382552E+02  0.51100000000E-03 0. -1.
        -11    1    3    3    0    0 -0.83998341177E+01 -0.34089700346E+01  0.30037315301E+01  0.95499054062E+01  0.51100000000E-03 0.  1.
        -12    1    3    3    0    0  0.25150753020E+02 -0.87956199220E+01 -0.33276810502E+02  0.42629443164E+02  0.00000000000E+00 0.  1.
</event>
<event>
 7    1  0.4055286E-015  0.9000778E+02  0.7816164E-02  0.1186339E+00
        -11   -1    0    0    0    0  0.00000000000E+00  0.00000000000E+00  0.45593999997E+02  0.45594000000E+02  0.51100000000E-03 0.  1.
         11   -1    0    0    0    0 -0.00000000000E+00 -0.00000000000E+00 -0.45593999997E+02  0.45594000000E+02  0.51100000000E-03 0. -1.
    9900012    2    1    2    0    0 -0.56258019794E+00  0.10189996875E+01  0.19511966720E+00  0.90007776069E+02  0.90000037913E+02 0.  0.
         12    1    1    2    0    0  0.56258019794E+00 -0.10189996875E+01 -0.19511966720E+00  0.11802239307E+01  0.00000000000E+00 0. -1.
         11    1    3    3    0    0  0.68725137609E+01 -0.55274863204E+01  0.45647850464E+01  0.99308515847E+01  0.51100000000E-03 0. -1.
        -11    1    3    3    0    0 -0.79032029624E+01 -0.47032850774E+01  0.36522657233E+02  0.37662793300E+02  0.51100000000E-03 0.  1.
         12    1    3    3    0    0  0.46810900362E+00  0.11249771085E+02 -0.40892322612E+02  0.42414131184E+02  0.00000000000E+00 0. -1.
</event>
<event>
 7    1  0.3568207E-015  0.9000768E+02  0.7816164E-02  0.1186339E+00
        -11   -1    0    0    0    0  0.00000000000E+00  0.00000000000E+00  0.45593999997E+02  0.45594000000E+02  0.51100000000E-03 0. -1.
         11   -1    0    0    0    0 -0.00000000000E+00 -0.00000000000E+00 -0.45593999997E+02  0.45594000000E+02  0.51100000000E-03 0.  1.
    9900012    2    1    2    0    0  0.92608984705E+00  0.72606652456E+00  0.91343090810E-01  0.90007678619E+02  0.89999939176E+02 0.  0.
         12    1    1    2    0    0 -0.92608984705E+00 -0.72606652456E+00 -0.91343090810E-01  0.11803213813E+01  0.00000000000E+00 0. -1.
         11    1    3    3    0    0  0.25975215954E+01 -0.13962420830E+01 -0.11064237641E+02  0.11450500655E+02  0.51100000000E-03 0. -1.
        -11    1    3    3    0    0  0.22037561357E+02  0.32254021459E+02  0.18739492644E+01  0.39108665241E+02  0.51100000000E-03 0.  1.
         12    1    3    3    0    0 -0.23708993105E+02 -0.30131712851E+02  0.92816314678E+01  0.39448512723E+02  0.00000000000E+00 0. -1.
</event>
<event>
 7    1  0.3568207E-015  0.9000772E+02  0.7816164E-02  0.1186339E+00
        -11   -1    0    0    0    0  0.00000000000E+00  0.00000000000E+00  0.45593999997E+02  0.45594000000E+02  0.51100000000E-03 0. -1.
         11   -1    0    0    0    0 -0.00000000000E+00 -0.00000000000E+00 -0.45593999997E+02  0.45594000000E+02  0.51100000000E-03 0.  1.
    9900012    2    1    2    0    0  0.10031901750E+01 -0.16986027259E+00 -0.59817832991E+00  0.90007720222E+02  0.89999981329E+02 0.  0.
         12    1    1    2    0    0 -0.10031901750E+01  0.16986027259E+00  0.59817832991E+00  0.11802797778E+01  0.00000000000E+00 0. -1.
         11    1    3    3    0    0  0.97577690367E+00 -0.25316516374E+02 -0.27517298797E+02  0.37404276162E+02  0.51100000000E-03 0. -1.
        -11    1    3    3    0    0 -0.81419156827E+00  0.10269483879E+01 -0.91287650511E+01  0.92223577528E+01  0.51100000000E-03 0.  1.
        -12    1    3    3    0    0  0.84160483961E+00  0.24119707714E+02  0.36047885518E+02  0.43381086307E+02  0.00000000000E+00 0.  1.
</event>
<event>
 7    1  0.3568207E-015  0.9000737E+02  0.7816164E-02  0.1186340E+00
        -11   -1    0    0    0    0  0.00000000000E+00  0.00000000000E+00  0.45593999997E+02  0.45594000000E+02  0.51100000000E-03 0.  1.
         11   -1    0    0    0    0 -0.00000000000E+00 -0.00000000000E+00 -0.45593999997E+02  0.45594000000E+02  0.51100000000E-03 0. -1.
    9900012    2    1    2    0    0 -0.10417978982E+01 -0.45811032642E+00  0.31412009761E+00  0.90007373316E+02  0.89999629843E+02 0.  0.
         12    1    1    2    0    0  0.10417978982E+01  0.45811032642E+00 -0.31412009761E+00  0.11806266842E+01  0.00000000000E+00 0. -1.
         11    1    3    3    0    0  0.10385250321E+01  0.25178878804E+02 -0.28919072733E+02  0.38358405077E+02  0.51100000000E-03 0. -1.
        -11    1    3    3    0    0  0.18909474660E+01  0.79517935692E+01  0.25316600145E+01  0.85566352017E+01  0.51100000000E-03 0.  1.
        -12    1    3    3    0    0 -0.39712703962E+01 -0.33588782700E+02  0.26701532816E+02  0.43092333037E+02  0.00000000000E+00 0.  1.
</event>
<event>
 7    1  0.3568207E-015  0.9000772E+02  0.7816164E-02  0.1186339E+00
        -11   -1    0    0    0    0  0.00000000000E+00  0.00000000000E+00  0.45593999997E+02  0.45594000000E+02  0.51100000000E-03 0. -1.
         11   -1    0    0    0    0 -0.00000000000E+00 -0.00000000000E+00 -0.45593999997E+02  0.45594000000E+02  0.51100000000E-03 0.  1.
    9900012    2    1    2    0    0 -0.25904447504E+00 -0.44930906387E+00 -0.10602215328E+01  0.90007723603E+02  0.89999984754E+02 0.  0.
         12    1    1    2    0    0  0.25904447504E+00  0.44930906387E+00  0.10602215328E+01  0.11802763971E+01  0.00000000000E+00 0. -1.
         11    1    3    3    0    0  0.35305663472E+02 -0.56880072322E+01  0.14151582157E+02  0.38459206665E+02  0.51100000000E-03 0. -1.
        -11    1    3    3    0    0 -0.28794769897E+01 -0.41288113709E+01  0.86512594762E+01  0.10009133921E+02  0.51100000000E-03 0.  1.
        -12    1    3    3    0    0 -0.32685230957E+02  0.93675095393E+01 -0.23863063166E+02  0.41539383017E+02  0.00000000000E+00 0.  1.
</event>
<event>
 7    1  0.3568207E-015  0.9000740E+02  0.7816164E-02  0.1186340E+00
        -11   -1    0    0    0    0  0.00000000000E+00  0.00000000000E+00  0.45593999997E+02  0.45594000000E+02  0.51100000000E-03 0.  1.
         11   -1    0    0    0    0 -0.00000000000E+00 -0.00000000000E+00 -0.45593999997E+02  0.45594000000E+02  0.51100000000E-03 0. -1.
    9900012    2    1    2    0    0 -0.50709740138E-02  0.38673495242E+00  0.11154456595E+01  0.90007403262E+02  0.89999660185E+02 0.  0.
         12    1    1    2    0    0  0.50709740138E-02 -0.38673495242E+00 -0.11154456595E+01  0.11805967378E+01  0.00000000000E+00 0. -1.
         11    1    3    3    0    0 -0.35205750511E+02  0.58210111454E+00  0.72057004205E+01  0.35940309258E+02  0.51100000000E-03 0. -1.
        -11    1    3    3    0    0 -0.79656445771E+01  0.58664809028E+01  0.84563124759E+00  0.99288561365E+01  0.51100000000E-03 0.  1.
        -12    1    3    3    0    0  0.43166324114E+02 -0.60618470649E+01 -0.69358860087E+01  0.44138237868E+02  0.00000000000E+00 0.  1.
</event>
<event>
 7    1  0.3568207E-015  0.9000773E+02  0.7816164E-02  0.1186339E+00
        -11   -1    0    0    0    0  0.00000000000E+00  0.00000000000E+00  0.45593999997E+02  0.45594000000E+02  0.51100000000E-03 0.  1.
         11   -1    0    0    0    0 -0.00000000000E+00 -0.00000000000E+00 -0.45593999997E+02  0.45594000000E+02  0.51100000000E-03 0. -1.
    9900012    2    1    2    0    0  0.11649466270E+01 -0.45126172995E-01  0.18413138475E+00  0.90007728259E+02  0.89999989472E+02 0.  0.
         12    1    1    2    0    0 -0.11649466270E+01  0.45126172995E-01 -0.18413138475E+00  0.11802717407E+01  0.00000000000E+00 0. -1.
         11    1    3    3    0    0  0.91467093152E+01  0.19433572203E+01  0.14539514225E+01  0.94632395924E+01  0.51100000000E-03 0. -1.
        -11    1    3    3    0    0 -0.73941696664E+01 -0.35082976259E+02  0.20140927367E+02  0.41123544639E+02  0.51100000000E-03 0.  1.
         12    1    3    3    0    0 -0.58759302184E+00  0.33094492866E+02 -0.21410747405E+02  0.39420944028E+02  0.00000000000E+00 0. -1.
</event>
<event>
 7    1  0.3568207E-015  0.9000774E+02  0.7816164E-02  0.1186339E+00
        -11   -1    0    0    0    0  0.00000000000E+00  0.00000000000E+00  0.45593999997E+02  0.45594000000E+02  0.51100000000E-03 0. -1.
         11   -1    0    0    0    0 -0.00000000000E+00 -0.00000000000E+00 -0.45593999997E+02  0.45594000000E+02  0.51100000000E-03 0.  1.
    9900012    2    1    2    0    0 -0.93309665346E+00 -0.70488163164E+00 -0.15963788931E+00  0.90007740819E+02  0.90000002198E+02 0.  0.
         12    1    1    2    0    0  0.93309665346E+00  0.70488163164E+00  0.15963788931E+00  0.11802591813E+01  0.00000000000E+00 0. -1.
         11    1    3    3    0    0 -0.34155714933E+02 -0.76382685641E+00  0.25752830188E+02  0.42783227520E+02  0.51100000000E-03 0. -1.
        -11    1    3    3    0    0  0.88644186842E+01 -0.37179410214E-01  0.30556381901E+01  0.93763652833E+01  0.51100000000E-03 0.  1.
        -12    1    3    3    0    0  0.24358199596E+02  0.96124634982E-01 -0.28968106267E+02  0.37848148015E+02  0.00000000000E+00 0.  1.
</event>
<event>
 7    1  0.3568207E-015  0.9000774E+02  0.7816164E-02  0.1186339E+00
        -11   -1    0    0    0    0  0.00000000000E+00  0.00000000000E+00  0.45593999997E+02  0.45594000000E+02  0.51100000000E-03 0. -1.
         11   -1    0    0    0    0 -0.00000000000E+00 -0.00000000000E+00 -0.45593999997E+02  0.45594000000E+02  0.51100000000E-03 0.  1.
    9900012    2    1    2    0    0  0.30248741013E+00  0.11342337784E+01 -0.12256920342E+00  0.90007742356E+02  0.90000003755E+02 0.  0.
         12    1    1    2    0    0 -0.30248741013E+00 -0.11342337784E+01  0.12256920342E+00  0.11802576444E+01  0.00000000000E+00 0. -1.
         11    1    3    3    0    0 -0.39134541213E+02  0.10303697576E+02 -0.13309177771E+01  0.40490120302E+02  0.51100000000E-03 0. -1.
        -11    1    3    3    0    0  0.11358957744E+01  0.24482071986E+01 -0.80040012716E+01  0.84467753797E+01  0.51100000000E-03 0.  1.
        -12    1    3    3    0    0  0.38301132848E+02 -0.11617670996E+02  0.92123498454E+01  0.41070846674E+02  0.00000000000E+00 0.  1.
</event>
<event>
 7    1  0.3568207E-015  0.9000780E+02  0.7816164E-02  0.1186339E+00
        -11   -1    0    0    0    0  0.00000000000E+00  0.00000000000E+00  0.45593999997E+02  0.45594000000E+02  0.51100000000E-03 0. -1.
         11   -1    0    0    0    0 -0.00000000000E+00 -0.00000000000E+00 -0.45593999997E+02  0.45594000000E+02  0.51100000000E-03 0.  1.
    9900012    2    1    2    0    0  0.21884859944E+00 -0.11592118981E+01  0.34711197447E-01  0.90007800101E+02  0.90000062262E+02 0.  0.
         12    1    1    2    0    0 -0.21884859944E+00  0.11592118981E+01 -0.34711197447E-01  0.11801998989E+01  0.00000000000E+00 0. -1.
         11    1    3    3    0    0  0.51721675462E+01 -0.42870043344E+01 -0.10429806035E+02  0.12406070187E+02  0.51100000000E-03 0. -1.
        -11    1    3    3    0    0  0.14612380612E+02  0.35855425160E+02  0.39590548144E+01  0.38920525380E+02  0.51100000000E-03 0.  1.
         12    1    3    3    0    0 -0.19565699558E+02 -0.32727632724E+02  0.65054624183E+01  0.38681204534E+02  0.00000000000E+00 0. -1.
</event>
<event>
 7    1  0.3568207E-015  0.9000771E+02  0.7816164E-02  0.1186339E+00
        -11   -1    0    0    0    0  0.00000000000E+00  0.00000000000E+00  0.45593999997E+02  0.45594000000E+02  0.51100000000E-03 0.  1.
         11   -1    0    0    0    0 -0.00000000000E+00 -0.00000000000E+00 -0.45593999997E+02  0.45594000000E+02  0.51100000000E-03 0. -1.
    9900012    2    1    2    0    0  0.91286365472E+00 -0.74751637769E+00  0.31513374675E-01  0.90007706020E+02  0.89999966939E+02 0.  0.
         12    1    1    2    0    0 -0.91286365472E+00  0.74751637769E+00 -0.31513374675E-01  0.11802939802E+01  0.00000000000E+00 0. -1.
         11    1    3    3    0    0  0.40682789478E+01 -0.31250451489E+02 -0.12731484261E+02  0.33988708473E+02  0.51100000000E-03 0. -1.
        -11    1    3    3    0    0 -0.70627449302E+01 -0.98491121523E+01 -0.30595760366E+01  0.12499935277E+02  0.51100000000E-03 0.  1.
        -12    1    3    3    0    0  0.39073296371E+01  0.40352047264E+02  0.15822573673E+02  0.43519062270E+02  0.00000000000E+00 0.  1.
</event>
<event>
 7    1  0.3568207E-015  0.9000774E+02  0.7816164E-02  0.1186339E+00
        -11   -1    0    0    0    0  0.00000000000E+00  0.00000000000E+00  0.45593999997E+02  0.45594000000E+02  0.51100000000E-03 0.  1.
         11   -1    0    0    0    0 -0.00000000000E+00 -0.00000000000E+00 -0.45593999997E+02  0.45594000000E+02  0.51100000000E-03 0. -1.
    9900012    2    1    2    0    0  0.88073107399E+00  0.68457946727E+00  0.38557782581E+00  0.90007743023E+02  0.90000004431E+02 0.  0.
         12    1    1    2    0    0 -0.88073107399E+00 -0.68457946727E+00 -0.38557782581E+00  0.11802569769E+01  0.00000000000E+00 0. -1.
         11    1    3    3    0    0 -0.38326295478E+02  0.40866570039E+01 -0.32711477969E+01  0.38682116006E+02  0.51100000000E-03 0. -1.
        -11    1    3    3    0    0 -0.68509226408E+00  0.65223129165E+01  0.75887637457E+01  0.10029917878E+02  0.51100000000E-03 0.  1.
        -12    1    3    3    0    0  0.39892118816E+02 -0.99243904531E+01 -0.39320381230E+01  0.41295709139E+02  0.00000000000E+00 0.  1.
</event>
<event>
 7    1  0.3568207E-015  0.9000770E+02  0.7816164E-02  0.1186339E+00
        -11   -1    0    0    0    0  0.00000000000E+00  0.00000000000E+00  0.45593999997E+02  0.45594000000E+02  0.51100000000E-03 0.  1.
         11   -1    0    0    0    0 -0.00000000000E+00 -0.00000000000E+00 -0.45593999997E+02  0.45594000000E+02  0.51100000000E-03 0. -1.
    9900012    2    1    2    0    0 -0.56019788756E+00 -0.43040103804E+00  0.94553576773E+00  0.90007701472E+02  0.89999962332E+02 0.  0.
         12    1    1    2    0    0  0.56019788756E+00  0.43040103804E+00 -0.94553576773E+00  0.11802985278E+01  0.00000000000E+00 0. -1.
         11    1    3    3    0    0 -0.46744713188E-01 -0.19478780173E+02 -0.83288422530E+01  0.21184774618E+02  0.51100000000E-03 0. -1.
        -11    1    3    3    0    0  0.15706322736E+02 -0.18665734567E+02 -0.58245601791E+01  0.25080345339E+02  0.51100000000E-03 0.  1.
        -12    1    3    3    0    0 -0.16219775910E+02  0.37714113701E+02  0.15098938200E+02  0.43742581515E+02  0.00000000000E+00 0.  1.
</event>
<event>
 7    1  0.3568207E-015  0.9000772E+02  0.7816164E-02  0.1186339E+00
        -11   -1    0    0    0    0  0.00000000000E+00  0.00000000000E+00  0.45593999997E+02  0.45594000000E+02  0.51100000000E-03 0.  1.
         11   -1    0    0    0    0 -0.00000000000E+00 -0.00000000000E+00 -0.45593999997E+02  0.45594000000E+02  0.51100000000E-03 0. -1.
    9900012    2    1    2    0    0 -0.22747236471E+00  0.88206191044E+00  0.75052700071E+00  0.90007717123E+02  0.89999978189E+02 0.  0.
         12    1    1    2    0    0  0.22747236471E+00 -0.88206191044E+00 -0.75052700071E+00  0.11802828768E+01  0.00000000000E+00 0. -1.
         11    1    3    3    0    0 -0.10000827485E+02  0.27902013118E+01  0.46290244019E+01  0.11367921574E+02  0.51100000000E-03 0. -1.
        -11    1    3    3    0    0  0.73950336172E+01 -0.97025470531E+01  0.35961751459E+02  0.37974642985E+02  0.51100000000E-03 0.  1.
         12    1    3    3    0    0  0.23783215031E+01  0.77944076517E+01 -0.39840248861E+02  0.40665152564E+02  0.00000000000E+00 0. -1.
</event>
<event>
 7    1  0.3568207E-015  0.9000775E+02  0.7816164E-02  0.1186339E+00
        -11   -1    0    0    0    0  0.00000000000E+00  0.00000000000E+00  0.45593999997E+02  0.45594000000E+02  0.51100000000E-03 0.  1.
         11   -1    0    0    0    0 -0.00000000000E+00 -0.00000000000E+00 -0.45593999997E+02  0.45594000000E+02  0.51100000000E-03 0. -1.
    9900012    2    1    2    0    0 -0.36015813095E+00  0.10369793007E+01 -0.43354036049E+00  0.90007746979E+02  0.90000008439E+02 0.  0.
         12    1    1    2    0    0  0.36015813095E+00 -0.10369793007E+01  0.43354036049E+00  0.11802530210E+01  0.00000000000E+00 0. -1.
         11    1    3    3    0    0  0.14745195085E+02  0.17865946310E+02 -0.26711012050E+02  0.35356625696E+02  0.51100000000E-03 0. -1.
        -11    1    3    3    0    0 -0.71247960997E+01  0.15505303524E+01 -0.10491732621E+02  0.12776670830E+02  0.51100000000E-03 0.  1.
        -12    1    3    3    0    0 -0.79805571158E+01 -0.18379497362E+02  0.36769204310E+02  0.41874450453E+02  0.00000000000E+00 0.  1.
</event>
<event>
 7    1  0.3568207E-015  0.9000774E+02  0.7816164E-02  0.1186339E+00
        -11   -1    0    0    0    0  0.00000000000E+00  0.00000000000E+00  0.45593999997E+02  0.45594000000E+02  0.51100000000E-03 0. -1.
         11   -1    0    0    0    0 -0.00000000000E+00 -0.00000000000E+00 -0.45593999997E+02  0.45594000000E+02  0.51100000000E-03 0.  1.
    9900012    2    1    2    0    0  0.62858576691E+00 -0.81695816334E+00 -0.57486779171E+00  0.90007739993E+02  0.90000001361E+02 0.  0.
         12    1    1    2    0    0 -0.62858576691E+00  0.81695816334E+00  0.57486779171E+00  0.11802600074E+01  0.00000000000E+00 0. -1.
         11    1    3    3    0    0 -0.18454406970E+01 -0.17451066330E+01 -0.10254324608E+02  0.10564195282E+02  0.51100000000E-03 0. -1.
        -11    1    3    3    0    0 -0.20646381144E+02  0.27177430002E+02 -0.14330083312E+02  0.37016713034E+02  0.51100000000E-03 0.  1.
         12    1    3    3    0    0  0.23120407608E+02 -0.26249281532E+02  0.24009540128E+02  0.42426831676E+02  0.00000000000E+00 0. -1.
</event>
<event>
 7    1  0.3568207E-015  0.9000777E+02  0.7816164E-02  0.1186339E+00
        -11   -1    0    0    0    0  0.00000000000E+00  0.00000000000E+00  0.45593999997E+02  0.45594000000E+02  0.51100000000E-03 0. -1.
         11   -1    0    0    0    0 -0.00000000000E+00 -0.00000000000E+00 -0.45593999997E+02  0.45594000000E+02  0.51100000000E-03 0.  1.
    9900012    2    1    2    0    0  0.11828235827E-01  0.11768995797E+01 -0.87761284316E-01  0.90007773509E+02  0.90000035319E+02 0.  0.
         12    1    1    2    0    0 -0.11828235827E-01 -0.11768995797E+01  0.87761284316E-01  0.11802264913E+01  0.00000000000E+00 0. -1.
         11    1    3    3    0    0  0.40868408709E+02  0.50697547420E+01  0.64504248835E+00  0.41186712950E+02  0.51100000000E-03 0. -1.
        -11    1    3    3    0    0 -0.16985574637E+01 -0.73433766037E+01  0.50721716765E+01  0.90849987990E+01  0.51100000000E-03 0.  1.
        -12    1    3    3    0    0 -0.39158023009E+02  0.34505214414E+01 -0.58049754491E+01  0.39736061760E+02  0.00000000000E+00 0.  1.
</event>
<event>
 7    1  0.3568207E-015  0.9000805E+02  0.7816164E-02  0.1186338E+00
        -11   -1    0    0    0    0  0.00000000000E+00  0.00000000000E+00  0.45593999997E+02  0.45594000000E+02  0.51100000000E-03 0. -1.
         11   -1    0    0    0    0 -0.00000000000E+00 -0.00000000000E+00 -0.45593999997E+02  0.45594000000E+02  0.51100000000E-03 0.  1.
    9900012    2    1    2    0    0 -0.30658263363E-01  0.35498623795E+00 -0.11248639969E+01  0.90008053319E+02  0.90000318822E+02 0.  0.
         12    1    1    2    0    0  0.30658263363E-01 -0.35498623795E+00  0.11248639969E+01  0.11799466809E+01  0.00000000000E+00 0. -1.
         11    1    3    3    0    0  0.37644793944E+01  0.60155294455E+01  0.67999637997E+01  0.98283980158E+01  0.51100000000E-03 0. -1.
        -11    1    3    3    0    0 -0.85284407087E+01  0.27065842280E+02  0.21746586359E+02  0.35752036834E+02  0.51100000000E-03 0.  1.
         12    1    3    3    0    0  0.47333030510E+01 -0.32726385488E+02 -0.29671414155E+02  0.44427618469E+02  0.00000000000E+00 0. -1.
</event>
<event>
 7    1  0.3568207E-015  0.9000775E+02  0.7816164E-02  0.1186339E+00
        -11   -1    0    0    0    0  0.00000000000E+00  0.00000000000E+00  0.45593999997E+02  0.45594000000E+02  0.51100000000E-03 0.  1.
         11   -1    0    0    0    0 -0.00000000000E+00 -0.00000000000E+00 -0.45593999997E+02  0.45594000000E+02  0.51100000000E-03 0. -1.
    9900012    2    1    2    0    0 -0.28203546658E+00 -0.11219474998E+01  0.23385365964E+00  0.90007746751E+02  0.90000008209E+02 0.  0.
         12    1    1    2    0    0  0.28203546658E+00  0.11219474998E+01 -0.23385365964E+00  0.11802532486E+01  0.00000000000E+00 0. -1.
         11    1    3    3    0    0 -0.34825821946E+01 -0.10676956504E+02 -0.50989266818E+01  0.12333889593E+02  0.51100000000E-03 0. -1.
        -11    1    3    3    0    0  0.23232403055E+02 -0.23229698948E+02  0.17692266173E+02  0.37314605016E+02  0.51100000000E-03 0.  1.
         12    1    3    3    0    0 -0.20031856327E+02  0.32784707952E+02 -0.12359485831E+02  0.40359252142E+02  0.00000000000E+00 0. -1.
</event>
<event>
 7    1  0.3568207E-015  0.9000785E+02  0.7816164E-02  0.1186339E+00
        -11   -1    0    0    0    0  0.00000000000E+00  0.00000000000E+00  0.45593999997E+02  0.45594000000E+02  0.51100000000E-03 0. -1.
         11   -1    0    0    0    0 -0.00000000000E+00 -0.00000000000E+00 -0.45593999997E+02  0.45594000000E+02  0.51100000000E-03 0.  1.
    9900012    2    1    2    0    0  0.10604816285E+01  0.13105928188E+00 -0.50095035599E+00  0.90007852094E+02  0.90000114942E+02 0.  0.
         12    1    1    2    0    0 -0.10604816285E+01 -0.13105928188E+00  0.50095035599E+00  0.11801479056E+01  0.00000000000E+00 0. -1.
         11    1    3    3    0    0 -0.32524685296E+01  0.80471355350E+01 -0.25492676913E+01  0.90461985319E+01  0.51100000000E-03 0. -1.
        -11    1    3    3    0    0  0.28305721179E+02  0.61483542471E+01 -0.27811846149E+02  0.40156131511E+02  0.51100000000E-03 0.  1.
         12    1    3    3    0    0 -0.23992771021E+02 -0.14064430500E+02  0.29860163485E+02  0.40805522052E+02  0.00000000000E+00 0. -1.
</event>
<event>
 7    1  0.3568207E-015  0.9000758E+02  0.7816164E-02  0.1186339E+00
        -11   -1    0    0    0    0  0.00000000000E+00  0.00000000000E+00  0.45593999997E+02  0.45594000000E+02  0.51100000000E-03 0.  1.
         11   -1    0    0    0    0 -0.00000000000E+00 -0.00000000000E+00 -0.45593999997E+02  0.45594000000E+02  0.51100000000E-03 0. -1.
    9900012    2    1    2    0    0  0.11609863245E+01  0.17628075802E+00 -0.12012638353E+00  0.90007578677E+02  0.89999837916E+02 0.  0.
         12    1    1    2    0    0 -0.11609863245E+01 -0.17628075802E+00  0.12012638353E+00  0.11804213228E+01  0.00000000000E+00 0. -1.
         11    1    3    3    0    0 -0.13274681114E+01  0.57525511047E+01 -0.83176348342E+01  0.10199856141E+02  0.51100000000E-03 0. -1.
        -11    1    3    3    0    0  0.36291082547E+01  0.32338654585E+02  0.22178879927E+02  0.39380981732E+02  0.51100000000E-03 0.  1.
         12    1    3    3    0    0 -0.11406538188E+01 -0.37914924931E+02 -0.13981371477E+02  0.40426740804E+02  0.00000000000E+00 0. -1.
</event>
<event>
 7    1  0.5336408E-015  0.9000762E+02  0.7816164E-02  0.1186339E+00
        -11   -1    0    0    0    0  0.00000000000E+00  0.00000000000E+00  0.45593999997E+02  0.45594000000E+02  0.51100000000E-03 0. -1.
         11   -1    0    0    0    0 -0.00000000000E+00 -0.00000000000E+00 -0.45593999997E+02  0.45594000000E+02  0.51100000000E-03 0.  1.
    9900012    2    1    2    0    0  0.99559916124E+00 -0.61552969730E+00 -0.15229198266E+00  0.90007624066E+02  0.89999883903E+02 0.  0.
         12    1    1    2    0    0 -0.99559916124E+00  0.61552969730E+00  0.15229198266E+00  0.11803759342E+01  0.00000000000E+00 0. -1.
         11    1    3    3    0    0 -0.62946327952E+01 -0.41193552923E+01  0.58732989586E+01  0.95439578252E+01  0.51100000000E-03 0. -1.
        -11    1    3    3    0    0 -0.21298342122E+02  0.19950716169E+02 -0.28310565151E+02  0.40658806576E+02  0.51100000000E-03 0.  1.
         12    1    3    3    0    0  0.28588574078E+02 -0.16446890574E+02  0.22284974210E+02  0.39804859664E+02  0.00000000000E+00 0. -1.
</event>
<event>
 7    1  0.3568207E-015  0.9000780E+02  0.7816164E-02  0.1186339E+00
        -11   -1    0    0    0    0  0.00000000000E+00  0.00000000000E+00  0.45593999997E+02  0.45594000000E+02  0.51100000000E-03 0. -1.
         11   -1    0    0    0    0 -0.00000000000E+00 -0.00000000000E+00 -0.45593999997E+02  0.45594000000E+02  0.51100000000E-03 0.  1.
    9900012    2    1    2    0    0  0.71375059036E+00 -0.98392443140E-01 -0.93474869675E+00  0.90007798278E+02  0.90000060415E+02 0.  0.
         12    1    1    2    0    0 -0.71375059036E+00  0.98392443140E-01  0.93474869675E+00  0.11802017218E+01  0.00000000000E+00 0. -1.
         11    1    3    3    0    0  0.62409524436E+01 -0.76735868096E+01  0.30978758220E+01  0.10364856815E+02  0.51100000000E-03 0. -1.
        -11    1    3    3    0    0  0.14847356378E+02 -0.44950609634E+01  0.32553806308E+02  0.36061057526E+02  0.51100000000E-03 0.  1.
         12    1    3    3    0    0 -0.20374558232E+02  0.12070255330E+02 -0.36586430827E+02  0.43581883937E+02  0.00000000000E+00 0. -1.
</event>
<event>
 7    1  0.3568207E-015  0.9000780E+02  0.7816164E-02  0.1186339E+00
        -11   -1    0    0    0    0  0.00000000000E+00  0.00000000000E+00  0.45593999997E+02  0.45594000000E+02  0.51100000000E-03 0. -1.
         11   -1    0    0    0    0 -0.00000000000E+00 -0.00000000000E+00 -0.45593999997E+02  0.45594000000E+02  0.51100000000E-03 0.  1.
    9900012    2    1    2    0    0  0.69111655426E+00 -0.18152054079E+00 -0.93930262935E+00  0.90007796108E+02  0.90000058216E+02 0.  0.
         12    1    1    2    0    0 -0.69111655426E+00  0.18152054079E+00  0.93930262935E+00  0.11802038925E+01  0.00000000000E+00 0. -1.
         11    1    3    3    0    0 -0.11626511558E+02 -0.33055446803E+02 -0.46885530336E+01  0.35352805605E+02  0.51100000000E-03 0. -1.
        -11    1    3    3    0    0  0.76399911708E+00 -0.82996124704E+01 -0.66294287935E+01  0.10649722447E+02  0.51100000000E-03 0.  1.
        -12    1    3    3    0    0  0.11553628995E+02  0.41173538733E+02  0.10378679198E+02  0.44005268055E+02  0.00000000000E+00 0.  1.
</event>
<event>
 7    1  0.3568207E-015  0.9000777E+02  0.7816164E-02  0.1186339E+00
        -11   -1    0    0    0    0  0.00000000000E+00  0.00000000000E+00  0.45593999997E+02  0.45594000000E+02  0.51100000000E-03 0.  1.
         11   -1    0    0    0    0 -0.00000000000E+00 -0.00000000000E+00 -0.45593999997E+02  0.45594000000E+02  0.51100000000E-03 0. -1.
    9900012    2    1    2    0    0  0.52427532379E+00  0.10147704330E+01  0.29719954948E+00  0.90007766456E+02  0.90000028173E+02 0.  0.
         12    1    1    2    0    0 -0.52427532379E+00 -0.10147704330E+01 -0.29719954948E+00  0.11802335442E+01  0.00000000000E+00 0. -1.
         11    1    3    3    0    0 -0.58263604958E+01  0.61419581704E+01  0.45881527716E+00  0.84782450138E+01  0.51100000000E-03 0. -1.
        -11    1    3    3    0    0 -0.12169803735E+02 -0.24501585059E+02  0.30388384350E+02  0.40888698891E+02  0.51100000000E-03 0.  1.
         12    1    3    3    0    0  0.18520439554E+02  0.19374397321E+02 -0.30550000078E+02  0.40640822551E+02  0.00000000000E+00 0. -1.
</event>
<event>
 7    1  0.3568207E-015  0.9000773E+02  0.7816164E-02  0.1186339E+00
        -11   -1    0    0    0    0  0.00000000000E+00  0.00000000000E+00  0.45593999997E+02  0.45594000000E+02  0.51100000000E-03 0.  1.
         11   -1    0    0    0    0 -0.00000000000E+00 -0.00000000000E+00 -0.45593999997E+02  0.45594000000E+02  0.51100000000E-03 0. -1.
    9900012    2    1    2    0    0  0.99341877806E-02  0.45062556902E+00  0.10908091831E+01  0.90007734451E+02  0.89999995746E+02 0.  0.
         12    1    1    2    0    0 -0.99341877806E-02 -0.45062556902E+00 -0.10908091831E+01  0.11802655487E+01  0.00000000000E+00 0. -1.
         11    1    3    3    0    0 -0.17034211347E+02 -0.87039889268E+01 -0.33163150481E+02  0.38284700986E+02  0.51100000000E-03 0. -1.
        -11    1    3    3    0    0 -0.84035746224E+01 -0.46187507444E+01  0.61918612669E+01  0.11414555229E+02  0.51100000000E-03 0.  1.
        -12    1    3    3    0    0  0.25447720157E+02  0.13773365240E+02  0.28062098397E+02  0.40308478236E+02  0.00000000000E+00 0.  1.
</event>
<event>
 7    1  0.3568207E-015  0.9000771E+02  0.7816164E-02  0.1186339E+00
        -11   -1    0    0    0    0  0.00000000000E+00  0.00000000000E+00  0.45593999997E+02  0.45594000000E+02  0.51100000000E-03 0.  1.
         11   -1    0    0    0    0 -0.00000000000E+00 -0.00000000000E+00 -0.45593999997E+02  0.45594000000E+02  0.51100000000E-03 0. -1.
    9900012    2    1    2    0    0  0.64390600130E+00  0.16246709589E+00 -0.97573852652E+00  0.90007713523E+02  0.89999974541E+02 0.  0.
         12    1    1    2    0    0 -0.64390600130E+00 -0.16246709589E+00  0.97573852652E+00  0.11802864770E+01  0.00000000000E+00 0. -1.
         11    1    3    3    0    0  0.29222969008E+02  0.32209058452E-01 -0.22029996365E+02  0.36596498400E+02  0.51100000000E-03 0. -1.
        -11    1    3    3    0    0 -0.13597665686E+01  0.29864356610E+00 -0.11154506574E+02  0.11241048450E+02  0.51100000000E-03 0.  1.
        -12    1    3    3    0    0 -0.27219296438E+02 -0.16838552866E+00  0.32208764412E+02  0.42170166673E+02  0.00000000000E+00 0.  1.
</event>
<event>
 7    1  0.3568207E-015  0.9000755E+02  0.7816164E-02  0.1186339E+00
        -11   -1    0    0    0    0  0.00000000000E+00  0.00000000000E+00  0.45593999997E+02  0.45594000000E+02  0.51100000000E-03 0. -1.
         11   -1    0    0    0    0 -0.00000000000E+00 -0.00000000000E+00 -0.45593999997E+02  0.45594000000E+02  0.51100000000E-03 0.  1.
    9900012    2    1    2    0    0  0.64751808206E+00  0.63081114698E+00 -0.75912320573E+00  0.90007546523E+02  0.89999805337E+02 0.  0.
         12    1    1    2    0    0 -0.64751808206E+00 -0.63081114698E+00  0.75912320573E+00  0.11804534769E+01  0.00000000000E+00 0. -1.
         11    1    3    3    0    0 -0.85726108155E+01  0.12631073930E+01 -0.66891056428E+01  0.10946653874E+02  0.51100000000E-03 0. -1.
        -11    1    3    3    0    0 -0.20116799712E+02  0.19228481556E+02  0.26219689017E+02  0.38234699240E+02  0.51100000000E-03 0.  1.
         12    1    3    3    0    0  0.29336928610E+02 -0.19860777802E+02 -0.20289706580E+02  0.40826193409E+02  0.00000000000E+00 0. -1.
</event>
<event>
 7    1  0.3568207E-015  0.9000775E+02  0.7816164E-02  0.1186339E+00
        -11   -1    0    0    0    0  0.00000000000E+00  0.00000000000E+00  0.45593999997E+02  0.45594000000E+02  0.51100000000E-03 0. -1.
         11   -1    0    0    0    0 -0.00000000000E+00 -0.00000000000E+00 -0.45593999997E+02  0.45594000000E+02  0.51100000000E-03 0.  1.
    9900012    2    1    2    0    0 -0.81800925495E+00 -0.83510470661E+00 -0.16266544553E+00  0.90007746189E+02  0.90000007638E+02 0.  0.
         12    1    1    2    0    0  0.81800925495E+00  0.83510470661E+00  0.16266544553E+00  0.11802538114E+01  0.00000000000E+00 0. -1.
         11    1    3    3    0    0  0.94513923917E+01 -0.33459518094E+02  0.15297728871E+02  0.37985374528E+02  0.51100000000E-03 0. -1.
        -11    1    3    3    0    0  0.55189395214E+01 -0.53426949793E+01 -0.62053037342E+01  0.98746583625E+01  0.51100000000E-03 0.  1.
        -12    1    3    3    0    0 -0.15788341168E+02  0.37967108366E+02 -0.92550905819E+01  0.42147713298E+02  0.00000000000E+00 0.  1.
</event>
<event>
 7    1  0.3568207E-015  0.9000779E+02  0.7816164E-02  0.1186339E+00
        -11   -1    0    0    0    0  0.00000000000E+00  0.00000000000E+00  0.45593999997E+02  0.45594000000E+02  0.51100000000E-03 0.  1.
         11   -1    0    0    0    0 -0.00000000000E+00 -0.00000000000E+00 -0.45593999997E+02  0.45594000000E+02  0.51100000000E-03 0. -1.
    9900012    2    1    2    0    0 -0.35750849648E+00  0.39583924111E+00  0.10528086676E+01  0.90007785138E+02  0.90000047102E+02 0.  0.
         12    1    1    2    0    0  0.35750849648E+00 -0.39583924111E+00 -0.10528086676E+01  0.11802148620E+01  0.00000000000E+00 0. -1.
         11    1    3    3    0    0 -0.23362883124E+02 -0.27405088084E+02 -0.90382197950E+01  0.37128864487E+02  0.51100000000E-03 0. -1.
        -11    1    3    3    0    0 -0.39891397078E+01 -0.46303444126E+01 -0.51730085078E+01  0.80070807584E+01  0.51100000000E-03 0.  1.
        -12    1    3    3    0    0  0.26994514335E+02  0.32431271738E+02  0.15264036970E+02  0.44871839893E+02  0.00000000000E+00 0.  1.
</event>
<event>
 7    1  0.3568207E-015  0.9000776E+02  0.7816164E-02  0.1186339E+00
        -11   -1    0    0    0    0  0.00000000000E+00  0.00000000000E+00  0.45593999997E+02  0.45594000000E+02  0.51100000000E-03 0. -1.
         11   -1    0    0    0    0 -0.00000000000E+00 -0.00000000000E+00 -0.45593999997E+02  0.45594000000E+02  0.51100000000E-03 0.  1.
    9900012    2    1    2    0    0  0.33968283460E+00  0.11194292391E+01 -0.15640655577E+00  0.90007758813E+02  0.90000020429E+02 0.  0.
         12    1    1    2    0    0 -0.33968283460E+00 -0.11194292391E+01  0.15640655577E+00  0.11802411873E+01  0.00000000000E+00 0. -1.
         11    1    3    3    0    0  0.85468496979E+01  0.64776893734E+01 -0.67377395143E+01  0.12665158246E+02  0.51100000000E-03 0. -1.
        -11    1    3    3    0    0  0.13342516780E+02 -0.32209239996E+02  0.20228970952E+02  0.40307184982E+02  0.51100000000E-03 0.  1.
         12    1    3    3    0    0 -0.21549683644E+02  0.26850979862E+02 -0.13647637994E+02  0.37035415584E+02  0.00000000000E+00 0. -1.
</event>
<event>
 7    1  0.3568207E-015  0.9000767E+02  0.7816164E-02  0.1186339E+00
        -11   -1    0    0    0    0  0.00000000000E+00  0.00000000000E+00  0.45593999997E+02  0.45594000000E+02  0.51100000000E-03 0. -1.
         11   -1    0    0    0    0 -0.00000000000E+00 -0.00000000000E+00 -0.45593999997E+02  0.45594000000E+02  0.51100000000E-03 0.  1.
    9900012    2    1    2    0    0 -0.26409524044E+00  0.11478043255E+01  0.77285720874E-01  0.90007672017E+02  0.89999932487E+02 0.  0.
         12    1    1    2    0    0  0.26409524044E+00 -0.11478043255E+01 -0.77285720874E-01  0.11803279834E+01  0.00000000000E+00 0. -1.
         11    1    3    3    0    0 -0.11066190502E+02  0.11540817700E+02  0.17312515011E+01  0.16082545738E+02  0.51100000000E-03 0. -1.
        -11    1    3    3    0    0 -0.36296113538E+01 -0.26571386067E+02 -0.28688509291E+02  0.39271404376E+02  0.51100000000E-03 0.  1.
         12    1    3    3    0    0  0.14431706615E+02  0.16178372693E+02  0.27034543510E+02  0.34653721902E+02  0.00000000000E+00 0. -1.
</event>
<event>
 7    1  0.3568207E-015  0.9000720E+02  0.7816164E-02  0.1186340E+00
        -11   -1    0    0    0    0  0.00000000000E+00  0.00000000000E+00  0.45593999997E+02  0.45594000000E+02  0.51100000000E-03 0. -1.
         11   -1    0    0    0    0 -0.00000000000E+00 -0.00000000000E+00 -0.45593999997E+02  0.45594000000E+02  0.51100000000E-03 0.  1.
    9900012    2    1    2    0    0  0.37913632447E+00 -0.92154495416E+00  0.63348171579E+00  0.90007200043E+02  0.89999454282E+02 0.  0.
         12    1    1    2    0    0 -0.37913632447E+00  0.92154495416E+00 -0.63348171579E+00  0.11807999574E+01  0.00000000000E+00 0. -1.
         11    1    3    3    0    0  0.17328928563E+02  0.13240219913E+00  0.35956081481E+02  0.39914271774E+02  0.51100000000E-03 0. -1.
        -11    1    3    3    0    0  0.87479352674E+01 -0.76112653806E+00 -0.42077068644E+01  0.97370674419E+01  0.51100000000E-03 0.  1.
        -12    1    3    3    0    0 -0.25697727506E+02 -0.29282061523E+00 -0.31114892901E+02  0.40355860827E+02  0.00000000000E+00 0.  1.
</event>
<event>
 7    1  0.3568207E-015  0.9000771E+02  0.7816164E-02  0.1186339E+00
        -11   -1    0    0    0    0  0.00000000000E+00  0.00000000000E+00  0.45593999997E+02  0.45594000000E+02  0.51100000000E-03 0.  1.
         11   -1    0    0    0    0 -0.00000000000E+00 -0.00000000000E+00 -0.45593999997E+02  0.45594000000E+02  0.51100000000E-03 0. -1.
    9900012    2    1    2    0    0 -0.33691582338E+00 -0.11303557076E+01 -0.43238293607E-01  0.90007709422E+02  0.89999970387E+02 0.  0.
         12    1    1    2    0    0  0.33691582338E+00  0.11303557076E+01  0.43238293607E-01  0.11802905777E+01  0.00000000000E+00 0. -1.
         11    1    3    3    0    0  0.29204494624E+02  0.17963051438E+02  0.14447493280E+02  0.37206233155E+02  0.51100000000E-03 0. -1.
        -11    1    3    3    0    0  0.12124111718E+01  0.80397903065E+01 -0.77620339652E+01  0.11240878104E+02  0.51100000000E-03 0.  1.
        -12    1    3    3    0    0 -0.30753821619E+02 -0.27133197452E+02 -0.67286976085E+01  0.41560598163E+02  0.00000000000E+00 0.  1.
</event>
<event>
 7    1  0.4128731E-015  0.9000763E+02  0.7816164E-02  0.1186339E+00
        -11   -1    0    0    0    0  0.00000000000E+00  0.00000000000E+00  0.45593999997E+02  0.45594000000E+02  0.51100000000E-03 0.  1.
         11   -1    0    0    0    0 -0.00000000000E+00 -0.00000000000E+00 -0.45593999997E+02  0.45594000000E+02  0.51100000000E-03 0. -1.
    9900012    2    1    2    0    0 -0.19189196455E+00  0.10952841508E+01  0.39597436438E+00  0.90007633280E+02  0.89999893239E+02 0.  0.
         12    1    1    2    0    0  0.19189196455E+00 -0.10952841508E+01 -0.39597436438E+00  0.11803667203E+01  0.00000000000E+00 0. -1.
         11    1    3    3    0    0  0.98921716621E+00  0.34937113380E+01  0.86511404500E+01  0.93822599016E+01  0.51100000000E-03 0. -1.
        -11    1    3    3    0    0 -0.75247538584E+01 -0.82139671214E+01  0.34892644972E+02  0.36627692391E+02  0.51100000000E-03 0.  1.
         12    1    3    3    0    0  0.63436447276E+01  0.58155399343E+01 -0.43147811058E+02  0.43997680987E+02  0.00000000000E+00 0. -1.
</event>
<event>
 7    1  0.3568207E-015  0.9000775E+02  0.7816164E-02  0.1186339E+00
        -11   -1    0    0    0    0  0.00000000000E+00  0.00000000000E+00  0.45593999997E+02  0.45594000000E+02  0.51100000000E-03 0.  1.
         11   -1    0    0    0    0 -0.00000000000E+00 -0.00000000000E+00 -0.45593999997E+02  0.45594000000E+02  0.51100000000E-03 0. -1.
    9900012    2    1    2    0    0  0.12421312535E+00  0.67436080893E-01  0.11717559790E+01  0.90007750620E+02  0.90000012128E+02 0.  0.
         12    1    1    2    0    0 -0.12421312535E+00 -0.67436080893E-01 -0.11717559790E+01  0.11802493803E+01  0.00000000000E+00 0. -1.
         11    1    3    3    0    0  0.38324958418E+01  0.30714636363E+02 -0.24534975610E+02  0.39497366238E+02  0.51100000000E-03 0. -1.
        -11    1    3    3    0    0  0.82984471693E+01 -0.41764700920E+01 -0.28956831285E+01  0.97309870462E+01  0.51100000000E-03 0.  1.
        -12    1    3    3    0    0 -0.12006729886E+02 -0.26470730190E+02  0.28602414718E+02  0.40779397335E+02  0.00000000000E+00 0.  1.
</event>
<event>
 7    1  0.3568207E-015  0.9000773E+02  0.7816164E-02  0.1186339E+00
        -11   -1    0    0    0    0  0.00000000000E+00  0.00000000000E+00  0.45593999997E+02  0.45594000000E+02  0.51100000000E-03 0.  1.
         11   -1    0    0    0    0 -0.00000000000E+00 -0.00000000000E+00 -0.45593999997E+02  0.45594000000E+02  0.51100000000E-03 0. -1.
    9900012    2    1    2    0    0 -0.30119909707E+00  0.60933240725E+00  0.96489629310E+00  0.90007732346E+02  0.89999993613E+02 0.  0.
         12    1    1    2    0    0  0.30119909707E+00 -0.60933240725E+00 -0.96489629310E+00  0.11802676540E+01  0.00000000000E+00 0. -1.
         11    1    3    3    0    0 -0.13830466976E+00 -0.81056231700E+01  0.11328480743E+02  0.13930352880E+02  0.51100000000E-03 0. -1.
        -11    1    3    3    0    0 -0.22190455912E+02  0.62135191613E+01  0.25213984968E+02  0.34158003340E+02  0.51100000000E-03 0.  1.
         12    1    3    3    0    0  0.22027561485E+02  0.25014364159E+01 -0.35577569418E+02  0.41919376126E+02  0.00000000000E+00 0. -1.
</event>
<event>
 7    1  0.3568207E-015  0.9000773E+02  0.7816164E-02  0.1186339E+00
        -11   -1    0    0    0    0  0.00000000000E+00  0.00000000000E+00  0.45593999997E+02  0.45594000000E+02  0.51100000000E-03 0. -1.
         11   -1    0    0    0    0 -0.00000000000E+00 -0.00000000000E+00 -0.45593999997E+02  0.45594000000E+02  0.51100000000E-03 0.  1.
    9900012    2    1    2    0    0 -0.65153066171E+00 -0.68845609750E+00 -0.70325760270E+00  0.90007730854E+02  0.89999992101E+02 0.  0.
         12    1    1    2    0    0  0.65153066171E+00  0.68845609750E+00  0.70325760270E+00  0.11802691460E+01  0.00000000000E+00 0. -1.
         11    1    3    3    0    0 -0.30045079743E+02  0.16340683445E+01  0.27323256804E+02  0.40644032265E+02  0.51100000000E-03 0. -1.
        -11    1    3    3    0    0  0.76676941236E+01 -0.75380709333E+00  0.54407971487E+01  0.94320746488E+01  0.51100000000E-03 0.  1.
        -12    1    3    3    0    0  0.21725854957E+02 -0.15687173487E+01 -0.33467311556E+02  0.39931623940E+02  0.00000000000E+00 0.  1.
</event>
<event>
 7    1  0.3568207E-015  0.9000749E+02  0.7816164E-02  0.1186340E+00
        -11   -1    0    0    0    0  0.00000000000E+00  0.00000000000E+00  0.45593999997E+02  0.45594000000E+02  0.51100000000E-03 0.  1.
         11   -1    0    0    0    0 -0.00000000000E+00 -0.00000000000E+00 -0.45593999997E+02  0.45594000000E+02  0.51100000000E-03 0. -1.
    9900012    2    1    2    0    0 -0.26372499782E+00 -0.13157494341E+00  0.11431227744E+01  0.90007494804E+02  0.89999752935E+02 0.  0.
         12    1    1    2    0    0  0.26372499782E+00  0.13157494341E+00 -0.11431227744E+01  0.11805051959E+01  0.00000000000E+00 0. -1.
         11    1    3    3    0    0  0.16319255869E+02 -0.20854438054E+02 -0.32983714833E+02  0.42298358634E+02  0.51100000000E-03 0. -1.
        -11    1    3    3    0    0 -0.64798958680E+00  0.57585019730E+01 -0.14313274785E+01  0.59689977458E+01  0.51100000000E-03 0.  1.
        -12    1    3    3    0    0 -0.15934991280E+02  0.14964361138E+02  0.35558165086E+02  0.41740138424E+02  0.00000000000E+00 0.  1.
</event>
<event>
 7    1  0.3568207E-015  0.9000775E+02  0.7816164E-02  0.1186339E+00
        -11   -1    0    0    0    0  0.00000000000E+00  0.00000000000E+00  0.45593999997E+02  0.45594000000E+02  0.51100000000E-03 0.  1.
         11   -1    0    0    0    0 -0.00000000000E+00 -0.00000000000E+00 -0.45593999997E+02  0.45594000000E+02  0.51100000000E-03 0. -1.
    9900012    2    1    2    0    0 -0.77527246917E+00 -0.83510626107E+00  0.30745955598E+00  0.90007753734E+02  0.90000015284E+02 0.  0.
         12    1    1    2    0    0  0.77527246917E+00  0.83510626107E+00 -0.30745955598E+00  0.11802462655E+01  0.00000000000E+00 0. -1.
         11    1    3    3    0    0 -0.93768050119E+01 -0.57083984419E+01 -0.12961215411E+02  0.16985387549E+02  0.51100000000E-03 0. -1.
        -11    1    3    3    0    0  0.43896310542E+01  0.34523274244E+02  0.22787870157E+02  0.41598225345E+02  0.51100000000E-03 0.  1.
         12    1    3    3    0    0  0.42119014885E+01 -0.29649982063E+02 -0.95191951907E+01  0.31424140840E+02  0.00000000000E+00 0. -1.
</event>
<event>
 7    1  0.3568207E-015  0.9000788E+02  0.7816164E-02  0.1186339E+00
        -11   -1    0    0    0    0  0.00000000000E+00  0.00000000000E+00  0.45593999997E+02  0.45594000000E+02  0.51100000000E-03 0.  1.
         11   -1    0    0    0    0 -0.00000000000E+00 -0.00000000000E+00 -0.45593999997E+02  0.45594000000E+02  0.51100000000E-03 0. -1.
    9900012    2    1    2    0    0  0.68305931889E+00 -0.23420085087E+00  0.93341211886E+00  0.90007882101E+02  0.90000145345E+02 0.  0.
         12    1    1    2    0    0 -0.68305931889E+00  0.23420085087E+00 -0.93341211886E+00  0.11801178989E+01  0.00000000000E+00 0. -1.
         11    1    3    3    0    0  0.15192577278E+01  0.66519088793E+01  0.61112080647E+01  0.91598526218E+01  0.51100000000E-03 0. -1.
        -11    1    3    3    0    0 -0.19593551921E+02  0.23765198504E+02  0.20218929310E+02  0.36844226678E+02  0.51100000000E-03 0.  1.
         12    1    3    3    0    0  0.18757353512E+02 -0.30651308234E+02 -0.25396725256E+02  0.44003802801E+02  0.00000000000E+00 0. -1.
</event>
<event>
 7    1  0.3568207E-015  0.9000778E+02  0.7816164E-02  0.1186339E+00
        -11   -1    0    0    0    0  0.00000000000E+00  0.00000000000E+00  0.45593999997E+02  0.45594000000E+02  0.51100000000E-03 0.  1.
         11   -1    0    0    0    0 -0.00000000000E+00 -0.00000000000E+00 -0.45593999997E+02  0.45594000000E+02  0.51100000000E-03 0. -1.
    9900012    2    1    2    0    0  0.83339845323E+00  0.74110246402E+00 -0.38619042597E+00  0.90007775916E+02  0.90000037758E+02 0.  0.
         12    1    1    2    0    0 -0.83339845323E+00 -0.74110246402E+00  0.38619042597E+00  0.11802240843E+01  0.00000000000E+00 0. -1.
         11    1    3    3    0    0 -0.14905553849E+02 -0.87917847932E+01 -0.31527414648E+02  0.35964550463E+02  0.51100000000E-03 0. -1.
        -11    1    3    3    0    0  0.15191158534E+01  0.75581537986E+01 -0.87414778516E+01  0.11655335135E+02  0.51100000000E-03 0.  1.
        -12    1    3    3    0    0  0.14219836448E+02  0.19747334586E+01  0.39882702074E+02  0.42387890317E+02  0.00000000000E+00 0.  1.
</event>
<event>
 7    1  0.3568207E-015  0.9000771E+02  0.7816164E-02  0.1186339E+00
        -11   -1    0    0    0    0  0.00000000000E+00  0.00000000000E+00  0.45593999997E+02  0.45594000000E+02  0.51100000000E-03 0. -1.
         11   -1    0    0    0    0 -0.00000000000E+00 -0.00000000000E+00 -0.45593999997E+02  0.45594000000E+02  0.51100000000E-03 0.  1.
    9900012    2    1    2    0    0  0.46929619350E+00 -0.89272639244E+00 -0.61309582976E+00  0.90007709432E+02  0.89999970396E+02 0.  0.
         12    1    1    2    0    0 -0.46929619350E+00  0.89272639244E+00  0.61309582976E+00  0.11802905682E+01  0.00000000000E+00 0. -1.
         11    1    3    3    0    0  0.35625955056E+00 -0.37492268130E+02  0.19501335291E+02  0.42262266489E+02  0.51100000000E-03 0. -1.
        -11    1    3    3    0    0 -0.12610677578E+01  0.56850021673E+01  0.51678023561E+01  0.77856099944E+01  0.51100000000E-03 0.  1.
        -12    1    3    3    0    0  0.13741044007E+01  0.30914539570E+02 -0.25282233476E+02  0.39959832949E+02  0.00000000000E+00 0.  1.
</event>
<event>
 7    1  0.3568207E-015  0.9000783E+02  0.7816164E-02  0.1186339E+00
        -11   -1    0    0    0    0  0.00000000000E+00  0.00000000000E+00  0.45593999997E+02  0.45594000000E+02  0.51100000000E-03 0.  1.
         11   -1    0    0    0    0 -0.00000000000E+00 -0.00000000000E+00 -0.45593999997E+02  0.45594000000E+02  0.51100000000E-03 0. -1.
    9900012    2    1    2    0    0 -0.10848133129E+01  0.70385457354E-01 -0.45937893838E+00  0.90007829230E+02  0.90000091776E+02 0.  0.
         12    1    1    2    0    0  0.10848133129E+01 -0.70385457354E-01  0.45937893838E+00  0.11801707696E+01  0.00000000000E+00 0. -1.
         11    1    3    3    0    0 -0.92416616135E+01  0.41954498824E+01 -0.14825649732E+01  0.10257100382E+02  0.51100000000E-03 0. -1.
        -11    1    3    3    0    0 -0.16733969569E+02 -0.13600085895E+02  0.32195832425E+02  0.38749963867E+02  0.51100000000E-03 0.  1.
         12    1    3    3    0    0  0.24890817870E+02  0.94750214696E+01 -0.31172646390E+02  0.41000764981E+02  0.00000000000E+00 0. -1.
</event>
<event>
 7    1  0.3568207E-015  0.9000757E+02  0.7816164E-02  0.1186339E+00
        -11   -1    0    0    0    0  0.00000000000E+00  0.00000000000E+00  0.45593999997E+02  0.45594000000E+02  0.51100000000E-03 0.  1.
         11   -1    0    0    0    0 -0.00000000000E+00 -0.00000000000E+00 -0.45593999997E+02  0.45594000000E+02  0.51100000000E-03 0. -1.
    9900012    2    1    2    0    0 -0.77030452335E+00  0.12768119343E+00  0.88529223373E+00  0.90007570466E+02  0.89999829596E+02 0.  0.
         12    1    1    2    0    0  0.77030452335E+00 -0.12768119343E+00 -0.88529223373E+00  0.11804295341E+01  0.00000000000E+00 0. -1.
         11    1    3    3    0    0 -0.18874734537E+02 -0.25219448936E+02 -0.14681568777E+02  0.34753772032E+02  0.51100000000E-03 0. -1.
        -11    1    3    3    0    0  0.82909934660E+01  0.69362830403E+00 -0.13524425886E+02  0.15878658277E+02  0.51100000000E-03 0.  1.
        -12    1    3    3    0    0  0.98134365475E+01  0.24653501825E+02  0.29091286896E+02  0.39375140157E+02  0.00000000000E+00 0.  1.
</event>
<event>
 7    1  0.3568207E-015  0.9000775E+02  0.7816164E-02  0.1186339E+00
        -11   -1    0    0    0    0  0.00000000000E+00  0.00000000000E+00  0.45593999997E+02  0.45594000000E+02  0.51100000000E-03 0.  1.
         11   -1    0    0    0    0 -0.00000000000E+00 -0.00000000000E+00 -0.45593999997E+02  0.45594000000E+02  0.51100000000E-03 0. -1.
    9900012    2    1    2    0    0 -0.11211208333E+01 -0.23459578776E+00  0.28469218502E+00  0.90007747168E+02  0.90000008631E+02 0.  0.
         12    1    1    2    0    0  0.11211208333E+01  0.23459578776E+00 -0.28469218502E+00  0.11802528317E+01  0.00000000000E+00 0. -1.
         11    1    3    3    0    0 -0.47564525806E+01  0.76423462715E+01  0.12697368097E+02  0.15564461268E+02  0.51100000000E-03 0. -1.
        -11    1    3    3    0    0  0.33561669844E+02 -0.18493551529E+02  0.42996613513E+01  0.38560137693E+02  0.51100000000E-03 0.  1.
         12    1    3    3    0    0 -0.29926338097E+02  0.10616609470E+02 -0.16712337264E+02  0.35883148208E+02  0.00000000000E+00 0. -1.
</event>
<event>
 7    1  0.3568207E-015  0.9000773E+02  0.7816164E-02  0.1186339E+00
        -11   -1    0    0    0    0  0.00000000000E+00  0.00000000000E+00  0.45593999997E+02  0.45594000000E+02  0.51100000000E-03 0.  1.
         11   -1    0    0    0    0 -0.00000000000E+00 -0.00000000000E+00 -0.45593999997E+02  0.45594000000E+02  0.51100000000E-03 0. -1.
    9900012    2    1    2    0    0  0.12793961942E-01  0.10903935790E+01  0.45157100458E+00  0.90007729601E+02  0.89999990832E+02 0.  0.
         12    1    1    2    0    0 -0.12793961942E-01 -0.10903935790E+01 -0.45157100458E+00  0.11802703990E+01  0.00000000000E+00 0. -1.
         11    1    3    3    0    0 -0.10364242605E+02 -0.31547825796E+02  0.14356082207E+01  0.33237686569E+02  0.51100000000E-03 0. -1.
        -11    1    3    3    0    0  0.21667372608E+02  0.45235242112E+01 -0.11187320351E+02  0.24801077475E+02  0.51100000000E-03 0.  1.
        -12    1    3    3    0    0 -0.11290336041E+02  0.28114695164E+02  0.10203283135E+02  0.31968965557E+02  0.00000000000E+00 0.  1.
</event>
<event>
 7    1  0.3568207E-015  0.9000772E+02  0.7816164E-02  0.1186339E+00
        -11   -1    0    0    0    0  0.00000000000E+00  0.00000000000E+00  0.45593999997E+02  0.45594000000E+02  0.51100000000E-03 0. -1.
         11   -1    0    0    0    0 -0.00000000000E+00 -0.00000000000E+00 -0.45593999997E+02  0.45594000000E+02  0.51100000000E-03 0.  1.
    9900012    2    1    2    0    0 -0.98774862943E+00  0.48348925913E+00 -0.42855048590E+00  0.90007718365E+02  0.89999979448E+02 0.  0.
         12    1    1    2    0    0  0.98774862943E+00 -0.48348925913E+00  0.42855048590E+00  0.11802816349E+01  0.00000000000E+00 0. -1.
         11    1    3    3    0    0  0.25849132981E+02  0.22210409163E+02  0.12118307419E+02  0.36170890590E+02  0.51100000000E-03 0. -1.
        -11    1    3    3    0    0  0.15797724712E+01 -0.10426115298E+02 -0.19776802632E+02  0.22412529617E+02  0.51100000000E-03 0.  1.
        -12    1    3    3    0    0 -0.28416654082E+02 -0.11300804607E+02  0.72299447270E+01  0.31424298158E+02  0.00000000000E+00 0.  1.
</event>
<event>
 7    1  0.3568207E-015  0.9000775E+02  0.7816164E-02  0.1186339E+00
        -11   -1    0    0    0    0  0.00000000000E+00  0.00000000000E+00  0.45593999997E+02  0.45594000000E+02  0.51100000000E-03 0. -1.
         11   -1    0    0    0    0 -0.00000000000E+00 -0.00000000000E+00 -0.45593999997E+02  0.45594000000E+02  0.51100000000E-03 0.  1.
    9900012    2    1    2    0    0 -0.74951463900E+00 -0.63708162109E+00 -0.65218181894E+00  0.90007751589E+02  0.90000013110E+02 0.  0.
         12    1    1    2    0    0  0.74951463900E+00  0.63708162109E+00  0.65218181894E+00  0.11802484107E+01  0.00000000000E+00 0. -1.
         11    1    3    3    0    0 -0.79413623606E+01 -0.58007570700E+01 -0.75286816451E+00  0.98631044536E+01  0.51100000000E-03 0. -1.
        -11    1    3    3    0    0 -0.19334344161E+02 -0.29669941669E+02  0.61542468431E+01  0.35944360576E+02  0.51100000000E-03 0.  1.
         12    1    3    3    0    0  0.26526191882E+02  0.34833617117E+02 -0.60535604976E+01  0.44200286560E+02  0.00000000000E+00 0. -1.
</event>
<event>
 7    1  0.3568207E-015  0.9000770E+02  0.7816164E-02  0.1186339E+00
        -11   -1    0    0    0    0  0.00000000000E+00  0.00000000000E+00  0.45593999997E+02  0.45594000000E+02  0.51100000000E-03 0. -1.
         11   -1    0    0    0    0 -0.00000000000E+00 -0.00000000000E+00 -0.45593999997E+02  0.45594000000E+02  0.51100000000E-03 0.  1.
    9900012    2    1    2    0    0  0.38144927291E+00  0.11132991815E+01  0.90427893235E-01  0.90007696726E+02  0.89999957523E+02 0.  0.
         12    1    1    2    0    0 -0.38144927291E+00 -0.11132991815E+01 -0.90427893235E-01  0.11803032742E+01  0.00000000000E+00 0. -1.
         11    1    3    3    0    0  0.18220259768E+01  0.23769589728E+01  0.10031792395E+02  0.10469315715E+02  0.51100000000E-03 0. -1.
        -11    1    3    3    0    0 -0.18078617291E+02  0.23509014273E+02  0.21163532994E+02  0.36433573587E+02  0.51100000000E-03 0.  1.
         12    1    3    3    0    0  0.16638040587E+02 -0.24772674065E+02 -0.31104897496E+02  0.43104807424E+02  0.00000000000E+00 0. -1.
</event>
<event>
 7    1  0.3568207E-015  0.9000790E+02  0.7816164E-02  0.1186339E+00
        -11   -1    0    0    0    0  0.00000000000E+00  0.00000000000E+00  0.45593999997E+02  0.45594000000E+02  0.51100000000E-03 0.  1.
         11   -1    0    0    0    0 -0.00000000000E+00 -0.00000000000E+00 -0.45593999997E+02  0.45594000000E+02  0.51100000000E-03 0. -1.
    9900012    2    1    2    0    0  0.24085628713E+00 -0.11552189748E+01 -0.94107618101E-02  0.90007902041E+02  0.90000165548E+02 0.  0.
         12    1    1    2    0    0 -0.24085628713E+00  0.11552189748E+01  0.94107618101E-02  0.11800979591E+01  0.00000000000E+00 0. -1.
         11    1    3    3    0    0  0.28867919198E+02 -0.55286194211E+01 -0.22275440219E+02  0.36879772623E+02  0.51100000000E-03 0. -1.
        -11    1    3    3    0    0  0.79542411932E+01 -0.61830615274E+01  0.59916331661E+01  0.11721769110E+02  0.51100000000E-03 0.  1.
        -12    1    3    3    0    0 -0.36581304104E+02  0.10556461974E+02  0.16274396291E+02  0.41406360308E+02  0.00000000000E+00 0.  1.
</event>
<event>
 7    1  0.3568207E-015  0.9000773E+02  0.7816164E-02  0.1186339E+00
        -11   -1    0    0    0    0  0.00000000000E+00  0.00000000000E+00  0.45593999997E+02  0.45594000000E+02  0.51100000000E-03 0. -1.
         11   -1    0    0    0    0 -0.00000000000E+00 -0.00000000000E+00 -0.45593999997E+02  0.45594000000E+02  0.51100000000E-03 0.  1.
    9900012    2    1    2    0    0 -0.10014043221E+01 -0.51347452979E+00 -0.35576886694E+00  0.90007729609E+02  0.89999990840E+02 0.  0.
         12    1    1    2    0    0  0.10014043221E+01  0.51347452979E+00  0.35576886694E+00  0.11802703909E+01  0.00000000000E+00 0. -1.
         11    1    3    3    0    0  0.32923757313E+02 -0.13914370761E+02 -0.85815868592E+00  0.35753600460E+02  0.51100000000E-03 0. -1.
        -11    1    3    3    0    0  0.80455983393E+01 -0.53289385155E+00 -0.53040150508E+01  0.96513317431E+01  0.51100000000E-03 0.  1.
        -12    1    3    3    0    0 -0.41970759974E+02  0.13933790083E+02  0.58064048698E+01  0.44602797406E+02  0.00000000000E+00 0.  1.
</event>
<event>
 7    1  0.3568207E-015  0.9000769E+02  0.7816164E-02  0.1186339E+00
        -11   -1    0    0    0    0  0.00000000000E+00  0.00000000000E+00  0.45593999997E+02  0.45594000000E+02  0.51100000000E-03 0. -1.
         11   -1    0    0    0    0 -0.00000000000E+00 -0.00000000000E+00 -0.45593999997E+02  0.45594000000E+02  0.51100000000E-03 0.  1.
    9900012    2    1    2    0    0 -0.10008437766E+01 -0.41656623881E+00 -0.46680572411E+00  0.90007693565E+02  0.89999954320E+02 0.  0.
         12    1    1    2    0    0  0.10008437766E+01  0.41656623881E+00  0.46680572411E+00  0.11803064351E+01  0.00000000000E+00 0. -1.
         11    1    3    3    0    0 -0.13167877876E+02 -0.19921780727E+01  0.32240381281E+01  0.13702415968E+02  0.51100000000E-03 0. -1.
        -11    1    3    3    0    0 -0.23757057989E+02 -0.19901896826E+02 -0.12698263773E+02  0.33492226033E+02  0.51100000000E-03 0.  1.
         12    1    3    3    0    0  0.35924092089E+02  0.21477508660E+02  0.90074199206E+01  0.42813051564E+02  0.00000000000E+00 0. -1.
</event>
<event>
 7    1  0.3568207E-015  0.9000848E+02  0.7816164E-02  0.1186338E+00
        -11   -1    0    0    0    0  0.00000000000E+00  0.00000000000E+00  0.45593999997E+02  0.45594000000E+02  0.51100000000E-03 0.  1.
         11   -1    0    0    0    0 -0.00000000000E+00 -0.00000000000E+00 -0.45593999997E+02  0.45594000000E+02  0.51100000000E-03 0. -1.
    9900012    2    1    2    0    0  0.10893139990E+01 -0.14334468298E+00  0.42908912127E+00  0.90008478843E+02  0.90000749960E+02 0.  0.
         12    1    1    2    0    0 -0.10893139990E+01  0.14334468298E+00 -0.42908912127E+00  0.11795211573E+01  0.00000000000E+00 0. -1.
         11    1    3    3    0    0 -0.33821696741E+02  0.10778117207E+02  0.62948583350E+01  0.36051355352E+02  0.51100000000E-03 0. -1.
        -11    1    3    3    0    0 -0.69426109890E+01 -0.52994955876E+01 -0.77624431872E+01  0.11685034246E+02  0.51100000000E-03 0.  1.
        -12    1    3    3    0    0  0.41853621729E+02 -0.56219663028E+01  0.18966739735E+01  0.42272089245E+02  0.00000000000E+00 0.  1.
</event>
<event>
 7    1  0.3568207E-015  0.9000772E+02  0.7816164E-02  0.1186339E+00
        -11   -1    0    0    0    0  0.00000000000E+00  0.00000000000E+00  0.45593999997E+02  0.45594000000E+02  0.51100000000E-03 0. -1.
         11   -1    0    0    0    0 -0.00000000000E+00 -0.00000000000E+00 -0.45593999997E+02  0.45594000000E+02  0.51100000000E-03 0.  1.
    9900012    2    1    2    0    0  0.99610726876E+00 -0.61561979228E+00  0.14780839527E+00  0.90007718364E+02  0.89999979446E+02 0.  0.
         12    1    1    2    0    0 -0.99610726876E+00  0.61561979228E+00 -0.14780839527E+00  0.11802816364E+01  0.00000000000E+00 0. -1.
         11    1    3    3    0    0  0.17730854986E+02 -0.30509109817E+02  0.19931897878E+02  0.40527392633E+02  0.51100000000E-03 0. -1.
        -11    1    3    3    0    0 -0.79935330750E+01 -0.46137822950E+01 -0.11500280608E+01  0.93008667815E+01  0.51100000000E-03 0.  1.
        -12    1    3    3    0    0 -0.87412146425E+01  0.34507272319E+02 -0.18634061422E+02  0.40179458949E+02  0.00000000000E+00 0.  1.
</event>
<event>
 7    1  0.3568207E-015  0.9000775E+02  0.7816164E-02  0.1186339E+00
        -11   -1    0    0    0    0  0.00000000000E+00  0.00000000000E+00  0.45593999997E+02  0.45594000000E+02  0.51100000000E-03 0. -1.
         11   -1    0    0    0    0 -0.00000000000E+00 -0.00000000000E+00 -0.45593999997E+02  0.45594000000E+02  0.51100000000E-03 0.  1.
    9900012    2    1    2    0    0 -0.42638375457E+00  0.98282049983E+00  0.49522400060E+00  0.90007751699E+02  0.90000013222E+02 0.  0.
         12    1    1    2    0    0  0.42638375457E+00 -0.98282049983E+00 -0.49522400060E+00  0.11802483009E+01  0.00000000000E+00 0. -1.
         11    1    3    3    0    0  0.21062954587E+02  0.26432824163E+02  0.15350342497E+02  0.37121089211E+02  0.51100000000E-03 0. -1.
        -11    1    3    3    0    0 -0.24024083540E+01  0.81739297573E+01  0.45151473697E+01  0.96421600074E+01  0.51100000000E-03 0.  1.
        -12    1    3    3    0    0 -0.19086929988E+02 -0.33623933421E+02 -0.19370265867E+02  0.43244502480E+02  0.00000000000E+00 0.  1.
</event>
<event>
 7    1  0.3568207E-015  0.9000741E+02  0.7816164E-02  0.1186340E+00
        -11   -1    0    0    0    0  0.00000000000E+00  0.00000000000E+00  0.45593999997E+02  0.45594000000E+02  0.51100000000E-03 0.  1.
         11   -1    0    0    0    0 -0.00000000000E+00 -0.00000000000E+00 -0.45593999997E+02  0.45594000000E+02  0.51100000000E-03 0. -1.
    9900012    2    1    2    0    0 -0.11719119622E+01  0.34345735697E-01  0.13872296271E+00  0.90007406362E+02  0.89999663326E+02 0.  0.
         12    1    1    2    0    0  0.11719119622E+01 -0.34345735697E-01 -0.13872296271E+00  0.11805936375E+01  0.00000000000E+00 0. -1.
         11    1    3    3    0    0 -0.34702743881E+02 -0.87558753174E+01 -0.19618554406E+02  0.40814623147E+02  0.51100000000E-03 0. -1.
        -11    1    3    3    0    0 -0.30348776507E+01  0.74972581162E+01  0.61307179965E+01  0.10149141098E+02  0.51100000000E-03 0.  1.
        -12    1    3    3    0    0  0.36565709569E+02  0.12929629370E+01  0.13626559372E+02  0.39043642117E+02  0.00000000000E+00 0.  1.
</event>
<event>
 7    1  0.3568207E-015  0.9000774E+02  0.7816164E-02  0.1186339E+00
        -11   -1    0    0    0    0  0.00000000000E+00  0.00000000000E+00  0.45593999997E+02  0.45594000000E+02  0.51100000000E-03 0. -1.
         11   -1    0    0    0    0 -0.00000000000E+00 -0.00000000000E+00 -0.45593999997E+02  0.45594000000E+02  0.51100000000E-03 0.  1.
    9900012    2    1    2    0    0 -0.69697941623E+00 -0.57163612929E+00 -0.76187533892E+00  0.90007744857E+02  0.90000006289E+02 0.  0.
         12    1    1    2    0    0  0.69697941623E+00  0.57163612929E+00  0.76187533892E+00  0.11802551432E+01  0.00000000000E+00 0. -1.
         11    1    3    3    0    0  0.35471227321E+02 -0.14786475996E+02  0.98024857507E+01  0.39660264336E+02  0.51100000000E-03 0. -1.
        -11    1    3    3    0    0  0.94081999661E-01 -0.68416243784E+01 -0.39383831508E+01  0.78947791395E+01  0.51100000000E-03 0.  1.
        -12    1    3    3    0    0 -0.36262288737E+02  0.21056464245E+02 -0.66259779388E+01  0.42452701381E+02  0.00000000000E+00 0.  1.
</event>
<event>
 7    1  0.3568207E-015  0.9000775E+02  0.7816164E-02  0.1186339E+00
        -11   -1    0    0    0    0  0.00000000000E+00  0.00000000000E+00  0.45593999997E+02  0.45594000000E+02  0.51100000000E-03 0.  1.
         11   -1    0    0    0    0 -0.00000000000E+00 -0.00000000000E+00 -0.45593999997E+02  0.45594000000E+02  0.51100000000E-03 0. -1.
    9900012    2    1    2    0    0 -0.26606790061E+00  0.10799728164E+01  0.39480147067E+00  0.90007745107E+02  0.90000006542E+02 0.  0.
         12    1    1    2    0    0  0.26606790061E+00 -0.10799728164E+01 -0.39480147067E+00  0.11802548933E+01  0.00000000000E+00 0. -1.
         11    1    3    3    0    0 -0.16296218836E+01  0.26283728660E+02 -0.25929822345E+02  0.36957350376E+02  0.51100000000E-03 0. -1.
        -11    1    3    3    0    0  0.72316136086E+01 -0.13655585937E-01 -0.75340230778E+01  0.10443080286E+02  0.51100000000E-03 0.  1.
        -12    1    3    3    0    0 -0.58680596256E+01 -0.25190100257E+02  0.33858646893E+02  0.42607314445E+02  0.00000000000E+00 0.  1.
</event>
<event>
 7    1  0.3568207E-015  0.9000772E+02  0.7816164E-02  0.1186339E+00
        -11   -1    0    0    0    0  0.00000000000E+00  0.00000000000E+00  0.45593999997E+02  0.45594000000E+02  0.51100000000E-03 0.  1.
         11   -1    0    0    0    0 -0.00000000000E+00 -0.00000000000E+00 -0.45593999997E+02  0.45594000000E+02  0.51100000000E-03 0. -1.
    9900012    2    1    2    0    0  0.85635786360E+00 -0.36349673960E+00  0.72635044330E+00  0.90007718831E+02  0.89999979920E+02 0.  0.
         12    1    1    2    0    0 -0.85635786360E+00  0.36349673960E+00 -0.72635044330E+00  0.11802811685E+01  0.00000000000E+00 0. -1.
         11    1    3    3    0    0 -0.60357587195E+01 -0.11604583717E+02  0.15768803916E+01  0.13175101464E+02  0.51100000000E-03 0. -1.
        -11    1    3    3    0    0 -0.93658507558E+01 -0.83760800409E+01  0.32511053020E+02  0.34854647408E+02  0.51100000000E-03 0.  1.
         12    1    3    3    0    0  0.16257967339E+02  0.19617167018E+02 -0.33361582968E+02  0.41977969960E+02  0.00000000000E+00 0. -1.
</event>
<event>
 7    1  0.3568207E-015  0.9000781E+02  0.7816164E-02  0.1186339E+00
        -11   -1    0    0    0    0  0.00000000000E+00  0.00000000000E+00  0.45593999997E+02  0.45594000000E+02  0.51100000000E-03 0.  1.
         11   -1    0    0    0    0 -0.00000000000E+00 -0.00000000000E+00 -0.45593999997E+02  0.45594000000E+02  0.51100000000E-03 0. -1.
    9900012    2    1    2    0    0  0.88526730456E+00 -0.28984248533E+00  0.72466012639E+00  0.90007813928E+02  0.90000076271E+02 0.  0.
         12    1    1    2    0    0 -0.88526730456E+00  0.28984248533E+00 -0.72466012639E+00  0.11801860724E+01  0.00000000000E+00 0. -1.
         11    1    3    3    0    0 -0.16023065058E+02 -0.14964008745E+02 -0.26440987560E+02  0.34348012970E+02  0.51100000000E-03 0. -1.
        -11    1    3    3    0    0 -0.89011938806E+01  0.34068831810E+01 -0.66735849771E+01  0.11635069498E+02  0.51100000000E-03 0.  1.
        -12    1    3    3    0    0  0.25809526243E+02  0.11267283078E+02  0.33839232664E+02  0.44024731460E+02  0.00000000000E+00 0.  1.
</event>
<event>
 7    1  0.3568207E-015  0.9000820E+02  0.7816164E-02  0.1186338E+00
        -11   -1    0    0    0    0  0.00000000000E+00  0.00000000000E+00  0.45593999997E+02  0.45594000000E+02  0.51100000000E-03 0. -1.
         11   -1    0    0    0    0 -0.00000000000E+00 -0.00000000000E+00 -0.45593999997E+02  0.45594000000E+02  0.51100000000E-03 0.  1.
    9900012    2    1    2    0    0  0.10025229864E+01 -0.56067416028E+00 -0.26930738289E+00  0.90008197339E+02  0.90000464743E+02 0.  0.
         12    1    1    2    0    0 -0.10025229864E+01  0.56067416028E+00  0.26930738289E+00  0.11798026609E+01  0.00000000000E+00 0. -1.
         11    1    3    3    0    0  0.34992955239E+01 -0.83618663031E+01 -0.56234273625E+01  0.10667183921E+02  0.51100000000E-03 0. -1.
        -11    1    3    3    0    0  0.25373767881E+02 -0.25052856334E+02  0.64870013818E+01  0.36242997863E+02  0.51100000000E-03 0.  1.
         12    1    3    3    0    0 -0.27870540418E+02  0.32854048476E+02 -0.11328814021E+01  0.43098015555E+02  0.00000000000E+00 0. -1.
</event>
<event>
 7    1  0.3568207E-015  0.9000780E+02  0.7816164E-02  0.1186339E+00
        -11   -1    0    0    0    0  0.00000000000E+00  0.00000000000E+00  0.45593999997E+02  0.45594000000E+02  0.51100000000E-03 0.  1.
         11   -1    0    0    0    0 -0.00000000000E+00 -0.00000000000E+00 -0.45593999997E+02  0.45594000000E+02  0.51100000000E-03 0. -1.
    9900012    2    1    2    0    0 -0.41613509937E+00  0.10158112183E+01  0.43340134061E+00  0.90007797655E+02  0.90000059784E+02 0.  0.
         12    1    1    2    0    0  0.41613509937E+00 -0.10158112183E+01 -0.43340134061E+00  0.11802023446E+01  0.00000000000E+00 0. -1.
         11    1    3    3    0    0 -0.15235351995E+01  0.68098359809E-01 -0.72322293667E+01  0.73912745020E+01  0.51100000000E-03 0. -1.
        -11    1    3    3    0    0  0.16124035848E+02  0.34029963801E+02 -0.14163330744E+02  0.40232112875E+02  0.51100000000E-03 0.  1.
         12    1    3    3    0    0 -0.15016635747E+02 -0.33082250943E+02  0.21828961452E+02  0.42384410279E+02  0.00000000000E+00 0. -1.
</event>
<event>
 7    1  0.3568207E-015  0.9000758E+02  0.7816164E-02  0.1186339E+00
        -11   -1    0    0    0    0  0.00000000000E+00  0.00000000000E+00  0.45593999997E+02  0.45594000000E+02  0.51100000000E-03 0. -1.
         11   -1    0    0    0    0 -0.00000000000E+00 -0.00000000000E+00 -0.45593999997E+02  0.45594000000E+02  0.51100000000E-03 0.  1.
    9900012    2    1    2    0    0 -0.63645279071E+00 -0.65307918899E+00 -0.74953603379E+00  0.90007581071E+02  0.89999840341E+02 0.  0.
         12    1    1    2    0    0  0.63645279071E+00  0.65307918899E+00  0.74953603379E+00  0.11804189290E+01  0.00000000000E+00 0. -1.
         11    1    3    3    0    0 -0.60242401382E+01  0.42505328515E+02  0.91451593250E+00  0.42939850501E+02  0.51100000000E-03 0. -1.
        -11    1    3    3    0    0  0.64357438579E+01 -0.59998635870E+01 -0.43153761873E+01  0.97999813248E+01  0.51100000000E-03 0.  1.
        -12    1    3    3    0    0 -0.10479565104E+01 -0.37158544117E+02  0.26513242210E+01  0.37267749246E+02  0.00000000000E+00 0.  1.
</event>
<event>
 7    1  0.3568207E-015  0.9000762E+02  0.7816164E-02  0.1186339E+00
        -11   -1    0    0    0    0  0.00000000000E+00  0.00000000000E+00  0.45593999997E+02  0.45594000000E+02  0.51100000000E-03 0.  1.
         11   -1    0    0    0    0 -0.00000000000E+00 -0.00000000000E+00 -0.45593999997E+02  0.45594000000E+02  0.51100000000E-03 0. -1.
    9900012    2    1    2    0    0 -0.10900122738E+01  0.45276680515E+00  0.13375660628E-01  0.90007617246E+02  0.89999876994E+02 0.  0.
         12    1    1    2    0    0  0.10900122738E+01 -0.45276680515E+00 -0.13375660628E-01  0.11803827537E+01  0.00000000000E+00 0. -1.
         11    1    3    3    0    0 -0.47399469069E+01  0.95495818964E+01  0.53288213663E+00  0.10674529250E+02  0.51100000000E-03 0. -1.
        -11    1    3    3    0    0 -0.34032551927E+02  0.12063900501E+02  0.26743970986E+00  0.36108500526E+02  0.51100000000E-03 0.  1.
         12    1    3    3    0    0  0.37682486560E+02 -0.21160715592E+02 -0.78694618586E+00  0.43224587471E+02  0.00000000000E+00 0. -1.
</event>
<event>
 7    1  0.3568207E-015  0.9000752E+02  0.7816164E-02  0.1186339E+00
        -11   -1    0    0    0    0  0.00000000000E+00  0.00000000000E+00  0.45593999997E+02  0.45594000000E+02  0.51100000000E-03 0. -1.
         11   -1    0    0    0    0 -0.00000000000E+00 -0.00000000000E+00 -0.45593999997E+02  0.45594000000E+02  0.51100000000E-03 0.  1.
    9900012    2    1    2    0    0  0.28236998682E+00 -0.12192172093E+00 -0.11397036029E+01  0.90007524664E+02  0.89999783190E+02 0.  0.
         12    1    1    2    0    0 -0.28236998682E+00  0.12192172093E+00  0.11397036029E+01  0.11804753356E+01  0.00000000000E+00 0. -1.
         11    1    3    3    0    0 -0.42809966577E+01 -0.84984596613E+01 -0.12486170156E+02  0.15698891503E+02  0.51100000000E-03 0. -1.
        -11    1    3    3    0    0  0.71493222315E+01 -0.89862083857E+01 -0.28521885178E+02  0.30746750786E+02  0.51100000000E-03 0.  1.
         12    1    3    3    0    0 -0.25859555869E+01  0.17362746326E+02  0.39868351732E+02  0.43561882375E+02  0.00000000000E+00 0. -1.
</event>
<event>
 7    1  0.3568207E-015  0.9000895E+02  0.7816164E-02  0.1186337E+00
        -11   -1    0    0    0    0  0.00000000000E+00  0.00000000000E+00  0.45593999997E+02  0.45594000000E+02  0.51100000000E-03 0. -1.
         11   -1    0    0    0    0 -0.00000000000E+00 -0.00000000000E+00 -0.45593999997E+02  0.45594000000E+02  0.51100000000E-03 0.  1.
    9900012    2    1    2    0    0 -0.60014910485E+00  0.23576140525E-01  0.10146011144E+01  0.90008953689E+02  0.90001231069E+02 0.  0.
         12    1    1    2    0    0  0.60014910485E+00 -0.23576140525E-01 -0.10146011144E+01  0.11790463111E+01  0.00000000000E+00 0. -1.
         11    1    3    3    0    0  0.26051499541E+02  0.34649734870E+02  0.67765339460E+01  0.43877171370E+02  0.51100000000E-03 0. -1.
        -11    1    3    3    0    0 -0.98918582732E+01 -0.39268586779E+01 -0.29425666977E+01  0.11042091206E+02  0.51100000000E-03 0.  1.
        -12    1    3    3    0    0 -0.16759790373E+02 -0.30699300051E+02 -0.28193661339E+01  0.35089691112E+02  0.00000000000E+00 0.  1.
</event>
<event>
 7    1  0.3568207E-015  0.9000757E+02  0.7816164E-02  0.1186339E+00
        -11   -1    0    0    0    0  0.00000000000E+00  0.00000000000E+00  0.45593999997E+02  0.45594000000E+02  0.51100000000E-03 0.  1.
         11   -1    0    0    0    0 -0.00000000000E+00 -0.00000000000E+00 -0.45593999997E+02  0.45594000000E+02  0.51100000000E-03 0. -1.
    9900012    2    1    2    0    0 -0.60106529155E+00  0.53573512065E+00  0.86320162933E+00  0.90007572680E+02  0.89999831840E+02 0.  0.
         12    1    1    2    0    0  0.60106529155E+00 -0.53573512065E+00 -0.86320162933E+00  0.11804273197E+01  0.00000000000E+00 0. -1.
         11    1    3    3    0    0 -0.29957072410E+02  0.24208339241E+02  0.95839587382E+00  0.38527761408E+02  0.51100000000E-03 0. -1.
        -11    1    3    3    0    0  0.82412568071E+01  0.65768970801E+01 -0.86184697825E+01  0.13618072941E+02  0.51100000000E-03 0.  1.
        -12    1    3    3    0    0  0.21114750311E+02 -0.30249501201E+02  0.85232755380E+01  0.37861738332E+02  0.00000000000E+00 0.  1.
</event>
<event>
 7    1  0.3568207E-015  0.9000778E+02  0.7816164E-02  0.1186339E+00
        -11   -1    0    0    0    0  0.00000000000E+00  0.00000000000E+00  0.45593999997E+02  0.45594000000E+02  0.51100000000E-03 0.  1.
         11   -1    0    0    0    0 -0.00000000000E+00 -0.00000000000E+00 -0.45593999997E+02  0.45594000000E+02  0.51100000000E-03 0. -1.
    9900012    2    1    2    0    0 -0.59506840027E+00  0.96886195824E+00 -0.31641533983E+00  0.90007780291E+02  0.90000042190E+02 0.  0.
         12    1    1    2    0    0  0.59506840027E+00 -0.96886195824E+00  0.31641533983E+00  0.11802197094E+01  0.00000000000E+00 0. -1.
         11    1    3    3    0    0 -0.23388707172E+02  0.18920942016E+02 -0.21983939414E+02  0.37260263853E+02  0.51100000000E-03 0. -1.
        -11    1    3    3    0    0  0.10922068329E+01  0.77213903708E+01 -0.54856280447E+01  0.95344061341E+01  0.51100000000E-03 0.  1.
        -12    1    3    3    0    0  0.21701431939E+02 -0.25673470429E+02  0.27153152119E+02  0.43213110303E+02  0.00000000000E+00 0.  1.
</event>
<event>
 7    1  0.3568207E-015  0.9000784E+02  0.7816164E-02  0.1186339E+00
        -11   -1    0    0    0    0  0.00000000000E+00  0.00000000000E+00  0.45593999997E+02  0.45594000000E+02  0.51100000000E-03 0. -1.
         11   -1    0    0    0    0 -0.00000000000E+00 -0.00000000000E+00 -0.45593999997E+02  0.45594000000E+02  0.51100000000E-03 0.  1.
    9900012    2    1    2    0    0  0.10140906037E+01  0.53927851295E+00  0.27126295999E+00  0.90007837020E+02  0.90000099668E+02 0.  0.
         12    1    1    2    0    0 -0.10140906037E+01 -0.53927851295E+00 -0.27126295999E+00  0.11801629805E+01  0.00000000000E+00 0. -1.
         11    1    3    3    0    0  0.18090420477E+02 -0.55250193959E+01  0.29495814862E+02  0.35039866537E+02  0.51100000000E-03 0. -1.
        -11    1    3    3    0    0  0.21809651382E+01 -0.95500535300E-02  0.10329831975E+02  0.10557562647E+02  0.51100000000E-03 0.  1.
        -12    1    3    3    0    0 -0.19257295011E+02  0.60738479624E+01 -0.39554383877E+02  0.44410407835E+02  0.00000000000E+00 0.  1.
</event>
<event>
 7    1  0.3568207E-015  0.9000789E+02  0.7816164E-02  0.1186339E+00
        -11   -1    0    0    0    0  0.00000000000E+00  0.00000000000E+00  0.45593999997E+02  0.45594000000E+02  0.51100000000E-03 0. -1.
         11   -1    0    0    0    0 -0.00000000000E+00 -0.00000000000E+00 -0.45593999997E+02  0.45594000000E+02  0.51100000000E-03 0.  1.
    9900012    2    1    2    0    0 -0.67108153233E+00  0.41487042475E+00 -0.87760524572E+00  0.90007890319E+02  0.90000153671E+02 0.  0.
         12    1    1    2    0    0  0.67108153233E+00 -0.41487042475E+00  0.87760524572E+00  0.11801096812E+01  0.00000000000E+00 0. -1.
         11    1    3    3    0    0  0.61138146560E+00 -0.11231262200E+02  0.14771980998E+01  0.11344476735E+02  0.51100000000E-03 0. -1.
        -11    1    3    3    0    0 -0.16003883379E+02  0.30917796532E+02 -0.27022772587E+02  0.44071131868E+02  0.51100000000E-03 0.  1.
         12    1    3    3    0    0  0.14721420382E+02 -0.19271663908E+02  0.24667969241E+02  0.34592281716E+02  0.00000000000E+00 0. -1.
</event>
<event>
 7    1  0.3568207E-015  0.9000776E+02  0.7816164E-02  0.1186339E+00
        -11   -1    0    0    0    0  0.00000000000E+00  0.00000000000E+00  0.45593999997E+02  0.45594000000E+02  0.51100000000E-03 0.  1.
         11   -1    0    0    0    0 -0.00000000000E+00 -0.00000000000E+00 -0.45593999997E+02  0.45594000000E+02  0.51100000000E-03 0. -1.
    9900012    2    1    2    0    0 -0.66049151743E+00 -0.25234496510E+00 -0.94501005956E+00  0.90007758059E+02  0.90000019666E+02 0.  0.
         12    1    1    2    0    0  0.66049151743E+00  0.25234496510E+00  0.94501005956E+00  0.11802419407E+01  0.00000000000E+00 0. -1.
         11    1    3    3    0    0  0.12731630594E+01 -0.71026208696E+01  0.52099331619E+01  0.89000882696E+01  0.51100000000E-03 0. -1.
        -11    1    3    3    0    0  0.18088694409E+02 -0.31363136666E+02 -0.10633053831E+02  0.37734719304E+02  0.51100000000E-03 0.  1.
         12    1    3    3    0    0 -0.20022348986E+02  0.38213412570E+02  0.44781106100E+01  0.43372950485E+02  0.00000000000E+00 0. -1.
</event>
<event>
 7    1  0.3568207E-015  0.9000774E+02  0.7816164E-02  0.1186339E+00
        -11   -1    0    0    0    0  0.00000000000E+00  0.00000000000E+00  0.45593999997E+02  0.45594000000E+02  0.51100000000E-03 0. -1.
         11   -1    0    0    0    0 -0.00000000000E+00 -0.00000000000E+00 -0.45593999997E+02  0.45594000000E+02  0.51100000000E-03 0.  1.
    9900012    2    1    2    0    0 -0.47408271487E+00 -0.26068890498E-02 -0.10808544485E+01  0.90007742589E+02  0.90000003992E+02 0.  0.
         12    1    1    2    0    0  0.47408271487E+00  0.26068890498E-02  0.10808544485E+01  0.11802574106E+01  0.00000000000E+00 0. -1.
         11    1    3    3    0    0 -0.72206164731E+01 -0.31760753711E+01  0.60204659463E+01  0.99232437986E+01  0.51100000000E-03 0. -1.
        -11    1    3    3    0    0 -0.34588527667E+02  0.98710582455E+01  0.54264064501E+01  0.36376502365E+02  0.51100000000E-03 0.  1.
         12    1    3    3    0    0  0.41335061425E+02 -0.66975897635E+01 -0.12527726845E+02  0.43707996426E+02  0.00000000000E+00 0. -1.
</event>
<event>
 7    1  0.3568207E-015  0.9000771E+02  0.7816164E-02  0.1186339E+00
        -11   -1    0    0    0    0  0.00000000000E+00  0.00000000000E+00  0.45593999997E+02  0.45594000000E+02  0.51100000000E-03 0.  1.
         11   -1    0    0    0    0 -0.00000000000E+00 -0.00000000000E+00 -0.45593999997E+02  0.45594000000E+02  0.51100000000E-03 0. -1.
    9900012    2    1    2    0    0  0.10868971111E+01 -0.42741656292E+00 -0.17044374140E+00  0.90007711342E+02  0.89999972331E+02 0.  0.
         12    1    1    2    0    0 -0.10868971111E+01  0.42741656292E+00  0.17044374140E+00  0.11802886585E+01  0.00000000000E+00 0. -1.
         11    1    3    3    0    0 -0.46034238734E+01  0.10413227739E+01  0.78872222380E+01  0.91915254104E+01  0.51100000000E-03 0. -1.
        -11    1    3    3    0    0 -0.17476918520E+02 -0.19558192948E+02  0.25240285415E+02  0.36401065924E+02  0.51100000000E-03 0.  1.
         12    1    3    3    0    0  0.23167239504E+02  0.18089453611E+02 -0.33297951394E+02  0.44415120007E+02  0.00000000000E+00 0. -1.
</event>
<event>
 7    1  0.3568207E-015  0.9000772E+02  0.7816164E-02  0.1186339E+00
        -11   -1    0    0    0    0  0.00000000000E+00  0.00000000000E+00  0.45593999997E+02  0.45594000000E+02  0.51100000000E-03 0.  1.
         11   -1    0    0    0    0 -0.00000000000E+00 -0.00000000000E+00 -0.45593999997E+02  0.45594000000E+02  0.51100000000E-03 0. -1.
    9900012    2    1    2    0    0 -0.38875418652E+00  0.10939032855E+01  0.21283360883E+00  0.90007723608E+02  0.89999984760E+02 0.  0.
         12    1    1    2    0    0  0.38875418652E+00 -0.10939032855E+01 -0.21283360883E+00  0.11802763917E+01  0.00000000000E+00 0. -1.
         11    1    3    3    0    0  0.38802586931E+02 -0.23485584868E+01 -0.85189888137E+01  0.39796100942E+02  0.51100000000E-03 0. -1.
        -11    1    3    3    0    0 -0.38682801416E+01 -0.56156785242E+01 -0.76387104078E+01  0.10239596354E+02  0.51100000000E-03 0.  1.
        -12    1    3    3    0    0 -0.35323060976E+02  0.90581402966E+01  0.16370532830E+02  0.39972026312E+02  0.00000000000E+00 0.  1.
</event>
<event>
 7    1  0.3568207E-015  0.9000763E+02  0.7816164E-02  0.1186339E+00
        -11   -1    0    0    0    0  0.00000000000E+00  0.00000000000E+00  0.45593999997E+02  0.45594000000E+02  0.51100000000E-03 0.  1.
         11   -1    0    0    0    0 -0.00000000000E+00 -0.00000000000E+00 -0.45593999997E+02  0.45594000000E+02  0.51100000000E-03 0. -1.
    9900012    2    1    2    0    0  0.11697515856E+01 -0.70413752952E-01  0.14144646656E+00  0.90007625495E+02  0.89999885352E+02 0.  0.
         12    1    1    2    0    0 -0.11697515856E+01  0.70413752952E-01 -0.14144646656E+00  0.11803745048E+01  0.00000000000E+00 0. -1.
         11    1    3    3    0    0 -0.10035756145E+02  0.30272713336E+02  0.11373988947E+02  0.33860318944E+02  0.51100000000E-03 0. -1.
        -11    1    3    3    0    0 -0.95503000707E+01  0.72256159327E+01 -0.96014857862E+00  0.12014143440E+02  0.51100000000E-03 0.  1.
         12    1    3    3    0    0  0.20755807801E+02 -0.37568743022E+02 -0.10272393902E+02  0.44133163111E+02  0.00000000000E+00 0. -1.
</event>
<event>
 7    1  0.3568207E-015  0.9000801E+02  0.7816164E-02  0.1186339E+00
        -11   -1    0    0    0    0  0.00000000000E+00  0.00000000000E+00  0.45593999997E+02  0.45594000000E+02  0.51100000000E-03 0.  1.
         11   -1    0    0    0    0 -0.00000000000E+00 -0.00000000000E+00 -0.45593999997E+02  0.45594000000E+02  0.51100000000E-03 0. -1.
    9900012    2    1    2    0    0 -0.20083486630E+00 -0.82572552815E+00  0.81866646868E+00  0.90008011831E+02  0.90000276787E+02 0.  0.
         12    1    1    2    0    0  0.20083486630E+00  0.82572552815E+00 -0.81866646868E+00  0.11799881687E+01  0.00000000000E+00 0. -1.
         11    1    3    3    0    0 -0.90247955402E+01  0.20863995125E+01  0.53286670627E+00  0.92781433841E+01  0.51100000000E-03 0. -1.
        -11    1    3    3    0    0  0.31562504764E+02  0.71005359866E+01  0.28514888503E+02  0.43124334023E+02  0.51100000000E-03 0.  1.
         12    1    3    3    0    0 -0.22738544091E+02 -0.10012661027E+02 -0.28229088741E+02  0.37605534424E+02  0.00000000000E+00 0. -1.
</event>
<event>
 7    1  0.3568207E-015  0.9000743E+02  0.7816164E-02  0.1186340E+00
        -11   -1    0    0    0    0  0.00000000000E+00  0.00000000000E+00  0.45593999997E+02  0.45594000000E+02  0.51100000000E-03 0.  1.
         11   -1    0    0    0    0 -0.00000000000E+00 -0.00000000000E+00 -0.45593999997E+02  0.45594000000E+02  0.51100000000E-03 0. -1.
    9900012    2    1    2    0    0 -0.56635666666E+00  0.58629149080E+00  0.85395921865E+00  0.90007430674E+02  0.89999687958E+02 0.  0.
         12    1    1    2    0    0  0.56635666666E+00 -0.58629149080E+00 -0.85395921865E+00  0.11805693259E+01  0.00000000000E+00 0. -1.
         11    1    3    3    0    0 -0.31791044688E+02 -0.17959659272E+02 -0.17191855162E+01  0.36553734182E+02  0.51100000000E-03 0. -1.
        -11    1    3    3    0    0 -0.70714806286E+01 -0.17041557485E+01 -0.58346405748E+01  0.93248601059E+01  0.51100000000E-03 0.  1.
        -12    1    3    3    0    0  0.38296168650E+02  0.20250106511E+02  0.84077853096E+01  0.44128836386E+02  0.00000000000E+00 0.  1.
</event>
<event>
 7    1  0.3568207E-015  0.9000771E+02  0.7816164E-02  0.1186339E+00
        -11   -1    0    0    0    0  0.00000000000E+00  0.00000000000E+00  0.45593999997E+02  0.45594000000E+02  0.51100000000E-03 0.  1.
         11   -1    0    0    0    0 -0.00000000000E+00 -0.00000000000E+00 -0.45593999997E+02  0.45594000000E+02  0.51100000000E-03 0. -1.
    9900012    2    1    2    0    0  0.25174778743E+00  0.65388472557E-01  0.11512721997E+01  0.90007711782E+02  0.89999972777E+02 0.  0.
         12    1    1    2    0    0 -0.25174778743E+00 -0.65388472557E-01 -0.11512721997E+01  0.11802882185E+01  0.00000000000E+00 0. -1.
         11    1    3    3    0    0 -0.33320656119E+02 -0.18679905104E+02 -0.18236602568E+01  0.38243047942E+02  0.51100000000E-03 0. -1.
        -11    1    3    3    0    0  0.58784610611E+01 -0.96525915329E+01 -0.28951025674E+01  0.11666638200E+02  0.51100000000E-03 0.  1.
        -12    1    3    3    0    0  0.27693942846E+02  0.28397885109E+02  0.58700350239E+01  0.40098025640E+02  0.00000000000E+00 0.  1.
</event>
<event>
 7    1  0.3568207E-015  0.9000849E+02  0.7816164E-02  0.1186338E+00
        -11   -1    0    0    0    0  0.00000000000E+00  0.00000000000E+00  0.45593999997E+02  0.45594000000E+02  0.51100000000E-03 0.  1.
         11   -1    0    0    0    0 -0.00000000000E+00 -0.00000000000E+00 -0.45593999997E+02  0.45594000000E+02  0.51100000000E-03 0. -1.
    9900012    2    1    2    0    0 -0.48003348774E+00 -0.32366342281E+00  0.10276497605E+01  0.90008485612E+02  0.90000756819E+02 0.  0.
         12    1    1    2    0    0  0.48003348774E+00  0.32366342281E+00 -0.10276497605E+01  0.11795143878E+01  0.00000000000E+00 0. -1.
         11    1    3    3    0    0  0.35965238435E+02  0.20640545522E+02 -0.72598691991E+01  0.42097935771E+02  0.51100000000E-03 0. -1.
        -11    1    3    3    0    0 -0.95643609338E+01 -0.23629165371E+01 -0.67356209517E+01  0.11934360666E+02  0.51100000000E-03 0.  1.
        -12    1    3    3    0    0 -0.26880910989E+02 -0.18601292408E+02  0.15023139911E+02  0.35976189176E+02  0.00000000000E+00 0.  1.
</event>
<event>
 7    1  0.3568207E-015  0.9000793E+02  0.7816164E-02  0.1186339E+00
        -11   -1    0    0    0    0  0.00000000000E+00  0.00000000000E+00  0.45593999997E+02  0.45594000000E+02  0.51100000000E-03 0. -1.
         11   -1    0    0    0    0 -0.00000000000E+00 -0.00000000000E+00 -0.45593999997E+02  0.45594000000E+02  0.51100000000E-03 0.  1.
    9900012    2    1    2    0    0 -0.14232558149E+00  0.78449826288E+00 -0.86998036995E+00  0.90007932231E+02  0.90000196136E+02 0.  0.
         12    1    1    2    0    0  0.14232558149E+00 -0.78449826288E+00  0.86998036995E+00  0.11800677691E+01  0.00000000000E+00 0. -1.
         11    1    3    3    0    0  0.88536774053E+01  0.22123622649E+01  0.43661903870E+01  0.10116608579E+02  0.51100000000E-03 0. -1.
        -11    1    3    3    0    0 -0.36199778729E+02  0.12078789057E+02  0.17469277055E+02  0.41970189018E+02  0.51100000000E-03 0.  1.
         12    1    3    3    0    0  0.27203775743E+02 -0.13506653059E+02 -0.22705447812E+02  0.37921134633E+02  0.00000000000E+00 0. -1.
</event>
<event>
 7    1  0.3568207E-015  0.9000774E+02  0.7816164E-02  0.1186339E+00
        -11   -1    0    0    0    0  0.00000000000E+00  0.00000000000E+00  0.45593999997E+02  0.45594000000E+02  0.51100000000E-03 0.  1.
         11   -1    0    0    0    0 -0.00000000000E+00 -0.00000000000E+00 -0.45593999997E+02  0.45594000000E+02  0.51100000000E-03 0. -1.
    9900012    2    1    2    0    0 -0.34487786120E+00 -0.10943395359E+01 -0.27656073708E+00  0.90007743418E+02  0.90000004831E+02 0.  0.
         12    1    1    2    0    0  0.34487786120E+00  0.10943395359E+01  0.27656073708E+00  0.11802565824E+01  0.00000000000E+00 0. -1.
         11    1    3    3    0    0  0.69424489410E+01  0.40193757221E+00 -0.37038528172E+02  0.37685696498E+02  0.51100000000E-03 0. -1.
        -11    1    3    3    0    0  0.72717505489E+01 -0.31952103481E+01 -0.40800220986E+01  0.89294068000E+01  0.51100000000E-03 0.  1.
        -12    1    3    3    0    0 -0.14559077351E+02  0.16989332400E+01  0.40841989534E+02  0.43392640120E+02  0.00000000000E+00 0.  1.
</event>
<event>
 7    1  0.3568207E-015  0.9000725E+02  0.7816164E-02  0.1186340E+00
        -11   -1    0    0    0    0  0.00000000000E+00  0.00000000000E+00  0.45593999997E+02  0.45594000000E+02  0.51100000000E-03 0.  1.
         11   -1    0    0    0    0 -0.00000000000E+00 -0.00000000000E+00 -0.45593999997E+02  0.45594000000E+02  0.51100000000E-03 0. -1.
    9900012    2    1    2    0    0 -0.46488608367E+00 -0.22572658418E+00  0.10616506266E+01  0.90007248708E+02  0.89999503589E+02 0.  0.
         12    1    1    2    0    0  0.46488608367E+00  0.22572658418E+00 -0.10616506266E+01  0.11807512924E+01  0.00000000000E+00 0. -1.
         11    1    3    3    0    0  0.31133795738E+01  0.21014507454E+02 -0.99284712428E+00  0.21267073178E+02  0.51100000000E-03 0. -1.
        -11    1    3    3    0    0  0.28341413188E+02 -0.23297550169E+02  0.22000321444E+01  0.36753934307E+02  0.51100000000E-03 0.  1.
         12    1    3    3    0    0 -0.31919678846E+02  0.20573161308E+01 -0.14553439352E+00  0.31986241222E+02  0.00000000000E+00 0. -1.
</event>
<event>
 7    1  0.3568207E-015  0.9000752E+02  0.7816164E-02  0.1186339E+00
        -11   -1    0    0    0    0  0.00000000000E+00  0.00000000000E+00  0.45593999997E+02  0.45594000000E+02  0.51100000000E-03 0. -1.
         11   -1    0    0    0    0 -0.00000000000E+00 -0.00000000000E+00 -0.45593999997E+02  0.45594000000E+02  0.51100000000E-03 0.  1.
    9900012    2    1    2    0    0  0.11277056761E+01  0.10447230849E+00  0.33300407597E+00  0.90007522863E+02  0.89999781365E+02 0.  0.
         12    1    1    2    0    0 -0.11277056761E+01 -0.10447230849E+00 -0.33300407597E+00  0.11804771365E+01  0.00000000000E+00 0. -1.
         11    1    3    3    0    0 -0.10498164027E+02 -0.20464666602E+02  0.16455988271E+02  0.28280975537E+02  0.51100000000E-03 0. -1.
        -11    1    3    3    0    0  0.58072345484E+01 -0.11842553560E+02  0.12443216844E+02  0.18132944979E+02  0.51100000000E-03 0.  1.
        -12    1    3    3    0    0  0.58186351552E+01  0.32411692471E+02 -0.28566201038E+02  0.43593602348E+02  0.00000000000E+00 0.  1.
</event>
<event>
 7    1  0.3568207E-015  0.9000770E+02  0.7816164E-02  0.1186339E+00
        -11   -1    0    0    0    0  0.00000000000E+00  0.00000000000E+00  0.45593999997E+02  0.45594000000E+02  0.51100000000E-03 0.  1.
         11   -1    0    0    0    0 -0.00000000000E+00 -0.00000000000E+00 -0.45593999997E+02  0.45594000000E+02  0.51100000000E-03 0. -1.
    9900012    2    1    2    0    0  0.11404140171E+01 -0.18323580978E+00  0.24289888032E+00  0.90007695226E+02  0.89999956003E+02 0.  0.
         12    1    1    2    0    0 -0.11404140171E+01  0.18323580978E+00 -0.24289888032E+00  0.11803047735E+01  0.00000000000E+00 0. -1.
         11    1    3    3    0    0  0.25517995200E+02 -0.13943019869E+02 -0.30169166752E+02  0.41901724366E+02  0.51100000000E-03 0. -1.
        -11    1    3    3    0    0 -0.72955068554E+01 -0.55068085666E+01  0.12866040937E+01  0.92306398056E+01  0.51100000000E-03 0.  1.
        -12    1    3    3    0    0 -0.17082074327E+02  0.19266592626E+02  0.29125461539E+02  0.38875331054E+02  0.00000000000E+00 0.  1.
</event>
<event>
 7    1  0.3568207E-015  0.9000768E+02  0.7816164E-02  0.1186339E+00
        -11   -1    0    0    0    0  0.00000000000E+00  0.00000000000E+00  0.45593999997E+02  0.45594000000E+02  0.51100000000E-03 0.  1.
         11   -1    0    0    0    0 -0.00000000000E+00 -0.00000000000E+00 -0.45593999997E+02  0.45594000000E+02  0.51100000000E-03 0. -1.
    9900012    2    1    2    0    0  0.28688780289E+00  0.26074959451E+00  0.11148417082E+01  0.90007675046E+02  0.89999935557E+02 0.  0.
         12    1    1    2    0    0 -0.28688780289E+00 -0.26074959451E+00 -0.11148417082E+01  0.11803249539E+01  0.00000000000E+00 0. -1.
         11    1    3    3    0    0  0.32388562971E+01 -0.17824952835E+01  0.39019471991E+01  0.53751903924E+01  0.51100000000E-03 0. -1.
        -11    1    3    3    0    0 -0.18489163210E+02 -0.28771310408E+02  0.23290739795E+02  0.41377482031E+02  0.51100000000E-03 0.  1.
         12    1    3    3    0    0  0.15537194715E+02  0.30814555286E+02 -0.26077845286E+02  0.43255002622E+02  0.00000000000E+00 0. -1.
</event>
<event>
 7    1  0.3568207E-015  0.9000773E+02  0.7816164E-02  0.1186339E+00
        -11   -1    0    0    0    0  0.00000000000E+00  0.00000000000E+00  0.45593999997E+02  0.45594000000E+02  0.51100000000E-03 0.  1.
         11   -1    0    0    0    0 -0.00000000000E+00 -0.00000000000E+00 -0.45593999997E+02  0.45594000000E+02  0.51100000000E-03 0. -1.
    9900012    2    1    2    0    0  0.47669333746E+00 -0.85535779143E+00  0.65890226974E+00  0.90007734907E+02  0.89999996207E+02 0.  0.
         12    1    1    2    0    0 -0.47669333746E+00  0.85535779143E+00 -0.65890226974E+00  0.11802650933E+01  0.00000000000E+00 0. -1.
         11    1    3    3    0    0  0.30271787690E+02  0.20840337224E+02 -0.10651819913E+02  0.38264370546E+02  0.51100000000E-03 0. -1.
        -11    1    3    3    0    0  0.77506509356E+01 -0.52339303036E+01  0.60154000697E+00  0.93716843198E+01  0.51100000000E-03 0.  1.
        -12    1    3    3    0    0 -0.37545745288E+02 -0.16461764712E+02  0.10709182175E+02  0.42371680041E+02  0.00000000000E+00 0.  1.
</event>
<event>
 7    1  0.3568207E-015  0.9000767E+02  0.7816164E-02  0.1186339E+00
        -11   -1    0    0    0    0  0.00000000000E+00  0.00000000000E+00  0.45593999997E+02  0.45594000000E+02  0.51100000000E-03 0. -1.
         11   -1    0    0    0    0 -0.00000000000E+00 -0.00000000000E+00 -0.45593999997E+02  0.45594000000E+02  0.51100000000E-03 0.  1.
    9900012    2    1    2    0    0 -0.11027290769E+01  0.37020951417E-01  0.41927936909E+00  0.90007670742E+02  0.89999931196E+02 0.  0.
         12    1    1    2    0    0  0.11027290769E+01 -0.37020951417E-01 -0.41927936909E+00  0.11803292580E+01  0.00000000000E+00 0. -1.
         11    1    3    3    0    0 -0.87302569539E+01 -0.36384122765E+02  0.17445709533E+02  0.41284071472E+02  0.51100000000E-03 0. -1.
        -11    1    3    3    0    0 -0.72654019994E+00  0.79079628564E+01  0.69431979566E+01  0.10548541858E+02  0.51100000000E-03 0.  1.
        -12    1    3    3    0    0  0.83540680769E+01  0.28513180860E+02 -0.23969628121E+02  0.38175057413E+02  0.00000000000E+00 0.  1.
</event>
<event>
 7    1  0.3568207E-015  0.9000768E+02  0.7816164E-02  0.1186339E+00
        -11   -1    0    0    0    0  0.00000000000E+00  0.00000000000E+00  0.45593999997E+02  0.45594000000E+02  0.51100000000E-03 0. -1.
         11   -1    0    0    0    0 -0.00000000000E+00 -0.00000000000E+00 -0.45593999997E+02  0.45594000000E+02  0.51100000000E-03 0.  1.
    9900012    2    1    2    0    0  0.64864921424E+00  0.11978946717E+00 -0.97881079430E+00  0.90007675515E+02  0.89999936031E+02 0.  0.
         12    1    1    2    0    0 -0.64864921424E+00 -0.11978946717E+00  0.97881079430E+00  0.11803244853E+01  0.00000000000E+00 0. -1.
         11    1    3    3    0    0  0.83026613521E+01  0.10312994910E+02  0.33835590402E+02  0.36333720256E+02  0.51100000000E-03 0. -1.
        -11    1    3    3    0    0 -0.36312068810E+01  0.56863835229E+01  0.64147785488E+01  0.93096726620E+01  0.51100000000E-03 0.  1.
        -12    1    3    3    0    0 -0.40228052568E+01 -0.15879588965E+02 -0.41229179745E+02  0.44364282597E+02  0.00000000000E+00 0.  1.
</event>
<event>
 7    1  0.3568207E-015  0.9000775E+02  0.7816164E-02  0.1186339E+00
        -11   -1    0    0    0    0  0.00000000000E+00  0.00000000000E+00  0.45593999997E+02  0.45594000000E+02  0.51100000000E-03 0.  1.
         11   -1    0    0    0    0 -0.00000000000E+00 -0.00000000000E+00 -0.45593999997E+02  0.45594000000E+02  0.51100000000E-03 0. -1.
    9900012    2    1    2    0    0 -0.27665802852E+00 -0.11039168926E+01  0.31275920754E+00  0.90007749818E+02  0.90000011315E+02 0.  0.
         12    1    1    2    0    0  0.27665802852E+00  0.11039168926E+01 -0.31275920754E+00  0.11802501821E+01  0.00000000000E+00 0. -1.
         11    1    3    3    0    0  0.64662790235E+01 -0.33741017167E+00 -0.91145736399E+01  0.11180432144E+02  0.51100000000E-03 0. -1.
        -11    1    3    3    0    0  0.15825294643E+02 -0.27793133185E+02  0.24736790052E+02  0.40432746446E+02  0.51100000000E-03 0.  1.
         12    1    3    3    0    0 -0.22568231695E+02  0.27026626464E+02 -0.15309457205E+02  0.38394571228E+02  0.00000000000E+00 0. -1.
</event>
<event>
 7    1  0.3568207E-015  0.9000776E+02  0.7816164E-02  0.1186339E+00
        -11   -1    0    0    0    0  0.00000000000E+00  0.00000000000E+00  0.45593999997E+02  0.45594000000E+02  0.51100000000E-03 0.  1.
         11   -1    0    0    0    0 -0.00000000000E+00 -0.00000000000E+00 -0.45593999997E+02  0.45594000000E+02  0.51100000000E-03 0. -1.
    9900012    2    1    2    0    0  0.60849892545E-01 -0.39755928948E-01  0.11779962252E+01  0.90007763435E+02  0.90000025112E+02 0.  0.
         12    1    1    2    0    0 -0.60849892545E-01  0.39755928948E-01 -0.11779962252E+01  0.11802365653E+01  0.00000000000E+00 0. -1.
         11    1    3    3    0    0  0.34678803951E+01  0.44253599658E+01 -0.32073737727E+02  0.32562780245E+02  0.51100000000E-03 0. -1.
        -11    1    3    3    0    0 -0.32061654123E+01  0.13179053927E+02 -0.56772171664E+01  0.14703664648E+02  0.51100000000E-03 0.  1.
        -12    1    3    3    0    0 -0.20086509029E+00 -0.17644169822E+02  0.38928951118E+02  0.42741318542E+02  0.00000000000E+00 0.  1.
</event>
<event>
 7    1  0.3568207E-015  0.9000771E+02  0.7816164E-02  0.1186339E+00
        -11   -1    0    0    0    0  0.00000000000E+00  0.00000000000E+00  0.45593999997E+02  0.45594000000E+02  0.51100000000E-03 0. -1.
         11   -1    0    0    0    0 -0.00000000000E+00 -0.00000000000E+00 -0.45593999997E+02  0.45594000000E+02  0.51100000000E-03 0.  1.
    9900012    2    1    2    0    0 -0.11167032333E+01  0.24323175240E+00 -0.29477386504E+00  0.90007712142E+02  0.89999973142E+02 0.  0.
         12    1    1    2    0    0  0.11167032333E+01 -0.24323175240E+00  0.29477386504E+00  0.11802878581E+01  0.00000000000E+00 0. -1.
         11    1    3    3    0    0 -0.31182140041E+02  0.34377685623E+01 -0.29497167247E+02  0.43060736014E+02  0.51100000000E-03 0. -1.
        -11    1    3    3    0    0 -0.17119737997E+01 -0.19659957972E+01  0.87659416116E+01  0.91453663877E+01  0.51100000000E-03 0.  1.
        -12    1    3    3    0    0  0.31777410608E+02 -0.12285410127E+01  0.20436451770E+02  0.37801609740E+02  0.00000000000E+00 0.  1.
</event>
<event>
 7    1  0.3568207E-015  0.9000772E+02  0.7816164E-02  0.1186339E+00
        -11   -1    0    0    0    0  0.00000000000E+00  0.00000000000E+00  0.45593999997E+02  0.45594000000E+02  0.51100000000E-03 0. -1.
         11   -1    0    0    0    0 -0.00000000000E+00 -0.00000000000E+00 -0.45593999997E+02  0.45594000000E+02  0.51100000000E-03 0.  1.
    9900012    2    1    2    0    0  0.80017134680E+00  0.70734057791E+00  0.50244897620E+00  0.90007720435E+02  0.89999981545E+02 0.  0.
         12    1    1    2    0    0 -0.80017134680E+00 -0.70734057791E+00 -0.50244897620E+00  0.11802795648E+01  0.00000000000E+00 0. -1.
         11    1    3    3    0    0 -0.77592557098E+01  0.80496867532E+01 -0.67981604105E+00  0.11201145303E+02  0.51100000000E-03 0. -1.
        -11    1    3    3    0    0  0.16390074554E+02 -0.23701401518E+02 -0.30713176372E+02  0.42115201305E+02  0.51100000000E-03 0.  1.
         12    1    3    3    0    0 -0.78306474976E+01  0.16359055343E+02  0.31895441389E+02  0.36691373827E+02  0.00000000000E+00 0. -1.
</event>
<event>
 7    1  0.3568207E-015  0.9000771E+02  0.7816164E-02  0.1186339E+00
        -11   -1    0    0    0    0  0.00000000000E+00  0.00000000000E+00  0.45593999997E+02  0.45594000000E+02  0.51100000000E-03 0.  1.
         11   -1    0    0    0    0 -0.00000000000E+00 -0.00000000000E+00 -0.45593999997E+02  0.45594000000E+02  0.51100000000E-03 0. -1.
    9900012    2    1    2    0    0 -0.21362879880E+00 -0.18725614715E-01  0.11606432972E+01  0.90007711571E+02  0.89999972564E+02 0.  0.
         12    1    1    2    0    0  0.21362879880E+00  0.18725614715E-01 -0.11606432972E+01  0.11802884290E+01  0.00000000000E+00 0. -1.
         11    1    3    3    0    0 -0.72833132712E+01 -0.11794772013E+02 -0.42540357612E+01  0.14500348947E+02  0.51100000000E-03 0. -1.
        -11    1    3    3    0    0  0.70512532728E+01 -0.26267582967E+02 -0.16294804282E+02  0.31705310824E+02  0.51100000000E-03 0.  1.
         12    1    3    3    0    0  0.18431199575E-01  0.38043629365E+02  0.21709483340E+02  0.43802051800E+02  0.00000000000E+00 0. -1.
</event>
<event>
 7    1  0.3568207E-015  0.9000775E+02  0.7816164E-02  0.1186339E+00
        -11   -1    0    0    0    0  0.00000000000E+00  0.00000000000E+00  0.45593999997E+02  0.45594000000E+02  0.51100000000E-03 0. -1.
         11   -1    0    0    0    0 -0.00000000000E+00 -0.00000000000E+00 -0.45593999997E+02  0.45594000000E+02  0.51100000000E-03 0.  1.
    9900012    2    1    2    0    0 -0.66101357210E+00 -0.93511572129E+00 -0.28568699976E+00  0.90007746885E+02  0.90000008343E+02 0.  0.
         12    1    1    2    0    0  0.66101357210E+00  0.93511572129E+00  0.28568699976E+00  0.11802531155E+01  0.00000000000E+00 0. -1.
         11    1    3    3    0    0  0.18543397152E+01 -0.36461523369E+02 -0.25992762640E+01  0.36601058721E+02  0.51100000000E-03 0. -1.
        -11    1    3    3    0    0  0.43829162389E+01  0.59185110804E+01 -0.16211703710E+02  0.17806124385E+02  0.51100000000E-03 0.  1.
        -12    1    3    3    0    0 -0.68982695262E+01  0.29607896567E+02  0.18525292974E+02  0.35600563779E+02  0.00000000000E+00 0.  1.
</event>
<event>
 7    1  0.3568207E-015  0.9000771E+02  0.7816164E-02  0.1186339E+00
        -11   -1    0    0    0    0  0.00000000000E+00  0.00000000000E+00  0.45593999997E+02  0.45594000000E+02  0.51100000000E-03 0.  1.
         11   -1    0    0    0    0 -0.00000000000E+00 -0.00000000000E+00 -0.45593999997E+02  0.45594000000E+02  0.51100000000E-03 0. -1.
    9900012    2    1    2    0    0  0.52365122836E+00  0.93822504954E+00  0.48846920020E+00  0.90007712318E+02  0.89999973321E+02 0.  0.
         12    1    1    2    0    0 -0.52365122836E+00 -0.93822504954E+00 -0.48846920020E+00  0.11802876819E+01  0.00000000000E+00 0. -1.
         11    1    3    3    0    0  0.44370194809E+01 -0.17729938370E+01  0.62792727646E+01  0.78904952781E+01  0.51100000000E-03 0. -1.
        -11    1    3    3    0    0  0.27173279653E+01  0.38717875313E+02  0.13041573093E+02  0.40945578138E+02  0.51100000000E-03 0.  1.
         12    1    3    3    0    0 -0.66306962178E+01 -0.36006656427E+02 -0.18832376657E+02  0.41171638902E+02  0.00000000000E+00 0. -1.
</event>
<event>
 7    1  0.5969893E-015  0.9000770E+02  0.7816164E-02  0.1186339E+00
        -11   -1    0    0    0    0  0.00000000000E+00  0.00000000000E+00  0.45593999997E+02  0.45594000000E+02  0.51100000000E-03 0.  1.
         11   -1    0    0    0    0 -0.00000000000E+00 -0.00000000000E+00 -0.45593999997E+02  0.45594000000E+02  0.51100000000E-03 0. -1.
    9900012    2    1    2    0    0  0.59228747203E-01 -0.99789355326E+00  0.62753764993E+00  0.90007702118E+02  0.89999962986E+02 0.  0.
         12    1    1    2    0    0 -0.59228747203E-01  0.99789355326E+00 -0.62753764993E+00  0.11802978820E+01  0.00000000000E+00 0. -1.
         11    1    3    3    0    0 -0.86731003528E+01  0.76200947893E+00  0.27197541340E+01  0.91214248331E+01  0.51100000000E-03 0. -1.
        -11    1    3    3    0    0  0.13808165234E+02  0.12414502996E+02  0.35680855590E+02  0.40223236663E+02  0.51100000000E-03 0.  1.
         12    1    3    3    0    0 -0.50758361336E+01 -0.14174406028E+02 -0.37773072074E+02  0.40663040622E+02  0.00000000000E+00 0. -1.
</event>
<event>
 7    1  0.3568207E-015  0.9000731E+02  0.7816164E-02  0.1186340E+00
        -11   -1    0    0    0    0  0.00000000000E+00  0.00000000000E+00  0.45593999997E+02  0.45594000000E+02  0.51100000000E-03 0. -1.
         11   -1    0    0    0    0 -0.00000000000E+00 -0.00000000000E+00 -0.45593999997E+02  0.45594000000E+02  0.51100000000E-03 0.  1.
    9900012    2    1    2    0    0  0.61938077590E-01 -0.98824135640E+00 -0.64310392125E+00  0.90007305307E+02  0.89999560936E+02 0.  0.
         12    1    1    2    0    0 -0.61938077590E-01  0.98824135640E+00  0.64310392125E+00  0.11806946927E+01  0.00000000000E+00 0. -1.
         11    1    3    3    0    0  0.83658414899E+01  0.40093829630E+01  0.31374477008E+01  0.97931626105E+01  0.51100000000E-03 0. -1.
        -11    1    3    3    0    0 -0.73118325760E+01 -0.21747419581E+02 -0.36690483472E+02  0.43273603174E+02  0.51100000000E-03 0.  1.
         12    1    3    3    0    0 -0.99207083635E+00  0.16749795261E+02  0.32909931850E+02  0.36940539522E+02  0.00000000000E+00 0. -1.
</event>
<event>
 7    1  0.3568207E-015  0.9000769E+02  0.7816164E-02  0.1186339E+00
        -11   -1    0    0    0    0  0.00000000000E+00  0.00000000000E+00  0.45593999997E+02  0.45594000000E+02  0.51100000000E-03 0. -1.
         11   -1    0    0    0    0 -0.00000000000E+00 -0.00000000000E+00 -0.45593999997E+02  0.45594000000E+02  0.51100000000E-03 0.  1.
    9900012    2    1    2    0    0  0.99871374549E+00 -0.18391663470E+00 -0.60155930301E+00  0.90007691537E+02  0.89999952265E+02 0.  0.
         12    1    1    2    0    0 -0.99871374549E+00  0.18391663470E+00  0.60155930301E+00  0.11803084635E+01  0.00000000000E+00 0. -1.
         11    1    3    3    0    0 -0.31532357216E+02  0.37069028499E+01  0.97485043233E+01  0.33212407578E+02  0.51100000000E-03 0. -1.
        -11    1    3    3    0    0  0.68954396398E+01 -0.61485604333E+01  0.16933396956E+02  0.19289681593E+02  0.51100000000E-03 0.  1.
        -12    1    3    3    0    0  0.25635631322E+02  0.22577409487E+01 -0.27283460582E+02  0.37505602365E+02  0.00000000000E+00 0.  1.
</event>
<event>
 7    1  0.3568207E-015  0.9000729E+02  0.7816164E-02  0.1186340E+00
        -11   -1    0    0    0    0  0.00000000000E+00  0.00000000000E+00  0.45593999997E+02  0.45594000000E+02  0.51100000000E-03 0.  1.
         11   -1    0    0    0    0 -0.00000000000E+00 -0.00000000000E+00 -0.45593999997E+02  0.45594000000E+02  0.51100000000E-03 0. -1.
    9900012    2    1    2    0    0 -0.67955902927E+00  0.28862168240E+00  0.92139787590E+00  0.90007289623E+02  0.89999545044E+02 0.  0.
         12    1    1    2    0    0  0.67955902927E+00 -0.28862168240E+00 -0.92139787590E+00  0.11807103775E+01  0.00000000000E+00 0. -1.
         11    1    3    3    0    0  0.50485529271E+01 -0.59000259039E+01  0.30948448918E+01  0.83592019649E+01  0.51100000000E-03 0. -1.
        -11    1    3    3    0    0  0.22539043481E+02  0.70165256058E+01  0.30414724544E+02  0.38500591969E+02  0.51100000000E-03 0.  1.
         12    1    3    3    0    0 -0.28267155437E+02 -0.82787801948E+00 -0.32588171560E+02  0.43147495688E+02  0.00000000000E+00 0. -1.
</event>
<event>
 7    1  0.3568207E-015  0.9000767E+02  0.7816164E-02  0.1186339E+00
        -11   -1    0    0    0    0  0.00000000000E+00  0.00000000000E+00  0.45593999997E+02  0.45594000000E+02  0.51100000000E-03 0.  1.
         11   -1    0    0    0    0 -0.00000000000E+00 -0.00000000000E+00 -0.45593999997E+02  0.45594000000E+02  0.51100000000E-03 0. -1.
    9900012    2    1    2    0    0 -0.14958717448E-01  0.83810035509E+00  0.83098428208E+00  0.90007673416E+02  0.89999933905E+02 0.  0.
         12    1    1    2    0    0  0.14958717448E-01 -0.83810035509E+00 -0.83098428208E+00  0.11803265843E+01  0.00000000000E+00 0. -1.
         11    1    3    3    0    0 -0.63696580648E+01 -0.40303765616E+01  0.72806684257E+01  0.10479723855E+02  0.51100000000E-03 0. -1.
        -11    1    3    3    0    0  0.34888459636E+02  0.81398912909E+01  0.19527770225E+02  0.40801914860E+02  0.51100000000E-03 0.  1.
         12    1    3    3    0    0 -0.28533760288E+02 -0.32714143742E+01 -0.25977454369E+02  0.38726034701E+02  0.00000000000E+00 0. -1.
</event>
<event>
 7    1  0.3568207E-015  0.9000775E+02  0.7816164E-02  0.1186339E+00
        -11   -1    0    0    0    0  0.00000000000E+00  0.00000000000E+00  0.45593999997E+02  0.45594000000E+02  0.51100000000E-03 0.  1.
         11   -1    0    0    0    0 -0.00000000000E+00 -0.00000000000E+00 -0.45593999997E+02  0.45594000000E+02  0.51100000000E-03 0. -1.
    9900012    2    1    2    0    0 -0.64392230618E+00  0.12883417025E-01 -0.98903265309E+00  0.90007751082E+02  0.90000012597E+02 0.  0.
         12    1    1    2    0    0  0.64392230618E+00 -0.12883417025E-01  0.98903265309E+00  0.11802489177E+01  0.00000000000E+00 0. -1.
         11    1    3    3    0    0 -0.26963578589E+02  0.19860122828E+02 -0.13041431498E+02  0.35937974133E+02  0.51100000000E-03 0. -1.
        -11    1    3    3    0    0 -0.10129664734E+02  0.18342068093E+01  0.20698632552E+01  0.10500416963E+02  0.51100000000E-03 0.  1.
        -12    1    3    3    0    0  0.36449321016E+02 -0.21681446220E+02  0.99825355893E+01  0.43569359986E+02  0.00000000000E+00 0.  1.
</event>
<event>
 7    1  0.3568207E-015  0.9000767E+02  0.7816164E-02  0.1186339E+00
        -11   -1    0    0    0    0  0.00000000000E+00  0.00000000000E+00  0.45593999997E+02  0.45594000000E+02  0.51100000000E-03 0.  1.
         11   -1    0    0    0    0 -0.00000000000E+00 -0.00000000000E+00 -0.45593999997E+02  0.45594000000E+02  0.51100000000E-03 0. -1.
    9900012    2    1    2    0    0  0.11369387374E+01  0.48380327284E-01 -0.31338955578E+00  0.90007668114E+02  0.89999928533E+02 0.  0.
         12    1    1    2    0    0 -0.11369387374E+01 -0.48380327284E-01  0.31338955578E+00  0.11803318865E+01  0.00000000000E+00 0. -1.
         11    1    3    3    0    0  0.51873545957E+01 -0.20127736990E+01 -0.35891732543E+02  0.36320467658E+02  0.51100000000E-03 0. -1.
        -11    1    3    3    0    0  0.28923165023E+01 -0.28731589675E+01 -0.81629223485E+01  0.91243541542E+01  0.51100000000E-03 0.  1.
        -12    1    3    3    0    0 -0.69427323607E+01  0.49343129938E+01  0.43741265336E+02  0.44562846302E+02  0.00000000000E+00 0.  1.
</event>
<event>
 7    1  0.3568207E-015  0.9000780E+02  0.7816164E-02  0.1186339E+00
        -11   -1    0    0    0    0  0.00000000000E+00  0.00000000000E+00  0.45593999997E+02  0.45594000000E+02  0.51100000000E-03 0.  1.
         11   -1    0    0    0    0 -0.00000000000E+00 -0.00000000000E+00 -0.45593999997E+02  0.45594000000E+02  0.51100000000E-03 0. -1.
    9900012    2    1    2    0    0 -0.10824690235E-01 -0.11597734129E+01 -0.21835067553E+00  0.90007801474E+02  0.90000063654E+02 0.  0.
         12    1    1    2    0    0  0.10824690235E-01  0.11597734129E+01  0.21835067553E+00  0.11801985259E+01  0.00000000000E+00 0. -1.
         11    1    3    3    0    0 -0.15574365983E+02  0.20065716765E+02 -0.24737997093E+02  0.35456485521E+02  0.51100000000E-03 0. -1.
        -11    1    3    3    0    0  0.95379772186E+01 -0.22809586504E+01 -0.10446834308E+02  0.14328716939E+02  0.51100000000E-03 0.  1.
        -12    1    3    3    0    0  0.60255640746E+01 -0.18944531527E+02  0.34966480725E+02  0.40222599015E+02  0.00000000000E+00 0.  1.
</event>
<event>
 7    1  0.3568207E-015  0.9000733E+02  0.7816164E-02  0.1186340E+00
        -11   -1    0    0    0    0  0.00000000000E+00  0.00000000000E+00  0.45593999997E+02  0.45594000000E+02  0.51100000000E-03 0.  1.
         11   -1    0    0    0    0 -0.00000000000E+00 -0.00000000000E+00 -0.45593999997E+02  0.45594000000E+02  0.51100000000E-03 0. -1.
    9900012    2    1    2    0    0  0.77176988601E+00  0.86423347774E+00 -0.22683695916E+00  0.90007329315E+02  0.89999585261E+02 0.  0.
         12    1    1    2    0    0 -0.77176988601E+00 -0.86423347774E+00  0.22683695916E+00  0.11806706853E+01  0.00000000000E+00 0. -1.
         11    1    3    3    0    0 -0.56845604734E+01 -0.47982600514E+01  0.56761640499E+01  0.93571558649E+01  0.51100000000E-03 0. -1.
        -11    1    3    3    0    0  0.98521272569E+01 -0.28500868030E+02 -0.26897123589E+02  0.40408156944E+02  0.51100000000E-03 0.  1.
         12    1    3    3    0    0 -0.33957968975E+01  0.34163361559E+02  0.20994122580E+02  0.40242016506E+02  0.00000000000E+00 0. -1.
</event>
<event>
 7    1  0.3568207E-015  0.9000653E+02  0.7816164E-02  0.1186341E+00
        -11   -1    0    0    0    0  0.00000000000E+00  0.00000000000E+00  0.45593999997E+02  0.45594000000E+02  0.51100000000E-03 0. -1.
         11   -1    0    0    0    0 -0.00000000000E+00 -0.00000000000E+00 -0.45593999997E+02  0.45594000000E+02  0.51100000000E-03 0.  1.
    9900012    2    1    2    0    0  0.10609649181E+01  0.50892177472E+00 -0.10594326326E+00  0.90006529770E+02  0.89998775154E+02 0.  0.
         12    1    1    2    0    0 -0.10609649181E+01 -0.50892177472E+00  0.10594326326E+00  0.11814702304E+01  0.00000000000E+00 0. -1.
         11    1    3    3    0    0 -0.77090839457E+01  0.21963202612E+01  0.10727945687E+02  0.13391886234E+02  0.51100000000E-03 0. -1.
        -11    1    3    3    0    0 -0.10069561471E+02  0.46001806819E+01 -0.39901991567E+02  0.41409258165E+02  0.51100000000E-03 0.  1.
         12    1    3    3    0    0  0.18839610334E+02 -0.62875791684E+01  0.29068102617E+02  0.35205385371E+02  0.00000000000E+00 0. -1.
</event>
<event>
 7    1  0.3568207E-015  0.9000766E+02  0.7816164E-02  0.1186339E+00
        -11   -1    0    0    0    0  0.00000000000E+00  0.00000000000E+00  0.45593999997E+02  0.45594000000E+02  0.51100000000E-03 0.  1.
         11   -1    0    0    0    0 -0.00000000000E+00 -0.00000000000E+00 -0.45593999997E+02  0.45594000000E+02  0.51100000000E-03 0. -1.
    9900012    2    1    2    0    0  0.36146951498E+00 -0.53662707036E+00  0.98720907877E+00  0.90007656580E+02  0.89999916847E+02 0.  0.
         12    1    1    2    0    0 -0.36146951498E+00  0.53662707036E+00 -0.98720907877E+00  0.11803434196E+01  0.00000000000E+00 0. -1.
         11    1    3    3    0    0 -0.54382852219E+01 -0.57751902104E+01  0.87215120714E+01  0.11789509794E+02  0.51100000000E-03 0. -1.
        -11    1    3    3    0    0 -0.26634711010E+02 -0.81175226848E+01 -0.26498424058E+02  0.38437852215E+02  0.51100000000E-03 0.  1.
         12    1    3    3    0    0  0.32434465746E+02  0.13356085825E+02  0.18764121065E+02  0.39780294571E+02  0.00000000000E+00 0. -1.
</event>
<event>
 7    1  0.3568207E-015  0.9000837E+02  0.7816164E-02  0.1186338E+00
        -11   -1    0    0    0    0  0.00000000000E+00  0.00000000000E+00  0.45593999997E+02  0.45594000000E+02  0.51100000000E-03 0.  1.
         11   -1    0    0    0    0 -0.00000000000E+00 -0.00000000000E+00 -0.45593999997E+02  0.45594000000E+02  0.51100000000E-03 0. -1.
    9900012    2    1    2    0    0 -0.11444098692E+01 -0.21904905909E-01  0.28527784872E+00  0.90008365639E+02  0.90000635264E+02 0.  0.
         12    1    1    2    0    0  0.11444098692E+01  0.21904905909E-01 -0.28527784872E+00  0.11796343606E+01  0.00000000000E+00 0. -1.
         11    1    3    3    0    0  0.80120718905E+01  0.85828718141E+01  0.33170861977E+01  0.12200903477E+02  0.51100000000E-03 0. -1.
        -11    1    3    3    0    0 -0.11711871739E+02  0.19179168424E+02  0.28114121558E+02  0.35991836190E+02  0.51100000000E-03 0.  1.
         12    1    3    3    0    0  0.25553899794E+01 -0.27783945144E+02 -0.31145929907E+02  0.41815625973E+02  0.00000000000E+00 0. -1.
</event>
<event>
 7    1  0.3568207E-015  0.9000813E+02  0.7816164E-02  0.1186338E+00
        -11   -1    0    0    0    0  0.00000000000E+00  0.00000000000E+00  0.45593999997E+02  0.45594000000E+02  0.51100000000E-03 0.  1.
         11   -1    0    0    0    0 -0.00000000000E+00 -0.00000000000E+00 -0.45593999997E+02  0.45594000000E+02  0.51100000000E-03 0. -1.
    9900012    2    1    2    0    0  0.67764335825E+00 -0.83567215700E+00  0.48428765875E+00  0.90008134325E+02  0.90000400897E+02 0.  0.
         12    1    1    2    0    0 -0.67764335825E+00  0.83567215700E+00 -0.48428765875E+00  0.11798656751E+01  0.00000000000E+00 0. -1.
         11    1    3    3    0    0 -0.11577679514E+02  0.76609043635E+01 -0.22170916342E+02  0.26158777691E+02  0.51100000000E-03 0. -1.
        -11    1    3    3    0    0  0.50097235804E+01  0.24928231929E+02  0.81670883183E+01  0.26706093112E+02  0.51100000000E-03 0.  1.
        -12    1    3    3    0    0  0.72455992916E+01 -0.33424808449E+02  0.14488115683E+02  0.37143263521E+02  0.00000000000E+00 0.  1.
</event>
<event>
 7    1  0.3568207E-015  0.9000775E+02  0.7816164E-02  0.1186339E+00
        -11   -1    0    0    0    0  0.00000000000E+00  0.00000000000E+00  0.45593999997E+02  0.45594000000E+02  0.51100000000E-03 0. -1.
         11   -1    0    0    0    0 -0.00000000000E+00 -0.00000000000E+00 -0.45593999997E+02  0.45594000000E+02  0.51100000000E-03 0.  1.
    9900012    2    1    2    0    0  0.10218074506E+01  0.58037365708E+00 -0.10983557753E+00  0.90007750915E+02  0.90000012427E+02 0.  0.
         12    1    1    2    0    0 -0.10218074506E+01 -0.58037365708E+00  0.10983557753E+00  0.11802490847E+01  0.00000000000E+00 0. -1.
         11    1    3    3    0    0 -0.76747738720E+01 -0.27447383802E+01 -0.43560589410E+01  0.92418067779E+01  0.51100000000E-03 0. -1.
        -11    1    3    3    0    0 -0.14157682738E+01  0.22783983354E+02 -0.31456134987E+02  0.38866473031E+02  0.51100000000E-03 0.  1.
         12    1    3    3    0    0  0.10112349596E+02 -0.19458871317E+02  0.35702358350E+02  0.41899471107E+02  0.00000000000E+00 0. -1.
</event>
<event>
 7    1  0.3568207E-015  0.9000780E+02  0.7816164E-02  0.1186339E+00
        -11   -1    0    0    0    0  0.00000000000E+00  0.00000000000E+00  0.45593999997E+02  0.45594000000E+02  0.51100000000E-03 0.  1.
         11   -1    0    0    0    0 -0.00000000000E+00 -0.00000000000E+00 -0.45593999997E+02  0.45594000000E+02  0.51100000000E-03 0. -1.
    9900012    2    1    2    0    0  0.99687834415E+00 -0.40326287233E+00  0.48628624726E+00  0.90007804384E+02  0.90000066602E+02 0.  0.
         12    1    1    2    0    0 -0.99687834415E+00  0.40326287233E+00 -0.48628624726E+00  0.11801956158E+01  0.00000000000E+00 0. -1.
         11    1    3    3    0    0  0.24277878509E+01 -0.36307148261E+02 -0.91621510269E+01  0.37523968079E+02  0.51100000000E-03 0. -1.
        -11    1    3    3    0    0 -0.82735087730E+01 -0.50705169906E+01  0.42468864484E+01  0.10592314890E+02  0.51100000000E-03 0.  1.
        -12    1    3    3    0    0  0.68425992663E+01  0.40974402380E+02  0.54015508257E+01  0.41891521414E+02  0.00000000000E+00 0.  1.
</event>
<event>
 7    1  0.3568207E-015  0.9000772E+02  0.7816164E-02  0.1186339E+00
        -11   -1    0    0    0    0  0.00000000000E+00  0.00000000000E+00  0.45593999997E+02  0.45594000000E+02  0.51100000000E-03 0.  1.
         11   -1    0    0    0    0 -0.00000000000E+00 -0.00000000000E+00 -0.45593999997E+02  0.45594000000E+02  0.51100000000E-03 0. -1.
    9900012    2    1    2    0    0 -0.10930729121E+01  0.13197443562E+00  0.42524111760E+00  0.90007722215E+02  0.89999983348E+02 0.  0.
         12    1    1    2    0    0  0.10930729121E+01 -0.13197443562E+00 -0.42524111760E+00  0.11802777855E+01  0.00000000000E+00 0. -1.
         11    1    3    3    0    0  0.39930425274E+01  0.21581192322E+01 -0.71496918630E+01  0.84687638557E+01  0.51100000000E-03 0. -1.
        -11    1    3    3    0    0 -0.41039600885E+02  0.54234629012E+01 -0.70943164498E+01  0.41999906152E+02  0.51100000000E-03 0.  1.
         12    1    3    3    0    0  0.35953485446E+02 -0.74496076978E+01  0.14669249430E+02  0.39539052207E+02  0.00000000000E+00 0. -1.
</event>
<event>
 7    1  0.3568207E-015  0.9000804E+02  0.7816164E-02  0.1186338E+00
        -11   -1    0    0    0    0  0.00000000000E+00  0.00000000000E+00  0.45593999997E+02  0.45594000000E+02  0.51100000000E-03 0.  1.
         11   -1    0    0    0    0 -0.00000000000E+00 -0.00000000000E+00 -0.45593999997E+02  0.45594000000E+02  0.51100000000E-03 0. -1.
    9900012    2    1    2    0    0  0.65436664203E+00  0.59974401860E+00 -0.77744240040E+00  0.90008040138E+02  0.90000305467E+02 0.  0.
         12    1    1    2    0    0 -0.65436664203E+00 -0.59974401860E+00  0.77744240040E+00  0.11799598620E+01  0.00000000000E+00 0. -1.
         11    1    3    3    0    0  0.20592935238E+00  0.72353699395E+01  0.77761657320E+01  0.10623640563E+02  0.51100000000E-03 0. -1.
        -11    1    3    3    0    0  0.31838852687E+01 -0.88789998474E+01  0.34713846430E+02  0.35972557567E+02  0.51100000000E-03 0.  1.
         12    1    3    3    0    0 -0.27354479790E+01  0.22433739265E+01 -0.43267454562E+02  0.43411842008E+02  0.00000000000E+00 0. -1.
</event>
<event>
 7    1  0.3568207E-015  0.9000757E+02  0.7816164E-02  0.1186339E+00
        -11   -1    0    0    0    0  0.00000000000E+00  0.00000000000E+00  0.45593999997E+02  0.45594000000E+02  0.51100000000E-03 0.  1.
         11   -1    0    0    0    0 -0.00000000000E+00 -0.00000000000E+00 -0.45593999997E+02  0.45594000000E+02  0.51100000000E-03 0. -1.
    9900012    2    1    2    0    0 -0.18510289071E+00 -0.10706711722E+01  0.46131273177E+00  0.90007572418E+02  0.89999831574E+02 0.  0.
         12    1    1    2    0    0  0.18510289071E+00  0.10706711722E+01 -0.46131273177E+00  0.11804275817E+01  0.00000000000E+00 0. -1.
         11    1    3    3    0    0  0.29379629630E+01  0.70279594788E+01 -0.88378403575E+01  0.11667530298E+02  0.51100000000E-03 0. -1.
        -11    1    3    3    0    0  0.29872577497E+02 -0.15406188269E+02  0.24188600927E+02  0.41410263684E+02  0.51100000000E-03 0.  1.
         12    1    3    3    0    0 -0.32995643351E+02  0.73075576176E+01 -0.14889447837E+02  0.36929778437E+02  0.00000000000E+00 0. -1.
</event>
<event>
 7    1  0.3568207E-015  0.9000722E+02  0.7816164E-02  0.1186340E+00
        -11   -1    0    0    0    0  0.00000000000E+00  0.00000000000E+00  0.45593999997E+02  0.45594000000E+02  0.51100000000E-03 0.  1.
         11   -1    0    0    0    0 -0.00000000000E+00 -0.00000000000E+00 -0.45593999997E+02  0.45594000000E+02  0.51100000000E-03 0. -1.
    9900012    2    1    2    0    0  0.10164748528E+01 -0.60077199064E+00 -0.98973956721E-02  0.90007218026E+02  0.89999472503E+02 0.  0.
         12    1    1    2    0    0 -0.10164748528E+01  0.60077199064E+00  0.98973956721E-02  0.11807819738E+01  0.00000000000E+00 0. -1.
         11    1    3    3    0    0 -0.24625004040E+01 -0.14155524556E+02 -0.35923997974E+02  0.38690779449E+02  0.51100000000E-03 0. -1.
        -11    1    3    3    0    0  0.13790332663E+01  0.85014849478E+01 -0.50529970125E+01  0.99854773615E+01  0.51100000000E-03 0.  1.
        -12    1    3    3    0    0  0.20999419906E+01  0.50532676174E+01  0.40967097591E+02  0.41330961216E+02  0.00000000000E+00 0.  1.
</event>
<event>
 7    1  0.3568207E-015  0.9000780E+02  0.7816164E-02  0.1186339E+00
        -11   -1    0    0    0    0  0.00000000000E+00  0.00000000000E+00  0.45593999997E+02  0.45594000000E+02  0.51100000000E-03 0.  1.
         11   -1    0    0    0    0 -0.00000000000E+00 -0.00000000000E+00 -0.45593999997E+02  0.45594000000E+02  0.51100000000E-03 0. -1.
    9900012    2    1    2    0    0  0.56957056296E+00  0.10303057565E+01  0.83271602580E-01  0.90007798857E+02  0.90000061002E+02 0.  0.
         12    1    1    2    0    0 -0.56957056296E+00 -0.10303057565E+01 -0.83271602580E-01  0.11802011430E+01  0.00000000000E+00 0. -1.
         11    1    3    3    0    0  0.85598862910E+01 -0.17985654227E+02 -0.34834235655E+02  0.40127040574E+02  0.51100000000E-03 0. -1.
        -11    1    3    3    0    0 -0.86009737587E+01  0.20936582668E+01 -0.21666873276E+01  0.91134345212E+01  0.51100000000E-03 0.  1.
        -12    1    3    3    0    0  0.61065803064E+00  0.16922301717E+02  0.37084194585E+02  0.40767323762E+02  0.00000000000E+00 0.  1.
</event>
<event>
 7    1  0.3568207E-015  0.9000761E+02  0.7816164E-02  0.1186339E+00
        -11   -1    0    0    0    0  0.00000000000E+00  0.00000000000E+00  0.45593999997E+02  0.45594000000E+02  0.51100000000E-03 0.  1.
         11   -1    0    0    0    0 -0.00000000000E+00 -0.00000000000E+00 -0.45593999997E+02  0.45594000000E+02  0.51100000000E-03 0. -1.
    9900012    2    1    2    0    0  0.57183574760E+00  0.58881831103E-01  0.10309513479E+01  0.90007608593E+02  0.89999868226E+02 0.  0.
         12    1    1    2    0    0 -0.57183574760E+00 -0.58881831103E-01 -0.10309513479E+01  0.11803914072E+01  0.00000000000E+00 0. -1.
         11    1    3    3    0    0 -0.17463843825E+01 -0.15745243824E+02 -0.34623441743E+02  0.38075520744E+02  0.51100000000E-03 0. -1.
        -11    1    3    3    0    0 -0.31894455892E+01  0.53713797313E+01 -0.59864904748E+01  0.86523032685E+01  0.51100000000E-03 0.  1.
        -12    1    3    3    0    0  0.55076657193E+01  0.10432745924E+02  0.41640883566E+02  0.43279784581E+02  0.00000000000E+00 0.  1.
</event>
<event>
 7    1  0.3568207E-015  0.9000765E+02  0.7816164E-02  0.1186339E+00
        -11   -1    0    0    0    0  0.00000000000E+00  0.00000000000E+00  0.45593999997E+02  0.45594000000E+02  0.51100000000E-03 0.  1.
         11   -1    0    0    0    0 -0.00000000000E+00 -0.00000000000E+00 -0.45593999997E+02  0.45594000000E+02  0.51100000000E-03 0. -1.
    9900012    2    1    2    0    0 -0.10535240089E+01 -0.31890371850E+00  0.42615018916E+00  0.90007654117E+02  0.89999914352E+02 0.  0.
         12    1    1    2    0    0  0.10535240089E+01  0.31890371850E+00 -0.42615018916E+00  0.11803458826E+01  0.00000000000E+00 0. -1.
         11    1    3    3    0    0  0.31241568272E+02  0.23499845013E+02 -0.10078219566E+02  0.40371386075E+02  0.51100000000E-03 0. -1.
        -11    1    3    3    0    0  0.13896788574E+01 -0.52695145754E+01  0.97556711317E+01  0.11174619040E+02  0.51100000000E-03 0.  1.
        -12    1    3    3    0    0 -0.33684771138E+02 -0.18549234156E+02  0.74869862299E+00  0.38461649003E+02  0.00000000000E+00 0.  1.
</event>
<event>
 7    1  0.3568207E-015  0.9000831E+02  0.7816164E-02  0.1186338E+00
        -11   -1    0    0    0    0  0.00000000000E+00  0.00000000000E+00  0.45593999997E+02  0.45594000000E+02  0.51100000000E-03 0.  1.
         11   -1    0    0    0    0 -0.00000000000E+00 -0.00000000000E+00 -0.45593999997E+02  0.45594000000E+02  0.51100000000E-03 0. -1.
    9900012    2    1    2    0    0 -0.28131782298E+00 -0.32995275322E+00  0.10971158553E+01  0.90008308626E+02  0.90000577498E+02 0.  0.
         12    1    1    2    0    0  0.28131782298E+00  0.32995275322E+00 -0.10971158553E+01  0.11796913736E+01  0.00000000000E+00 0. -1.
         11    1    3    3    0    0  0.14760196379E+02  0.23282356491E+02  0.26441681790E+02  0.38198089704E+02  0.51100000000E-03 0. -1.
        -11    1    3    3    0    0  0.10238352303E+01 -0.25455579893E+01  0.84410160934E+01  0.88757454338E+01  0.51100000000E-03 0.  1.
        -12    1    3    3    0    0 -0.16065349432E+02 -0.21066751255E+02 -0.33785582028E+02  0.42934473489E+02  0.00000000000E+00 0.  1.
</event>
<event>
 7    1  0.3568207E-015  0.9000773E+02  0.7816164E-02  0.1186339E+00
        -11   -1    0    0    0    0  0.00000000000E+00  0.00000000000E+00  0.45593999997E+02  0.45594000000E+02  0.51100000000E-03 0. -1.
         11   -1    0    0    0    0 -0.00000000000E+00 -0.00000000000E+00 -0.45593999997E+02  0.45594000000E+02  0.51100000000E-03 0.  1.
    9900012    2    1    2    0    0  0.32675167990E-01  0.11488993933E+01 -0.26830698563E+00  0.90007734724E+02  0.89999996023E+02 0.  0.
         12    1    1    2    0    0 -0.32675167990E-01 -0.11488993933E+01  0.26830698563E+00  0.11802652757E+01  0.00000000000E+00 0. -1.
         11    1    3    3    0    0  0.88669345561E+01  0.19298688280E+02  0.38848302808E+02  0.44274739176E+02  0.51100000000E-03 0. -1.
        -11    1    3    3    0    0  0.26312636037E+01 -0.17741130664E+01 -0.93743179815E+01  0.98969118013E+01  0.51100000000E-03 0.  1.
        -12    1    3    3    0    0 -0.11465522992E+02 -0.16375675820E+02 -0.29742291813E+02  0.35836083747E+02  0.00000000000E+00 0.  1.
</event>
<event>
 7    1  0.3568207E-015  0.9000775E+02  0.7816164E-02  0.1186339E+00
        -11   -1    0    0    0    0  0.00000000000E+00  0.00000000000E+00  0.45593999997E+02  0.45594000000E+02  0.51100000000E-03 0. -1.
         11   -1    0    0    0    0 -0.00000000000E+00 -0.00000000000E+00 -0.45593999997E+02  0.45594000000E+02  0.51100000000E-03 0.  1.
    9900012    2    1    2    0    0  0.34279963434E+00 -0.11287644750E+01 -0.36844179932E-01  0.90007754973E+02  0.90000016539E+02 0.  0.
         12    1    1    2    0    0 -0.34279963434E+00  0.11287644750E+01  0.36844179932E-01  0.11802450267E+01  0.00000000000E+00 0. -1.
         11    1    3    3    0    0  0.80877973327E+01 -0.33428075754E+01 -0.60148239443E+01  0.10619083554E+02  0.51100000000E-03 0. -1.
        -11    1    3    3    0    0  0.14803651579E+02 -0.31283656375E+02 -0.99025119227E+01  0.35998263832E+02  0.51100000000E-03 0.  1.
         12    1    3    3    0    0 -0.22548649278E+02  0.33497699475E+02  0.15880491687E+02  0.43390407588E+02  0.00000000000E+00 0. -1.
</event>
<event>
 7    1  0.3568207E-015  0.9000776E+02  0.7816164E-02  0.1186339E+00
        -11   -1    0    0    0    0  0.00000000000E+00  0.00000000000E+00  0.45593999997E+02  0.45594000000E+02  0.51100000000E-03 0. -1.
         11   -1    0    0    0    0 -0.00000000000E+00 -0.00000000000E+00 -0.45593999997E+02  0.45594000000E+02  0.51100000000E-03 0.  1.
    9900012    2    1    2    0    0 -0.82686175739E+00 -0.17901244294E+00 -0.82293474061E+00  0.90007759597E+02  0.90000021224E+02 0.  0.
         12    1    1    2    0    0  0.82686175739E+00  0.17901244294E+00  0.82293474061E+00  0.11802404026E+01  0.00000000000E+00 0. -1.
         11    1    3    3    0    0  0.22318921984E+01 -0.65013280831E+01  0.35535683450E+01  0.77379879732E+01  0.51100000000E-03 0. -1.
        -11    1    3    3    0    0 -0.21644387714E+02  0.29752768558E+01 -0.37926918077E+02  0.43769657378E+02  0.51100000000E-03 0.  1.
         12    1    3    3    0    0  0.18585633758E+02  0.33470387844E+01  0.33550414992E+02  0.38500114246E+02  0.00000000000E+00 0. -1.
</event>
<event>
 7    1  0.3568207E-015  0.9000775E+02  0.7816164E-02  0.1186339E+00
        -11   -1    0    0    0    0  0.00000000000E+00  0.00000000000E+00  0.45593999997E+02  0.45594000000E+02  0.51100000000E-03 0.  1.
         11   -1    0    0    0    0 -0.00000000000E+00 -0.00000000000E+00 -0.45593999997E+02  0.45594000000E+02  0.51100000000E-03 0. -1.
    9900012    2    1    2    0    0 -0.10881964754E+01 -0.42157180510E+00 -0.17633623938E+00  0.90007750524E+02  0.90000012031E+02 0.  0.
         12    1    1    2    0    0  0.10881964754E+01  0.42157180510E+00  0.17633623938E+00  0.11802494758E+01  0.00000000000E+00 0. -1.
         11    1    3    3    0    0  0.10004971763E+02  0.18821310708E+01 -0.91062709579E+00  0.10221111452E+02  0.51100000000E-03 0. -1.
        -11    1    3    3    0    0 -0.23007486386E+02 -0.30133089512E+02  0.21016337472E+02  0.43347825255E+02  0.51100000000E-03 0.  1.
         12    1    3    3    0    0  0.11914318148E+02  0.27829386636E+02 -0.20282046616E+02  0.36438813817E+02  0.00000000000E+00 0. -1.
</event>
<event>
 7    1  0.3568207E-015  0.9000777E+02  0.7816164E-02  0.1186339E+00
        -11   -1    0    0    0    0  0.00000000000E+00  0.00000000000E+00  0.45593999997E+02  0.45594000000E+02  0.51100000000E-03 0. -1.
         11   -1    0    0    0    0 -0.00000000000E+00 -0.00000000000E+00 -0.45593999997E+02  0.45594000000E+02  0.51100000000E-03 0.  1.
    9900012    2    1    2    0    0 -0.97923392345E+00 -0.25415282519E+00 -0.60782579850E+00  0.90007769117E+02  0.90000030870E+02 0.  0.
         12    1    1    2    0    0  0.97923392345E+00  0.25415282519E+00  0.60782579850E+00  0.11802308828E+01  0.00000000000E+00 0. -1.
         11    1    3    3    0    0  0.17763283979E+02 -0.33288188474E+02 -0.47505023449E+01  0.38029002385E+02  0.51100000000E-03 0. -1.
        -11    1    3    3    0    0 -0.53435257002E+01 -0.72066573851E+01 -0.18038332997E+01  0.91511197352E+01  0.51100000000E-03 0.  1.
        -12    1    3    3    0    0 -0.13398992203E+02  0.40240693034E+02  0.59465098461E+01  0.42827646997E+02  0.00000000000E+00 0.  1.
</event>
<event>
 7    1  0.3568207E-015  0.9000774E+02  0.7816164E-02  0.1186339E+00
        -11   -1    0    0    0    0  0.00000000000E+00  0.00000000000E+00  0.45593999997E+02  0.45594000000E+02  0.51100000000E-03 0.  1.
         11   -1    0    0    0    0 -0.00000000000E+00 -0.00000000000E+00 -0.45593999997E+02  0.45594000000E+02  0.51100000000E-03 0. -1.
    9900012    2    1    2    0    0  0.75411753058E+00 -0.13646004228E+00 -0.89760287678E+00  0.90007743453E+02  0.90000004866E+02 0.  0.
         12    1    1    2    0    0 -0.75411753058E+00  0.13646004228E+00  0.89760287678E+00  0.11802565473E+01  0.00000000000E+00 0. -1.
         11    1    3    3    0    0  0.67514709758E+01 -0.91157457413E+01  0.36547601994E+01  0.11917904729E+02  0.51100000000E-03 0. -1.
        -11    1    3    3    0    0 -0.16545984611E+02 -0.30511288553E+02 -0.11631860550E+02  0.36606126755E+02  0.51100000000E-03 0.  1.
         12    1    3    3    0    0  0.10548631166E+02  0.39490574252E+02  0.70794974739E+01  0.41483711968E+02  0.00000000000E+00 0. -1.
</event>
<event>
 7    1  0.3568207E-015  0.9000769E+02  0.7816164E-02  0.1186339E+00
        -11   -1    0    0    0    0  0.00000000000E+00  0.00000000000E+00  0.45593999997E+02  0.45594000000E+02  0.51100000000E-03 0. -1.
         11   -1    0    0    0    0 -0.00000000000E+00 -0.00000000000E+00 -0.45593999997E+02  0.45594000000E+02  0.51100000000E-03 0.  1.
    9900012    2    1    2    0    0 -0.65489639427E+00 -0.13067041472E+00 -0.97323074052E+00  0.90007685585E+02  0.89999946234E+02 0.  0.
         12    1    1    2    0    0  0.65489639427E+00  0.13067041472E+00  0.97323074052E+00  0.11803144152E+01  0.00000000000E+00 0. -1.
         11    1    3    3    0    0  0.25163726715E+01  0.25683743954E+01  0.75513219570E+01  0.83636799326E+01  0.51100000000E-03 0. -1.
        -11    1    3    3    0    0  0.10340730245E+02  0.35813225338E+02  0.70913141395E+01  0.37944756523E+02  0.51100000000E-03 0.  1.
         12    1    3    3    0    0 -0.13511999311E+02 -0.38512270148E+02 -0.15615866837E+02  0.43699249129E+02  0.00000000000E+00 0. -1.
</event>
<event>
 7    1  0.3568207E-015  0.9000795E+02  0.7816164E-02  0.1186339E+00
        -11   -1    0    0    0    0  0.00000000000E+00  0.00000000000E+00  0.45593999997E+02  0.45594000000E+02  0.51100000000E-03 0. -1.
         11   -1    0    0    0    0 -0.00000000000E+00 -0.00000000000E+00 -0.45593999997E+02  0.45594000000E+02  0.51100000000E-03 0.  1.
    9900012    2    1    2    0    0  0.31401607166E+00 -0.10635639858E+01 -0.40342129899E+00  0.90007947802E+02  0.90000211913E+02 0.  0.
         12    1    1    2    0    0 -0.31401607166E+00  0.10635639858E+01  0.40342129899E+00  0.11800521979E+01  0.00000000000E+00 0. -1.
         11    1    3    3    0    0 -0.13163744081E+02  0.34555061371E+02 -0.40501244708E+01  0.37198654991E+02  0.51100000000E-03 0. -1.
        -11    1    3    3    0    0 -0.50086310544E+01  0.48341467562E+01  0.45629177277E+01  0.83231952008E+01  0.51100000000E-03 0.  1.
        -12    1    3    3    0    0  0.18486391207E+02 -0.40452772113E+02 -0.91621455591E+00  0.44486097611E+02  0.00000000000E+00 0.  1.
</event>
<event>
 7    1  0.3568207E-015  0.9000772E+02  0.7816164E-02  0.1186339E+00
        -11   -1    0    0    0    0  0.00000000000E+00  0.00000000000E+00  0.45593999997E+02  0.45594000000E+02  0.51100000000E-03 0.  1.
         11   -1    0    0    0    0 -0.00000000000E+00 -0.00000000000E+00 -0.45593999997E+02  0.45594000000E+02  0.51100000000E-03 0. -1.
    9900012    2    1    2    0    0 -0.71655588059E+00  0.93749908155E+00 -0.26622229398E-01  0.90007717999E+02  0.89999979077E+02 0.  0.
         12    1    1    2    0    0  0.71655588059E+00 -0.93749908155E+00  0.26622229398E-01  0.11802820006E+01  0.00000000000E+00 0. -1.
         11    1    3    3    0    0 -0.19426559661E+02  0.64096674621E+01  0.40991854334E+01  0.20863326166E+02  0.51100000000E-03 0. -1.
        -11    1    3    3    0    0 -0.18645872026E+02  0.13368552185E+02  0.99417417745E+01  0.25004498813E+02  0.51100000000E-03 0.  1.
        -12    1    3    3    0    0  0.37355875806E+02 -0.18840720566E+02 -0.14067549437E+02  0.44139893020E+02  0.00000000000E+00 0.  1.
</event>
<event>
 7    1  0.3568207E-015  0.9000779E+02  0.7816164E-02  0.1186339E+00
        -11   -1    0    0    0    0  0.00000000000E+00  0.00000000000E+00  0.45593999997E+02  0.45594000000E+02  0.51100000000E-03 0.  1.
         11   -1    0    0    0    0 -0.00000000000E+00 -0.00000000000E+00 -0.45593999997E+02  0.45594000000E+02  0.51100000000E-03 0. -1.
    9900012    2    1    2    0    0 -0.16252648762E+00 -0.79764560736E+00  0.85454414755E+00  0.90007788547E+02  0.90000050556E+02 0.  0.
         12    1    1    2    0    0  0.16252648762E+00  0.79764560736E+00 -0.85454414755E+00  0.11802114532E+01  0.00000000000E+00 0. -1.
         11    1    3    3    0    0  0.24534506776E+02 -0.32174240519E+02  0.12234527594E+02  0.42270645150E+02  0.51100000000E-03 0. -1.
        -11    1    3    3    0    0 -0.11109052449E+02  0.91814169435E+01  0.68558641616E+01  0.15959709806E+02  0.51100000000E-03 0.  1.
        -12    1    3    3    0    0 -0.13587980814E+02  0.22195177968E+02 -0.18235847608E+02  0.31777433591E+02  0.00000000000E+00 0.  1.
</event>
<event>
 7    1  0.3568207E-015  0.9000775E+02  0.7816164E-02  0.1186339E+00
        -11   -1    0    0    0    0  0.00000000000E+00  0.00000000000E+00  0.45593999997E+02  0.45594000000E+02  0.51100000000E-03 0.  1.
         11   -1    0    0    0    0 -0.00000000000E+00 -0.00000000000E+00 -0.45593999997E+02  0.45594000000E+02  0.51100000000E-03 0. -1.
    9900012    2    1    2    0    0  0.11538890338E+01 -0.21316212023E+00 -0.12687750542E+00  0.90007747530E+02  0.90000008997E+02 0.  0.
         12    1    1    2    0    0 -0.11538890338E+01  0.21316212023E+00  0.12687750542E+00  0.11802524701E+01  0.00000000000E+00 0. -1.
         11    1    3    3    0    0  0.65395291981E+01  0.28710415776E+01  0.50905421435E+01  0.87705154608E+01  0.51100000000E-03 0. -1.
        -11    1    3    3    0    0 -0.27372068264E+02 -0.20812525366E+02  0.22955906147E+02  0.41344467109E+02  0.51100000000E-03 0.  1.
         12    1    3    3    0    0  0.21986428100E+02  0.17728321668E+02 -0.28173325796E+02  0.39892764960E+02  0.00000000000E+00 0. -1.
</event>
<event>
 7    1  0.3568207E-015  0.9000772E+02  0.7816164E-02  0.1186339E+00
        -11   -1    0    0    0    0  0.00000000000E+00  0.00000000000E+00  0.45593999997E+02  0.45594000000E+02  0.51100000000E-03 0. -1.
         11   -1    0    0    0    0 -0.00000000000E+00 -0.00000000000E+00 -0.45593999997E+02  0.45594000000E+02  0.51100000000E-03 0.  1.
    9900012    2    1    2    0    0 -0.83066704267E+00  0.49432638734E+00  0.67726270677E+00  0.90007724148E+02  0.89999985307E+02 0.  0.
         12    1    1    2    0    0  0.83066704267E+00 -0.49432638734E+00 -0.67726270677E+00  0.11802758521E+01  0.00000000000E+00 0. -1.
         11    1    3    3    0    0  0.10748021544E+02  0.33668240374E+02  0.96286288695E+01  0.36630327206E+02  0.51100000000E-03 0. -1.
        -11    1    3    3    0    0  0.76409930152E+01  0.25299791937E+01  0.61277311365E+01  0.10116059417E+02  0.51100000000E-03 0.  1.
        -12    1    3    3    0    0 -0.19219681602E+02 -0.35703893181E+02 -0.15079097299E+02  0.43261337526E+02  0.00000000000E+00 0.  1.
</event>
<event>
 7    1  0.3568207E-015  0.9000776E+02  0.7816164E-02  0.1186339E+00
        -11   -1    0    0    0    0  0.00000000000E+00  0.00000000000E+00  0.45593999997E+02  0.45594000000E+02  0.51100000000E-03 0.  1.
         11   -1    0    0    0    0 -0.00000000000E+00 -0.00000000000E+00 -0.45593999997E+02  0.45594000000E+02  0.51100000000E-03 0. -1.
    9900012    2    1    2    0    0 -0.19552382751E+00 -0.10970175630E+01  0.38896140658E+00  0.90007759314E+02  0.90000020937E+02 0.  0.
         12    1    1    2    0    0  0.19552382751E+00  0.10970175630E+01 -0.38896140658E+00  0.11802406859E+01  0.00000000000E+00 0. -1.
         11    1    3    3    0    0  0.10960392889E+02  0.64968333222E+01 -0.32317124201E+02  0.34738099724E+02  0.51100000000E-03 0. -1.
        -11    1    3    3    0    0 -0.72029693234E+01  0.20391259090E+01 -0.93306589539E+01  0.11962524747E+02  0.51100000000E-03 0.  1.
        -12    1    3    3    0    0 -0.39529473928E+01 -0.96329767942E+01  0.42036744562E+02  0.43307134844E+02  0.00000000000E+00 0.  1.
</event>
<event>
 7    1  0.3568207E-015  0.9000779E+02  0.7816164E-02  0.1186339E+00
        -11   -1    0    0    0    0  0.00000000000E+00  0.00000000000E+00  0.45593999997E+02  0.45594000000E+02  0.51100000000E-03 0. -1.
         11   -1    0    0    0    0 -0.00000000000E+00 -0.00000000000E+00 -0.45593999997E+02  0.45594000000E+02  0.51100000000E-03 0.  1.
    9900012    2    1    2    0    0  0.11029628761E+01  0.11657055973E+00 -0.40344569543E+00  0.90007794835E+02  0.90000056927E+02 0.  0.
         12    1    1    2    0    0 -0.11029628761E+01 -0.11657055973E+00  0.40344569543E+00  0.11802051646E+01  0.00000000000E+00 0. -1.
         11    1    3    3    0    0  0.50678613101E+01 -0.94752623631E+01 -0.37519215464E+01  0.11381596139E+02  0.51100000000E-03 0. -1.
        -11    1    3    3    0    0 -0.19391021832E+02 -0.11715717684E+02 -0.29084142401E+02  0.36866747999E+02  0.51100000000E-03 0.  1.
         12    1    3    3    0    0  0.15426123398E+02  0.21307550607E+02  0.32432618252E+02  0.41759450698E+02  0.00000000000E+00 0. -1.
</event>
<event>
 7    1  0.3568207E-015  0.9000769E+02  0.7816164E-02  0.1186339E+00
        -11   -1    0    0    0    0  0.00000000000E+00  0.00000000000E+00  0.45593999997E+02  0.45594000000E+02  0.51100000000E-03 0. -1.
         11   -1    0    0    0    0 -0.00000000000E+00 -0.00000000000E+00 -0.45593999997E+02  0.45594000000E+02  0.51100000000E-03 0.  1.
    9900012    2    1    2    0    0 -0.11010559674E+01  0.32990090392E+00 -0.26827309119E+00  0.90007691014E+02  0.89999951736E+02 0.  0.
         12    1    1    2    0    0  0.11010559674E+01 -0.32990090392E+00  0.26827309119E+00  0.11803089855E+01  0.00000000000E+00 0. -1.
         11    1    3    3    0    0 -0.10070509907E+02  0.27611729139E+02 -0.21170464116E+02  0.36221696633E+02  0.51100000000E-03 0. -1.
        -11    1    3    3    0    0  0.49012506032E+01  0.43270525765E+01 -0.82964181875E+01  0.10562963433E+02  0.51100000000E-03 0.  1.
        -12    1    3    3    0    0  0.40682033361E+01 -0.31608880811E+02  0.29198609212E+02  0.43223030949E+02  0.00000000000E+00 0.  1.
</event>
<event>
 7    1  0.3568207E-015  0.9000772E+02  0.7816164E-02  0.1186339E+00
        -11   -1    0    0    0    0  0.00000000000E+00  0.00000000000E+00  0.45593999997E+02  0.45594000000E+02  0.51100000000E-03 0.  1.
         11   -1    0    0    0    0 -0.00000000000E+00 -0.00000000000E+00 -0.45593999997E+02  0.45594000000E+02  0.51100000000E-03 0. -1.
    9900012    2    1    2    0    0  0.92028016156E+00 -0.69362266581E+00  0.25502995100E+00  0.90007716875E+02  0.89999977938E+02 0.  0.
         12    1    1    2    0    0 -0.92028016156E+00  0.69362266581E+00 -0.25502995100E+00  0.11802831246E+01  0.00000000000E+00 0. -1.
         11    1    3    3    0    0 -0.12515269000E+02  0.29819102589E+01 -0.28469279078E+02  0.31241376385E+02  0.51100000000E-03 0. -1.
        -11    1    3    3    0    0 -0.16026817818E+02 -0.30114119680E+01 -0.17167059953E+01  0.16397395255E+02  0.51100000000E-03 0.  1.
        -12    1    3    3    0    0  0.29462366979E+02 -0.66412095668E+00  0.30441015025E+02  0.42368945236E+02  0.00000000000E+00 0.  1.
</event>
<event>
 7    1  0.3568207E-015  0.9000772E+02  0.7816164E-02  0.1186339E+00
        -11   -1    0    0    0    0  0.00000000000E+00  0.00000000000E+00  0.45593999997E+02  0.45594000000E+02  0.51100000000E-03 0. -1.
         11   -1    0    0    0    0 -0.00000000000E+00 -0.00000000000E+00 -0.45593999997E+02  0.45594000000E+02  0.51100000000E-03 0.  1.
    9900012    2    1    2    0    0 -0.86031784383E+00  0.52844634424E+00 -0.61127497229E+00  0.90007720617E+02  0.89999981729E+02 0.  0.
         12    1    1    2    0    0  0.86031784383E+00 -0.52844634424E+00  0.61127497229E+00  0.11802793834E+01  0.00000000000E+00 0. -1.
         11    1    3    3    0    0 -0.22268767924E+02 -0.16917586373E+02 -0.24264884719E+02  0.37025496408E+02  0.51100000000E-03 0. -1.
        -11    1    3    3    0    0 -0.40279456846E+00 -0.44231369275E+01 -0.77514638709E+01  0.89337324869E+01  0.51100000000E-03 0.  1.
        -12    1    3    3    0    0  0.21811244649E+02  0.21869169645E+02  0.31405073617E+02  0.44048491722E+02  0.00000000000E+00 0.  1.
</event>
<event>
 7    1  0.3568207E-015  0.9000779E+02  0.7816164E-02  0.1186339E+00
        -11   -1    0    0    0    0  0.00000000000E+00  0.00000000000E+00  0.45593999997E+02  0.45594000000E+02  0.51100000000E-03 0.  1.
         11   -1    0    0    0    0 -0.00000000000E+00 -0.00000000000E+00 -0.45593999997E+02  0.45594000000E+02  0.51100000000E-03 0. -1.
    9900012    2    1    2    0    0 -0.53306827842E+00 -0.85301901342E+00  0.61732615103E+00  0.90007790356E+02  0.90000052389E+02 0.  0.
         12    1    1    2    0    0  0.53306827842E+00  0.85301901342E+00 -0.61732615103E+00  0.11802096439E+01  0.00000000000E+00 0. -1.
         11    1    3    3    0    0  0.14671414890E+01  0.93364628346E+01 -0.52447179396E+00  0.94655751719E+01  0.51100000000E-03 0. -1.
        -11    1    3    3    0    0  0.22164680102E+02 -0.15475577737E+02  0.31417160909E+02  0.41446405757E+02  0.51100000000E-03 0.  1.
         12    1    3    3    0    0 -0.24164889870E+02  0.52860958894E+01 -0.30275362964E+02  0.39095809427E+02  0.00000000000E+00 0. -1.
</event>
<event>
 7    1  0.4324773E-015  0.9000775E+02  0.7816164E-02  0.1186339E+00
        -11   -1    0    0    0    0  0.00000000000E+00  0.00000000000E+00  0.45593999997E+02  0.45594000000E+02  0.51100000000E-03 0. -1.
         11   -1    0    0    0    0 -0.00000000000E+00 -0.00000000000E+00 -0.45593999997E+02  0.45594000000E+02  0.51100000000E-03 0.  1.
    9900012    2    1    2    0    0 -0.46013882339E+00  0.79311260850E+00 -0.74312395793E+00  0.90007750635E+02  0.90000012143E+02 0.  0.
         12    1    1    2    0    0  0.46013882339E+00 -0.79311260850E+00  0.74312395793E+00  0.11802493649E+01  0.00000000000E+00 0. -1.
         11    1    3    3    0    0 -0.40592425425E+01  0.34248089379E+01 -0.72792129985E+01  0.90107551525E+01  0.51100000000E-03 0. -1.
        -11    1    3    3    0    0  0.10326016123E+01 -0.11276420798E+02 -0.35884392207E+02  0.37628626555E+02  0.51100000000E-03 0.  1.
         12    1    3    3    0    0  0.25665021068E+01  0.86447244684E+01  0.42420481247E+02  0.43368368928E+02  0.00000000000E+00 0. -1.
</event>
<event>
 7    1  0.3568207E-015  0.9000779E+02  0.7816164E-02  0.1186339E+00
        -11   -1    0    0    0    0  0.00000000000E+00  0.00000000000E+00  0.45593999997E+02  0.45594000000E+02  0.51100000000E-03 0.  1.
         11   -1    0    0    0    0 -0.00000000000E+00 -0.00000000000E+00 -0.45593999997E+02  0.45594000000E+02  0.51100000000E-03 0. -1.
    9900012    2    1    2    0    0 -0.10161664327E+01 -0.32763747929E+00  0.50295038511E+00  0.90007788313E+02  0.90000050318E+02 0.  0.
         12    1    1    2    0    0  0.10161664327E+01  0.32763747929E+00 -0.50295038511E+00  0.11802116873E+01  0.00000000000E+00 0. -1.
         11    1    3    3    0    0  0.96427422119E+01  0.21175517326E+02 -0.20520745451E+02  0.31023958572E+02  0.51100000000E-03 0. -1.
        -11    1    3    3    0    0  0.10812047417E+02  0.11391704918E+02  0.77983372317E+01  0.17535260880E+02  0.51100000000E-03 0.  1.
         12    1    3    3    0    0 -0.21470956062E+02 -0.32894859723E+02  0.13225358604E+02  0.41448568861E+02  0.00000000000E+00 0. -1.
</event>
<event>
 7    1  0.4025075E-015  0.9000769E+02  0.7816164E-02  0.1186339E+00
        -11   -1    0    0    0    0  0.00000000000E+00  0.00000000000E+00  0.45593999997E+02  0.45594000000E+02  0.51100000000E-03 0. -1.
         11   -1    0    0    0    0 -0.00000000000E+00 -0.00000000000E+00 -0.45593999997E+02  0.45594000000E+02  0.51100000000E-03 0.  1.
    9900012    2    1    2    0    0 -0.71970314913E+00  0.71544269818E+00 -0.60273802893E+00  0.90007693257E+02  0.89999954007E+02 0.  0.
         12    1    1    2    0    0  0.71970314913E+00 -0.71544269818E+00  0.60273802893E+00  0.11803067435E+01  0.00000000000E+00 0. -1.
         11    1    3    3    0    0  0.81659535626E+01  0.41814247156E+01 -0.54005999083E+00  0.91901455534E+01  0.51100000000E-03 0. -1.
        -11    1    3    3    0    0 -0.16921895794E+02  0.42192511340E+00 -0.38129490849E+02  0.41717941592E+02  0.51100000000E-03 0.  1.
         12    1    3    3    0    0  0.80362390818E+01 -0.38879071308E+01  0.38066812811E+02  0.39099606111E+02  0.00000000000E+00 0. -1.
</event>
<event>
 7    1  0.3692985E-015  0.9000773E+02  0.7816164E-02  0.1186339E+00
        -11   -1    0    0    0    0  0.00000000000E+00  0.00000000000E+00  0.45593999997E+02  0.45594000000E+02  0.51100000000E-03 0.  1.
         11   -1    0    0    0    0 -0.00000000000E+00 -0.00000000000E+00 -0.45593999997E+02  0.45594000000E+02  0.51100000000E-03 0. -1.
    9900012    2    1    2    0    0 -0.34991151502E+00  0.79099600397E+00  0.80306834119E+00  0.90007732443E+02  0.89999993711E+02 0.  0.
         12    1    1    2    0    0  0.34991151502E+00 -0.79099600397E+00 -0.80306834119E+00  0.11802675575E+01  0.00000000000E+00 0. -1.
         11    1    3    3    0    0 -0.93286481533E+01 -0.24996837213E+01  0.79027244589E+00  0.96900271349E+01  0.51100000000E-03 0. -1.
        -11    1    3    3    0    0 -0.11098106861E+02  0.67573700448E+01  0.36380869908E+02  0.38631563797E+02  0.51100000000E-03 0.  1.
         12    1    3    3    0    0  0.20076843499E+02 -0.34666903196E+01 -0.36368074013E+02  0.41686141511E+02  0.00000000000E+00 0. -1.
</event>
<event>
 7    1  0.3568207E-015  0.9000780E+02  0.7816164E-02  0.1186339E+00
        -11   -1    0    0    0    0  0.00000000000E+00  0.00000000000E+00  0.45593999997E+02  0.45594000000E+02  0.51100000000E-03 0.  1.
         11   -1    0    0    0    0 -0.00000000000E+00 -0.00000000000E+00 -0.45593999997E+02  0.45594000000E+02  0.51100000000E-03 0. -1.
    9900012    2    1    2    0    0  0.61030895319E-01 -0.11772863660E+01  0.56029567205E-01  0.90007802021E+02  0.90000064207E+02 0.  0.
         12    1    1    2    0    0 -0.61030895319E-01  0.11772863660E+01 -0.56029567205E-01  0.11801979792E+01  0.00000000000E+00 0. -1.
         11    1    3    3    0    0 -0.90462592435E+01 -0.19718769880E+01  0.27143651806E+01  0.96483617133E+01  0.51100000000E-03 0. -1.
        -11    1    3    3    0    0  0.49454008993E+01 -0.35623080006E+02 -0.18481256140E+02  0.40435351463E+02  0.51100000000E-03 0.  1.
         12    1    3    3    0    0  0.41618892395E+01  0.36417670629E+02  0.15822920526E+02  0.39924088844E+02  0.00000000000E+00 0. -1.
</event>
<event>
 7    1  0.3568207E-015  0.9000774E+02  0.7816164E-02  0.1186339E+00
        -11   -1    0    0    0    0  0.00000000000E+00  0.00000000000E+00  0.45593999997E+02  0.45594000000E+02  0.51100000000E-03 0.  1.
         11   -1    0    0    0    0 -0.00000000000E+00 -0.00000000000E+00 -0.45593999997E+02  0.45594000000E+02  0.51100000000E-03 0. -1.
    9900012    2    1    2    0    0 -0.88803561573E+00  0.46739381049E+00  0.62125351530E+00  0.90007737250E+02  0.89999998582E+02 0.  0.
         12    1    1    2    0    0  0.88803561573E+00 -0.46739381049E+00 -0.62125351530E+00  0.11802627501E+01  0.00000000000E+00 0. -1.
         11    1    3    3    0    0  0.46748042938E+01  0.62599545658E+01 -0.36276404408E+02  0.37108197792E+02  0.51100000000E-03 0. -1.
        -11    1    3    3    0    0  0.88975039807E+01  0.75192308897E+01  0.65153305314E+00  0.11667429273E+02  0.51100000000E-03 0.  1.
        -12    1    3    3    0    0 -0.14460343890E+02 -0.13311791645E+02  0.36246124870E+02  0.41232110185E+02  0.00000000000E+00 0.  1.
</event>
<event>
 7    1  0.3568207E-015  0.9000773E+02  0.7816164E-02  0.1186339E+00
        -11   -1    0    0    0    0  0.00000000000E+00  0.00000000000E+00  0.45593999997E+02  0.45594000000E+02  0.51100000000E-03 0.  1.
         11   -1    0    0    0    0 -0.00000000000E+00 -0.00000000000E+00 -0.45593999997E+02  0.45594000000E+02  0.51100000000E-03 0. -1.
    9900012    2    1    2    0    0 -0.10638526685E+01  0.45420392715E+00  0.23441846398E+00  0.90007730656E+02  0.89999991901E+02 0.  0.
         12    1    1    2    0    0  0.10638526685E+01 -0.45420392715E+00 -0.23441846398E+00  0.11802693438E+01  0.00000000000E+00 0. -1.
         11    1    3    3    0    0  0.44937575201E+01 -0.22805338215E+01  0.75830803974E+01  0.91048228832E+01  0.51100000000E-03 0. -1.
        -11    1    3    3    0    0 -0.15373177522E+02  0.36161466476E+02  0.11957899363E+02  0.41072832898E+02  0.51100000000E-03 0.  1.
         12    1    3    3    0    0  0.98155673329E+01 -0.33426728727E+02 -0.19306561297E+02  0.39830074875E+02  0.00000000000E+00 0. -1.
</event>
<event>
 7    1  0.3568207E-015  0.9000781E+02  0.7816164E-02  0.1186339E+00
        -11   -1    0    0    0    0  0.00000000000E+00  0.00000000000E+00  0.45593999997E+02  0.45594000000E+02  0.51100000000E-03 0.  1.
         11   -1    0    0    0    0 -0.00000000000E+00 -0.00000000000E+00 -0.45593999997E+02  0.45594000000E+02  0.51100000000E-03 0. -1.
    9900012    2    1    2    0    0  0.92993366059E+00 -0.92289837414E-02  0.72663496187E+00  0.90007805035E+02  0.90000067262E+02 0.  0.
         12    1    1    2    0    0 -0.92993366059E+00  0.92289837414E-02 -0.72663496187E+00  0.11801949648E+01  0.00000000000E+00 0. -1.
         11    1    3    3    0    0 -0.36554568636E+01  0.47443610606E+01 -0.92881717804E+01  0.11051762848E+02  0.51100000000E-03 0. -1.
        -11    1    3    3    0    0  0.19135076791E+02  0.26943682379E+02 -0.14741419564E+02  0.36185945268E+02  0.51100000000E-03 0.  1.
         12    1    3    3    0    0 -0.14549686267E+02 -0.31697272423E+02  0.24756226307E+02  0.42770096919E+02  0.00000000000E+00 0. -1.
</event>
<event>
 7    1  0.3568207E-015  0.9000769E+02  0.7816164E-02  0.1186339E+00
        -11   -1    0    0    0    0  0.00000000000E+00  0.00000000000E+00  0.45593999997E+02  0.45594000000E+02  0.51100000000E-03 0. -1.
         11   -1    0    0    0    0 -0.00000000000E+00 -0.00000000000E+00 -0.45593999997E+02  0.45594000000E+02  0.51100000000E-03 0.  1.
    9900012    2    1    2    0    0  0.88208276925E+00 -0.26116066246E+00 -0.73949942808E+00  0.90007688894E+02  0.89999949587E+02 0.  0.
         12    1    1    2    0    0 -0.88208276925E+00  0.26116066246E+00  0.73949942808E+00  0.11803111063E+01  0.00000000000E+00 0. -1.
         11    1    3    3    0    0  0.95302545287E+01  0.13862494572E+00 -0.39412927763E+00  0.95394080742E+01  0.51100000000E-03 0. -1.
        -11    1    3    3    0    0 -0.28373361081E+02  0.31792403786E+02  0.18239164218E+01  0.42651274645E+02  0.51100000000E-03 0.  1.
         12    1    3    3    0    0  0.19725189321E+02 -0.32192189394E+02 -0.21692865722E+01  0.37817006174E+02  0.00000000000E+00 0. -1.
</event>
<event>
 7    1  0.3568207E-015  0.9000775E+02  0.7816164E-02  0.1186339E+00
        -11   -1    0    0    0    0  0.00000000000E+00  0.00000000000E+00  0.45593999997E+02  0.45594000000E+02  0.51100000000E-03 0.  1.
         11   -1    0    0    0    0 -0.00000000000E+00 -0.00000000000E+00 -0.45593999997E+02  0.45594000000E+02  0.51100000000E-03 0. -1.
    9900012    2    1    2    0    0 -0.17152202604E+00 -0.28530119153E+00  0.11323337765E+01  0.90007747334E+02  0.90000008798E+02 0.  0.
         12    1    1    2    0    0  0.17152202604E+00  0.28530119153E+00 -0.11323337765E+01  0.11802526665E+01  0.00000000000E+00 0. -1.
         11    1    3    3    0    0 -0.44617633767E+01 -0.26778857163E+01 -0.90696616699E+01  0.10456441431E+02  0.51100000000E-03 0. -1.
        -11    1    3    3    0    0  0.10675415238E+02  0.37575356600E+02  0.17909873349E+02  0.42972496760E+02  0.51100000000E-03 0.  1.
         12    1    3    3    0    0 -0.63851738875E+01 -0.35182772076E+02 -0.77078779021E+01  0.36578809142E+02  0.00000000000E+00 0. -1.
</event>
<event>
 7    1  0.3568207E-015  0.9000778E+02  0.7816164E-02  0.1186339E+00
        -11   -1    0    0    0    0  0.00000000000E+00  0.00000000000E+00  0.45593999997E+02  0.45594000000E+02  0.51100000000E-03 0. -1.
         11   -1    0    0    0    0 -0.00000000000E+00 -0.00000000000E+00 -0.45593999997E+02  0.45594000000E+02  0.51100000000E-03 0.  1.
    9900012    2    1    2    0    0  0.40015289057E+00  0.30397736633E+00 -0.10678887877E+01  0.90007783478E+02  0.90000045420E+02 0.  0.
         12    1    1    2    0    0 -0.40015289057E+00 -0.30397736633E+00  0.10678887877E+01  0.11802165217E+01  0.00000000000E+00 0. -1.
         11    1    3    3    0    0 -0.79589828837E+01 -0.18605439687E+02  0.24511430995E+02  0.31785500534E+02  0.51100000000E-03 0. -1.
        -11    1    3    3    0    0 -0.86474699366E+01 -0.42570456896E+01  0.90498928453E+01  0.13221260722E+02  0.51100000000E-03 0.  1.
        -12    1    3    3    0    0  0.17006605711E+02  0.23166462743E+02 -0.34629212628E+02  0.45001022223E+02  0.00000000000E+00 0.  1.
</event>
<event>
 7    1  0.3568207E-015  0.9000778E+02  0.7816164E-02  0.1186339E+00
        -11   -1    0    0    0    0  0.00000000000E+00  0.00000000000E+00  0.45593999997E+02  0.45594000000E+02  0.51100000000E-03 0. -1.
         11   -1    0    0    0    0 -0.00000000000E+00 -0.00000000000E+00 -0.45593999997E+02  0.45594000000E+02  0.51100000000E-03 0.  1.
    9900012    2    1    2    0    0  0.40060871485E+00 -0.68681219998E+00 -0.87219119594E+00  0.90007781451E+02  0.90000043366E+02 0.  0.
         12    1    1    2    0    0 -0.40060871485E+00  0.68681219998E+00  0.87219119594E+00  0.11802185487E+01  0.00000000000E+00 0. -1.
         11    1    3    3    0    0  0.20494119504E+02 -0.30968984716E+02  0.13984948984E+00  0.37136323280E+02  0.51100000000E-03 0. -1.
        -11    1    3    3    0    0 -0.13676909059E+02 -0.60244225435E+01  0.44648350660E+01  0.15597636385E+02  0.51100000000E-03 0.  1.
        -12    1    3    3    0    0 -0.64166017310E+01  0.36306595059E+02 -0.54768757518E+01  0.37273821787E+02  0.00000000000E+00 0.  1.
</event>
<event>
 7    1  0.3568207E-015  0.9000772E+02  0.7816164E-02  0.1186339E+00
        -11   -1    0    0    0    0  0.00000000000E+00  0.00000000000E+00  0.45593999997E+02  0.45594000000E+02  0.51100000000E-03 0. -1.
         11   -1    0    0    0    0 -0.00000000000E+00 -0.00000000000E+00 -0.45593999997E+02  0.45594000000E+02  0.51100000000E-03 0.  1.
    9900012    2    1    2    0    0  0.31660086883E+00 -0.10668268031E+00 -0.11320094873E+01  0.90007719193E+02  0.89999980286E+02 0.  0.
         12    1    1    2    0    0 -0.31660086883E+00  0.10668268031E+00  0.11320094873E+01  0.11802808072E+01  0.00000000000E+00 0. -1.
         11    1    3    3    0    0 -0.84758388927E+00 -0.63273226228E+01  0.50665157199E+01  0.81500301732E+01  0.51100000000E-03 0. -1.
        -11    1    3    3    0    0  0.11533004465E+02 -0.12086339094E+02  0.33215275664E+02  0.37179891371E+02  0.51100000000E-03 0.  1.
         12    1    3    3    0    0 -0.10368819706E+02  0.18306979037E+02 -0.39413800871E+02  0.44677797648E+02  0.00000000000E+00 0. -1.
</event>
<event>
 7    1  0.3568207E-015  0.9000790E+02  0.7816164E-02  0.1186339E+00
        -11   -1    0    0    0    0  0.00000000000E+00  0.00000000000E+00  0.45593999997E+02  0.45594000000E+02  0.51100000000E-03 0.  1.
         11   -1    0    0    0    0 -0.00000000000E+00 -0.00000000000E+00 -0.45593999997E+02  0.45594000000E+02  0.51100000000E-03 0. -1.
    9900012    2    1    2    0    0  0.10824747505E+01  0.39883876762E+00  0.24863456161E+00  0.90007896999E+02  0.90000160439E+02 0.  0.
         12    1    1    2    0    0 -0.10824747505E+01 -0.39883876762E+00 -0.24863456161E+00  0.11801030011E+01  0.00000000000E+00 0. -1.
         11    1    3    3    0    0 -0.19744757883E+01 -0.31085467674E+01 -0.87623289141E+01  0.95047370244E+01  0.51100000000E-03 0. -1.
        -11    1    3    3    0    0 -0.19630626674E+02 -0.27387733123E+02 -0.13214684028E+02  0.36194990032E+02  0.51100000000E-03 0.  1.
         12    1    3    3    0    0  0.22687577213E+02  0.30895118658E+02  0.22225647503E+02  0.44308169942E+02  0.00000000000E+00 0. -1.
</event>
<event>
 7    1  0.3568207E-015  0.9000778E+02  0.7816164E-02  0.1186339E+00
        -11   -1    0    0    0    0  0.00000000000E+00  0.00000000000E+00  0.45593999997E+02  0.45594000000E+02  0.51100000000E-03 0. -1.
         11   -1    0    0    0    0 -0.00000000000E+00 -0.00000000000E+00 -0.45593999997E+02  0.45594000000E+02  0.51100000000E-03 0.  1.
    9900012    2    1    2    0    0 -0.57849317045E+00  0.30931597729E+00 -0.98111703102E+00  0.90007779109E+02  0.90000040994E+02 0.  0.
         12    1    1    2    0    0  0.57849317045E+00 -0.30931597729E+00  0.98111703102E+00  0.11802208906E+01  0.00000000000E+00 0. -1.
         11    1    3    3    0    0  0.10301556039E+02  0.17779034658E+02 -0.22260603455E+02  0.30294398766E+02  0.51100000000E-03 0. -1.
        -11    1    3    3    0    0  0.10547854203E+02  0.14034784120E+02  0.47977735546E+01  0.18200302880E+02  0.51100000000E-03 0.  1.
        -12    1    3    3    0    0 -0.21427903413E+02 -0.31504502800E+02  0.16481712869E+02  0.41513077463E+02  0.00000000000E+00 0.  1.
</event>
<event>
 7    1  0.3568207E-015  0.9000816E+02  0.7816164E-02  0.1186338E+00
        -11   -1    0    0    0    0  0.00000000000E+00  0.00000000000E+00  0.45593999997E+02  0.45594000000E+02  0.51100000000E-03 0. -1.
         11   -1    0    0    0    0 -0.00000000000E+00 -0.00000000000E+00 -0.45593999997E+02  0.45594000000E+02  0.51100000000E-03 0.  1.
    9900012    2    1    2    0    0  0.44834365138E+00 -0.28888507541E+00 -0.10524029243E+01  0.90008161650E+02  0.90000428583E+02 0.  0.
         12    1    1    2    0    0 -0.44834365138E+00  0.28888507541E+00  0.10524029243E+01  0.11798383498E+01  0.00000000000E+00 0. -1.
         11    1    3    3    0    0  0.17718205383E+01  0.11414694755E+01  0.61198821397E+01  0.64726546523E+01  0.51100000000E-03 0. -1.
        -11    1    3    3    0    0  0.20230686765E+02 -0.28464293217E+02 -0.26579968703E+02  0.43886118670E+02  0.51100000000E-03 0.  1.
         12    1    3    3    0    0 -0.21554163652E+02  0.27033938666E+02  0.19407683639E+02  0.39649388328E+02  0.00000000000E+00 0. -1.
</event>
<event>
 7    1  0.3568207E-015  0.9000774E+02  0.7816164E-02  0.1186339E+00
        -11   -1    0    0    0    0  0.00000000000E+00  0.00000000000E+00  0.45593999997E+02  0.45594000000E+02  0.51100000000E-03 0. -1.
         11   -1    0    0    0    0 -0.00000000000E+00 -0.00000000000E+00 -0.45593999997E+02  0.45594000000E+02  0.51100000000E-03 0.  1.
    9900012    2    1    2    0    0 -0.10712878288E+01 -0.22321067708E+00 -0.44219390980E+00  0.90007738981E+02  0.90000000336E+02 0.  0.
         12    1    1    2    0    0  0.10712878288E+01  0.22321067708E+00  0.44219390980E+00  0.11802610187E+01  0.00000000000E+00 0. -1.
         11    1    3    3    0    0 -0.74106907407E+01  0.33970856976E+01 -0.86815877537E+00  0.81983064356E+01  0.51100000000E-03 0. -1.
        -11    1    3    3    0    0  0.63497169225E+01 -0.33315186481E+01 -0.40375319196E+02  0.41007125258E+02  0.51100000000E-03 0.  1.
         12    1    3    3    0    0 -0.10314010585E-01 -0.28877772652E+00  0.40801284061E+02  0.40802307288E+02  0.00000000000E+00 0. -1.
</event>
<event>
 7    1  0.3568207E-015  0.9000758E+02  0.7816164E-02  0.1186339E+00
        -11   -1    0    0    0    0  0.00000000000E+00  0.00000000000E+00  0.45593999997E+02  0.45594000000E+02  0.51100000000E-03 0.  1.
         11   -1    0    0    0    0 -0.00000000000E+00 -0.00000000000E+00 -0.45593999997E+02  0.45594000000E+02  0.51100000000E-03 0. -1.
    9900012    2    1    2    0    0  0.77218931246E+00 -0.66998669265E+00  0.59010569040E+00  0.90007583451E+02  0.89999842753E+02 0.  0.
         12    1    1    2    0    0 -0.77218931246E+00  0.66998669265E+00 -0.59010569040E+00  0.11804165487E+01  0.00000000000E+00 0. -1.
         11    1    3    3    0    0 -0.92172811017E+01 -0.39790909808E+01  0.63026686047E+00  0.10059258050E+02  0.51100000000E-03 0. -1.
        -11    1    3    3    0    0  0.10057012371E+01  0.16702736745E+02  0.36420272974E+02  0.40080283601E+02  0.51100000000E-03 0.  1.
         12    1    3    3    0    0  0.89837691771E+01 -0.13393632457E+02 -0.36460434144E+02  0.39868041800E+02  0.00000000000E+00 0. -1.
</event>
<event>
 7    1  0.3568207E-015  0.9000769E+02  0.7816164E-02  0.1186339E+00
        -11   -1    0    0    0    0  0.00000000000E+00  0.00000000000E+00  0.45593999997E+02  0.45594000000E+02  0.51100000000E-03 0. -1.
         11   -1    0    0    0    0 -0.00000000000E+00 -0.00000000000E+00 -0.45593999997E+02  0.45594000000E+02  0.51100000000E-03 0.  1.
    9900012    2    1    2    0    0 -0.79355368723E+00 -0.60573120778E+00 -0.62967934793E+00  0.90007689095E+02  0.89999949791E+02 0.  0.
         12    1    1    2    0    0  0.79355368723E+00  0.60573120778E+00  0.62967934793E+00  0.11803109047E+01  0.00000000000E+00 0. -1.
         11    1    3    3    0    0  0.39841768776E+01 -0.50119433593E+01  0.80104025762E+01  0.10254744820E+02  0.51100000000E-03 0. -1.
        -11    1    3    3    0    0  0.16156316817E+02 -0.30953142158E+02  0.73124435849E+01  0.35673455314E+02  0.51100000000E-03 0.  1.
         12    1    3    3    0    0 -0.20934047382E+02  0.35359354310E+02 -0.15952525509E+02  0.44079488962E+02  0.00000000000E+00 0. -1.
</event>
<event>
 7    1  0.3568207E-015  0.9000782E+02  0.7816164E-02  0.1186339E+00
        -11   -1    0    0    0    0  0.00000000000E+00  0.00000000000E+00  0.45593999997E+02  0.45594000000E+02  0.51100000000E-03 0.  1.
         11   -1    0    0    0    0 -0.00000000000E+00 -0.00000000000E+00 -0.45593999997E+02  0.45594000000E+02  0.51100000000E-03 0. -1.
    9900012    2    1    2    0    0 -0.30326926662E+00 -0.90637499779E+00  0.69233782969E+00  0.90007822236E+02  0.90000084689E+02 0.  0.
         12    1    1    2    0    0  0.30326926662E+00  0.90637499779E+00 -0.69233782969E+00  0.11801777642E+01  0.00000000000E+00 0. -1.
         11    1    3    3    0    0 -0.82171858570E+01  0.30597313355E+02 -0.21817897432E+02  0.38467367684E+02  0.51100000000E-03 0. -1.
        -11    1    3    3    0    0 -0.10128638586E+02 -0.13636487544E+00  0.39552241969E+01  0.10874360381E+02  0.51100000000E-03 0.  1.
        -12    1    3    3    0    0  0.18042555177E+02 -0.31367323477E+02  0.18555011065E+02  0.40666094170E+02  0.00000000000E+00 0.  1.
</event>
<event>
 7    1  0.3568207E-015  0.9000778E+02  0.7816164E-02  0.1186339E+00
        -11   -1    0    0    0    0  0.00000000000E+00  0.00000000000E+00  0.45593999997E+02  0.45594000000E+02  0.51100000000E-03 0. -1.
         11   -1    0    0    0    0 -0.00000000000E+00 -0.00000000000E+00 -0.45593999997E+02  0.45594000000E+02  0.51100000000E-03 0.  1.
    9900012    2    1    2    0    0  0.29366426438E+00  0.63045251884E+00 -0.95352210245E+00  0.90007782444E+02  0.90000044373E+02 0.  0.
         12    1    1    2    0    0 -0.29366426438E+00 -0.63045251884E+00  0.95352210245E+00  0.11802175556E+01  0.00000000000E+00 0. -1.
         11    1    3    3    0    0 -0.96088765489E+01  0.35659278992E+02  0.21329523831E+02  0.42648133299E+02  0.51100000000E-03 0. -1.
        -11    1    3    3    0    0 -0.47874306938E+01 -0.90152035336E+01 -0.20068720428E+00  0.10209488871E+02  0.51100000000E-03 0.  1.
        -12    1    3    3    0    0  0.14689971507E+02 -0.26013622939E+02 -0.22082358730E+02  0.37150160274E+02  0.00000000000E+00 0.  1.
</event>
<event>
 7    1  0.3568207E-015  0.9000837E+02  0.7816164E-02  0.1186338E+00
        -11   -1    0    0    0    0  0.00000000000E+00  0.00000000000E+00  0.45593999997E+02  0.45594000000E+02  0.51100000000E-03 0.  1.
         11   -1    0    0    0    0 -0.00000000000E+00 -0.00000000000E+00 -0.45593999997E+02  0.45594000000E+02  0.51100000000E-03 0. -1.
    9900012    2    1    2    0    0  0.84796769614E+00 -0.28842009883E+00  0.76765947441E+00  0.90008365974E+02  0.90000635602E+02 0.  0.
         12    1    1    2    0    0 -0.84796769614E+00  0.28842009883E+00 -0.76765947441E+00  0.11796340262E+01  0.00000000000E+00 0. -1.
         11    1    3    3    0    0 -0.13808771816E+01 -0.29867622646E+02 -0.29813502779E+02  0.42223531976E+02  0.51100000000E-03 0. -1.
        -11    1    3    3    0    0  0.22358095086E+01 -0.16191180435E+01  0.10085486148E+02  0.10456453438E+02  0.51100000000E-03 0.  1.
        -12    1    3    3    0    0 -0.69646308447E-02  0.31198320591E+02  0.20495676105E+02  0.37328380560E+02  0.00000000000E+00 0.  1.
</event>
<event>
 7    1  0.3568207E-015  0.9000775E+02  0.7816164E-02  0.1186339E+00
        -11   -1    0    0    0    0  0.00000000000E+00  0.00000000000E+00  0.45593999997E+02  0.45594000000E+02  0.51100000000E-03 0.  1.
         11   -1    0    0    0    0 -0.00000000000E+00 -0.00000000000E+00 -0.45593999997E+02  0.45594000000E+02  0.51100000000E-03 0. -1.
    9900012    2    1    2    0    0 -0.28126232675E+00 -0.90911463019E+00  0.69813829901E+00  0.90007747912E+02  0.90000009384E+02 0.  0.
         12    1    1    2    0    0  0.28126232675E+00  0.90911463019E+00 -0.69813829901E+00  0.11802520882E+01  0.00000000000E+00 0. -1.
         11    1    3    3    0    0 -0.76894098573E+01  0.46035420150E+01  0.67197256212E+01  0.11201532740E+02  0.51100000000E-03 0. -1.
        -11    1    3    3    0    0 -0.70855976418E+01 -0.79023595273E+01  0.34293454600E+02  0.35898384486E+02  0.51100000000E-03 0.  1.
         12    1    3    3    0    0  0.14493745172E+02  0.23897028821E+01 -0.40315041922E+02  0.42907830686E+02  0.00000000000E+00 0. -1.
</event>
<event>
 7    1  0.3568207E-015  0.9000800E+02  0.7816164E-02  0.1186339E+00
        -11   -1    0    0    0    0  0.00000000000E+00  0.00000000000E+00  0.45593999997E+02  0.45594000000E+02  0.51100000000E-03 0. -1.
         11   -1    0    0    0    0 -0.00000000000E+00 -0.00000000000E+00 -0.45593999997E+02  0.45594000000E+02  0.51100000000E-03 0.  1.
    9900012    2    1    2    0    0 -0.10457836595E+01  0.47273031290E+00  0.27433411518E+00  0.90008001433E+02  0.90000266252E+02 0.  0.
         12    1    1    2    0    0  0.10457836595E+01 -0.47273031290E+00 -0.27433411518E+00  0.11799985670E+01  0.00000000000E+00 0. -1.
         11    1    3    3    0    0  0.31412230380E+02  0.12504414078E+01  0.17807796026E+02  0.36130450049E+02  0.51100000000E-03 0. -1.
        -11    1    3    3    0    0  0.61314952797E+01 -0.54169718645E+01  0.43572276347E+01  0.92695335086E+01  0.51100000000E-03 0.  1.
        -12    1    3    3    0    0 -0.38589509319E+02  0.46392607697E+01 -0.21890689546E+02  0.44608017875E+02  0.00000000000E+00 0.  1.
</event>
<event>
 7    1  0.3568207E-015  0.9000804E+02  0.7816164E-02  0.1186338E+00
        -11   -1    0    0    0    0  0.00000000000E+00  0.00000000000E+00  0.45593999997E+02  0.45594000000E+02  0.51100000000E-03 0. -1.
         11   -1    0    0    0    0 -0.00000000000E+00 -0.00000000000E+00 -0.45593999997E+02  0.45594000000E+02  0.51100000000E-03 0.  1.
    9900012    2    1    2    0    0 -0.40324794617E+00  0.67313519569E+00  0.88123831063E+00  0.90008042010E+02  0.90000307364E+02 0.  0.
         12    1    1    2    0    0  0.40324794617E+00 -0.67313519569E+00 -0.88123831063E+00  0.11799579899E+01  0.00000000000E+00 0. -1.
         11    1    3    3    0    0  0.83512558981E+01 -0.24540185375E+01  0.70424243993E+00  0.87327910620E+01  0.51100000000E-03 0. -1.
        -11    1    3    3    0    0 -0.47188901160E+01  0.20903324700E+02 -0.35353798022E+02  0.41341358738E+02  0.51100000000E-03 0.  1.
         12    1    3    3    0    0 -0.40356137282E+01 -0.17776170966E+02  0.35530793893E+02  0.39933892210E+02  0.00000000000E+00 0. -1.
</event>
<event>
 7    1  0.3568207E-015  0.9000763E+02  0.7816164E-02  0.1186339E+00
        -11   -1    0    0    0    0  0.00000000000E+00  0.00000000000E+00  0.45593999997E+02  0.45594000000E+02  0.51100000000E-03 0.  1.
         11   -1    0    0    0    0 -0.00000000000E+00 -0.00000000000E+00 -0.45593999997E+02  0.45594000000E+02  0.51100000000E-03 0. -1.
    9900012    2    1    2    0    0 -0.21502384137E+00 -0.11219937190E+01 -0.29691619033E+00  0.90007633793E+02  0.89999893759E+02 0.  0.
         12    1    1    2    0    0  0.21502384137E+00  0.11219937190E+01  0.29691619033E+00  0.11803662067E+01  0.00000000000E+00 0. -1.
         11    1    3    3    0    0  0.34795029644E+02 -0.97349323023E+01 -0.23246383873E+01  0.36205896464E+02  0.51100000000E-03 0. -1.
        -11    1    3    3    0    0  0.82330196203E+01  0.25732510788E+01  0.51177235826E+01  0.10029722235E+02  0.51100000000E-03 0.  1.
        -12    1    3    3    0    0 -0.43243073106E+02  0.60396875045E+01 -0.30900013856E+01  0.43772015094E+02  0.00000000000E+00 0.  1.
</event>
<event>
 7    1  0.3568207E-015  0.9000790E+02  0.7816164E-02  0.1186339E+00
        -11   -1    0    0    0    0  0.00000000000E+00  0.00000000000E+00  0.45593999997E+02  0.45594000000E+02  0.51100000000E-03 0. -1.
         11   -1    0    0    0    0 -0.00000000000E+00 -0.00000000000E+00 -0.45593999997E+02  0.45594000000E+02  0.51100000000E-03 0.  1.
    9900012    2    1    2    0    0 -0.73891351091E+00  0.65448273203E-01  0.91780496703E+00  0.90007897203E+02  0.90000160646E+02 0.  0.
         12    1    1    2    0    0  0.73891351091E+00 -0.65448273203E-01 -0.91780496703E+00  0.11801027966E+01  0.00000000000E+00 0. -1.
         11    1    3    3    0    0  0.29158214311E+01 -0.37022968295E+02  0.55817610715E+00  0.37141806052E+02  0.51100000000E-03 0. -1.
        -11    1    3    3    0    0 -0.50494463535E+01 -0.59810992690E+01  0.53570792268E+01  0.94851860839E+01  0.51100000000E-03 0.  1.
        -12    1    3    3    0    0  0.13947114115E+01  0.43069515837E+02 -0.49974503669E+01  0.43380905068E+02  0.00000000000E+00 0.  1.
</event>
<event>
 7    1  0.3568207E-015  0.9000763E+02  0.7816164E-02  0.1186339E+00
        -11   -1    0    0    0    0  0.00000000000E+00  0.00000000000E+00  0.45593999997E+02  0.45594000000E+02  0.51100000000E-03 0.  1.
         11   -1    0    0    0    0 -0.00000000000E+00 -0.00000000000E+00 -0.45593999997E+02  0.45594000000E+02  0.51100000000E-03 0. -1.
    9900012    2    1    2    0    0  0.11785747522E+01  0.63751887166E-01  0.12861060484E-01  0.90007632194E+02  0.89999892139E+02 0.  0.
         12    1    1    2    0    0 -0.11785747522E+01 -0.63751887166E-01 -0.12861060484E-01  0.11803678056E+01  0.00000000000E+00 0. -1.
         11    1    3    3    0    0  0.16643248358E+02  0.31154880746E+02 -0.13780662020E+02  0.37914785456E+02  0.51100000000E-03 0. -1.
        -11    1    3    3    0    0 -0.56516116643E+01  0.60141660240E+01 -0.46906612991E+01  0.94927978517E+01  0.51100000000E-03 0.  1.
        -12    1    3    3    0    0 -0.98130619414E+01 -0.37105294883E+02  0.18484184379E+02  0.42600048887E+02  0.00000000000E+00 0.  1.
</event>
<event>
 7    1  0.3568207E-015  0.9000777E+02  0.7816164E-02  0.1186339E+00
        -11   -1    0    0    0    0  0.00000000000E+00  0.00000000000E+00  0.45593999997E+02  0.45594000000E+02  0.51100000000E-03 0.  1.
         11   -1    0    0    0    0 -0.00000000000E+00 -0.00000000000E+00 -0.45593999997E+02  0.45594000000E+02  0.51100000000E-03 0. -1.
    9900012    2    1    2    0    0 -0.70423027415E+00 -0.13123631791E+00  0.93796519535E+00  0.90007770379E+02  0.90000032148E+02 0.  0.
         12    1    1    2    0    0  0.70423027415E+00  0.13123631791E+00 -0.93796519535E+00  0.11802296208E+01  0.00000000000E+00 0. -1.
         11    1    3    3    0    0 -0.29325867606E+00 -0.21134961008E+01  0.13304672229E+02  0.13474686260E+02  0.51100000000E-03 0. -1.
        -11    1    3    3    0    0  0.82546151174E+01 -0.18058399425E+02  0.25803955823E+02  0.32559001780E+02  0.51100000000E-03 0.  1.
         12    1    3    3    0    0 -0.86655867155E+01  0.20040659208E+02 -0.38170662857E+02  0.43974082339E+02  0.00000000000E+00 0. -1.
</event>
<event>
 7    1  0.3568207E-015  0.9000767E+02  0.7816164E-02  0.1186339E+00
        -11   -1    0    0    0    0  0.00000000000E+00  0.00000000000E+00  0.45593999997E+02  0.45594000000E+02  0.51100000000E-03 0.  1.
         11   -1    0    0    0    0 -0.00000000000E+00 -0.00000000000E+00 -0.45593999997E+02  0.45594000000E+02  0.51100000000E-03 0. -1.
    9900012    2    1    2    0    0 -0.93796936972E+00 -0.53830257038E+00  0.47288254513E+00  0.90007672038E+02  0.89999932509E+02 0.  0.
         12    1    1    2    0    0  0.93796936972E+00  0.53830257038E+00 -0.47288254513E+00  0.11803279618E+01  0.00000000000E+00 0. -1.
         11    1    3    3    0    0  0.95901886033E+01 -0.48628963987E+01  0.39228704936E+01  0.11445889743E+02  0.51100000000E-03 0. -1.
        -11    1    3    3    0    0  0.33074017092E+01 -0.45613019367E+01 -0.38993795596E+02  0.39398736993E+02  0.51100000000E-03 0.  1.
         12    1    3    3    0    0 -0.13835559682E+02  0.88858957650E+01  0.35543807648E+02  0.39163045302E+02  0.00000000000E+00 0. -1.
</event>
<event>
 7    1  0.3568207E-015  0.9000769E+02  0.7816164E-02  0.1186339E+00
        -11   -1    0    0    0    0  0.00000000000E+00  0.00000000000E+00  0.45593999997E+02  0.45594000000E+02  0.51100000000E-03 0.  1.
         11   -1    0    0    0    0 -0.00000000000E+00 -0.00000000000E+00 -0.45593999997E+02  0.45594000000E+02  0.51100000000E-03 0. -1.
    9900012    2    1    2    0    0  0.78641734551E+00 -0.60559648598E+00  0.63869209288E+00  0.90007692017E+02  0.89999952752E+02 0.  0.
         12    1    1    2    0    0 -0.78641734551E+00  0.60559648598E+00 -0.63869209288E+00  0.11803079830E+01  0.00000000000E+00 0. -1.
         11    1    3    3    0    0 -0.30670253411E+02 -0.15002942711E+02  0.12461498755E+02  0.36346137151E+02  0.51100000000E-03 0. -1.
        -11    1    3    3    0    0 -0.87534253731E+01 -0.44357681479E+00 -0.54708961668E+01  0.10331985350E+02  0.51100000000E-03 0.  1.
        -12    1    3    3    0    0  0.40210096130E+02  0.14840923040E+02 -0.63519104955E+01  0.43329569516E+02  0.00000000000E+00 0.  1.
</event>
<event>
 7    1  0.3568207E-015  0.9000782E+02  0.7816164E-02  0.1186339E+00
        -11   -1    0    0    0    0  0.00000000000E+00  0.00000000000E+00  0.45593999997E+02  0.45594000000E+02  0.51100000000E-03 0.  1.
         11   -1    0    0    0    0 -0.00000000000E+00 -0.00000000000E+00 -0.45593999997E+02  0.45594000000E+02  0.51100000000E-03 0. -1.
    9900012    2    1    2    0    0 -0.56892580199E+00 -0.82365756629E+00  0.62509518464E+00  0.90007816817E+02  0.90000079199E+02 0.  0.
         12    1    1    2    0    0  0.56892580199E+00  0.82365756629E+00 -0.62509518464E+00  0.11801831826E+01  0.00000000000E+00 0. -1.
         11    1    3    3    0    0  0.31686724689E+01  0.75860887608E+01  0.56013061862E+00  0.82403261145E+01  0.51100000000E-03 0. -1.
        -11    1    3    3    0    0  0.13545116035E+02 -0.26255200688E+02  0.30512322750E+02  0.42471255826E+02  0.51100000000E-03 0.  1.
         12    1    3    3    0    0 -0.17282714306E+02  0.17845454361E+02 -0.30447358184E+02  0.39296234877E+02  0.00000000000E+00 0. -1.
</event>
<event>
 7    1  0.3568207E-015  0.9000777E+02  0.7816164E-02  0.1186339E+00
        -11   -1    0    0    0    0  0.00000000000E+00  0.00000000000E+00  0.45593999997E+02  0.45594000000E+02  0.51100000000E-03 0. -1.
         11   -1    0    0    0    0 -0.00000000000E+00 -0.00000000000E+00 -0.45593999997E+02  0.45594000000E+02  0.51100000000E-03 0.  1.
    9900012    2    1    2    0    0 -0.11085399393E+01  0.10635874508E+00 -0.39086683414E+00  0.90007767031E+02  0.90000028756E+02 0.  0.
         12    1    1    2    0    0  0.11085399393E+01 -0.10635874508E+00  0.39086683414E+00  0.11802329693E+01  0.00000000000E+00 0. -1.
         11    1    3    3    0    0  0.22827439741E+02  0.58804411126E+01 -0.31218696121E+02  0.39118775294E+02  0.51100000000E-03 0. -1.
        -11    1    3    3    0    0 -0.39588260280E+00  0.97168968982E+01  0.87563961476E+00  0.97642999422E+01  0.51100000000E-03 0.  1.
        -12    1    3    3    0    0 -0.23540097077E+02 -0.15490979266E+02  0.29952189672E+02  0.41124691794E+02  0.00000000000E+00 0.  1.
</event>
<event>
 7    1  0.3568207E-015  0.9000776E+02  0.7816164E-02  0.1186339E+00
        -11   -1    0    0    0    0  0.00000000000E+00  0.00000000000E+00  0.45593999997E+02  0.45594000000E+02  0.51100000000E-03 0.  1.
         11   -1    0    0    0    0 -0.00000000000E+00 -0.00000000000E+00 -0.45593999997E+02  0.45594000000E+02  0.51100000000E-03 0. -1.
    9900012    2    1    2    0    0 -0.79494951042E+00 -0.60844466966E+00  0.62514870739E+00  0.90007762504E+02  0.90000024169E+02 0.  0.
         12    1    1    2    0    0  0.79494951042E+00  0.60844466966E+00 -0.62514870739E+00  0.11802374958E+01  0.00000000000E+00 0. -1.
         11    1    3    3    0    0  0.42143400338E+02  0.45711473405E+01 -0.16818792644E+01  0.42423935440E+02  0.51100000000E-03 0. -1.
        -11    1    3    3    0    0 -0.60691202890E+01  0.11001653984E+01 -0.67077205418E+01  0.91125243547E+01  0.51100000000E-03 0.  1.
        -12    1    3    3    0    0 -0.36869229560E+02 -0.62797574086E+01  0.90147485136E+01  0.38471302710E+02  0.00000000000E+00 0.  1.
</event>
<event>
 7    1  0.3568207E-015  0.9000796E+02  0.7816164E-02  0.1186339E+00
        -11   -1    0    0    0    0  0.00000000000E+00  0.00000000000E+00  0.45593999997E+02  0.45594000000E+02  0.51100000000E-03 0. -1.
         11   -1    0    0    0    0 -0.00000000000E+00 -0.00000000000E+00 -0.45593999997E+02  0.45594000000E+02  0.51100000000E-03 0.  1.
    9900012    2    1    2    0    0  0.46149564688E+00 -0.78298514380E+00 -0.75262797261E+00  0.90007960665E+02  0.90000224945E+02 0.  0.
         12    1    1    2    0    0 -0.46149564688E+00  0.78298514380E+00  0.75262797261E+00  0.11800393352E+01  0.00000000000E+00 0. -1.
         11    1    3    3    0    0 -0.64378447915E+01  0.19631893069E+02 -0.36426018046E+02  0.41877343062E+02  0.51100000000E-03 0. -1.
        -11    1    3    3    0    0  0.93953126627E+00 -0.55364587746E+01 -0.29286702944E+01  0.63334196701E+01  0.51100000000E-03 0.  1.
        -12    1    3    3    0    0  0.59598091721E+01 -0.14878419438E+02  0.38602060368E+02  0.41797197932E+02  0.00000000000E+00 0.  1.
</event>
<event>
 7    1  0.3568207E-015  0.9000774E+02  0.7816164E-02  0.1186339E+00
        -11   -1    0    0    0    0  0.00000000000E+00  0.00000000000E+00  0.45593999997E+02  0.45594000000E+02  0.51100000000E-03 0.  1.
         11   -1    0    0    0    0 -0.00000000000E+00 -0.00000000000E+00 -0.45593999997E+02  0.45594000000E+02  0.51100000000E-03 0. -1.
    9900012    2    1    2    0    0 -0.30744036725E+00 -0.25515125659E+00  0.11105831993E+01  0.90007738679E+02  0.90000000030E+02 0.  0.
         12    1    1    2    0    0  0.30744036725E+00  0.25515125659E+00 -0.11105831993E+01  0.11802613209E+01  0.00000000000E+00 0. -1.
         11    1    3    3    0    0  0.44300755561E+01 -0.19727436331E+01  0.12198191760E+02  0.13126811088E+02  0.51100000000E-03 0. -1.
        -11    1    3    3    0    0 -0.23159917568E+01  0.23492031696E+02 -0.36412312474E+02  0.43394652562E+02  0.51100000000E-03 0.  1.
         12    1    3    3    0    0 -0.24215241665E+01 -0.21774439320E+02  0.25324703914E+02  0.33486275029E+02  0.00000000000E+00 0. -1.
</event>
<event>
 7    1  0.3568207E-015  0.9000776E+02  0.7816164E-02  0.1186339E+00
        -11   -1    0    0    0    0  0.00000000000E+00  0.00000000000E+00  0.45593999997E+02  0.45594000000E+02  0.51100000000E-03 0.  1.
         11   -1    0    0    0    0 -0.00000000000E+00 -0.00000000000E+00 -0.45593999997E+02  0.45594000000E+02  0.51100000000E-03 0. -1.
    9900012    2    1    2    0    0 -0.91034773901E+00  0.62693137467E+00  0.41374372036E+00  0.90007762812E+02  0.90000024481E+02 0.  0.
         12    1    1    2    0    0  0.91034773901E+00 -0.62693137467E+00 -0.41374372036E+00  0.11802371883E+01  0.00000000000E+00 0. -1.
         11    1    3    3    0    0 -0.81923722770E+01  0.55300451130E+01  0.13252582144E+01  0.99725960548E+01  0.51100000000E-03 0. -1.
        -11    1    3    3    0    0 -0.31818208652E+02  0.12999043361E+02  0.97545825950E+01  0.35728495798E+02  0.51100000000E-03 0.  1.
         12    1    3    3    0    0  0.39100233190E+02 -0.17902157099E+02 -0.10666097089E+02  0.44306670959E+02  0.00000000000E+00 0. -1.
</event>
<event>
 7    1  0.3568207E-015  0.9000777E+02  0.7816164E-02  0.1186339E+00
        -11   -1    0    0    0    0  0.00000000000E+00  0.00000000000E+00  0.45593999997E+02  0.45594000000E+02  0.51100000000E-03 0.  1.
         11   -1    0    0    0    0 -0.00000000000E+00 -0.00000000000E+00 -0.45593999997E+02  0.45594000000E+02  0.51100000000E-03 0. -1.
    9900012    2    1    2    0    0  0.71575933835E-01  0.11757045680E+01 -0.74478044811E-01  0.90007766411E+02  0.90000028128E+02 0.  0.
         12    1    1    2    0    0 -0.71575933835E-01 -0.11757045680E+01  0.74478044811E-01  0.11802335890E+01  0.00000000000E+00 0. -1.
         11    1    3    3    0    0  0.22674595713E+02 -0.26897182488E+02  0.16507148772E+02  0.38859769394E+02  0.51100000000E-03 0. -1.
        -11    1    3    3    0    0 -0.56966015855E+01 -0.68996363373E+01 -0.90849081546E-01  0.89478771241E+01  0.51100000000E-03 0.  1.
        -12    1    3    3    0    0 -0.16906418194E+02  0.34972523393E+02 -0.16490777735E+02  0.42200119893E+02  0.00000000000E+00 0.  1.
</event>
<event>
 7    1  0.3568207E-015  0.9000780E+02  0.7816164E-02  0.1186339E+00
        -11   -1    0    0    0    0  0.00000000000E+00  0.00000000000E+00  0.45593999997E+02  0.45594000000E+02  0.51100000000E-03 0.  1.
         11   -1    0    0    0    0 -0.00000000000E+00 -0.00000000000E+00 -0.45593999997E+02  0.45594000000E+02  0.51100000000E-03 0. -1.
    9900012    2    1    2    0    0 -0.29417149669E+00  0.55876128439E+00  0.99706198413E+00  0.90007795084E+02  0.90000057180E+02 0.  0.
         12    1    1    2    0    0  0.29417149669E+00 -0.55876128439E+00 -0.99706198413E+00  0.11802049155E+01  0.00000000000E+00 0. -1.
         11    1    3    3    0    0 -0.13264157270E+00 -0.36071811210E+01 -0.85215951983E+01  0.92545628968E+01  0.51100000000E-03 0. -1.
        -11    1    3    3    0    0  0.22585261727E+01  0.23131580238E+02 -0.29349291257E+02  0.37437305489E+02  0.51100000000E-03 0.  1.
         12    1    3    3    0    0 -0.24200560967E+01 -0.18965637832E+02  0.38867948439E+02  0.43315926699E+02  0.00000000000E+00 0. -1.
</event>
<event>
 7    1  0.3568207E-015  0.9000768E+02  0.7816164E-02  0.1186339E+00
        -11   -1    0    0    0    0  0.00000000000E+00  0.00000000000E+00  0.45593999997E+02  0.45594000000E+02  0.51100000000E-03 0.  1.
         11   -1    0    0    0    0 -0.00000000000E+00 -0.00000000000E+00 -0.45593999997E+02  0.45594000000E+02  0.51100000000E-03 0. -1.
    9900012    2    1    2    0    0 -0.10184289406E+01  0.41402652703E+00  0.42957040583E+00  0.90007683854E+02  0.89999944480E+02 0.  0.
         12    1    1    2    0    0  0.10184289406E+01 -0.41402652703E+00 -0.42957040583E+00  0.11803161465E+01  0.00000000000E+00 0. -1.
         11    1    3    3    0    0  0.20437512632E+00  0.86319696702E+01  0.54109072689E+01  0.10189729501E+02  0.51100000000E-03 0. -1.
        -11    1    3    3    0    0 -0.25908398774E+02  0.22983974515E+02  0.11868187483E+02  0.36610955818E+02  0.51100000000E-03 0.  1.
         12    1    3    3    0    0  0.24685594707E+02 -0.31201917659E+02 -0.16849524346E+02  0.43206998534E+02  0.00000000000E+00 0. -1.
</event>
<event>
 7    1  0.3568207E-015  0.9000766E+02  0.7816164E-02  0.1186339E+00
        -11   -1    0    0    0    0  0.00000000000E+00  0.00000000000E+00  0.45593999997E+02  0.45594000000E+02  0.51100000000E-03 0.  1.
         11   -1    0    0    0    0 -0.00000000000E+00 -0.00000000000E+00 -0.45593999997E+02  0.45594000000E+02  0.51100000000E-03 0. -1.
    9900012    2    1    2    0    0  0.41631611312E+00 -0.11044836052E+01  0.30460246666E-02  0.90007655805E+02  0.89999916062E+02 0.  0.
         12    1    1    2    0    0 -0.41631611312E+00  0.11044836052E+01 -0.30460246666E-02  0.11803441949E+01  0.00000000000E+00 0. -1.
         11    1    3    3    0    0 -0.98667950015E+01 -0.31527397163E+02 -0.20422350688E+02  0.38838161946E+02  0.51100000000E-03 0. -1.
        -11    1    3    3    0    0  0.26100734479E+01 -0.18033343463E+01 -0.73073838139E+01  0.79663264202E+01  0.51100000000E-03 0.  1.
        -12    1    3    3    0    0  0.76730376667E+01  0.32226247904E+02  0.27732780527E+02  0.43203167439E+02  0.00000000000E+00 0.  1.
</event>
<event>
 7    1  0.3568207E-015  0.9000778E+02  0.7816164E-02  0.1186339E+00
        -11   -1    0    0    0    0  0.00000000000E+00  0.00000000000E+00  0.45593999997E+02  0.45594000000E+02  0.51100000000E-03 0. -1.
         11   -1    0    0    0    0 -0.00000000000E+00 -0.00000000000E+00 -0.45593999997E+02  0.45594000000E+02  0.51100000000E-03 0.  1.
    9900012    2    1    2    0    0 -0.27477864488E+00 -0.23257014837E+00 -0.11239818620E+01  0.90007776545E+02  0.90000038395E+02 0.  0.
         12    1    1    2    0    0  0.27477864488E+00  0.23257014837E+00  0.11239818620E+01  0.11802234550E+01  0.00000000000E+00 0. -1.
         11    1    3    3    0    0  0.76439487219E+01 -0.72536938669E+01 -0.49331124940E+01  0.11635361014E+02  0.51100000000E-03 0. -1.
        -11    1    3    3    0    0  0.12428196913E+02  0.34707862287E+02  0.18209103441E+02  0.41117724054E+02  0.51100000000E-03 0.  1.
         12    1    3    3    0    0 -0.20346924279E+02 -0.27686738568E+02 -0.14399972809E+02  0.37254691477E+02  0.00000000000E+00 0. -1.
</event>
<event>
 7    1  0.3568207E-015  0.9000775E+02  0.7816164E-02  0.1186339E+00
        -11   -1    0    0    0    0  0.00000000000E+00  0.00000000000E+00  0.45593999997E+02  0.45594000000E+02  0.51100000000E-03 0.  1.
         11   -1    0    0    0    0 -0.00000000000E+00 -0.00000000000E+00 -0.45593999997E+02  0.45594000000E+02  0.51100000000E-03 0. -1.
    9900012    2    1    2    0    0  0.97615441480E+00 -0.13861618967E+00  0.64876885130E+00  0.90007748793E+02  0.90000010277E+02 0.  0.
         12    1    1    2    0    0 -0.97615441480E+00  0.13861618967E+00 -0.64876885130E+00  0.11802512072E+01  0.00000000000E+00 0. -1.
         11    1    3    3    0    0  0.16870167116E+02  0.23893542563E+01 -0.30560417403E+02  0.34989293568E+02  0.51100000000E-03 0. -1.
        -11    1    3    3    0    0  0.62058975198E+01 -0.49656713924E+01 -0.71438524236E+01  0.10686705952E+02  0.51100000000E-03 0.  1.
        -12    1    3    3    0    0 -0.22099910221E+02  0.24377009464E+01  0.38353038678E+02  0.44331749272E+02  0.00000000000E+00 0.  1.
</event>
<event>
 7    1  0.3568207E-015  0.9000778E+02  0.7816164E-02  0.1186339E+00
        -11   -1    0    0    0    0  0.00000000000E+00  0.00000000000E+00  0.45593999997E+02  0.45594000000E+02  0.51100000000E-03 0.  1.
         11   -1    0    0    0    0 -0.00000000000E+00 -0.00000000000E+00 -0.45593999997E+02  0.45594000000E+02  0.51100000000E-03 0. -1.
    9900012    2    1    2    0    0  0.37047554037E+00  0.17413494000E+00  0.11069549302E+01  0.90007777851E+02  0.90000039719E+02 0.  0.
         12    1    1    2    0    0 -0.37047554037E+00 -0.17413494000E+00 -0.11069549302E+01  0.11802221489E+01  0.00000000000E+00 0. -1.
         11    1    3    3    0    0  0.91103881806E+01 -0.46054187962E+00 -0.71771434141E+00  0.91502123342E+01  0.51100000000E-03 0. -1.
        -11    1    3    3    0    0  0.25603348891E+02  0.24928325745E+02 -0.10097425367E+02  0.37133689531E+02  0.51100000000E-03 0.  1.
         12    1    3    3    0    0 -0.34343261531E+02 -0.24293648925E+02  0.11922094639E+02  0.43723875986E+02  0.00000000000E+00 0. -1.
</event>
<event>
 7    1  0.3568207E-015  0.9000787E+02  0.7816164E-02  0.1186339E+00
        -11   -1    0    0    0    0  0.00000000000E+00  0.00000000000E+00  0.45593999997E+02  0.45594000000E+02  0.51100000000E-03 0.  1.
         11   -1    0    0    0    0 -0.00000000000E+00 -0.00000000000E+00 -0.45593999997E+02  0.45594000000E+02  0.51100000000E-03 0. -1.
    9900012    2    1    2    0    0  0.59071419425E+00 -0.10209608788E+01 -0.37544527438E-01  0.90007866971E+02  0.90000130015E+02 0.  0.
         12    1    1    2    0    0 -0.59071419425E+00  0.10209608788E+01  0.37544527438E-01  0.11801330293E+01  0.00000000000E+00 0. -1.
         11    1    3    3    0    0 -0.19559127922E+01  0.65762390007E+01  0.40206229762E+01  0.79522275888E+01  0.51100000000E-03 0. -1.
        -11    1    3    3    0    0  0.27918539799E+02  0.24783690345E+02 -0.13765085032E+02  0.39788864495E+02  0.51100000000E-03 0.  1.
         12    1    3    3    0    0 -0.25371912812E+02 -0.32380890224E+02  0.97069175281E+01  0.42266774887E+02  0.00000000000E+00 0. -1.
</event>
<event>
 7    1  0.3568207E-015  0.9000777E+02  0.7816164E-02  0.1186339E+00
        -11   -1    0    0    0    0  0.00000000000E+00  0.00000000000E+00  0.45593999997E+02  0.45594000000E+02  0.51100000000E-03 0. -1.
         11   -1    0    0    0    0 -0.00000000000E+00 -0.00000000000E+00 -0.45593999997E+02  0.45594000000E+02  0.51100000000E-03 0.  1.
    9900012    2    1    2    0    0  0.30786398351E+00  0.11161700222E+01  0.22872935461E+00  0.90007774230E+02  0.90000036050E+02 0.  0.
         12    1    1    2    0    0 -0.30786398351E+00 -0.11161700222E+01 -0.22872935461E+00  0.11802257701E+01  0.00000000000E+00 0. -1.
         11    1    3    3    0    0 -0.77281083851E+01 -0.31747056610E+02  0.14279837278E+02  0.35658281163E+02  0.51100000000E-03 0. -1.
        -11    1    3    3    0    0  0.56893723087E+01 -0.88506848673E+01 -0.95325828469E+00  0.10564671387E+02  0.51100000000E-03 0.  1.
        -12    1    3    3    0    0  0.23466000600E+01  0.41713911499E+02 -0.13097849638E+02  0.43784821680E+02  0.00000000000E+00 0.  1.
</event>
<event>
 7    1  0.3568207E-015  0.9000777E+02  0.7816164E-02  0.1186339E+00
        -11   -1    0    0    0    0  0.00000000000E+00  0.00000000000E+00  0.45593999997E+02  0.45594000000E+02  0.51100000000E-03 0.  1.
         11   -1    0    0    0    0 -0.00000000000E+00 -0.00000000000E+00 -0.45593999997E+02  0.45594000000E+02  0.51100000000E-03 0. -1.
    9900012    2    1    2    0    0  0.40336674855E+00 -0.11042894756E+01  0.10387032037E+00  0.90007767386E+02  0.90000029115E+02 0.  0.
         12    1    1    2    0    0 -0.40336674855E+00  0.11042894756E+01 -0.10387032037E+00  0.11802326141E+01  0.00000000000E+00 0. -1.
         11    1    3    3    0    0  0.19544730268E+01  0.19815703489E+01  0.97009409946E+01  0.10092316003E+02  0.51100000000E-03 0. -1.
        -11    1    3    3    0    0 -0.55996352157E+01 -0.38809249888E+02  0.77935983609E+01  0.39978168631E+02  0.51100000000E-03 0.  1.
         12    1    3    3    0    0  0.40485289375E+01  0.35723390063E+02 -0.17390669035E+02  0.39937282752E+02  0.00000000000E+00 0. -1.
</event>
<event>
 7    1  0.3568207E-015  0.9000775E+02  0.7816164E-02  0.1186339E+00
        -11   -1    0    0    0    0  0.00000000000E+00  0.00000000000E+00  0.45593999997E+02  0.45594000000E+02  0.51100000000E-03 0.  1.
         11   -1    0    0    0    0 -0.00000000000E+00 -0.00000000000E+00 -0.45593999997E+02  0.45594000000E+02  0.51100000000E-03 0. -1.
    9900012    2    1    2    0    0  0.46005724371E+00 -0.10027552421E+01  0.41930313710E+00  0.90007751779E+02  0.90000013302E+02 0.  0.
         12    1    1    2    0    0 -0.46005724371E+00  0.10027552421E+01 -0.41930313710E+00  0.11802482212E+01  0.00000000000E+00 0. -1.
         11    1    3    3    0    0  0.28601238730E+00 -0.79005879708E+01 -0.36845481608E+01  0.87222123787E+01  0.51100000000E-03 0. -1.
        -11    1    3    3    0    0 -0.24862100425E+02  0.66067787283E+01  0.33778728198E+02  0.42459110231E+02  0.51100000000E-03 0.  1.
         12    1    3    3    0    0  0.25036145282E+02  0.29105400041E+00 -0.29674876900E+02  0.38826429169E+02  0.00000000000E+00 0. -1.
</event>
<event>
 7    1  0.3568207E-015  0.9000776E+02  0.7816164E-02  0.1186339E+00
        -11   -1    0    0    0    0  0.00000000000E+00  0.00000000000E+00  0.45593999997E+02  0.45594000000E+02  0.51100000000E-03 0. -1.
         11   -1    0    0    0    0 -0.00000000000E+00 -0.00000000000E+00 -0.45593999997E+02  0.45594000000E+02  0.51100000000E-03 0.  1.
    9900012    2    1    2    0    0 -0.11666254498E+01 -0.12253253903E+00 -0.13015311638E+00  0.90007758924E+02  0.90000020542E+02 0.  0.
         12    1    1    2    0    0  0.11666254498E+01  0.12253253903E+00  0.13015311638E+00  0.11802410757E+01  0.00000000000E+00 0. -1.
         11    1    3    3    0    0  0.88090052794E+00  0.18079970010E+01 -0.10035196069E+02  0.10234744711E+02  0.51100000000E-03 0. -1.
        -11    1    3    3    0    0  0.32210709569E+02  0.78162597381E+01  0.24565191285E+02  0.41256179542E+02  0.51100000000E-03 0.  1.
         12    1    3    3    0    0 -0.34258235547E+02 -0.97467892782E+01 -0.14660148333E+02  0.38516834672E+02  0.00000000000E+00 0. -1.
</event>
<event>
 7    1  0.3568207E-015  0.9000782E+02  0.7816164E-02  0.1186339E+00
        -11   -1    0    0    0    0  0.00000000000E+00  0.00000000000E+00  0.45593999997E+02  0.45594000000E+02  0.51100000000E-03 0. -1.
         11   -1    0    0    0    0 -0.00000000000E+00 -0.00000000000E+00 -0.45593999997E+02  0.45594000000E+02  0.51100000000E-03 0.  1.
    9900012    2    1    2    0    0  0.11743499282E+01  0.18385464943E-01 -0.11575946475E+00  0.90007815255E+02  0.90000077616E+02 0.  0.
         12    1    1    2    0    0 -0.11743499282E+01 -0.18385464943E-01  0.11575946475E+00  0.11801847452E+01  0.00000000000E+00 0. -1.
         11    1    3    3    0    0 -0.23746856744E+01 -0.83347502803E+01  0.88827003836E+01  0.12410058850E+02  0.51100000000E-03 0. -1.
        -11    1    3    3    0    0 -0.33291938803E+02  0.14211960150E+02 -0.16110821755E+02  0.39621857332E+02  0.51100000000E-03 0.  1.
         12    1    3    3    0    0  0.36840974405E+02 -0.58588244045E+01  0.71123619068E+01  0.37975899073E+02  0.00000000000E+00 0. -1.
</event>
<event>
 7    1  0.3568207E-015  0.9000763E+02  0.7816164E-02  0.1186339E+00
        -11   -1    0    0    0    0  0.00000000000E+00  0.00000000000E+00  0.45593999997E+02  0.45594000000E+02  0.51100000000E-03 0.  1.
         11   -1    0    0    0    0 -0.00000000000E+00 -0.00000000000E+00 -0.45593999997E+02  0.45594000000E+02  0.51100000000E-03 0. -1.
    9900012    2    1    2    0    0 -0.45962114758E-01 -0.13591774509E+00  0.11716161989E+01  0.90007631131E+02  0.89999891062E+02 0.  0.
         12    1    1    2    0    0  0.45962114758E-01  0.13591774509E+00 -0.11716161989E+01  0.11803688691E+01  0.00000000000E+00 0. -1.
         11    1    3    3    0    0 -0.83836702944E+01  0.27372776773E+01 -0.74839003584E+01  0.11566649538E+02  0.51100000000E-03 0. -1.
        -11    1    3    3    0    0  0.16086124242E+01 -0.27201168609E+02 -0.24586796831E+02  0.36701522943E+02  0.51100000000E-03 0.  1.
         12    1    3    3    0    0  0.67290957554E+01  0.24327973187E+02  0.33242313388E+02  0.41739458651E+02  0.00000000000E+00 0. -1.
</event>
<event>
 7    1  0.3568207E-015  0.9000743E+02  0.7816164E-02  0.1186340E+00
        -11   -1    0    0    0    0  0.00000000000E+00  0.00000000000E+00  0.45593999997E+02  0.45594000000E+02  0.51100000000E-03 0. -1.
         11   -1    0    0    0    0 -0.00000000000E+00 -0.00000000000E+00 -0.45593999997E+02  0.45594000000E+02  0.51100000000E-03 0.  1.
    9900012    2    1    2    0    0  0.43408523061E+00  0.49477375250E+00 -0.98006067126E+00  0.90007428116E+02  0.89999685367E+02 0.  0.
         12    1    1    2    0    0 -0.43408523061E+00 -0.49477375250E+00  0.98006067126E+00  0.11805718839E+01  0.00000000000E+00 0. -1.
         11    1    3    3    0    0  0.10161848064E+02 -0.33859603231E+01 -0.70549486941E+01  0.12825762539E+02  0.51100000000E-03 0. -1.
        -11    1    3    3    0    0 -0.33635202984E+02  0.12306867392E+01 -0.22001228583E+02  0.40210639501E+02  0.51100000000E-03 0.  1.
         12    1    3    3    0    0  0.23907440151E+02  0.26500473364E+01  0.28076116606E+02  0.36971026076E+02  0.00000000000E+00 0. -1.
</event>
<event>
 7    1  0.3568207E-015  0.9000772E+02  0.7816164E-02  0.1186339E+00
        -11   -1    0    0    0    0  0.00000000000E+00  0.00000000000E+00  0.45593999997E+02  0.45594000000E+02  0.51100000000E-03 0. -1.
         11   -1    0    0    0    0 -0.00000000000E+00 -0.00000000000E+00 -0.45593999997E+02  0.45594000000E+02  0.51100000000E-03 0.  1.
    9900012    2    1    2    0    0  0.98800050473E+00  0.63164090004E+00  0.13398709890E+00  0.90007717082E+02  0.89999978147E+02 0.  0.
         12    1    1    2    0    0 -0.98800050473E+00 -0.63164090004E+00 -0.13398709890E+00  0.11802829180E+01  0.00000000000E+00 0. -1.
         11    1    3    3    0    0  0.10963605227E+02  0.20311817550E+02  0.27858723503E+02  0.36178433454E+02  0.51100000000E-03 0. -1.
        -11    1    3    3    0    0  0.11456409672E+00  0.11217699145E+01  0.97399617751E+01  0.98050164872E+01  0.51100000000E-03 0.  1.
        -12    1    3    3    0    0 -0.10090168819E+02 -0.20801946564E+02 -0.37464698179E+02  0.44024267141E+02  0.00000000000E+00 0.  1.
</event>
<event>
 7    1  0.3568207E-015  0.9000767E+02  0.7816164E-02  0.1186339E+00
        -11   -1    0    0    0    0  0.00000000000E+00  0.00000000000E+00  0.45593999997E+02  0.45594000000E+02  0.51100000000E-03 0.  1.
         11   -1    0    0    0    0 -0.00000000000E+00 -0.00000000000E+00 -0.45593999997E+02  0.45594000000E+02  0.51100000000E-03 0. -1.
    9900012    2    1    2    0    0 -0.49442335311E+00  0.45483249342E+00  0.97048445770E+00  0.90007674989E+02  0.89999935499E+02 0.  0.
         12    1    1    2    0    0  0.49442335311E+00 -0.45483249342E+00 -0.97048445770E+00  0.11803250111E+01  0.00000000000E+00 0. -1.
         11    1    3    3    0    0 -0.24495202697E+02  0.29753618152E+02  0.34021907733E+00  0.38540997620E+02  0.51100000000E-03 0. -1.
        -11    1    3    3    0    0  0.51950652114E+01 -0.49689538931E+01  0.15666266032E+02  0.17236910888E+02  0.51100000000E-03 0.  1.
        -12    1    3    3    0    0  0.18805714132E+02 -0.24329831765E+02 -0.15036000651E+02  0.34229766481E+02  0.00000000000E+00 0.  1.
</event>
<event>
 7    1  0.3568207E-015  0.9000771E+02  0.7816164E-02  0.1186339E+00
        -11   -1    0    0    0    0  0.00000000000E+00  0.00000000000E+00  0.45593999997E+02  0.45594000000E+02  0.51100000000E-03 0.  1.
         11   -1    0    0    0    0 -0.00000000000E+00 -0.00000000000E+00 -0.45593999997E+02  0.45594000000E+02  0.51100000000E-03 0. -1.
    9900012    2    1    2    0    0  0.73346880253E+00  0.83415917832E+00  0.39911828112E+00  0.90007706214E+02  0.89999967136E+02 0.  0.
         12    1    1    2    0    0 -0.73346880253E+00 -0.83415917832E+00 -0.39911828112E+00  0.11802937861E+01  0.00000000000E+00 0. -1.
         11    1    3    3    0    0  0.24370295409E+01 -0.26026592397E+01  0.70229178792E+01  0.78761871423E+01  0.51100000000E-03 0. -1.
        -11    1    3    3    0    0  0.14706090556E+01  0.16467479572E+02  0.34833977880E+02  0.38558353047E+02  0.51100000000E-03 0.  1.
         12    1    3    3    0    0 -0.31741697940E+01 -0.13030661154E+02 -0.41457777478E+02  0.43573166025E+02  0.00000000000E+00 0. -1.
</event>
<event>
 7    1  0.3568207E-015  0.9000758E+02  0.7816164E-02  0.1186339E+00
        -11   -1    0    0    0    0  0.00000000000E+00  0.00000000000E+00  0.45593999997E+02  0.45594000000E+02  0.51100000000E-03 0.  1.
         11   -1    0    0    0    0 -0.00000000000E+00 -0.00000000000E+00 -0.45593999997E+02  0.45594000000E+02  0.51100000000E-03 0. -1.
    9900012    2    1    2    0    0  0.61081274983E+00 -0.35711278380E+00  0.94486758815E+00  0.90007577823E+02  0.89999837051E+02 0.  0.
         12    1    1    2    0    0 -0.61081274983E+00  0.35711278380E+00 -0.94486758815E+00  0.11804221765E+01  0.00000000000E+00 0. -1.
         11    1    3    3    0    0  0.65326876798E+01  0.17133504515E+02 -0.58393015000E+01  0.19243971201E+02  0.51100000000E-03 0. -1.
        -11    1    3    3    0    0 -0.33559236337E+02 -0.24506548845E+02  0.75710347837E+01  0.42238771854E+02  0.51100000000E-03 0.  1.
         12    1    3    3    0    0  0.27637361407E+02  0.70159315454E+01 -0.78686569551E+00  0.28524834769E+02  0.00000000000E+00 0. -1.
</event>
<event>
 7    1  0.3568207E-015  0.9000689E+02  0.7816164E-02  0.1186341E+00
        -11   -1    0    0    0    0  0.00000000000E+00  0.00000000000E+00  0.45593999997E+02  0.45594000000E+02  0.51100000000E-03 0.  1.
         11   -1    0    0    0    0 -0.00000000000E+00 -0.00000000000E+00 -0.45593999997E+02  0.45594000000E+02  0.51100000000E-03 0. -1.
    9900012    2    1    2    0    0 -0.36948811440E+00 -0.11206474012E+01  0.51355528203E-01  0.90006894816E+02  0.89999145024E+02 0.  0.
         12    1    1    2    0    0  0.36948811440E+00  0.11206474012E+01 -0.51355528203E-01  0.11811051836E+01  0.00000000000E+00 0. -1.
         11    1    3    3    0    0  0.67986357290E+01 -0.74240988076E+01 -0.16088380490E+02  0.18978268570E+02  0.51100000000E-03 0. -1.
        -11    1    3    3    0    0 -0.16667031948E+02 -0.23162595843E+02  0.25931019783E+02  0.38557925092E+02  0.51100000000E-03 0.  1.
         12    1    3    3    0    0  0.94989081042E+01  0.29466047249E+02 -0.97912837650E+01  0.32470701154E+02  0.00000000000E+00 0. -1.
</event>
<event>
 7    1  0.3568207E-015  0.9000752E+02  0.7816164E-02  0.1186339E+00
        -11   -1    0    0    0    0  0.00000000000E+00  0.00000000000E+00  0.45593999997E+02  0.45594000000E+02  0.51100000000E-03 0.  1.
         11   -1    0    0    0    0 -0.00000000000E+00 -0.00000000000E+00 -0.45593999997E+02  0.45594000000E+02  0.51100000000E-03 0. -1.
    9900012    2    1    2    0    0  0.62820779195E+00 -0.99481833144E+00 -0.95988886233E-01  0.90007524499E+02  0.89999783022E+02 0.  0.
         12    1    1    2    0    0 -0.62820779195E+00  0.99481833144E+00  0.95988886233E-01  0.11804755011E+01  0.00000000000E+00 0. -1.
         11    1    3    3    0    0 -0.87071221646E+01 -0.40186991677E+01  0.36975709766E+01  0.10277935142E+02  0.51100000000E-03 0. -1.
        -11    1    3    3    0    0 -0.32329087038E+02  0.64723138195E+01 -0.15329876312E+02  0.36360223086E+02  0.51100000000E-03 0.  1.
         12    1    3    3    0    0  0.41664416995E+02 -0.34484329833E+01  0.11536316449E+02  0.43369366271E+02  0.00000000000E+00 0. -1.
</event>
<event>
 7    1  0.3568207E-015  0.9000778E+02  0.7816164E-02  0.1186339E+00
        -11   -1    0    0    0    0  0.00000000000E+00  0.00000000000E+00  0.45593999997E+02  0.45594000000E+02  0.51100000000E-03 0. -1.
         11   -1    0    0    0    0 -0.00000000000E+00 -0.00000000000E+00 -0.45593999997E+02  0.45594000000E+02  0.51100000000E-03 0.  1.
    9900012    2    1    2    0    0  0.44472565626E+00 -0.18748167449E+00 -0.10770262700E+01  0.90007781430E+02  0.90000043345E+02 0.  0.
         12    1    1    2    0    0 -0.44472565626E+00  0.18748167449E+00  0.10770262700E+01  0.11802185704E+01  0.00000000000E+00 0. -1.
         11    1    3    3    0    0  0.28931038458E+02  0.11190610765E+02  0.22037506276E+02  0.38051102989E+02  0.51100000000E-03 0. -1.
        -11    1    3    3    0    0 -0.16096108623E+01 -0.36513221565E+01  0.87162156896E+01  0.95862097217E+01  0.51100000000E-03 0.  1.
        -12    1    3    3    0    0 -0.26876701940E+02 -0.77267702833E+01 -0.31830748236E+02  0.42370468718E+02  0.00000000000E+00 0.  1.
</event>
<event>
 7    1  0.3568207E-015  0.9000779E+02  0.7816164E-02  0.1186339E+00
        -11   -1    0    0    0    0  0.00000000000E+00  0.00000000000E+00  0.45593999997E+02  0.45594000000E+02  0.51100000000E-03 0.  1.
         11   -1    0    0    0    0 -0.00000000000E+00 -0.00000000000E+00 -0.45593999997E+02  0.45594000000E+02  0.51100000000E-03 0. -1.
    9900012    2    1    2    0    0 -0.63669760727E+00 -0.17125487694E-01  0.99359412946E+00  0.90007785435E+02  0.90000047403E+02 0.  0.
         12    1    1    2    0    0  0.63669760727E+00  0.17125487694E-01 -0.99359412946E+00  0.11802145650E+01  0.00000000000E+00 0. -1.
         11    1    3    3    0    0 -0.22379288252E+02 -0.70338500487E+01  0.11874211557E+02  0.26292669882E+02  0.51100000000E-03 0. -1.
        -11    1    3    3    0    0  0.27057774315E+02  0.26637137656E+02  0.44854204764E+01  0.38233221817E+02  0.51100000000E-03 0.  1.
         12    1    3    3    0    0 -0.53151836703E+01 -0.19620413095E+02 -0.15366037904E+02  0.25481893736E+02  0.00000000000E+00 0. -1.
</event>
<event>
 7    1  0.3568207E-015  0.9000772E+02  0.7816164E-02  0.1186339E+00
        -11   -1    0    0    0    0  0.00000000000E+00  0.00000000000E+00  0.45593999997E+02  0.45594000000E+02  0.51100000000E-03 0. -1.
         11   -1    0    0    0    0 -0.00000000000E+00 -0.00000000000E+00 -0.45593999997E+02  0.45594000000E+02  0.51100000000E-03 0.  1.
    9900012    2    1    2    0    0  0.63451468034E+00  0.58336014279E+00 -0.80631195677E+00  0.90007721682E+02  0.89999982808E+02 0.  0.
         12    1    1    2    0    0 -0.63451468034E+00 -0.58336014279E+00  0.80631195677E+00  0.11802783178E+01  0.00000000000E+00 0. -1.
         11    1    3    3    0    0 -0.26327420575E+02  0.25808223864E+02  0.16118896469E+02  0.40237001836E+02  0.51100000000E-03 0. -1.
        -11    1    3    3    0    0  0.79489020507E+01  0.29760715899E+01  0.44664767278E+01  0.95912178862E+01  0.51100000000E-03 0.  1.
        -12    1    3    3    0    0  0.19013033205E+02 -0.28200935311E+02 -0.21391685154E+02  0.40179501960E+02  0.00000000000E+00 0.  1.
</event>
<event>
 7    1  0.3568207E-015  0.9000781E+02  0.7816164E-02  0.1186339E+00
        -11   -1    0    0    0    0  0.00000000000E+00  0.00000000000E+00  0.45593999997E+02  0.45594000000E+02  0.51100000000E-03 0. -1.
         11   -1    0    0    0    0 -0.00000000000E+00 -0.00000000000E+00 -0.45593999997E+02  0.45594000000E+02  0.51100000000E-03 0.  1.
    9900012    2    1    2    0    0 -0.90911794120E+00  0.46600220746E+00 -0.59092705377E+00  0.90007810070E+02  0.90000072363E+02 0.  0.
         12    1    1    2    0    0  0.90911794120E+00 -0.46600220746E+00  0.59092705377E+00  0.11801899302E+01  0.00000000000E+00 0. -1.
         11    1    3    3    0    0  0.97100161535E+01 -0.12964384177E+02  0.30012786590E+02  0.34104648217E+02  0.51100000000E-03 0. -1.
        -11    1    3    3    0    0 -0.51677308892E+01 -0.50116736065E+01  0.92092038875E+01  0.11688958524E+02  0.51100000000E-03 0.  1.
        -12    1    3    3    0    0 -0.54514032055E+01  0.18442059991E+02 -0.39812917532E+02  0.44214203329E+02  0.00000000000E+00 0.  1.
</event>
<event>
 7    1  0.3568207E-015  0.9000761E+02  0.7816164E-02  0.1186339E+00
        -11   -1    0    0    0    0  0.00000000000E+00  0.00000000000E+00  0.45593999997E+02  0.45594000000E+02  0.51100000000E-03 0.  1.
         11   -1    0    0    0    0 -0.00000000000E+00 -0.00000000000E+00 -0.45593999997E+02  0.45594000000E+02  0.51100000000E-03 0. -1.
    9900012    2    1    2    0    0  0.57580502405E+00 -0.96073940581E+00  0.37248097387E+00  0.90007612899E+02  0.89999872589E+02 0.  0.
         12    1    1    2    0    0 -0.57580502405E+00  0.96073940581E+00 -0.37248097387E+00  0.11803871007E+01  0.00000000000E+00 0. -1.
         11    1    3    3    0    0 -0.35250578981E+02 -0.12104561360E+02 -0.23068587489E+02  0.43832447492E+02  0.51100000000E-03 0. -1.
        -11    1    3    3    0    0  0.95123760217E+01  0.18021112018E+01 -0.55229893080E-01  0.96817329525E+01  0.51100000000E-03 0.  1.
        -12    1    3    3    0    0  0.26314007983E+02  0.93417107522E+01  0.23496298356E+02  0.36493432455E+02  0.00000000000E+00 0.  1.
</event>
<event>
 7    1  0.3568207E-015  0.9000773E+02  0.7816164E-02  0.1186339E+00
        -11   -1    0    0    0    0  0.00000000000E+00  0.00000000000E+00  0.45593999997E+02  0.45594000000E+02  0.51100000000E-03 0.  1.
         11   -1    0    0    0    0 -0.00000000000E+00 -0.00000000000E+00 -0.45593999997E+02  0.45594000000E+02  0.51100000000E-03 0. -1.
    9900012    2    1    2    0    0 -0.45419729326E+00 -0.84920312097E+00 -0.68235217204E+00  0.90007726469E+02  0.89999987658E+02 0.  0.
         12    1    1    2    0    0  0.45419729326E+00  0.84920312097E+00  0.68235217204E+00  0.11802735312E+01  0.00000000000E+00 0. -1.
         11    1    3    3    0    0  0.31544485747E+01  0.68174375012E+01  0.57598809164E+01  0.94659509995E+01  0.51100000000E-03 0. -1.
        -11    1    3    3    0    0  0.27100342598E+02 -0.13801446079E+02  0.22554329447E+02  0.37862993276E+02  0.51100000000E-03 0.  1.
         12    1    3    3    0    0 -0.30708988466E+02  0.61348054565E+01 -0.28996562535E+02  0.42678782193E+02  0.00000000000E+00 0. -1.
</event>
<event>
 7    1  0.3568207E-015  0.9000777E+02  0.7816164E-02  0.1186339E+00
        -11   -1    0    0    0    0  0.00000000000E+00  0.00000000000E+00  0.45593999997E+02  0.45594000000E+02  0.51100000000E-03 0. -1.
         11   -1    0    0    0    0 -0.00000000000E+00 -0.00000000000E+00 -0.45593999997E+02  0.45594000000E+02  0.51100000000E-03 0.  1.
    9900012    2    1    2    0    0 -0.25113443079E+00  0.10340031214E+01 -0.51060549721E+00  0.90007767425E+02  0.90000029155E+02 0.  0.
         12    1    1    2    0    0  0.25113443079E+00 -0.10340031214E+01  0.51060549721E+00  0.11802325750E+01  0.00000000000E+00 0. -1.
         11    1    3    3    0    0 -0.16576300122E+02  0.94296222618E+01  0.72918147360E+01  0.20417200204E+02  0.51100000000E-03 0. -1.
        -11    1    3    3    0    0 -0.28070706772E+01  0.20433055717E+02  0.17238277846E+02  0.26880246187E+02  0.51100000000E-03 0.  1.
         12    1    3    3    0    0  0.19132236369E+02 -0.28828674858E+02 -0.25040698080E+02  0.42710321034E+02  0.00000000000E+00 0. -1.
</event>
<event>
 7    1  0.3568207E-015  0.9000769E+02  0.7816164E-02  0.1186339E+00
        -11   -1    0    0    0    0  0.00000000000E+00  0.00000000000E+00  0.45593999997E+02  0.45594000000E+02  0.51100000000E-03 0.  1.
         11   -1    0    0    0    0 -0.00000000000E+00 -0.00000000000E+00 -0.45593999997E+02  0.45594000000E+02  0.51100000000E-03 0. -1.
    9900012    2    1    2    0    0 -0.10350400042E+01 -0.36095485126E+00  0.43765685222E+00  0.90007686594E+02  0.89999947257E+02 0.  0.
         12    1    1    2    0    0  0.10350400042E+01  0.36095485126E+00 -0.43765685222E+00  0.11803134055E+01  0.00000000000E+00 0. -1.
         11    1    3    3    0    0 -0.31260803588E+02 -0.17399021740E+02 -0.15628110206E+02  0.39041024927E+02  0.51100000000E-03 0. -1.
        -11    1    3    3    0    0 -0.68494878826E+01  0.63771911519E+01  0.51519268506E+00  0.93728050767E+01  0.51100000000E-03 0.  1.
        -12    1    3    3    0    0  0.37075251466E+02  0.10660875737E+02  0.15550574373E+02  0.41593856591E+02  0.00000000000E+00 0.  1.
</event>
<event>
 7    1  0.3568207E-015  0.9000772E+02  0.7816164E-02  0.1186339E+00
        -11   -1    0    0    0    0  0.00000000000E+00  0.00000000000E+00  0.45593999997E+02  0.45594000000E+02  0.51100000000E-03 0.  1.
         11   -1    0    0    0    0 -0.00000000000E+00 -0.00000000000E+00 -0.45593999997E+02  0.45594000000E+02  0.51100000000E-03 0. -1.
    9900012    2    1    2    0    0  0.36134696572E+00 -0.15974761210E+00  0.11121890675E+01  0.90007722299E+02  0.89999983434E+02 0.  0.
         12    1    1    2    0    0 -0.36134696572E+00  0.15974761210E+00 -0.11121890675E+01  0.11802777008E+01  0.00000000000E+00 0. -1.
         11    1    3    3    0    0 -0.64677732557E+00  0.17396039395E+01  0.62730551184E+01  0.65418471057E+01  0.51100000000E-03 0. -1.
        -11    1    3    3    0    0  0.23548957793E+02  0.13844087566E+02  0.28850568036E+02  0.39731189888E+02  0.51100000000E-03 0.  1.
         12    1    3    3    0    0 -0.22540833501E+02 -0.15743439117E+02 -0.34011434087E+02  0.43734685306E+02  0.00000000000E+00 0. -1.
</event>
<event>
 7    1  0.3568207E-015  0.9000772E+02  0.7816164E-02  0.1186339E+00
        -11   -1    0    0    0    0  0.00000000000E+00  0.00000000000E+00  0.45593999997E+02  0.45594000000E+02  0.51100000000E-03 0. -1.
         11   -1    0    0    0    0 -0.00000000000E+00 -0.00000000000E+00 -0.45593999997E+02  0.45594000000E+02  0.51100000000E-03 0.  1.
    9900012    2    1    2    0    0  0.21865550949E+00  0.17028865070E-01 -0.11597287766E+01  0.90007715691E+02  0.89999976738E+02 0.  0.
         12    1    1    2    0    0 -0.21865550949E+00 -0.17028865070E-01  0.11597287766E+01  0.11802843086E+01  0.00000000000E+00 0. -1.
         11    1    3    3    0    0  0.33998633583E+02 -0.15446377833E+01 -0.14470931780E+02  0.36982439863E+02  0.51100000000E-03 0. -1.
        -11    1    3    3    0    0  0.54396518646E+01  0.32222939796E+01 -0.64887788022E+01  0.90596490828E+01  0.51100000000E-03 0.  1.
        -12    1    3    3    0    0 -0.39219629938E+02 -0.16606273312E+01  0.19799981806E+02  0.43965626745E+02  0.00000000000E+00 0.  1.
</event>
<event>
 7    1  0.3568207E-015  0.9000776E+02  0.7816164E-02  0.1186339E+00
        -11   -1    0    0    0    0  0.00000000000E+00  0.00000000000E+00  0.45593999997E+02  0.45594000000E+02  0.51100000000E-03 0.  1.
         11   -1    0    0    0    0 -0.00000000000E+00 -0.00000000000E+00 -0.45593999997E+02  0.45594000000E+02  0.51100000000E-03 0. -1.
    9900012    2    1    2    0    0  0.32950203202E-01  0.46188666321E+00  0.10856031957E+01  0.90007763031E+02  0.90000024703E+02 0.  0.
         12    1    1    2    0    0 -0.32950203202E-01 -0.46188666321E+00 -0.10856031957E+01  0.11802369694E+01  0.00000000000E+00 0. -1.
         11    1    3    3    0    0 -0.22767252298E+02 -0.26997934992E+02 -0.13006586254E+02  0.37635190412E+02  0.51100000000E-03 0. -1.
        -11    1    3    3    0    0  0.47343184494E+01  0.68628925873E+00 -0.10657374910E+02  0.11681797994E+02  0.51100000000E-03 0.  1.
        -12    1    3    3    0    0  0.18065884052E+02  0.26773532397E+02  0.24749564360E+02  0.40690774625E+02  0.00000000000E+00 0.  1.
</event>
<event>
 7    1  0.3568207E-015  0.9000772E+02  0.7816164E-02  0.1186339E+00
        -11   -1    0    0    0    0  0.00000000000E+00  0.00000000000E+00  0.45593999997E+02  0.45594000000E+02  0.51100000000E-03 0.  1.
         11   -1    0    0    0    0 -0.00000000000E+00 -0.00000000000E+00 -0.45593999997E+02  0.45594000000E+02  0.51100000000E-03 0. -1.
    9900012    2    1    2    0    0  0.11344515124E+01  0.10432391025E+00  0.30854281267E+00  0.90007719364E+02  0.89999980460E+02 0.  0.
         12    1    1    2    0    0 -0.11344515124E+01 -0.10432391025E+00 -0.30854281267E+00  0.11802806359E+01  0.00000000000E+00 0. -1.
         11    1    3    3    0    0 -0.79159629101E+01 -0.35859033020E+01 -0.28786279953E+01  0.91546529525E+01  0.51100000000E-03 0. -1.
        -11    1    3    3    0    0 -0.25695738913E+02 -0.24795821120E+02 -0.10433663636E+01  0.35723834577E+02  0.51100000000E-03 0.  1.
         12    1    3    3    0    0  0.34746153335E+02  0.28486048332E+02  0.42305371716E+01  0.45129231834E+02  0.00000000000E+00 0. -1.
</event>
<event>
 7    1  0.3568207E-015  0.9000777E+02  0.7816164E-02  0.1186339E+00
        -11   -1    0    0    0    0  0.00000000000E+00  0.00000000000E+00  0.45593999997E+02  0.45594000000E+02  0.51100000000E-03 0.  1.
         11   -1    0    0    0    0 -0.00000000000E+00 -0.00000000000E+00 -0.45593999997E+02  0.45594000000E+02  0.51100000000E-03 0. -1.
    9900012    2    1    2    0    0  0.85681279641E+00 -0.56695098885E+00  0.58084713250E+00  0.90007769098E+02  0.90000030850E+02 0.  0.
         12    1    1    2    0    0 -0.85681279641E+00  0.56695098885E+00 -0.58084713250E+00  0.11802309025E+01  0.00000000000E+00 0. -1.
         11    1    3    3    0    0 -0.19336965451E+01  0.63144357537E+01 -0.36989521206E+00  0.66142349479E+01  0.51100000000E-03 0. -1.
        -11    1    3    3    0    0  0.23912788794E+02  0.31103289734E+02  0.58072840885E+01  0.39660567935E+02  0.51100000000E-03 0.  1.
         12    1    3    3    0    0 -0.21122279452E+02 -0.37984676476E+02 -0.48565417440E+01  0.43732966215E+02  0.00000000000E+00 0. -1.
</event>
<event>
 7    1  0.3568207E-015  0.9000763E+02  0.7816164E-02  0.1186339E+00
        -11   -1    0    0    0    0  0.00000000000E+00  0.00000000000E+00  0.45593999997E+02  0.45594000000E+02  0.51100000000E-03 0. -1.
         11   -1    0    0    0    0 -0.00000000000E+00 -0.00000000000E+00 -0.45593999997E+02  0.45594000000E+02  0.51100000000E-03 0.  1.
    9900012    2    1    2    0    0 -0.10997407822E+01 -0.39577172295E+00 -0.16498111511E+00  0.90007625562E+02  0.89999885420E+02 0.  0.
         12    1    1    2    0    0  0.10997407822E+01  0.39577172295E+00  0.16498111511E+00  0.11803744376E+01  0.00000000000E+00 0. -1.
         11    1    3    3    0    0 -0.14857356988E+02  0.27859936394E+02  0.99803114950E+01  0.33113799697E+02  0.51100000000E-03 0. -1.
        -11    1    3    3    0    0  0.78840958560E+00  0.12495932602E+02  0.13956990221E+01  0.12598329147E+02  0.51100000000E-03 0.  1.
        -12    1    3    3    0    0  0.12969206620E+02 -0.40751640720E+02 -0.11540991632E+02  0.44295496719E+02  0.00000000000E+00 0.  1.
</event>
<event>
 7    1  0.3568207E-015  0.9000800E+02  0.7816164E-02  0.1186339E+00
        -11   -1    0    0    0    0  0.00000000000E+00  0.00000000000E+00  0.45593999997E+02  0.45594000000E+02  0.51100000000E-03 0.  1.
         11   -1    0    0    0    0 -0.00000000000E+00 -0.00000000000E+00 -0.45593999997E+02  0.45594000000E+02  0.51100000000E-03 0. -1.
    9900012    2    1    2    0    0 -0.91542433986E+00 -0.52831104543E+00 -0.52467551713E+00  0.90008000559E+02  0.90000265366E+02 0.  0.
         12    1    1    2    0    0  0.91542433986E+00  0.52831104543E+00  0.52467551713E+00  0.11799994411E+01  0.00000000000E+00 0. -1.
         11    1    3    3    0    0  0.13040040451E+02 -0.60498402274E+01  0.72809736894E+01  0.16113838769E+02  0.51100000000E-03 0. -1.
        -11    1    3    3    0    0  0.12494998054E+02 -0.25083902178E+02  0.99224977927E+01  0.29728489493E+02  0.51100000000E-03 0.  1.
         12    1    3    3    0    0 -0.26450462845E+02  0.30605431360E+02 -0.17728146999E+02  0.44165672297E+02  0.00000000000E+00 0. -1.
</event>
<event>
 7    1  0.4388836E-015  0.9000766E+02  0.7816164E-02  0.1186339E+00
        -11   -1    0    0    0    0  0.00000000000E+00  0.00000000000E+00  0.45593999997E+02  0.45594000000E+02  0.51100000000E-03 0.  1.
         11   -1    0    0    0    0 -0.00000000000E+00 -0.00000000000E+00 -0.45593999997E+02  0.45594000000E+02  0.51100000000E-03 0. -1.
    9900012    2    1    2    0    0  0.61849392739E+00  0.87039793879E+00  0.50307309889E+00  0.90007656892E+02  0.89999917163E+02 0.  0.
         12    1    1    2    0    0 -0.61849392739E+00 -0.87039793879E+00 -0.50307309889E+00  0.11803431081E+01  0.00000000000E+00 0. -1.
         11    1    3    3    0    0 -0.93044898866E+01  0.21913862773E+01  0.22415525671E+01  0.98183636130E+01  0.51100000000E-03 0. -1.
        -11    1    3    3    0    0 -0.35278488855E+01 -0.34204462635E+02  0.18761313041E+02  0.39171135409E+02  0.51100000000E-03 0.  1.
         12    1    3    3    0    0  0.13450832700E+02  0.32883474297E+02 -0.20499792509E+02  0.41018157870E+02  0.00000000000E+00 0. -1.
</event>
<event>
 7    1  0.3568207E-015  0.9000784E+02  0.7816164E-02  0.1186339E+00
        -11   -1    0    0    0    0  0.00000000000E+00  0.00000000000E+00  0.45593999997E+02  0.45594000000E+02  0.51100000000E-03 0.  1.
         11   -1    0    0    0    0 -0.00000000000E+00 -0.00000000000E+00 -0.45593999997E+02  0.45594000000E+02  0.51100000000E-03 0. -1.
    9900012    2    1    2    0    0 -0.37940107925E+00 -0.99532008527E+00  0.50810951706E+00  0.90007837921E+02  0.90000100582E+02 0.  0.
         12    1    1    2    0    0  0.37940107925E+00  0.99532008527E+00 -0.50810951706E+00  0.11801620789E+01  0.00000000000E+00 0. -1.
         11    1    3    3    0    0  0.60506468923E+01 -0.36375982968E+01  0.68764769156E+01  0.98553733676E+01  0.51100000000E-03 0. -1.
        -11    1    3    3    0    0  0.20941874732E+02  0.77143152744E+00  0.28756705579E+02  0.35582374006E+02  0.51100000000E-03 0.  1.
         12    1    3    3    0    0 -0.27371922703E+02  0.18708466841E+01 -0.35125072977E+02  0.44570090548E+02  0.00000000000E+00 0. -1.
</event>
<event>
 7    1  0.3568207E-015  0.9000776E+02  0.7816164E-02  0.1186339E+00
        -11   -1    0    0    0    0  0.00000000000E+00  0.00000000000E+00  0.45593999997E+02  0.45594000000E+02  0.51100000000E-03 0.  1.
         11   -1    0    0    0    0 -0.00000000000E+00 -0.00000000000E+00 -0.45593999997E+02  0.45594000000E+02  0.51100000000E-03 0. -1.
    9900012    2    1    2    0    0 -0.58506054539E+00  0.21279307119E-01  0.10247957527E+01  0.90007764860E+02  0.90000026556E+02 0.  0.
         12    1    1    2    0    0  0.58506054539E+00 -0.21279307119E-01 -0.10247957527E+01  0.11802351399E+01  0.00000000000E+00 0. -1.
         11    1    3    3    0    0  0.16442369166E+01 -0.65320370599E+01 -0.85373170549E+01  0.10874594519E+02  0.51100000000E-03 0. -1.
        -11    1    3    3    0    0 -0.26885418402E+02  0.30001845761E+02 -0.76437745848E+01  0.41004435881E+02  0.51100000000E-03 0.  1.
         12    1    3    3    0    0  0.24656120940E+02 -0.23448529394E+02  0.17205887392E+02  0.38128734460E+02  0.00000000000E+00 0. -1.
</event>
<event>
 7    1  0.3568207E-015  0.9000721E+02  0.7816164E-02  0.1186340E+00
        -11   -1    0    0    0    0  0.00000000000E+00  0.00000000000E+00  0.45593999997E+02  0.45594000000E+02  0.51100000000E-03 0. -1.
         11   -1    0    0    0    0 -0.00000000000E+00 -0.00000000000E+00 -0.45593999997E+02  0.45594000000E+02  0.51100000000E-03 0.  1.
    9900012    2    1    2    0    0 -0.42425902034E+00 -0.76232768811E+00 -0.79569146066E+00  0.90007210382E+02  0.89999464758E+02 0.  0.
         12    1    1    2    0    0  0.42425902034E+00  0.76232768811E+00  0.79569146066E+00  0.11807896176E+01  0.00000000000E+00 0. -1.
         11    1    3    3    0    0 -0.39984628886E+02  0.22980744120E+01  0.16688628188E+02  0.43388500829E+02  0.51100000000E-03 0. -1.
        -11    1    3    3    0    0  0.35409111318E+01 -0.18008209810E+01 -0.86376563250E+01  0.95073716083E+01  0.51100000000E-03 0.  1.
        -12    1    3    3    0    0  0.36019458734E+02 -0.12595811192E+01 -0.88466633237E+01  0.37111337945E+02  0.00000000000E+00 0.  1.
</event>
<event>
 7    1  0.3568207E-015  0.9000776E+02  0.7816164E-02  0.1186339E+00
        -11   -1    0    0    0    0  0.00000000000E+00  0.00000000000E+00  0.45593999997E+02  0.45594000000E+02  0.51100000000E-03 0. -1.
         11   -1    0    0    0    0 -0.00000000000E+00 -0.00000000000E+00 -0.45593999997E+02  0.45594000000E+02  0.51100000000E-03 0.  1.
    9900012    2    1    2    0    0  0.88711802024E+00 -0.77792548672E+00  0.28689534184E-01  0.90007758697E+02  0.90000020311E+02 0.  0.
         12    1    1    2    0    0 -0.88711802024E+00  0.77792548672E+00 -0.28689534184E-01  0.11802413033E+01  0.00000000000E+00 0. -1.
         11    1    3    3    0    0  0.44157968752E+01  0.13383110590E+01 -0.93695172297E+01  0.10444050551E+02  0.51100000000E-03 0. -1.
        -11    1    3    3    0    0  0.15352738402E+02 -0.36033372002E+02  0.11092632101E+02  0.40708192805E+02  0.51100000000E-03 0.  1.
         12    1    3    3    0    0 -0.18881417257E+02  0.33917135456E+02 -0.16944253368E+01  0.38855515341E+02  0.00000000000E+00 0. -1.
</event>
<event>
 7    1  0.3568207E-015  0.9000777E+02  0.7816164E-02  0.1186339E+00
        -11   -1    0    0    0    0  0.00000000000E+00  0.00000000000E+00  0.45593999997E+02  0.45594000000E+02  0.51100000000E-03 0. -1.
         11   -1    0    0    0    0 -0.00000000000E+00 -0.00000000000E+00 -0.45593999997E+02  0.45594000000E+02  0.51100000000E-03 0.  1.
    9900012    2    1    2    0    0  0.91060536325E+00  0.21719070286E+00  0.71871913367E+00  0.90007774970E+02  0.90000036799E+02 0.  0.
         12    1    1    2    0    0 -0.91060536325E+00 -0.21719070286E+00 -0.71871913367E+00  0.11802250303E+01  0.00000000000E+00 0. -1.
         11    1    3    3    0    0 -0.82886032725E+01  0.17779381994E+01  0.36701587959E+01  0.92375361595E+01  0.51100000000E-03 0. -1.
        -11    1    3    3    0    0  0.37979837055E+02  0.68430168183E+01  0.19571471400E+02  0.43270514151E+02  0.51100000000E-03 0.  1.
         12    1    3    3    0    0 -0.28780628419E+02 -0.84037643148E+01 -0.22522911062E+02  0.37499724659E+02  0.00000000000E+00 0. -1.
</event>
<event>
 7    1  0.3568207E-015  0.9000775E+02  0.7816164E-02  0.1186339E+00
        -11   -1    0    0    0    0  0.00000000000E+00  0.00000000000E+00  0.45593999997E+02  0.45594000000E+02  0.51100000000E-03 0.  1.
         11   -1    0    0    0    0 -0.00000000000E+00 -0.00000000000E+00 -0.45593999997E+02  0.45594000000E+02  0.51100000000E-03 0. -1.
    9900012    2    1    2    0    0 -0.57539831331E+00  0.53311299780E+00  0.88187035029E+00  0.90007750873E+02  0.90000012384E+02 0.  0.
         12    1    1    2    0    0  0.57539831331E+00 -0.53311299780E+00 -0.88187035029E+00  0.11802491271E+01  0.00000000000E+00 0. -1.
         11    1    3    3    0    0 -0.85382295753E+01 -0.90006265619E+01 -0.20155804756E+02  0.23667891930E+02  0.51100000000E-03 0. -1.
        -11    1    3    3    0    0 -0.20855485171E+02  0.77363749422E+01 -0.96113376494E+01  0.24231809066E+02  0.51100000000E-03 0.  1.
        -12    1    3    3    0    0  0.28818316433E+02  0.17973646175E+01  0.30649012755E+02  0.42108049877E+02  0.00000000000E+00 0.  1.
</event>
<event>
 7    1  0.3568207E-015  0.9000775E+02  0.7816164E-02  0.1186339E+00
        -11   -1    0    0    0    0  0.00000000000E+00  0.00000000000E+00  0.45593999997E+02  0.45594000000E+02  0.51100000000E-03 0. -1.
         11   -1    0    0    0    0 -0.00000000000E+00 -0.00000000000E+00 -0.45593999997E+02  0.45594000000E+02  0.51100000000E-03 0.  1.
    9900012    2    1    2    0    0 -0.65528580436E+00 -0.29967962036E+00 -0.93476181881E+00  0.90007751290E+02  0.90000012807E+02 0.  0.
         12    1    1    2    0    0  0.65528580436E+00  0.29967962036E+00  0.93476181881E+00  0.11802487103E+01  0.00000000000E+00 0. -1.
         11    1    3    3    0    0  0.18555007561E+01  0.62591661803E+01 -0.83537269633E+01  0.10602112939E+02  0.51100000000E-03 0. -1.
        -11    1    3    3    0    0 -0.39617837192E+02 -0.10738419375E+02  0.90312372057E+01  0.42029155597E+02  0.51100000000E-03 0.  1.
         12    1    3    3    0    0  0.37107050632E+02  0.41795735745E+01 -0.16122720612E+01  0.37376482754E+02  0.00000000000E+00 0. -1.
</event>
<event>
 7    1  0.3568207E-015  0.9000771E+02  0.7816164E-02  0.1186339E+00
        -11   -1    0    0    0    0  0.00000000000E+00  0.00000000000E+00  0.45593999997E+02  0.45594000000E+02  0.51100000000E-03 0. -1.
         11   -1    0    0    0    0 -0.00000000000E+00 -0.00000000000E+00 -0.45593999997E+02  0.45594000000E+02  0.51100000000E-03 0.  1.
    9900012    2    1    2    0    0 -0.96592594891E+00 -0.66793203778E+00 -0.11810868489E+00  0.90007705203E+02  0.89999966112E+02 0.  0.
         12    1    1    2    0    0  0.96592594891E+00  0.66793203778E+00  0.11810868489E+00  0.11802947968E+01  0.00000000000E+00 0. -1.
         11    1    3    3    0    0  0.59602631116E+01 -0.84582479085E+01  0.40117479286E+02  0.41430409587E+02  0.51100000000E-03 0. -1.
        -11    1    3    3    0    0  0.82424118913E+01  0.34163068551E+00 -0.54013517034E+01  0.98604597152E+01  0.51100000000E-03 0.  1.
        -12    1    3    3    0    0 -0.15168600952E+02  0.74486851852E+01 -0.34834236268E+02  0.38716835901E+02  0.00000000000E+00 0.  1.
</event>
<event>
 7    1  0.3568207E-015  0.9000776E+02  0.7816164E-02  0.1186339E+00
        -11   -1    0    0    0    0  0.00000000000E+00  0.00000000000E+00  0.45593999997E+02  0.45594000000E+02  0.51100000000E-03 0. -1.
         11   -1    0    0    0    0 -0.00000000000E+00 -0.00000000000E+00 -0.45593999997E+02  0.45594000000E+02  0.51100000000E-03 0.  1.
    9900012    2    1    2    0    0  0.30265641748E+00  0.75261702280E+00 -0.85728227183E+00  0.90007760116E+02  0.90000021750E+02 0.  0.
         12    1    1    2    0    0 -0.30265641748E+00 -0.75261702280E+00  0.85728227183E+00  0.11802398839E+01  0.00000000000E+00 0. -1.
         11    1    3    3    0    0  0.24259658254E+02  0.14518451402E+02  0.26603726207E+02  0.38821059982E+02  0.51100000000E-03 0. -1.
        -11    1    3    3    0    0 -0.59041267051E+01 -0.45341889533E+01  0.76292918686E+01  0.10659440712E+02  0.51100000000E-03 0.  1.
        -12    1    3    3    0    0 -0.18052875132E+02 -0.92316454262E+01 -0.35090300348E+02  0.40527259422E+02  0.00000000000E+00 0.  1.
</event>
<event>
 7    1  0.3568207E-015  0.9000771E+02  0.7816164E-02  0.1186339E+00
        -11   -1    0    0    0    0  0.00000000000E+00  0.00000000000E+00  0.45593999997E+02  0.45594000000E+02  0.51100000000E-03 0. -1.
         11   -1    0    0    0    0 -0.00000000000E+00 -0.00000000000E+00 -0.45593999997E+02  0.45594000000E+02  0.51100000000E-03 0.  1.
    9900012    2    1    2    0    0  0.49902100262E+00 -0.59542848109E+00 -0.88855087174E+00  0.90007712031E+02  0.89999973030E+02 0.  0.
         12    1    1    2    0    0 -0.49902100262E+00  0.59542848109E+00  0.88855087174E+00  0.11802879686E+01  0.00000000000E+00 0. -1.
         11    1    3    3    0    0  0.66692532738E+01 -0.33350564725E+01 -0.69993033908E+01  0.10227012717E+02  0.51100000000E-03 0. -1.
        -11    1    3    3    0    0  0.10563440953E+02 -0.35870628494E+02  0.11799070283E+01  0.37412303514E+02  0.51100000000E-03 0.  1.
         12    1    3    3    0    0 -0.16733673224E+02  0.38610256486E+02  0.49308454907E+01  0.42368395800E+02  0.00000000000E+00 0. -1.
</event>
<event>
 7    1  0.3568207E-015  0.9000858E+02  0.7816164E-02  0.1186337E+00
        -11   -1    0    0    0    0  0.00000000000E+00  0.00000000000E+00  0.45593999997E+02  0.45594000000E+02  0.51100000000E-03 0.  1.
         11   -1    0    0    0    0 -0.00000000000E+00 -0.00000000000E+00 -0.45593999997E+02  0.45594000000E+02  0.51100000000E-03 0. -1.
    9900012    2    1    2    0    0  0.57207584506E+00  0.10277922311E+01 -0.85978904290E-01  0.90008584884E+02  0.90000857401E+02 0.  0.
         12    1    1    2    0    0 -0.57207584506E+00 -0.10277922311E+01  0.85978904290E-01  0.11794151156E+01  0.00000000000E+00 0. -1.
         11    1    3    3    0    0  0.96516253387E-01 -0.38642447755E+01  0.91265077600E+01  0.99113494150E+01  0.51100000000E-03 0. -1.
        -11    1    3    3    0    0  0.31972699036E+02 -0.12181743805E+02  0.14471594312E+02  0.37149366185E+02  0.51100000000E-03 0.  1.
         12    1    3    3    0    0 -0.31497139444E+02  0.17073780812E+02 -0.23684080976E+02  0.42947869284E+02  0.00000000000E+00 0. -1.
</event>
<event>
 7    1  0.3568207E-015  0.9000782E+02  0.7816164E-02  0.1186339E+00
        -11   -1    0    0    0    0  0.00000000000E+00  0.00000000000E+00  0.45593999997E+02  0.45594000000E+02  0.51100000000E-03 0.  1.
         11   -1    0    0    0    0 -0.00000000000E+00 -0.00000000000E+00 -0.45593999997E+02  0.45594000000E+02  0.51100000000E-03 0. -1.
    9900012    2    1    2    0    0  0.97674945747E+00 -0.60257115314E+00  0.27510331558E+00  0.90007824873E+02  0.90000087361E+02 0.  0.
         12    1    1    2    0    0 -0.97674945747E+00  0.60257115314E+00 -0.27510331558E+00  0.11801751275E+01  0.00000000000E+00 0. -1.
         11    1    3    3    0    0  0.28434999323E+02  0.25729193211E+02  0.80928631302E+01  0.39192282451E+02  0.51100000000E-03 0. -1.
        -11    1    3    3    0    0  0.68780597545E+01 -0.12367915096E+01  0.17911665411E+01  0.72142662179E+01  0.51100000000E-03 0.  1.
        -12    1    3    3    0    0 -0.34336309620E+02 -0.25094972854E+02 -0.96089263557E+01  0.43601276204E+02  0.00000000000E+00 0.  1.
</event>
<event>
 7    1  0.3568207E-015  0.9000811E+02  0.7816164E-02  0.1186338E+00
        -11   -1    0    0    0    0  0.00000000000E+00  0.00000000000E+00  0.45593999997E+02  0.45594000000E+02  0.51100000000E-03 0. -1.
         11   -1    0    0    0    0 -0.00000000000E+00 -0.00000000000E+00 -0.45593999997E+02  0.45594000000E+02  0.51100000000E-03 0.  1.
    9900012    2    1    2    0    0  0.11642634482E+01  0.55975803430E-01 -0.18301462121E+00  0.90008111438E+02  0.90000377708E+02 0.  0.
         12    1    1    2    0    0 -0.11642634482E+01 -0.55975803430E-01  0.18301462121E+00  0.11798885621E+01  0.00000000000E+00 0. -1.
         11    1    3    3    0    0 -0.27487504593E+02 -0.27032574496E+02  0.12870357315E+02  0.40644422623E+02  0.51100000000E-03 0. -1.
        -11    1    3    3    0    0  0.71485308557E+01 -0.51801040249E+01 -0.25718909950E+01  0.91950853533E+01  0.51100000000E-03 0.  1.
        -12    1    3    3    0    0  0.21503237186E+02  0.32268654324E+02 -0.10481480941E+02  0.40168603462E+02  0.00000000000E+00 0.  1.
</event>
<event>
 7    1  0.3568207E-015  0.9000778E+02  0.7816164E-02  0.1186339E+00
        -11   -1    0    0    0    0  0.00000000000E+00  0.00000000000E+00  0.45593999997E+02  0.45594000000E+02  0.51100000000E-03 0. -1.
         11   -1    0    0    0    0 -0.00000000000E+00 -0.00000000000E+00 -0.45593999997E+02  0.45594000000E+02  0.51100000000E-03 0.  1.
    9900012    2    1    2    0    0  0.58542514722E+00 -0.65561497091E+00 -0.78762703610E+00  0.90007783943E+02  0.90000045891E+02 0.  0.
         12    1    1    2    0    0 -0.58542514722E+00  0.65561497091E+00  0.78762703610E+00  0.11802160569E+01  0.00000000000E+00 0. -1.
         11    1    3    3    0    0  0.42376519585E+01  0.95878862066E+01  0.64019681732E+01  0.12282933395E+02  0.51100000000E-03 0. -1.
        -11    1    3    3    0    0  0.29475096131E+02 -0.60916686038E+01 -0.25676043095E+02  0.39561962889E+02  0.51100000000E-03 0.  1.
         12    1    3    3    0    0 -0.33127322943E+02 -0.41518325736E+01  0.18486447886E+02  0.38162887659E+02  0.00000000000E+00 0. -1.
</event>
<event>
 7    1  0.3568207E-015  0.9000773E+02  0.7816164E-02  0.1186339E+00
        -11   -1    0    0    0    0  0.00000000000E+00  0.00000000000E+00  0.45593999997E+02  0.45594000000E+02  0.51100000000E-03 0. -1.
         11   -1    0    0    0    0 -0.00000000000E+00 -0.00000000000E+00 -0.45593999997E+02  0.45594000000E+02  0.51100000000E-03 0.  1.
    9900012    2    1    2    0    0 -0.66640193101E+00  0.15806956213E+00 -0.96122551595E+00  0.90007732228E+02  0.89999993494E+02 0.  0.
         12    1    1    2    0    0  0.66640193101E+00 -0.15806956213E+00  0.96122551595E+00  0.11802677716E+01  0.00000000000E+00 0. -1.
         11    1    3    3    0    0 -0.18841664397E+02 -0.15703236240E+02  0.26480316202E+02  0.36094419127E+02  0.51100000000E-03 0. -1.
        -11    1    3    3    0    0 -0.29530311500E+01 -0.84198380735E+01  0.31946640171E+01  0.94773384766E+01  0.51100000000E-03 0.  1.
        -12    1    3    3    0    0  0.21128293616E+02  0.24281143876E+02 -0.30636205735E+02  0.44435974625E+02  0.00000000000E+00 0.  1.
</event>
<event>
 7    1  0.3568207E-015  0.9000771E+02  0.7816164E-02  0.1186339E+00
        -11   -1    0    0    0    0  0.00000000000E+00  0.00000000000E+00  0.45593999997E+02  0.45594000000E+02  0.51100000000E-03 0. -1.
         11   -1    0    0    0    0 -0.00000000000E+00 -0.00000000000E+00 -0.45593999997E+02  0.45594000000E+02  0.51100000000E-03 0.  1.
    9900012    2    1    2    0    0  0.11229334849E+01  0.25649784534E+00 -0.25752367823E+00  0.90007708002E+02  0.89999968947E+02 0.  0.
         12    1    1    2    0    0 -0.11229334849E+01 -0.25649784534E+00  0.25752367823E+00  0.11802919982E+01  0.00000000000E+00 0. -1.
         11    1    3    3    0    0 -0.11484193676E+02 -0.34202843596E+02  0.36588510385E+01  0.36264423415E+02  0.51100000000E-03 0. -1.
        -11    1    3    3    0    0  0.36605092140E+01 -0.61507867484E+01 -0.93832089191E+01  0.11801530206E+02  0.51100000000E-03 0.  1.
        -12    1    3    3    0    0  0.89466179466E+01  0.40610128190E+02  0.54668342024E+01  0.41941754380E+02  0.00000000000E+00 0.  1.
</event>
<event>
 7    1  0.3568207E-015  0.9000776E+02  0.7816164E-02  0.1186339E+00
        -11   -1    0    0    0    0  0.00000000000E+00  0.00000000000E+00  0.45593999997E+02  0.45594000000E+02  0.51100000000E-03 0. -1.
         11   -1    0    0    0    0 -0.00000000000E+00 -0.00000000000E+00 -0.45593999997E+02  0.45594000000E+02  0.51100000000E-03 0.  1.
    9900012    2    1    2    0    0 -0.77403284289E+00  0.87722961900E+00 -0.15589760706E+00  0.90007761588E+02  0.90000023241E+02 0.  0.
         12    1    1    2    0    0  0.77403284289E+00 -0.87722961900E+00  0.15589760706E+00  0.11802384124E+01  0.00000000000E+00 0. -1.
         11    1    3    3    0    0 -0.41413928928E+01 -0.25842326989E+01  0.13805520572E+02  0.14643148305E+02  0.51100000000E-03 0. -1.
        -11    1    3    3    0    0 -0.26463948570E+02  0.25458174328E+02 -0.37073852505E+01  0.36908046815E+02  0.51100000000E-03 0.  1.
         12    1    3    3    0    0  0.29831308620E+02 -0.21996712010E+02 -0.10254032929E+02  0.38456566468E+02  0.00000000000E+00 0. -1.
</event>
<event>
 7    1  0.3568207E-015  0.9000761E+02  0.7816164E-02  0.1186339E+00
        -11   -1    0    0    0    0  0.00000000000E+00  0.00000000000E+00  0.45593999997E+02  0.45594000000E+02  0.51100000000E-03 0. -1.
         11   -1    0    0    0    0 -0.00000000000E+00 -0.00000000000E+00 -0.45593999997E+02  0.45594000000E+02  0.51100000000E-03 0.  1.
    9900012    2    1    2    0    0 -0.34264010001E+00  0.80822933945E+00 -0.78909917223E+00  0.90007612603E+02  0.89999872289E+02 0.  0.
         12    1    1    2    0    0  0.34264010001E+00 -0.80822933945E+00  0.78909917223E+00  0.11803873970E+01  0.00000000000E+00 0. -1.
         11    1    3    3    0    0  0.10959342074E+02 -0.25700631968E+01  0.11448034608E+02  0.16055214112E+02  0.51100000000E-03 0. -1.
        -11    1    3    3    0    0  0.24352092827E+02  0.19531063358E+02  0.42015308675E+01  0.31498249520E+02  0.51100000000E-03 0.  1.
         12    1    3    3    0    0 -0.35654075002E+02 -0.16152770821E+02 -0.16438664647E+02  0.42454148971E+02  0.00000000000E+00 0. -1.
</event>
<event>
 7    1  0.3568207E-015  0.9000777E+02  0.7816164E-02  0.1186339E+00
        -11   -1    0    0    0    0  0.00000000000E+00  0.00000000000E+00  0.45593999997E+02  0.45594000000E+02  0.51100000000E-03 0.  1.
         11   -1    0    0    0    0 -0.00000000000E+00 -0.00000000000E+00 -0.45593999997E+02  0.45594000000E+02  0.51100000000E-03 0. -1.
    9900012    2    1    2    0    0  0.11382580721E+01  0.24661693985E+00  0.19100257449E+00  0.90007774031E+02  0.90000035849E+02 0.  0.
         12    1    1    2    0    0 -0.11382580721E+01 -0.24661693985E+00 -0.19100257449E+00  0.11802259687E+01  0.00000000000E+00 0. -1.
         11    1    3    3    0    0 -0.14808761095E+02  0.64066323136E+00 -0.20602636833E+02  0.25380671766E+02  0.51100000000E-03 0. -1.
        -11    1    3    3    0    0 -0.19157989465E+02  0.13255754337E+02  0.52534381520E+01  0.23881838205E+02  0.51100000000E-03 0.  1.
        -12    1    3    3    0    0  0.35105008632E+02 -0.13649800628E+02  0.15540201256E+02  0.40745264060E+02  0.00000000000E+00 0.  1.
</event>
<event>
 7    1  0.6499022E-015  0.9000743E+02  0.7816164E-02  0.1186340E+00
        -11   -1    0    0    0    0  0.00000000000E+00  0.00000000000E+00  0.45593999997E+02  0.45594000000E+02  0.51100000000E-03 0. -1.
         11   -1    0    0    0    0 -0.00000000000E+00 -0.00000000000E+00 -0.45593999997E+02  0.45594000000E+02  0.51100000000E-03 0.  1.
    9900012    2    1    2    0    0 -0.28469216753E+00  0.20996643895E+00 -0.11263249943E+01  0.90007430846E+02  0.89999688132E+02 0.  0.
         12    1    1    2    0    0  0.28469216753E+00 -0.20996643895E+00  0.11263249943E+01  0.11805691545E+01  0.00000000000E+00 0. -1.
         11    1    3    3    0    0 -0.89929029667E+01  0.25526807115E+01 -0.22321251013E+01  0.96109762934E+01  0.51100000000E-03 0. -1.
        -11    1    3    3    0    0 -0.19288038745E+02  0.95950508401E+01 -0.29963443456E+02  0.36903948071E+02  0.51100000000E-03 0.  1.
         12    1    3    3    0    0  0.27996249544E+02 -0.11937765113E+02  0.31069243563E+02  0.43492506481E+02  0.00000000000E+00 0. -1.
</event>
<event>
 7    1  0.3568207E-015  0.9000768E+02  0.7816164E-02  0.1186339E+00
        -11   -1    0    0    0    0  0.00000000000E+00  0.00000000000E+00  0.45593999997E+02  0.45594000000E+02  0.51100000000E-03 0.  1.
         11   -1    0    0    0    0 -0.00000000000E+00 -0.00000000000E+00 -0.45593999997E+02  0.45594000000E+02  0.51100000000E-03 0. -1.
    9900012    2    1    2    0    0  0.10364333034E+01  0.32458332462E+00  0.46216647270E+00  0.90007683866E+02  0.89999944493E+02 0.  0.
         12    1    1    2    0    0 -0.10364333034E+01 -0.32458332462E+00 -0.46216647270E+00  0.11803161337E+01  0.00000000000E+00 0. -1.
         11    1    3    3    0    0 -0.60618082291E+01 -0.27194876535E+01  0.78180375702E+01  0.10259768214E+02  0.51100000000E-03 0. -1.
        -11    1    3    3    0    0 -0.80706058028E+01 -0.30237076250E+02  0.17184210622E+02  0.35703116855E+02  0.51100000000E-03 0.  1.
         12    1    3    3    0    0  0.15168847335E+02  0.33281147228E+02 -0.24540081719E+02  0.44044798797E+02  0.00000000000E+00 0. -1.
</event>
<event>
 7    1  0.3568207E-015  0.9000771E+02  0.7816164E-02  0.1186339E+00
        -11   -1    0    0    0    0  0.00000000000E+00  0.00000000000E+00  0.45593999997E+02  0.45594000000E+02  0.51100000000E-03 0. -1.
         11   -1    0    0    0    0 -0.00000000000E+00 -0.00000000000E+00 -0.45593999997E+02  0.45594000000E+02  0.51100000000E-03 0.  1.
    9900012    2    1    2    0    0  0.93220519012E+00  0.68014821812E+00 -0.24793633154E+00  0.90007711671E+02  0.89999972665E+02 0.  0.
         12    1    1    2    0    0 -0.93220519012E+00 -0.68014821812E+00  0.24793633154E+00  0.11802883290E+01  0.00000000000E+00 0. -1.
         11    1    3    3    0    0  0.10483867616E+01  0.21341568435E+01  0.11519807058E+02  0.11762639803E+02  0.51100000000E-03 0. -1.
        -11    1    3    3    0    0  0.28138733473E+02  0.25466744810E+02 -0.96586695508E+01  0.39161630589E+02  0.51100000000E-03 0.  1.
         12    1    3    3    0    0 -0.28254915045E+02 -0.26920753435E+02 -0.21090738384E+01  0.39083441278E+02  0.00000000000E+00 0. -1.
</event>
<event>
 7    1  0.3568207E-015  0.9000773E+02  0.7816164E-02  0.1186339E+00
        -11   -1    0    0    0    0  0.00000000000E+00  0.00000000000E+00  0.45593999997E+02  0.45594000000E+02  0.51100000000E-03 0.  1.
         11   -1    0    0    0    0 -0.00000000000E+00 -0.00000000000E+00 -0.45593999997E+02  0.45594000000E+02  0.51100000000E-03 0. -1.
    9900012    2    1    2    0    0 -0.24140726548E-01  0.92669892474E+00  0.73053409052E+00  0.90007731501E+02  0.89999992757E+02 0.  0.
         12    1    1    2    0    0  0.24140726548E-01 -0.92669892474E+00 -0.73053409052E+00  0.11802684988E+01  0.00000000000E+00 0. -1.
         11    1    3    3    0    0  0.26569107344E+02 -0.64973662357E+01 -0.25225323965E+02  0.37208200742E+02  0.51100000000E-03 0. -1.
        -11    1    3    3    0    0 -0.23523124921E+01  0.17782839635E+01 -0.92360505660E+01  0.96953750951E+01  0.51100000000E-03 0.  1.
        -12    1    3    3    0    0 -0.24240935578E+02  0.56457811970E+01  0.35191908622E+02  0.43104155664E+02  0.00000000000E+00 0.  1.
</event>
<event>
 7    1  0.3568207E-015  0.9000766E+02  0.7816164E-02  0.1186339E+00
        -11   -1    0    0    0    0  0.00000000000E+00  0.00000000000E+00  0.45593999997E+02  0.45594000000E+02  0.51100000000E-03 0.  1.
         11   -1    0    0    0    0 -0.00000000000E+00 -0.00000000000E+00 -0.45593999997E+02  0.45594000000E+02  0.51100000000E-03 0. -1.
    9900012    2    1    2    0    0 -0.10259233876E+01  0.57698468913E+00 -0.88107128555E-01  0.90007664033E+02  0.89999924398E+02 0.  0.
         12    1    1    2    0    0  0.10259233876E+01 -0.57698468913E+00  0.88107128555E-01  0.11803359669E+01  0.00000000000E+00 0. -1.
         11    1    3    3    0    0  0.91987515135E+00  0.23493131514E+01 -0.96117460919E+01  0.99373590945E+01  0.51100000000E-03 0. -1.
        -11    1    3    3    0    0  0.38681097761E+02  0.31195992262E+00  0.70099500932E+01  0.39312390458E+02  0.51100000000E-03 0.  1.
         12    1    3    3    0    0 -0.40626896300E+02 -0.20842883849E+01  0.25136888702E+01  0.40757914480E+02  0.00000000000E+00 0. -1.
</event>
<event>
 7    1  0.3568207E-015  0.9000780E+02  0.7816164E-02  0.1186339E+00
        -11   -1    0    0    0    0  0.00000000000E+00  0.00000000000E+00  0.45593999997E+02  0.45594000000E+02  0.51100000000E-03 0. -1.
         11   -1    0    0    0    0 -0.00000000000E+00 -0.00000000000E+00 -0.45593999997E+02  0.45594000000E+02  0.51100000000E-03 0.  1.
    9900012    2    1    2    0    0  0.62018086876E+00 -0.97186536518E+00  0.25244817394E+00  0.90007798035E+02  0.90000060169E+02 0.  0.
         12    1    1    2    0    0 -0.62018086876E+00  0.97186536518E+00 -0.25244817394E+00  0.11802019652E+01  0.00000000000E+00 0. -1.
         11    1    3    3    0    0  0.30975077496E+02  0.10561190870E+02  0.22711814139E+02  0.39834917851E+02  0.51100000000E-03 0. -1.
        -11    1    3    3    0    0 -0.43494878557E+01 -0.56910616837E+01  0.72967816068E+01  0.10224932752E+02  0.51100000000E-03 0.  1.
        -12    1    3    3    0    0 -0.26005408772E+02 -0.58419945513E+01 -0.29756147572E+02  0.39947947432E+02  0.00000000000E+00 0.  1.
</event>
<event>
 7    1  0.3568207E-015  0.9000780E+02  0.7816164E-02  0.1186339E+00
        -11   -1    0    0    0    0  0.00000000000E+00  0.00000000000E+00  0.45593999997E+02  0.45594000000E+02  0.51100000000E-03 0.  1.
         11   -1    0    0    0    0 -0.00000000000E+00 -0.00000000000E+00 -0.45593999997E+02  0.45594000000E+02  0.51100000000E-03 0. -1.
    9900012    2    1    2    0    0  0.40175413729E+00 -0.78866321271E+00  0.78069595249E+00  0.90007795687E+02  0.90000057790E+02 0.  0.
         12    1    1    2    0    0 -0.40175413729E+00  0.78866321271E+00 -0.78069595249E+00  0.11802043129E+01  0.00000000000E+00 0. -1.
         11    1    3    3    0    0 -0.34222733733E+01  0.86871423265E+01 -0.35641523509E+01  0.99940772002E+01  0.51100000000E-03 0. -1.
        -11    1    3    3    0    0 -0.21448243606E+00  0.19387782642E+02  0.33552825860E+02  0.38752086936E+02  0.51100000000E-03 0.  1.
         12    1    3    3    0    0  0.40385099466E+01 -0.28863588181E+02 -0.29207977556E+02  0.41261631551E+02  0.00000000000E+00 0. -1.
</event>
<event>
 7    1  0.3972921E-015  0.9000775E+02  0.7816164E-02  0.1186339E+00
        -11   -1    0    0    0    0  0.00000000000E+00  0.00000000000E+00  0.45593999997E+02  0.45594000000E+02  0.51100000000E-03 0.  1.
         11   -1    0    0    0    0 -0.00000000000E+00 -0.00000000000E+00 -0.45593999997E+02  0.45594000000E+02  0.51100000000E-03 0. -1.
    9900012    2    1    2    0    0  0.94578350968E+00  0.64336422591E+00  0.29080091036E+00  0.90007750389E+02  0.90000011894E+02 0.  0.
         12    1    1    2    0    0 -0.94578350968E+00 -0.64336422591E+00 -0.29080091036E+00  0.11802496108E+01  0.00000000000E+00 0. -1.
         11    1    3    3    0    0 -0.66421953938E+00  0.95135160470E+01  0.84654901717E+00  0.95741746732E+01  0.51100000000E-03 0. -1.
        -11    1    3    3    0    0 -0.35213316375E+02 -0.17073128882E+02  0.11567144016E+02  0.40807697814E+02  0.51100000000E-03 0.  1.
         12    1    3    3    0    0  0.36823319424E+02  0.82029770607E+01 -0.12122892123E+02  0.39625877902E+02  0.00000000000E+00 0. -1.
</event>
<event>
 7    1  0.3568207E-015  0.9000774E+02  0.7816164E-02  0.1186339E+00
        -11   -1    0    0    0    0  0.00000000000E+00  0.00000000000E+00  0.45593999997E+02  0.45594000000E+02  0.51100000000E-03 0. -1.
         11   -1    0    0    0    0 -0.00000000000E+00 -0.00000000000E+00 -0.45593999997E+02  0.45594000000E+02  0.51100000000E-03 0.  1.
    9900012    2    1    2    0    0 -0.11721671579E+01 -0.13795390054E+00 -0.26573600392E-02  0.90007739780E+02  0.90000001145E+02 0.  0.
         12    1    1    2    0    0  0.11721671579E+01  0.13795390054E+00  0.26573600392E-02  0.11802602197E+01  0.00000000000E+00 0. -1.
         11    1    3    3    0    0 -0.27500872536E+01  0.37507296240E+01 -0.91020782978E+01  0.10221486302E+02  0.51100000000E-03 0. -1.
        -11    1    3    3    0    0 -0.38142980537E+02 -0.87205268994E+01  0.22612516633E+01  0.39192445866E+02  0.51100000000E-03 0.  1.
         12    1    3    3    0    0  0.39720900632E+02  0.48318433748E+01  0.68381692745E+01  0.40593807612E+02  0.00000000000E+00 0. -1.
</event>
<event>
 7    1  0.3568207E-015  0.9000768E+02  0.7816164E-02  0.1186339E+00
        -11   -1    0    0    0    0  0.00000000000E+00  0.00000000000E+00  0.45593999997E+02  0.45594000000E+02  0.51100000000E-03 0. -1.
         11   -1    0    0    0    0 -0.00000000000E+00 -0.00000000000E+00 -0.45593999997E+02  0.45594000000E+02  0.51100000000E-03 0.  1.
    9900012    2    1    2    0    0 -0.20891273872E+00 -0.11566761967E+01 -0.10774133651E+00  0.90007681165E+02  0.89999941756E+02 0.  0.
         12    1    1    2    0    0  0.20891273872E+00  0.11566761967E+01  0.10774133651E+00  0.11803188349E+01  0.00000000000E+00 0. -1.
         11    1    3    3    0    0 -0.32658438390E+02 -0.11984396613E+02  0.17531611361E+02  0.38955830853E+02  0.51100000000E-03 0. -1.
        -11    1    3    3    0    0 -0.28728131445E+01  0.84180007921E+01 -0.12402351626E+02  0.15262179360E+02  0.51100000000E-03 0.  1.
        -12    1    3    3    0    0  0.35322338795E+02  0.24097196244E+01 -0.52370010716E+01  0.35789670952E+02  0.00000000000E+00 0.  1.
</event>
<event>
 7    1  0.3568207E-015  0.9000765E+02  0.7816164E-02  0.1186339E+00
        -11   -1    0    0    0    0  0.00000000000E+00  0.00000000000E+00  0.45593999997E+02  0.45594000000E+02  0.51100000000E-03 0.  1.
         11   -1    0    0    0    0 -0.00000000000E+00 -0.00000000000E+00 -0.45593999997E+02  0.45594000000E+02  0.51100000000E-03 0. -1.
    9900012    2    1    2    0    0  0.99923989138E+00  0.13607430580E+00  0.61337392503E+00  0.90007650836E+02  0.89999911027E+02 0.  0.
         12    1    1    2    0    0 -0.99923989138E+00 -0.13607430580E+00 -0.61337392503E+00  0.11803491641E+01  0.00000000000E+00 0. -1.
         11    1    3    3    0    0  0.28931101825E+02  0.38944711267E+01 -0.23338072596E+02  0.37374338669E+02  0.51100000000E-03 0. -1.
        -11    1    3    3    0    0 -0.24293676980E+01  0.76892113556E+00 -0.97789645478E+01  0.10105504194E+02  0.51100000000E-03 0.  1.
        -12    1    3    3    0    0 -0.25502494236E+02 -0.45273179565E+01  0.33730411069E+02  0.42527807973E+02  0.00000000000E+00 0.  1.
</event>
<event>
 7    1  0.3568207E-015  0.9000764E+02  0.7816164E-02  0.1186339E+00
        -11   -1    0    0    0    0  0.00000000000E+00  0.00000000000E+00  0.45593999997E+02  0.45594000000E+02  0.51100000000E-03 0. -1.
         11   -1    0    0    0    0 -0.00000000000E+00 -0.00000000000E+00 -0.45593999997E+02  0.45594000000E+02  0.51100000000E-03 0.  1.
    9900012    2    1    2    0    0  0.98014595224E+00 -0.41724909688E+00 -0.50839406385E+00  0.90007640978E+02  0.89999901039E+02 0.  0.
         12    1    1    2    0    0 -0.98014595224E+00  0.41724909688E+00  0.50839406385E+00  0.11803590219E+01  0.00000000000E+00 0. -1.
         11    1    3    3    0    0 -0.22726120829E+02  0.27568833081E+02  0.56741398129E+01  0.36176138382E+02  0.51100000000E-03 0. -1.
        -11    1    3    3    0    0 -0.17536942181E+01  0.60095915968E+01  0.69704432715E+01  0.93689761571E+01  0.51100000000E-03 0.  1.
        -12    1    3    3    0    0  0.25459960999E+02 -0.33995673774E+02 -0.13152977148E+02  0.44462526439E+02  0.00000000000E+00 0.  1.
</event>
<event>
 7    1  0.8902647E-015  0.9000751E+02  0.7816164E-02  0.1186339E+00
        -11   -1    0    0    0    0  0.00000000000E+00  0.00000000000E+00  0.45593999997E+02  0.45594000000E+02  0.51100000000E-03 0.  1.
         11   -1    0    0    0    0 -0.00000000000E+00 -0.00000000000E+00 -0.45593999997E+02  0.45594000000E+02  0.51100000000E-03 0. -1.
    9900012    2    1    2    0    0  0.34703563164E+00 -0.73068205856E+00  0.85977699972E+00  0.90007514299E+02  0.89999772688E+02 0.  0.
         12    1    1    2    0    0 -0.34703563164E+00  0.73068205856E+00 -0.85977699972E+00  0.11804857007E+01  0.00000000000E+00 0. -1.
         11    1    3    3    0    0  0.47392807825E+01  0.45332181685E+01  0.71528289757E+01  0.97043192402E+01  0.51100000000E-03 0. -1.
        -11    1    3    3    0    0 -0.25388328302E+02 -0.52488889566E+01  0.29210446709E+02  0.39055963008E+02  0.51100000000E-03 0.  1.
         12    1    3    3    0    0  0.20996083151E+02 -0.15011270491E-01 -0.35503498685E+02  0.41247232052E+02  0.00000000000E+00 0. -1.
</event>
<event>
 7    1  0.3568207E-015  0.9000775E+02  0.7816164E-02  0.1186339E+00
        -11   -1    0    0    0    0  0.00000000000E+00  0.00000000000E+00  0.45593999997E+02  0.45594000000E+02  0.51100000000E-03 0. -1.
         11   -1    0    0    0    0 -0.00000000000E+00 -0.00000000000E+00 -0.45593999997E+02  0.45594000000E+02  0.51100000000E-03 0.  1.
    9900012    2    1    2    0    0 -0.12821962882E+00 -0.71153359994E-02 -0.11732479060E+01  0.90007745133E+02  0.90000006569E+02 0.  0.
         12    1    1    2    0    0  0.12821962882E+00  0.71153359994E-02  0.11732479060E+01  0.11802548666E+01  0.00000000000E+00 0. -1.
         11    1    3    3    0    0  0.14433108074E+02  0.36477353688E+02 -0.10229517713E+02  0.40540781611E+02  0.51100000000E-03 0. -1.
        -11    1    3    3    0    0  0.22378353681E+01 -0.37199846940E+01 -0.78349392910E+01  0.89572577954E+01  0.51100000000E-03 0.  1.
        -12    1    3    3    0    0 -0.16799163071E+02 -0.32764484330E+02  0.16891209098E+02  0.40509705727E+02  0.00000000000E+00 0.  1.
</event>
<event>
 7    1  0.3568207E-015  0.9000779E+02  0.7816164E-02  0.1186339E+00
        -11   -1    0    0    0    0  0.00000000000E+00  0.00000000000E+00  0.45593999997E+02  0.45594000000E+02  0.51100000000E-03 0.  1.
         11   -1    0    0    0    0 -0.00000000000E+00 -0.00000000000E+00 -0.45593999997E+02  0.45594000000E+02  0.51100000000E-03 0. -1.
    9900012    2    1    2    0    0 -0.20135587487E+00  0.85719409052E+00  0.78585889437E+00  0.90007788113E+02  0.90000050116E+02 0.  0.
         12    1    1    2    0    0  0.20135587487E+00 -0.85719409052E+00 -0.78585889437E+00  0.11802118873E+01  0.00000000000E+00 0. -1.
         11    1    3    3    0    0  0.23340363715E+02 -0.18185083665E+02 -0.18770979382E+02  0.35040255614E+02  0.51100000000E-03 0. -1.
        -11    1    3    3    0    0  0.24515870172E+01 -0.33560641343E+01 -0.92662386541E+01  0.10155620337E+02  0.51100000000E-03 0.  1.
        -12    1    3    3    0    0 -0.25993306608E+02  0.22398341890E+02  0.28823076931E+02  0.44811912161E+02  0.00000000000E+00 0.  1.
</event>
<event>
 7    1  0.3568207E-015  0.9000758E+02  0.7816164E-02  0.1186339E+00
        -11   -1    0    0    0    0  0.00000000000E+00  0.00000000000E+00  0.45593999997E+02  0.45594000000E+02  0.51100000000E-03 0. -1.
         11   -1    0    0    0    0 -0.00000000000E+00 -0.00000000000E+00 -0.45593999997E+02  0.45594000000E+02  0.51100000000E-03 0.  1.
    9900012    2    1    2    0    0  0.24100430417E+00 -0.10101880052E+01  0.56108751901E+00  0.90007583936E+02  0.89999843244E+02 0.  0.
         12    1    1    2    0    0 -0.24100430417E+00  0.10101880052E+01 -0.56108751901E+00  0.11804160641E+01  0.00000000000E+00 0. -1.
         11    1    3    3    0    0 -0.14981143042E+02 -0.38381128746E+02  0.11658727762E+02  0.42819056784E+02  0.51100000000E-03 0. -1.
        -11    1    3    3    0    0  0.98619850732E+01  0.20215852315E+01 -0.15831801879E+01  0.10190780942E+02  0.51100000000E-03 0.  1.
        -12    1    3    3    0    0  0.53601622726E+01  0.35349355509E+02 -0.95144600547E+01  0.36997746210E+02  0.00000000000E+00 0.  1.
</event>
<event>
 7    1  0.3568207E-015  0.9000771E+02  0.7816164E-02  0.1186339E+00
        -11   -1    0    0    0    0  0.00000000000E+00  0.00000000000E+00  0.45593999997E+02  0.45594000000E+02  0.51100000000E-03 0.  1.
         11   -1    0    0    0    0 -0.00000000000E+00 -0.00000000000E+00 -0.45593999997E+02  0.45594000000E+02  0.51100000000E-03 0. -1.
    9900012    2    1    2    0    0 -0.80140297775E+00 -0.86650898686E+00  0.26477965775E-02  0.90007706999E+02  0.89999967932E+02 0.  0.
         12    1    1    2    0    0  0.80140297775E+00  0.86650898686E+00 -0.26477965775E-02  0.11802930009E+01  0.00000000000E+00 0. -1.
         11    1    3    3    0    0  0.23869340818E+02 -0.24798823468E+02  0.12565846932E+02  0.36641882946E+02  0.51100000000E-03 0. -1.
        -11    1    3    3    0    0  0.91055071026E+01  0.23433219877E+01  0.37026700195E+01  0.10105007821E+02  0.51100000000E-03 0.  1.
        -12    1    3    3    0    0 -0.33776250899E+02  0.21588992493E+02 -0.16265869155E+02  0.43260816231E+02  0.00000000000E+00 0.  1.
</event>
<event>
 7    1  0.3568207E-015  0.9000770E+02  0.7816164E-02  0.1186339E+00
        -11   -1    0    0    0    0  0.00000000000E+00  0.00000000000E+00  0.45593999997E+02  0.45594000000E+02  0.51100000000E-03 0.  1.
         11   -1    0    0    0    0 -0.00000000000E+00 -0.00000000000E+00 -0.45593999997E+02  0.45594000000E+02  0.51100000000E-03 0. -1.
    9900012    2    1    2    0    0 -0.37803465105E+00 -0.70519593288E+00  0.86769190243E+00  0.90007703114E+02  0.89999963995E+02 0.  0.
         12    1    1    2    0    0  0.37803465105E+00  0.70519593288E+00 -0.86769190243E+00  0.11802968858E+01  0.00000000000E+00 0. -1.
         11    1    3    3    0    0 -0.23503959818E+02  0.83687030177E+01  0.29402420412E+02  0.38561297225E+02  0.51100000000E-03 0. -1.
        -11    1    3    3    0    0  0.18908372195E+01  0.69075082545E+01  0.49430385857E+01  0.87018714307E+01  0.51100000000E-03 0.  1.
        -12    1    3    3    0    0  0.21235087948E+02 -0.15981407205E+02 -0.33477767095E+02  0.42744534458E+02  0.00000000000E+00 0.  1.
</event>
<event>
 7    1  0.3568207E-015  0.9000775E+02  0.7816164E-02  0.1186339E+00
        -11   -1    0    0    0    0  0.00000000000E+00  0.00000000000E+00  0.45593999997E+02  0.45594000000E+02  0.51100000000E-03 0. -1.
         11   -1    0    0    0    0 -0.00000000000E+00 -0.00000000000E+00 -0.45593999997E+02  0.45594000000E+02  0.51100000000E-03 0.  1.
    9900012    2    1    2    0    0 -0.57654842370E+00  0.97680748015E+00 -0.32623405846E+00  0.90007750196E+02  0.90000011699E+02 0.  0.
         12    1    1    2    0    0  0.57654842370E+00 -0.97680748015E+00  0.32623405846E+00  0.11802498037E+01  0.00000000000E+00 0. -1.
         11    1    3    3    0    0  0.35681472793E+02  0.11373051749E+02  0.13234414660E+02  0.39719812921E+02  0.51100000000E-03 0. -1.
        -11    1    3    3    0    0 -0.16613594579E+00  0.78986284734E+01 -0.12944670703E+01  0.80057215896E+01  0.51100000000E-03 0.  1.
        -12    1    3    3    0    0 -0.36091885271E+02 -0.18294872743E+02 -0.12266181648E+02  0.42282215686E+02  0.00000000000E+00 0.  1.
</event>
<event>
 7    1  0.3568207E-015  0.9000780E+02  0.7816164E-02  0.1186339E+00
        -11   -1    0    0    0    0  0.00000000000E+00  0.00000000000E+00  0.45593999997E+02  0.45594000000E+02  0.51100000000E-03 0.  1.
         11   -1    0    0    0    0 -0.00000000000E+00 -0.00000000000E+00 -0.45593999997E+02  0.45594000000E+02  0.51100000000E-03 0. -1.
    9900012    2    1    2    0    0  0.58544871624E+00  0.97105141712E+00 -0.32736806770E+00  0.90007804717E+02  0.90000066939E+02 0.  0.
         12    1    1    2    0    0 -0.58544871624E+00 -0.97105141712E+00  0.32736806770E+00  0.11801952829E+01  0.00000000000E+00 0. -1.
         11    1    3    3    0    0 -0.10968465658E+02  0.11112912574E+02 -0.37684558266E+02  0.40791298052E+02  0.51100000000E-03 0. -1.
        -11    1    3    3    0    0  0.49110108328E+01 -0.42214375530E+01 -0.35276984172E+01  0.73744978675E+01  0.51100000000E-03 0.  1.
        -12    1    3    3    0    0  0.66429035413E+01 -0.59204236042E+01  0.40884888616E+02  0.41842008798E+02  0.00000000000E+00 0.  1.
</event>
<event>
 7    1  0.3568207E-015  0.9000763E+02  0.7816164E-02  0.1186339E+00
        -11   -1    0    0    0    0  0.00000000000E+00  0.00000000000E+00  0.45593999997E+02  0.45594000000E+02  0.51100000000E-03 0. -1.
         11   -1    0    0    0    0 -0.00000000000E+00 -0.00000000000E+00 -0.45593999997E+02  0.45594000000E+02  0.51100000000E-03 0.  1.
    9900012    2    1    2    0    0 -0.37377834017E+00 -0.58347668294E+00 -0.95557465606E+00  0.90007627936E+02  0.89999887824E+02 0.  0.
         12    1    1    2    0    0  0.37377834017E+00  0.58347668294E+00  0.95557465606E+00  0.11803720644E+01  0.00000000000E+00 0. -1.
         11    1    3    3    0    0 -0.29070610291E+02  0.21913186983E+02 -0.63471203973E+01  0.36953674838E+02  0.51100000000E-03 0. -1.
        -11    1    3    3    0    0 -0.23333056732E+01  0.85065977233E+01  0.20939564239E+01  0.90659348088E+01  0.51100000000E-03 0.  1.
        -12    1    3    3    0    0  0.31030137624E+02 -0.31003261389E+02  0.32975893173E+01  0.43988018289E+02  0.00000000000E+00 0.  1.
</event>
<event>
 7    1  0.3568207E-015  0.9000779E+02  0.7816164E-02  0.1186339E+00
        -11   -1    0    0    0    0  0.00000000000E+00  0.00000000000E+00  0.45593999997E+02  0.45594000000E+02  0.51100000000E-03 0.  1.
         11   -1    0    0    0    0 -0.00000000000E+00 -0.00000000000E+00 -0.45593999997E+02  0.45594000000E+02  0.51100000000E-03 0. -1.
    9900012    2    1    2    0    0 -0.21564501581E+00 -0.11570605045E+01  0.87206697909E-01  0.90007789514E+02  0.90000051535E+02 0.  0.
         12    1    1    2    0    0  0.21564501581E+00  0.11570605045E+01 -0.87206697909E-01  0.11802104864E+01  0.00000000000E+00 0. -1.
         11    1    3    3    0    0  0.38035576406E+01  0.30853977263E+01  0.70362137212E+01  0.85729244512E+01  0.51100000000E-03 0. -1.
        -11    1    3    3    0    0  0.27687971319E+02  0.22141201517E+02  0.10006694197E+02  0.36837351824E+02  0.51100000000E-03 0.  1.
         12    1    3    3    0    0 -0.31707173976E+02 -0.26383659748E+02 -0.16955701220E+02  0.44597513239E+02  0.00000000000E+00 0. -1.
</event>
<event>
 7    1  0.3568207E-015  0.9000778E+02  0.7816164E-02  0.1186339E+00
        -11   -1    0    0    0    0  0.00000000000E+00  0.00000000000E+00  0.45593999997E+02  0.45594000000E+02  0.51100000000E-03 0.  1.
         11   -1    0    0    0    0 -0.00000000000E+00 -0.00000000000E+00 -0.45593999997E+02  0.45594000000E+02  0.51100000000E-03 0. -1.
    9900012    2    1    2    0    0 -0.26643156413E+00 -0.39488846199E+00  0.10798130878E+01  0.90007780114E+02  0.90000042011E+02 0.  0.
         12    1    1    2    0    0  0.26643156413E+00  0.39488846199E+00 -0.10798130878E+01  0.11802198865E+01  0.00000000000E+00 0. -1.
         11    1    3    3    0    0 -0.66519937222E+01 -0.48152453685E+01 -0.11123545374E+01  0.82869138597E+01  0.51100000000E-03 0. -1.
        -11    1    3    3    0    0  0.32713730344E+02 -0.13920453880E+02 -0.21757480755E+02  0.41681592560E+02  0.51100000000E-03 0.  1.
         12    1    3    3    0    0 -0.26328168186E+02  0.18340810787E+02  0.23949648381E+02  0.40039273694E+02  0.00000000000E+00 0. -1.
</event>
<event>
 7    1  0.3568207E-015  0.9000763E+02  0.7816164E-02  0.1186339E+00
        -11   -1    0    0    0    0  0.00000000000E+00  0.00000000000E+00  0.45593999997E+02  0.45594000000E+02  0.51100000000E-03 0. -1.
         11   -1    0    0    0    0 -0.00000000000E+00 -0.00000000000E+00 -0.45593999997E+02  0.45594000000E+02  0.51100000000E-03 0.  1.
    9900012    2    1    2    0    0  0.68788639395E+00  0.24772245799E+00 -0.92667380275E+00  0.90007627837E+02  0.89999887724E+02 0.  0.
         12    1    1    2    0    0 -0.68788639395E+00 -0.24772245799E+00  0.92667380275E+00  0.11803721633E+01  0.00000000000E+00 0. -1.
         11    1    3    3    0    0  0.22934432838E+02  0.29915464360E+02  0.25763178819E+01  0.37783073347E+02  0.51100000000E-03 0. -1.
        -11    1    3    3    0    0  0.36379621429E+01 -0.13911510605E+01  0.10665956418E+02  0.11354853430E+02  0.51100000000E-03 0.  1.
        -12    1    3    3    0    0 -0.25884508587E+02 -0.28276590841E+02 -0.14168948103E+02  0.40869701060E+02  0.00000000000E+00 0.  1.
</event>
<event>
 7    1  0.3568207E-015  0.9000771E+02  0.7816164E-02  0.1186339E+00
        -11   -1    0    0    0    0  0.00000000000E+00  0.00000000000E+00  0.45593999997E+02  0.45594000000E+02  0.51100000000E-03 0.  1.
         11   -1    0    0    0    0 -0.00000000000E+00 -0.00000000000E+00 -0.45593999997E+02  0.45594000000E+02  0.51100000000E-03 0. -1.
    9900012    2    1    2    0    0 -0.37052422220E+00  0.31924332428E+00  0.10741879611E+01  0.90007710089E+02  0.89999971062E+02 0.  0.
         12    1    1    2    0    0  0.37052422220E+00 -0.31924332428E+00 -0.10741879611E+01  0.11802899114E+01  0.00000000000E+00 0. -1.
         11    1    3    3    0    0  0.22585646160E+02  0.95465306516E+01 -0.31278823118E+02  0.39744338413E+02  0.51100000000E-03 0. -1.
        -11    1    3    3    0    0 -0.30356514000E+00  0.89588563618E+01  0.45490412815E+01  0.10052215475E+02  0.51100000000E-03 0.  1.
        -12    1    3    3    0    0 -0.22652605242E+02 -0.18186143689E+02  0.27803969798E+02  0.40211156201E+02  0.00000000000E+00 0.  1.
</event>
<event>
 7    1  0.3568207E-015  0.9000781E+02  0.7816164E-02  0.1186339E+00
        -11   -1    0    0    0    0  0.00000000000E+00  0.00000000000E+00  0.45593999997E+02  0.45594000000E+02  0.51100000000E-03 0.  1.
         11   -1    0    0    0    0 -0.00000000000E+00 -0.00000000000E+00 -0.45593999997E+02  0.45594000000E+02  0.51100000000E-03 0. -1.
    9900012    2    1    2    0    0 -0.20251329026E+00 -0.95338583446E+00  0.66550060026E+00  0.90007810511E+02  0.90000072809E+02 0.  0.
         12    1    1    2    0    0  0.20251329026E+00  0.95338583446E+00 -0.66550060026E+00  0.11801894895E+01  0.00000000000E+00 0. -1.
         11    1    3    3    0    0  0.26824155792E+01 -0.30333152431E-01 -0.88173408373E+01  0.92163861216E+01  0.51100000000E-03 0. -1.
        -11    1    3    3    0    0 -0.98134061941E+01 -0.35767736027E+02  0.22000623683E+02  0.43123790699E+02  0.51100000000E-03 0.  1.
         12    1    3    3    0    0  0.69284773246E+01  0.34844683345E+02 -0.12517782245E+02  0.37667633689E+02  0.00000000000E+00 0. -1.
</event>
<event>
 7    1  0.3568208E-015  0.9000783E+02  0.7816164E-02  0.1186339E+00
        -11   -1    0    0    0    0  0.00000000000E+00  0.00000000000E+00  0.45593999997E+02  0.45594000000E+02  0.51100000000E-03 0. -1.
         11   -1    0    0    0    0 -0.00000000000E+00 -0.00000000000E+00 -0.45593999997E+02  0.45594000000E+02  0.51100000000E-03 0.  1.
    9900012    2    1    2    0    0 -0.11701682152E+01 -0.14574488403E+00 -0.47644116371E-01  0.90007828324E+02  0.90000090858E+02 0.  0.
         12    1    1    2    0    0  0.11701682152E+01  0.14574488403E+00  0.47644116371E-01  0.11801716760E+01  0.00000000000E+00 0. -1.
         11    1    3    3    0    0  0.40253121893E+01 -0.12017863907E+01 -0.78444867138E+01  0.88985055383E+01  0.51100000000E-03 0. -1.
        -11    1    3    3    0    0  0.31870551003E+02 -0.68141012817E+00 -0.17341237676E+02  0.36289321644E+02  0.51100000000E-03 0.  1.
         12    1    3    3    0    0 -0.37066031408E+02  0.17374516348E+01  0.25138080273E+02  0.44820001141E+02  0.00000000000E+00 0. -1.
</event>
<event>
 7    1  0.3568207E-015  0.9000765E+02  0.7816164E-02  0.1186339E+00
        -11   -1    0    0    0    0  0.00000000000E+00  0.00000000000E+00  0.45593999997E+02  0.45594000000E+02  0.51100000000E-03 0.  1.
         11   -1    0    0    0    0 -0.00000000000E+00 -0.00000000000E+00 -0.45593999997E+02  0.45594000000E+02  0.51100000000E-03 0. -1.
    9900012    2    1    2    0    0  0.63675406986E+00 -0.94633216467E+00  0.30367320319E+00  0.90007653557E+02  0.89999913784E+02 0.  0.
         12    1    1    2    0    0 -0.63675406986E+00  0.94633216467E+00 -0.30367320319E+00  0.11803464431E+01  0.00000000000E+00 0. -1.
         11    1    3    3    0    0  0.20295723015E+02  0.27987748234E+02 -0.15840645909E+02  0.38028364242E+02  0.51100000000E-03 0. -1.
        -11    1    3    3    0    0  0.82498859658E+01  0.83842399730E+00  0.61131660625E+00  0.83148831322E+01  0.51100000000E-03 0.  1.
        -12    1    3    3    0    0 -0.27908854911E+02 -0.29772504396E+02  0.15533002506E+02  0.43664406182E+02  0.00000000000E+00 0.  1.
</event>
<event>
 7    1  0.3568207E-015  0.9000798E+02  0.7816164E-02  0.1186339E+00
        -11   -1    0    0    0    0  0.00000000000E+00  0.00000000000E+00  0.45593999997E+02  0.45594000000E+02  0.51100000000E-03 0.  1.
         11   -1    0    0    0    0 -0.00000000000E+00 -0.00000000000E+00 -0.45593999997E+02  0.45594000000E+02  0.51100000000E-03 0. -1.
    9900012    2    1    2    0    0 -0.12863474214E+00 -0.62194217796E+00  0.99452905529E+00  0.90007980080E+02  0.90000244617E+02 0.  0.
         12    1    1    2    0    0  0.12863474214E+00  0.62194217796E+00 -0.99452905529E+00  0.11800199199E+01  0.00000000000E+00 0. -1.
         11    1    3    3    0    0  0.24244368971E+02 -0.99571185523E+01 -0.26842179710E+02  0.37515813313E+02  0.51100000000E-03 0. -1.
        -11    1    3    3    0    0 -0.12772443535E+01  0.64261017348E+01 -0.76372412997E+01  0.10062484364E+02  0.51100000000E-03 0.  1.
        -12    1    3    3    0    0 -0.23095759360E+02  0.29090746396E+01  0.35473950065E+02  0.42429682403E+02  0.00000000000E+00 0.  1.
</event>
<event>
 7    1  0.3568207E-015  0.9000775E+02  0.7816164E-02  0.1186339E+00
        -11   -1    0    0    0    0  0.00000000000E+00  0.00000000000E+00  0.45593999997E+02  0.45594000000E+02  0.51100000000E-03 0.  1.
         11   -1    0    0    0    0 -0.00000000000E+00 -0.00000000000E+00 -0.45593999997E+02  0.45594000000E+02  0.51100000000E-03 0. -1.
    9900012    2    1    2    0    0  0.91685113533E+00 -0.66335030704E+00 -0.33518110889E+00  0.90007747480E+02  0.90000008947E+02 0.  0.
         12    1    1    2    0    0 -0.91685113533E+00  0.66335030704E+00  0.33518110889E+00  0.11802525196E+01  0.00000000000E+00 0. -1.
         11    1    3    3    0    0 -0.72407750975E+01 -0.48755326683E+01 -0.48768955787E+01  0.99991876450E+01  0.51100000000E-03 0. -1.
        -11    1    3    3    0    0  0.47824082507E+01  0.13378111064E+02  0.40409675689E+02  0.42834415764E+02  0.51100000000E-03 0.  1.
         12    1    3    3    0    0  0.33752179822E+01 -0.91659287024E+01 -0.35867961219E+02  0.37174144071E+02  0.00000000000E+00 0. -1.
</event>
<event>
 7    1  0.3568207E-015  0.9000779E+02  0.7816164E-02  0.1186339E+00
        -11   -1    0    0    0    0  0.00000000000E+00  0.00000000000E+00  0.45593999997E+02  0.45594000000E+02  0.51100000000E-03 0.  1.
         11   -1    0    0    0    0 -0.00000000000E+00 -0.00000000000E+00 -0.45593999997E+02  0.45594000000E+02  0.51100000000E-03 0. -1.
    9900012    2    1    2    0    0 -0.45599808557E+00 -0.93890505261E+00  0.55084233680E+00  0.90007786362E+02  0.90000048342E+02 0.  0.
         12    1    1    2    0    0  0.45599808557E+00  0.93890505261E+00 -0.55084233680E+00  0.11802136382E+01  0.00000000000E+00 0. -1.
         11    1    3    3    0    0  0.16200034676E+01  0.82894239531E+01 -0.14644092057E+01  0.85722491385E+01  0.51100000000E-03 0. -1.
        -11    1    3    3    0    0 -0.15864063744E+02  0.32277585676E+02 -0.73479378342E+01  0.36708353902E+02  0.51100000000E-03 0.  1.
         12    1    3    3    0    0  0.13788062191E+02 -0.41505914682E+02  0.93631893767E+01  0.44727183321E+02  0.00000000000E+00 0. -1.
</event>
<event>
 7    1  0.3568207E-015  0.9000770E+02  0.7816164E-02  0.1186339E+00
        -11   -1    0    0    0    0  0.00000000000E+00  0.00000000000E+00  0.45593999997E+02  0.45594000000E+02  0.51100000000E-03 0. -1.
         11   -1    0    0    0    0 -0.00000000000E+00 -0.00000000000E+00 -0.45593999997E+02  0.45594000000E+02  0.51100000000E-03 0.  1.
    9900012    2    1    2    0    0  0.26339423012E+00 -0.82378314403E+00 -0.80319082791E+00  0.90007698897E+02  0.89999959722E+02 0.  0.
         12    1    1    2    0    0 -0.26339423012E+00  0.82378314403E+00  0.80319082791E+00  0.11803011035E+01  0.00000000000E+00 0. -1.
         11    1    3    3    0    0 -0.17217273669E+02  0.92261677750E+01  0.35183832548E+02  0.40242499393E+02  0.51100000000E-03 0. -1.
        -11    1    3    3    0    0 -0.23422346760E+01  0.75152056846E+01 -0.76192646906E+01  0.10955253281E+02  0.51100000000E-03 0.  1.
        -12    1    3    3    0    0  0.19822902575E+02 -0.17565156604E+02 -0.28367758685E+02  0.38809946223E+02  0.00000000000E+00 0.  1.
</event>
<event>
 7    1  0.3568207E-015  0.9000776E+02  0.7816164E-02  0.1186339E+00
        -11   -1    0    0    0    0  0.00000000000E+00  0.00000000000E+00  0.45593999997E+02  0.45594000000E+02  0.51100000000E-03 0. -1.
         11   -1    0    0    0    0 -0.00000000000E+00 -0.00000000000E+00 -0.45593999997E+02  0.45594000000E+02  0.51100000000E-03 0.  1.
    9900012    2    1    2    0    0  0.50236099854E+00 -0.75922872898E-01 -0.10652866275E+01  0.90007760001E+02  0.90000021633E+02 0.  0.
         12    1    1    2    0    0 -0.50236099854E+00  0.75922872898E-01  0.10652866275E+01  0.11802399985E+01  0.00000000000E+00 0. -1.
         11    1    3    3    0    0 -0.91860263281E+01  0.62107692853E+00 -0.52758060109E+00  0.92221015936E+01  0.51100000000E-03 0. -1.
        -11    1    3    3    0    0 -0.20194028060E+02 -0.11093231694E+02  0.29315131542E+02  0.37285861882E+02  0.51100000000E-03 0.  1.
         12    1    3    3    0    0  0.29882415387E+02  0.10396231892E+02 -0.29852837568E+02  0.43499796526E+02  0.00000000000E+00 0. -1.
</event>
<event>
 7    1  0.3568207E-015  0.9000769E+02  0.7816164E-02  0.1186339E+00
        -11   -1    0    0    0    0  0.00000000000E+00  0.00000000000E+00  0.45593999997E+02  0.45594000000E+02  0.51100000000E-03 0.  1.
         11   -1    0    0    0    0 -0.00000000000E+00 -0.00000000000E+00 -0.45593999997E+02  0.45594000000E+02  0.51100000000E-03 0. -1.
    9900012    2    1    2    0    0 -0.10885755382E+01 -0.44250615820E+00 -0.11100757062E+00  0.90007690260E+02  0.89999950971E+02 0.  0.
         12    1    1    2    0    0  0.10885755382E+01  0.44250615820E+00  0.11100757062E+00  0.11803097403E+01  0.00000000000E+00 0. -1.
         11    1    3    3    0    0 -0.17971544033E+02 -0.26819879520E+02 -0.14981104526E+02  0.35590951455E+02  0.51100000000E-03 0. -1.
        -11    1    3    3    0    0 -0.41409189009E+01 -0.30563732014E+01 -0.94981726388E+01  0.10802958402E+02  0.51100000000E-03 0.  1.
        -12    1    3    3    0    0  0.21023887396E+02  0.29433746563E+02  0.24368269594E+02  0.43613780403E+02  0.00000000000E+00 0.  1.
</event>
<event>
 7    1  0.3568207E-015  0.9000790E+02  0.7816164E-02  0.1186339E+00
        -11   -1    0    0    0    0  0.00000000000E+00  0.00000000000E+00  0.45593999997E+02  0.45594000000E+02  0.51100000000E-03 0. -1.
         11   -1    0    0    0    0 -0.00000000000E+00 -0.00000000000E+00 -0.45593999997E+02  0.45594000000E+02  0.51100000000E-03 0.  1.
    9900012    2    1    2    0    0  0.25307853151E+00  0.24909551784E+00 -0.11254044338E+01  0.90007901504E+02  0.90000165004E+02 0.  0.
         12    1    1    2    0    0 -0.25307853151E+00 -0.24909551784E+00  0.11254044338E+01  0.11800984958E+01  0.00000000000E+00 0. -1.
         11    1    3    3    0    0 -0.99946765597E+01  0.29645848842E+01 -0.27272975909E+01  0.10775921097E+02  0.51100000000E-03 0. -1.
        -11    1    3    3    0    0  0.38769857064E+01  0.35777071527E+02 -0.11966256468E+02  0.37923886395E+02  0.51100000000E-03 0.  1.
         12    1    3    3    0    0  0.63707693847E+01 -0.38492560893E+02  0.13568149625E+02  0.41308094012E+02  0.00000000000E+00 0. -1.
</event>
<event>
 7    1  0.3568207E-015  0.9000776E+02  0.7816164E-02  0.1186339E+00
        -11   -1    0    0    0    0  0.00000000000E+00  0.00000000000E+00  0.45593999997E+02  0.45594000000E+02  0.51100000000E-03 0. -1.
         11   -1    0    0    0    0 -0.00000000000E+00 -0.00000000000E+00 -0.45593999997E+02  0.45594000000E+02  0.51100000000E-03 0.  1.
    9900012    2    1    2    0    0 -0.11422834799E-01  0.11800081772E+01  0.20147850637E-01  0.90007764551E+02  0.90000026243E+02 0.  0.
         12    1    1    2    0    0  0.11422834799E-01 -0.11800081772E+01 -0.20147850637E-01  0.11802354490E+01  0.00000000000E+00 0. -1.
         11    1    3    3    0    0 -0.17778054219E+02  0.24724173574E+02  0.17746490167E+02  0.35246019410E+02  0.51100000000E-03 0. -1.
        -11    1    3    3    0    0 -0.83425947628E+01  0.19372780625E+01  0.66854229572E+01  0.10864935069E+02  0.51100000000E-03 0.  1.
        -12    1    3    3    0    0  0.26109226147E+02 -0.25481443459E+02 -0.24411765273E+02  0.43896810072E+02  0.00000000000E+00 0.  1.
</event>
<event>
 7    1  0.3568207E-015  0.9000762E+02  0.7816164E-02  0.1186339E+00
        -11   -1    0    0    0    0  0.00000000000E+00  0.00000000000E+00  0.45593999997E+02  0.45594000000E+02  0.51100000000E-03 0. -1.
         11   -1    0    0    0    0 -0.00000000000E+00 -0.00000000000E+00 -0.45593999997E+02  0.45594000000E+02  0.51100000000E-03 0.  1.
    9900012    2    1    2    0    0 -0.71333628317E+00  0.92206067968E+00  0.18505991469E+00  0.90007622212E+02  0.89999882025E+02 0.  0.
         12    1    1    2    0    0  0.71333628317E+00 -0.92206067968E+00 -0.18505991469E+00  0.11803777878E+01  0.00000000000E+00 0. -1.
         11    1    3    3    0    0  0.22861501561E+01  0.89563824444E+00  0.13663442390E+02  0.13882301992E+02  0.51100000000E-03 0. -1.
        -11    1    3    3    0    0  0.10585865560E+02  0.35415307050E+02 -0.52348862428E+01  0.37332406262E+02  0.51100000000E-03 0.  1.
         12    1    3    3    0    0 -0.13585351999E+02 -0.35388884615E+02 -0.82434962322E+01  0.38792913958E+02  0.00000000000E+00 0. -1.
</event>
<event>
 7    1  0.3568207E-015  0.9000783E+02  0.7816164E-02  0.1186339E+00
        -11   -1    0    0    0    0  0.00000000000E+00  0.00000000000E+00  0.45593999997E+02  0.45594000000E+02  0.51100000000E-03 0.  1.
         11   -1    0    0    0    0 -0.00000000000E+00 -0.00000000000E+00 -0.45593999997E+02  0.45594000000E+02  0.51100000000E-03 0. -1.
    9900012    2    1    2    0    0 -0.10786697328E+01 -0.41206821431E+00  0.24388492816E+00  0.90007826935E+02  0.90000089450E+02 0.  0.
         12    1    1    2    0    0  0.10786697328E+01  0.41206821431E+00 -0.24388492816E+00  0.11801730652E+01  0.00000000000E+00 0. -1.
         11    1    3    3    0    0 -0.35940378334E+02  0.13184120538E+02 -0.11593393524E+02  0.39999232528E+02  0.51100000000E-03 0. -1.
        -11    1    3    3    0    0 -0.21754701763E+01 -0.41690861854E+01 -0.61724024767E+01  0.77596715591E+01  0.51100000000E-03 0.  1.
        -12    1    3    3    0    0  0.37037178778E+02 -0.94271025674E+01  0.18009680929E+02  0.42248922848E+02  0.00000000000E+00 0.  1.
</event>
<event>
 7    1  0.3568207E-015  0.9000774E+02  0.7816164E-02  0.1186339E+00
        -11   -1    0    0    0    0  0.00000000000E+00  0.00000000000E+00  0.45593999997E+02  0.45594000000E+02  0.51100000000E-03 0.  1.
         11   -1    0    0    0    0 -0.00000000000E+00 -0.00000000000E+00 -0.45593999997E+02  0.45594000000E+02  0.51100000000E-03 0. -1.
    9900012    2    1    2    0    0 -0.18907292563E+00  0.59971963446E+00  0.99880446950E+00  0.90007736225E+02  0.89999997543E+02 0.  0.
         12    1    1    2    0    0  0.18907292563E+00 -0.59971963446E+00 -0.99880446950E+00  0.11802637754E+01  0.00000000000E+00 0. -1.
         11    1    3    3    0    0 -0.38449765104E+02 -0.34237119137E+01  0.16727860568E+02  0.42070507000E+02  0.51100000000E-03 0. -1.
        -11    1    3    3    0    0  0.23785164753E+01 -0.67946223056E+01 -0.55845322615E+01  0.91110500899E+01  0.51100000000E-03 0.  1.
        -12    1    3    3    0    0  0.35882175703E+02  0.10818053854E+02 -0.10144523837E+02  0.38826179135E+02  0.00000000000E+00 0.  1.
</event>
<event>
 7    1  0.3568207E-015  0.9000769E+02  0.7816164E-02  0.1186339E+00
        -11   -1    0    0    0    0  0.00000000000E+00  0.00000000000E+00  0.45593999997E+02  0.45594000000E+02  0.51100000000E-03 0.  1.
         11   -1    0    0    0    0 -0.00000000000E+00 -0.00000000000E+00 -0.45593999997E+02  0.45594000000E+02  0.51100000000E-03 0. -1.
    9900012    2    1    2    0    0  0.23475044877E+00  0.94299330697E+00  0.66991304318E+00  0.90007691720E+02  0.89999952451E+02 0.  0.
         12    1    1    2    0    0 -0.23475044877E+00 -0.94299330697E+00 -0.66991304318E+00  0.11803082799E+01  0.00000000000E+00 0. -1.
         11    1    3    3    0    0 -0.23894968075E+02  0.63705033194E+01  0.15347896226E+02  0.29105166735E+02  0.51100000000E-03 0. -1.
        -11    1    3    3    0    0 -0.21901350013E+01 -0.25692608436E+02 -0.82084986390E+01  0.27060788417E+02  0.51100000000E-03 0.  1.
        -12    1    3    3    0    0  0.26319853525E+02  0.20265098424E+02 -0.64694845438E+01  0.33841736568E+02  0.00000000000E+00 0.  1.
</event>
<event>
 7    1  0.3568207E-015  0.9000789E+02  0.7816164E-02  0.1186339E+00
        -11   -1    0    0    0    0  0.00000000000E+00  0.00000000000E+00  0.45593999997E+02  0.45594000000E+02  0.51100000000E-03 0. -1.
         11   -1    0    0    0    0 -0.00000000000E+00 -0.00000000000E+00 -0.45593999997E+02  0.45594000000E+02  0.51100000000E-03 0.  1.
    9900012    2    1    2    0    0 -0.56397108725E+00  0.77402375857E+00 -0.68955859896E+00  0.90007886773E+02  0.90000150079E+02 0.  0.
         12    1    1    2    0    0  0.56397108725E+00 -0.77402375857E+00  0.68955859896E+00  0.11801132266E+01  0.00000000000E+00 0. -1.
         11    1    3    3    0    0 -0.11014213931E+01 -0.92036129576E+00  0.48144118874E+01  0.50238188744E+01  0.51100000000E-03 0. -1.
        -11    1    3    3    0    0  0.58954384088E+01  0.42803347702E+02 -0.35519281847E+00  0.43208898744E+02  0.51100000000E-03 0.  1.
         12    1    3    3    0    0 -0.53579881029E+01 -0.41108962647E+02 -0.51487776679E+01  0.41775169155E+02  0.00000000000E+00 0. -1.
</event>
<event>
 7    1  0.3568207E-015  0.9000794E+02  0.7816164E-02  0.1186339E+00
        -11   -1    0    0    0    0  0.00000000000E+00  0.00000000000E+00  0.45593999997E+02  0.45594000000E+02  0.51100000000E-03 0.  1.
         11   -1    0    0    0    0 -0.00000000000E+00 -0.00000000000E+00 -0.45593999997E+02  0.45594000000E+02  0.51100000000E-03 0. -1.
    9900012    2    1    2    0    0 -0.91961818124E+00  0.82680051611E-01  0.73485653170E+00  0.90007937412E+02  0.90000201385E+02 0.  0.
         12    1    1    2    0    0  0.91961818124E+00 -0.82680051611E-01 -0.73485653170E+00  0.11800625883E+01  0.00000000000E+00 0. -1.
         11    1    3    3    0    0 -0.26854304796E+00  0.41729090955E+01  0.79553582313E+01  0.89873806272E+01  0.51100000000E-03 0. -1.
        -11    1    3    3    0    0  0.23990644550E+02  0.23257675786E+02  0.16461879235E+02  0.37248677521E+02  0.51100000000E-03 0.  1.
         12    1    3    3    0    0 -0.24641719683E+02 -0.27347904830E+02 -0.23682380934E+02  0.43771879263E+02  0.00000000000E+00 0. -1.
</event>
<event>
 7    1  0.3568207E-015  0.9000770E+02  0.7816164E-02  0.1186339E+00
        -11   -1    0    0    0    0  0.00000000000E+00  0.00000000000E+00  0.45593999997E+02  0.45594000000E+02  0.51100000000E-03 0. -1.
         11   -1    0    0    0    0 -0.00000000000E+00 -0.00000000000E+00 -0.45593999997E+02  0.45594000000E+02  0.51100000000E-03 0.  1.
    9900012    2    1    2    0    0 -0.11373765001E+01  0.76202903825E-01 -0.30605172125E+00  0.90007703494E+02  0.89999964380E+02 0.  0.
         12    1    1    2    0    0  0.11373765001E+01 -0.76202903825E-01  0.30605172125E+00  0.11802965058E+01  0.00000000000E+00 0. -1.
         11    1    3    3    0    0  0.17287510954E+02  0.25418735120E+02  0.22201237048E+02  0.37919191141E+02  0.51100000000E-03 0. -1.
        -11    1    3    3    0    0  0.96165336632E+01 -0.58651143133E+01 -0.12664853431E+00  0.11264693769E+02  0.51100000000E-03 0.  1.
        -12    1    3    3    0    0 -0.28041421117E+02 -0.19477417903E+02 -0.22380640235E+02  0.40823818584E+02  0.00000000000E+00 0.  1.
</event>
<event>
 7    1  0.3568207E-015  0.9000733E+02  0.7816164E-02  0.1186340E+00
        -11   -1    0    0    0    0  0.00000000000E+00  0.00000000000E+00  0.45593999997E+02  0.45594000000E+02  0.51100000000E-03 0.  1.
         11   -1    0    0    0    0 -0.00000000000E+00 -0.00000000000E+00 -0.45593999997E+02  0.45594000000E+02  0.51100000000E-03 0. -1.
    9900012    2    1    2    0    0 -0.56912446060E+00 -0.79106899112E+00  0.66655289856E+00  0.90007328341E+02  0.89999584274E+02 0.  0.
         12    1    1    2    0    0  0.56912446060E+00  0.79106899112E+00 -0.66655289856E+00  0.11806716592E+01  0.00000000000E+00 0. -1.
         11    1    3    3    0    0 -0.23504919673E+02  0.15247590531E+02 -0.25195458652E+02  0.37679986767E+02  0.51100000000E-03 0. -1.
        -11    1    3    3    0    0 -0.30767701062E+01 -0.51116727894E+01 -0.68795475694E+01  0.91062554331E+01  0.51100000000E-03 0.  1.
        -12    1    3    3    0    0  0.26012565319E+02 -0.10926986733E+02  0.32741559120E+02  0.43221086140E+02  0.00000000000E+00 0.  1.
</event>
<event>
 7    1  0.3568207E-015  0.9000768E+02  0.7816164E-02  0.1186339E+00
        -11   -1    0    0    0    0  0.00000000000E+00  0.00000000000E+00  0.45593999997E+02  0.45594000000E+02  0.51100000000E-03 0.  1.
         11   -1    0    0    0    0 -0.00000000000E+00 -0.00000000000E+00 -0.45593999997E+02  0.45594000000E+02  0.51100000000E-03 0. -1.
    9900012    2    1    2    0    0 -0.32871202866E+00  0.10414151715E+01 -0.44785028364E+00  0.90007675030E+02  0.89999935541E+02 0.  0.
         12    1    1    2    0    0  0.32871202866E+00 -0.10414151715E+01  0.44785028364E+00  0.11803249696E+01  0.00000000000E+00 0. -1.
         11    1    3    3    0    0  0.15124075583E+02  0.29289965124E+02 -0.20973833982E+02  0.39070979402E+02  0.51100000000E-03 0. -1.
        -11    1    3    3    0    0 -0.51082241697E+01  0.62543470722E+01 -0.21708015855E+01  0.83620088048E+01  0.51100000000E-03 0.  1.
        -12    1    3    3    0    0 -0.10344563442E+02 -0.34502897025E+02  0.22696785284E+02  0.42574686824E+02  0.00000000000E+00 0.  1.
</event>
<event>
 7    1  0.3568207E-015  0.9000777E+02  0.7816164E-02  0.1186339E+00
        -11   -1    0    0    0    0  0.00000000000E+00  0.00000000000E+00  0.45593999997E+02  0.45594000000E+02  0.51100000000E-03 0. -1.
         11   -1    0    0    0    0 -0.00000000000E+00 -0.00000000000E+00 -0.45593999997E+02  0.45594000000E+02  0.51100000000E-03 0.  1.
    9900012    2    1    2    0    0  0.17567657332E+00 -0.99796992797E+00 -0.60509604034E+00  0.90007768051E+02  0.90000029789E+02 0.  0.
         12    1    1    2    0    0 -0.17567657332E+00  0.99796992797E+00  0.60509604034E+00  0.11802319491E+01  0.00000000000E+00 0. -1.
         11    1    3    3    0    0 -0.72206404919E+01  0.57645797308E+01  0.67179855922E+00  0.92638729563E+01  0.51100000000E-03 0. -1.
        -11    1    3    3    0    0  0.33425216675E+02  0.34881974972E+01 -0.26716095063E+02  0.42932066887E+02  0.51100000000E-03 0.  1.
         12    1    3    3    0    0 -0.26028899610E+02 -0.10250747156E+02  0.25439200463E+02  0.37811828207E+02  0.00000000000E+00 0. -1.
</event>
<event>
 7    1  0.3568207E-015  0.9000758E+02  0.7816164E-02  0.1186339E+00
        -11   -1    0    0    0    0  0.00000000000E+00  0.00000000000E+00  0.45593999997E+02  0.45594000000E+02  0.51100000000E-03 0. -1.
         11   -1    0    0    0    0 -0.00000000000E+00 -0.00000000000E+00 -0.45593999997E+02  0.45594000000E+02  0.51100000000E-03 0.  1.
    9900012    2    1    2    0    0  0.69784268962E+00  0.47382321826E+00  0.82577160026E+00  0.90007579906E+02  0.89999839161E+02 0.  0.
         12    1    1    2    0    0 -0.69784268962E+00 -0.47382321826E+00 -0.82577160026E+00  0.11804200936E+01  0.00000000000E+00 0. -1.
         11    1    3    3    0    0  0.27342190727E+01  0.81627313917E+01  0.40282486286E+02  0.41192048254E+02  0.51100000000E-03 0. -1.
        -11    1    3    3    0    0  0.78983550272E+01 -0.44214682475E+01 -0.11710354387E+01  0.91271418231E+01  0.51100000000E-03 0.  1.
        -12    1    3    3    0    0 -0.99347314102E+01 -0.32674399260E+01 -0.38285679247E+02  0.39688389830E+02  0.00000000000E+00 0.  1.
</event>
<event>
 7    1  0.3568207E-015  0.9000779E+02  0.7816164E-02  0.1186339E+00
        -11   -1    0    0    0    0  0.00000000000E+00  0.00000000000E+00  0.45593999997E+02  0.45594000000E+02  0.51100000000E-03 0.  1.
         11   -1    0    0    0    0 -0.00000000000E+00 -0.00000000000E+00 -0.45593999997E+02  0.45594000000E+02  0.51100000000E-03 0. -1.
    9900012    2    1    2    0    0 -0.78813697173E-01 -0.15409154729E+00  0.11674469234E+01  0.90007793186E+02  0.90000055257E+02 0.  0.
         12    1    1    2    0    0  0.78813697173E-01  0.15409154729E+00 -0.11674469234E+01  0.11802068135E+01  0.00000000000E+00 0. -1.
         11    1    3    3    0    0 -0.34759759602E+01  0.38711514346E+00 -0.89362684232E+01  0.95963097388E+01  0.51100000000E-03 0. -1.
        -11    1    3    3    0    0 -0.33605817670E+02  0.15301185699E+02 -0.53186375264E+01  0.37306369033E+02  0.51100000000E-03 0.  1.
         12    1    3    3    0    0  0.37002979933E+02 -0.15842392390E+02  0.15422352873E+02  0.43105114414E+02  0.00000000000E+00 0. -1.
</event>
