<event>
 7    1  0.1476909E-008  0.4614232E+02  0.7816164E-02  0.1320468E+00
        -11   -1    0    0    0    0  0.00000000000E+00  0.00000000000E+00  0.45593999997E+02  0.45594000000E+02  0.51100000000E-03 0.  1.
         11   -1    0    0    0    0 -0.00000000000E+00 -0.00000000000E+00 -0.45593999997E+02  0.45594000000E+02  0.51100000000E-03 0. -1.
    9900012    2    1    2    0    0  0.56874854881E+01  0.21902405495E+02 -0.38949333775E+02  0.46142318086E+02  0.10000002959E+02 0.  0.
        -12    1    1    2    0    0 -0.56874854881E+01 -0.21902405495E+02  0.38949333775E+02  0.45045681914E+02  0.00000000000E+00 0.  1.
         11    1    3    3    0    0  0.17042384031E+01  0.15478917343E+02 -0.22919746340E+02  0.27709494459E+02  0.51100000000E-03 0. -1.
        -11    1    3    3    0    0  0.40647824892E+01  0.17963590510E+01 -0.85852593273E+01  0.96672664442E+01  0.51100000000E-03 0.  1.
         12    1    3    3    0    0 -0.81535404243E-01  0.46271291008E+01 -0.74443281077E+01  0.87655571821E+01  0.00000000000E+00 0. -1.
</event>
<event>
 7    1  0.1476909E-008  0.4614232E+02  0.7816164E-02  0.1320468E+00
        -11   -1    0    0    0    0  0.00000000000E+00  0.00000000000E+00  0.45593999997E+02  0.45594000000E+02  0.51100000000E-03 0.  1.
         11   -1    0    0    0    0 -0.00000000000E+00 -0.00000000000E+00 -0.45593999997E+02  0.45594000000E+02  0.51100000000E-03 0. -1.
    9900012    2    1    2    0    0  0.30731677687E+02  0.16502941667E+02 -0.28501409904E+02  0.46142318036E+02  0.10000002505E+02 0.  0.
        -12    1    1    2    0    0 -0.30731677687E+02 -0.16502941667E+02  0.28501409904E+02  0.45045681964E+02  0.00000000000E+00 0.  1.
         11    1    3    3    0    0  0.13581060886E+02  0.50923253039E+01 -0.13847885622E+02  0.20053451779E+02  0.51100000000E-03 0. -1.
        -11    1    3    3    0    0  0.13359247770E+02  0.90215645377E+01 -0.78193710321E+01  0.17916492159E+02  0.51100000000E-03 0.  1.
        -12    1    3    3    0    0  0.37913690303E+01  0.23890518255E+01 -0.68341532494E+01  0.81723740972E+01  0.00000000000E+00 0.  1.
</event>
<event>
 7    1  0.1476909E-008  0.4614232E+02  0.7816164E-02  0.1320468E+00
        -11   -1    0    0    0    0  0.00000000000E+00  0.00000000000E+00  0.45593999997E+02  0.45594000000E+02  0.51100000000E-03 0. -1.
         11   -1    0    0    0    0 -0.00000000000E+00 -0.00000000000E+00 -0.45593999997E+02  0.45594000000E+02  0.51100000000E-03 0.  1.
    9900012    2    1    2    0    0  0.10622222678E+02  0.39243643601E+02  0.19396353205E+02  0.46142315463E+02  0.99999790484E+01 0.  0.
        -12    1    1    2    0    0 -0.10622222678E+02 -0.39243643601E+02 -0.19396353205E+02  0.45045684537E+02  0.00000000000E+00 0.  1.
         11    1    3    3    0    0 -0.65209926546E+00  0.79864457820E+01  0.59466177589E+01  0.99785175608E+01  0.51100000000E-03 0. -1.
        -11    1    3    3    0    0  0.85937926249E+01  0.18967464276E+02  0.66192545905E+01  0.21850228931E+02  0.51100000000E-03 0.  1.
         12    1    3    3    0    0  0.26805293191E+01  0.12289733543E+02  0.68304808559E+01  0.14313568972E+02  0.00000000000E+00 0. -1.
</event>
<event>
 7    1  0.1476909E-008  0.4614231E+02  0.7816164E-02  0.1320468E+00
        -11   -1    0    0    0    0  0.00000000000E+00  0.00000000000E+00  0.45593999997E+02  0.45594000000E+02  0.51100000000E-03 0. -1.
         11   -1    0    0    0    0 -0.00000000000E+00 -0.00000000000E+00 -0.45593999997E+02  0.45594000000E+02  0.51100000000E-03 0.  1.
    9900012    2    1    2    0    0  0.17394645113E+02  0.14545044371E+01  0.41526192262E+02  0.46142313130E+02  0.99999577728E+01 0.  0.
        -12    1    1    2    0    0 -0.17394645113E+02 -0.14545044371E+01 -0.41526192262E+02  0.45045686870E+02  0.00000000000E+00 0.  1.
         11    1    3    3    0    0  0.17905474837E+02  0.50504601023E+00  0.38747611603E+02  0.42687685646E+02  0.51100000000E-03 0. -1.
        -11    1    3    3    0    0 -0.61964376474E+00 -0.67129254633E-01  0.15992157243E+00  0.64345932463E+00  0.51100000000E-03 0.  1.
        -12    1    3    3    0    0  0.10881404061E+00  0.10165876815E+01  0.26186590865E+01  0.28111681595E+01  0.00000000000E+00 0.  1.
</event>
<event>
 7    1  0.1476909E-008  0.4614232E+02  0.7816164E-02  0.1320468E+00
        -11   -1    0    0    0    0  0.00000000000E+00  0.00000000000E+00  0.45593999997E+02  0.45594000000E+02  0.51100000000E-03 0.  1.
         11   -1    0    0    0    0 -0.00000000000E+00 -0.00000000000E+00 -0.45593999997E+02  0.45594000000E+02  0.51100000000E-03 0. -1.
    9900012    2    1    2    0    0 -0.18321707553E+01 -0.44727585249E+02 -0.50199304588E+01  0.46142318368E+02  0.10000005534E+02 0.  0.
        -12    1    1    2    0    0  0.18321707553E+01  0.44727585249E+02  0.50199304588E+01  0.45045681632E+02  0.00000000000E+00 0.  1.
         11    1    3    3    0    0  0.69898560554E+00 -0.12560735021E+02 -0.19296615880E+01  0.12727302906E+02  0.51100000000E-03 0. -1.
        -11    1    3    3    0    0 -0.30854662027E+00 -0.25665796907E+02 -0.52778601575E+01  0.26204658746E+02  0.51100000000E-03 0.  1.
        -12    1    3    3    0    0 -0.22226097406E+01 -0.65010533206E+01  0.21875912867E+01  0.72103567161E+01  0.00000000000E+00 0.  1.
</event>
<event>
 7    1  0.1476909E-008  0.4614232E+02  0.7816164E-02  0.1320468E+00
        -11   -1    0    0    0    0  0.00000000000E+00  0.00000000000E+00  0.45593999997E+02  0.45594000000E+02  0.51100000000E-03 0.  1.
         11   -1    0    0    0    0 -0.00000000000E+00 -0.00000000000E+00 -0.45593999997E+02  0.45594000000E+02  0.51100000000E-03 0. -1.
    9900012    2    1    2    0    0 -0.29885059802E+02  0.20074831838E+02 -0.27073932352E+02  0.46142317791E+02  0.10000000271E+02 0.  0.
        -12    1    1    2    0    0  0.29885059802E+02 -0.20074831838E+02  0.27073932352E+02  0.45045682209E+02  0.00000000000E+00 0.  1.
         11    1    3    3    0    0 -0.15259840135E+02  0.69620442500E+01 -0.84274974852E+01  0.18771134628E+02  0.51100000000E-03 0.  1.
        -11    1    3    3    0    0 -0.68661268622E+01  0.85760078987E+01 -0.91691999678E+01  0.14309641431E+02  0.51100000000E-03 0. -1.
         12    1    3    3    0    0 -0.77590928047E+01  0.45367796897E+01 -0.94772348987E+01  0.13061541733E+02  0.00000000000E+00 0. -1.
</event>
<event>
 7    1  0.1476909E-008  0.4614232E+02  0.7816164E-02  0.1320468E+00
        -11   -1    0    0    0    0  0.00000000000E+00  0.00000000000E+00  0.45593999997E+02  0.45594000000E+02  0.51100000000E-03 0.  1.
         11   -1    0    0    0    0 -0.00000000000E+00 -0.00000000000E+00 -0.45593999997E+02  0.45594000000E+02  0.51100000000E-03 0. -1.
    9900012    2    1    2    0    0 -0.21704454447E+01  0.13128846994E+02 -0.43035288450E+02  0.46142317534E+02  0.99999979321E+01 0.  0.
        -12    1    1    2    0    0  0.21704454447E+01 -0.13128846994E+02  0.43035288450E+02  0.45045682466E+02  0.00000000000E+00 0.  1.
         11    1    3    3    0    0  0.76489386842E+00  0.10991654053E+02 -0.23813290849E+02  0.26238794613E+02  0.51100000000E-03 0. -1.
        -11    1    3    3    0    0 -0.35889488182E+01  0.16190881030E+01 -0.17989616430E+02  0.18415436446E+02  0.51100000000E-03 0.  1.
        -12    1    3    3    0    0  0.65360950503E+00  0.51810483819E+00 -0.12323811709E+01  0.14880864756E+01  0.00000000000E+00 0.  1.
</event>
<event>
 7    1  0.1476909E-008  0.4614232E+02  0.7816164E-02  0.1320468E+00
        -11   -1    0    0    0    0  0.00000000000E+00  0.00000000000E+00  0.45593999997E+02  0.45594000000E+02  0.51100000000E-03 0.  1.
         11   -1    0    0    0    0 -0.00000000000E+00 -0.00000000000E+00 -0.45593999997E+02  0.45594000000E+02  0.51100000000E-03 0. -1.
    9900012    2    1    2    0    0  0.19808076878E+02  0.39032644954E+02  0.10639841568E+02  0.46142317518E+02  0.99999977820E+01 0.  0.
        -12    1    1    2    0    0 -0.19808076878E+02 -0.39032644954E+02 -0.10639841568E+02  0.45045682482E+02  0.00000000000E+00 0.  1.
         11    1    3    3    0    0  0.38367398147E+01  0.96947057493E+01 -0.80246428542E+00  0.10457143069E+02  0.51100000000E-03 0. -1.
        -11    1    3    3    0    0 -0.31542826064E+00  0.13322240877E+01  0.79535750325E+00  0.15833224013E+01  0.51100000000E-03 0.  1.
        -12    1    3    3    0    0  0.16286765324E+02  0.28005715117E+02  0.10646948350E+02  0.34101852048E+02  0.00000000000E+00 0.  1.
</event>
<event>
 7    1  0.1476909E-008  0.4614232E+02  0.7816164E-02  0.1320468E+00
        -11   -1    0    0    0    0  0.00000000000E+00  0.00000000000E+00  0.45593999997E+02  0.45594000000E+02  0.51100000000E-03 0. -1.
         11   -1    0    0    0    0 -0.00000000000E+00 -0.00000000000E+00 -0.45593999997E+02  0.45594000000E+02  0.51100000000E-03 0.  1.
    9900012    2    1    2    0    0 -0.22765867136E+02 -0.33876142250E+02  0.19058747462E+02  0.46142316800E+02  0.99999912342E+01 0.  0.
        -12    1    1    2    0    0  0.22765867136E+02  0.33876142250E+02 -0.19058747462E+02  0.45045683200E+02  0.00000000000E+00 0.  1.
         11    1    3    3    0    0 -0.13878270026E+02 -0.26768533317E+02  0.14397699477E+02  0.33413388115E+02  0.51100000000E-03 0. -1.
        -11    1    3    3    0    0 -0.66783949545E+01 -0.66585739160E+01  0.28945414285E+01  0.98648839884E+01  0.51100000000E-03 0.  1.
        -12    1    3    3    0    0 -0.22092021551E+01 -0.44903501700E+00  0.17665065562E+01  0.28640446961E+01  0.00000000000E+00 0.  1.
</event>
<event>
 7    1  0.1476909E-008  0.4614232E+02  0.7816164E-02  0.1320468E+00
        -11   -1    0    0    0    0  0.00000000000E+00  0.00000000000E+00  0.45593999997E+02  0.45594000000E+02  0.51100000000E-03 0.  1.
         11   -1    0    0    0    0 -0.00000000000E+00 -0.00000000000E+00 -0.45593999997E+02  0.45594000000E+02  0.51100000000E-03 0. -1.
    9900012    2    1    2    0    0 -0.34782086440E+02 -0.28153551553E+02  0.51669575164E+01  0.46142318163E+02  0.10000003669E+02 0.  0.
        -12    1    1    2    0    0  0.34782086440E+02  0.28153551553E+02 -0.51669575164E+01  0.45045681837E+02  0.00000000000E+00 0.  1.
         11    1    3    3    0    0 -0.30315593406E+02 -0.22460712844E+02  0.60095136323E+01  0.38205144671E+02  0.51100000000E-03 0. -1.
        -11    1    3    3    0    0 -0.97098836653E+00  0.10416786434E+00 -0.63461772978E+00  0.11646498512E+01  0.51100000000E-03 0.  1.
         12    1    3    3    0    0 -0.34955046674E+01 -0.57970065739E+01 -0.20793838613E+00  0.67725236411E+01  0.00000000000E+00 0. -1.
</event>
<event>
 7    1  0.1476909E-008  0.4614232E+02  0.7816164E-02  0.1320468E+00
        -11   -1    0    0    0    0  0.00000000000E+00  0.00000000000E+00  0.45593999997E+02  0.45594000000E+02  0.51100000000E-03 0.  1.
         11   -1    0    0    0    0 -0.00000000000E+00 -0.00000000000E+00 -0.45593999997E+02  0.45594000000E+02  0.51100000000E-03 0. -1.
    9900012    2    1    2    0    0 -0.31950616088E+02 -0.16009116861E+02 -0.27422251107E+02  0.46142317112E+02  0.99999940778E+01 0.  0.
        -12    1    1    2    0    0  0.31950616088E+02  0.16009116861E+02  0.27422251107E+02  0.45045682888E+02  0.00000000000E+00 0.  1.
         11    1    3    3    0    0 -0.13897543580E+02 -0.95349732062E+01 -0.16807433824E+02  0.23802253331E+02  0.51100000000E-03 0. -1.
        -11    1    3    3    0    0 -0.17096601750E+02 -0.50031740005E+01 -0.10235801454E+02  0.20545003606E+02  0.51100000000E-03 0.  1.
         12    1    3    3    0    0 -0.95647075801E+00 -0.14709696545E+01 -0.37901582908E+00  0.17950601756E+01  0.00000000000E+00 0. -1.
</event>
<event>
 7    1  0.1476909E-008  0.4614233E+02  0.7816164E-02  0.1320468E+00
        -11   -1    0    0    0    0  0.00000000000E+00  0.00000000000E+00  0.45593999997E+02  0.45594000000E+02  0.51100000000E-03 0.  1.
         11   -1    0    0    0    0 -0.00000000000E+00 -0.00000000000E+00 -0.45593999997E+02  0.45594000000E+02  0.51100000000E-03 0. -1.
    9900012    2    1    2    0    0 -0.27597661460E+02  0.32121360737E+02 -0.15352511773E+02  0.46142330381E+02  0.10000115079E+02 0.  0.
        -12    1    1    2    0    0  0.27597661460E+02 -0.32121360737E+02  0.15352511773E+02  0.45045669619E+02  0.00000000000E+00 0.  1.
         11    1    3    3    0    0 -0.68364314549E+01  0.35971545428E+01 -0.41636852758E+01  0.87756818071E+01  0.51100000000E-03 0. -1.
        -11    1    3    3    0    0 -0.12810465770E+02  0.20476380515E+02 -0.58218492857E+01  0.24845203191E+02  0.51100000000E-03 0.  1.
         12    1    3    3    0    0 -0.79507642351E+01  0.80478256793E+01 -0.53669772115E+01  0.12521445383E+02  0.00000000000E+00 0. -1.
</event>
<event>
 7    1  0.1476909E-008  0.4614232E+02  0.7816164E-02  0.1320468E+00
        -11   -1    0    0    0    0  0.00000000000E+00  0.00000000000E+00  0.45593999997E+02  0.45594000000E+02  0.51100000000E-03 0.  1.
         11   -1    0    0    0    0 -0.00000000000E+00 -0.00000000000E+00 -0.45593999997E+02  0.45594000000E+02  0.51100000000E-03 0. -1.
    9900012    2    1    2    0    0  0.20195770795E+02  0.34648761745E+02 -0.20511159179E+02  0.46142317639E+02  0.99999988899E+01 0.  0.
        -12    1    1    2    0    0 -0.20195770795E+02 -0.34648761745E+02  0.20511159179E+02  0.45045682361E+02  0.00000000000E+00 0.  1.
         11    1    3    3    0    0  0.64181454821E+01  0.70009308718E+01 -0.59867519896E+01  0.11227057680E+02  0.51100000000E-03 0. -1.
        -11    1    3    3    0    0 -0.26777430376E+00  0.62284744623E+00 -0.17703663971E+01  0.18957424562E+01  0.51100000000E-03 0.  1.
         12    1    3    3    0    0  0.14045399617E+02  0.27024983427E+02 -0.12754040793E+02  0.33019517503E+02  0.00000000000E+00 0. -1.
</event>
<event>
 7    1  0.1476909E-008  0.4614232E+02  0.7816164E-02  0.1320468E+00
        -11   -1    0    0    0    0  0.00000000000E+00  0.00000000000E+00  0.45593999997E+02  0.45594000000E+02  0.51100000000E-03 0. -1.
         11   -1    0    0    0    0 -0.00000000000E+00 -0.00000000000E+00 -0.45593999997E+02  0.45594000000E+02  0.51100000000E-03 0.  1.
    9900012    2    1    2    0    0 -0.37785436199E+02  0.23391074069E+01  0.24411121374E+02  0.46142318087E+02  0.10000002975E+02 0.  0.
        -12    1    1    2    0    0  0.37785436199E+02 -0.23391074069E+01 -0.24411121374E+02  0.45045681913E+02  0.00000000000E+00 0.  1.
         11    1    3    3    0    0 -0.34871000580E+02  0.21726848485E+01  0.22039783179E+02  0.41309312313E+02  0.51100000000E-03 0. -1.
        -11    1    3    3    0    0 -0.82305818864E+00  0.66952523945E+00 -0.55796371920E+00  0.11987546043E+01  0.51100000000E-03 0.  1.
         12    1    3    3    0    0 -0.20913774309E+01 -0.50310268107E+00  0.29293019142E+01  0.36342511705E+01  0.00000000000E+00 0. -1.
</event>
<event>
 7    1  0.1476909E-008  0.4614232E+02  0.7816164E-02  0.1320468E+00
        -11   -1    0    0    0    0  0.00000000000E+00  0.00000000000E+00  0.45593999997E+02  0.45594000000E+02  0.51100000000E-03 0.  1.
         11   -1    0    0    0    0 -0.00000000000E+00 -0.00000000000E+00 -0.45593999997E+02  0.45594000000E+02  0.51100000000E-03 0. -1.
    9900012    2    1    2    0    0 -0.41534651964E+02 -0.54594487387E+01 -0.16558399524E+02  0.46142317753E+02  0.99999999292E+01 0.  0.
        -12    1    1    2    0    0  0.41534651964E+02  0.54594487387E+01  0.16558399524E+02  0.45045682247E+02  0.00000000000E+00 0.  1.
         11    1    3    3    0    0 -0.90125874711E+01 -0.33833104466E+01 -0.14102047889E+01  0.97294501545E+01  0.51100000000E-03 0. -1.
        -11    1    3    3    0    0 -0.50424177494E+01 -0.69362662096E+00 -0.48610871680E+01  0.70382713336E+01  0.51100000000E-03 0.  1.
         12    1    3    3    0    0 -0.27479646743E+02 -0.13825116711E+01 -0.10287107567E+02  0.29374596265E+02  0.00000000000E+00 0. -1.
</event>
<event>
 7    1  0.1476909E-008  0.4614232E+02  0.7816164E-02  0.1320468E+00
        -11   -1    0    0    0    0  0.00000000000E+00  0.00000000000E+00  0.45593999997E+02  0.45594000000E+02  0.51100000000E-03 0.  1.
         11   -1    0    0    0    0 -0.00000000000E+00 -0.00000000000E+00 -0.45593999997E+02  0.45594000000E+02  0.51100000000E-03 0. -1.
    9900012    2    1    2    0    0 -0.24391282147E+02  0.37444667666E+02 -0.56635269155E+01  0.46142319646E+02  0.10000017192E+02 0.  0.
        -12    1    1    2    0    0  0.24391282147E+02 -0.37444667666E+02  0.56635269155E+01  0.45045680354E+02  0.00000000000E+00 0.  1.
         11    1    3    3    0    0 -0.15271518631E+02  0.19730195054E+02 -0.39410956682E+01  0.25259297565E+02  0.51100000000E-03 0. -1.
        -11    1    3    3    0    0 -0.82404832415E+01  0.16366924910E+02  0.26453086344E+00  0.18326259081E+02  0.51100000000E-03 0.  1.
        -12    1    3    3    0    0 -0.87928027416E+00  0.13475477025E+01 -0.19869621107E+01  0.25567630005E+01  0.00000000000E+00 0.  1.
</event>
<event>
 7    1  0.1476909E-008  0.4614231E+02  0.7816164E-02  0.1320468E+00
        -11   -1    0    0    0    0  0.00000000000E+00  0.00000000000E+00  0.45593999997E+02  0.45594000000E+02  0.51100000000E-03 0.  1.
         11   -1    0    0    0    0 -0.00000000000E+00 -0.00000000000E+00 -0.45593999997E+02  0.45594000000E+02  0.51100000000E-03 0. -1.
    9900012    2    1    2    0    0  0.34895053576E+02  0.82092970867E+01 -0.27277398197E+02  0.46142314578E+02  0.99999709777E+01 0.  0.
        -12    1    1    2    0    0 -0.34895053576E+02 -0.82092970867E+01  0.27277398197E+02  0.45045685422E+02  0.00000000000E+00 0.  1.
         11    1    3    3    0    0  0.78788830923E+01  0.33343266822E+01 -0.96594609521E+01  0.12903477026E+02  0.51100000000E-03 0. -1.
        -11    1    3    3    0    0  0.26203935253E+02  0.53160560234E+01 -0.15446349727E+02  0.30878736932E+02  0.51100000000E-03 0.  1.
        -12    1    3    3    0    0  0.81223523073E+00 -0.44108561876E+00 -0.21715875175E+01  0.23601006205E+01  0.00000000000E+00 0.  1.
</event>
<event>
 7    1  0.1476909E-008  0.4614232E+02  0.7816164E-02  0.1320468E+00
        -11   -1    0    0    0    0  0.00000000000E+00  0.00000000000E+00  0.45593999997E+02  0.45594000000E+02  0.51100000000E-03 0. -1.
         11   -1    0    0    0    0 -0.00000000000E+00 -0.00000000000E+00 -0.45593999997E+02  0.45594000000E+02  0.51100000000E-03 0.  1.
    9900012    2    1    2    0    0 -0.31784264823E+02  0.22691618694E+02  0.22449151700E+02  0.46142318061E+02  0.10000002735E+02 0.  0.
        -12    1    1    2    0    0  0.31784264823E+02 -0.22691618694E+02 -0.22449151700E+02  0.45045681939E+02  0.00000000000E+00 0.  1.
         11    1    3    3    0    0 -0.52523540170E+01  0.67768160219E+01  0.74035531510E+01  0.11328065044E+02  0.51100000000E-03 0. -1.
        -11    1    3    3    0    0 -0.10497535600E+02  0.79287026407E+01  0.39183650209E+01  0.13726476749E+02  0.51100000000E-03 0.  1.
         12    1    3    3    0    0 -0.16034375206E+02  0.79861000316E+01  0.11127233528E+02  0.21087776268E+02  0.00000000000E+00 0. -1.
</event>
<event>
 7    1  0.1476909E-008  0.4614232E+02  0.7816164E-02  0.1320468E+00
        -11   -1    0    0    0    0  0.00000000000E+00  0.00000000000E+00  0.45593999997E+02  0.45594000000E+02  0.51100000000E-03 0.  1.
         11   -1    0    0    0    0 -0.00000000000E+00 -0.00000000000E+00 -0.45593999997E+02  0.45594000000E+02  0.51100000000E-03 0. -1.
    9900012    2    1    2    0    0  0.36157367394E+02 -0.92823292413E+01 -0.25211040575E+02  0.46142318522E+02  0.10000006937E+02 0.  0.
        -12    1    1    2    0    0 -0.36157367394E+02  0.92823292413E+01  0.25211040575E+02  0.45045681478E+02  0.00000000000E+00 0.  1.
         11    1    3    3    0    0  0.24373802955E+02 -0.65290308601E+01 -0.16731074278E+02  0.30276052603E+02  0.51100000000E-03 0. -1.
        -11    1    3    3    0    0  0.57164521344E+01 -0.24443024572E+01 -0.74520811602E+01  0.97049447905E+01  0.51100000000E-03 0.  1.
        -12    1    3    3    0    0  0.60671123044E+01 -0.30899592405E+00 -0.10278851363E+01  0.61613211286E+01  0.00000000000E+00 0.  1.
</event>
<event>
 7    1  0.1476909E-008  0.4614231E+02  0.7816164E-02  0.1320468E+00
        -11   -1    0    0    0    0  0.00000000000E+00  0.00000000000E+00  0.45593999997E+02  0.45594000000E+02  0.51100000000E-03 0. -1.
         11   -1    0    0    0    0 -0.00000000000E+00 -0.00000000000E+00 -0.45593999997E+02  0.45594000000E+02  0.51100000000E-03 0.  1.
    9900012    2    1    2    0    0 -0.22877033757E+02 -0.33676743981E+02 -0.19277766761E+02  0.46142311527E+02  0.99999431555E+01 0.  0.
        -12    1    1    2    0    0  0.22877033757E+02  0.33676743981E+02  0.19277766761E+02  0.45045688473E+02  0.00000000000E+00 0.  1.
         11    1    3    3    0    0 -0.43306031910E+01 -0.35741765277E+01 -0.20490285667E+01  0.59772385076E+01  0.51100000000E-03 0. -1.
        -11    1    3    3    0    0 -0.13136290369E+02 -0.26129481152E+02 -0.11816945559E+02  0.31542861515E+02  0.51100000000E-03 0.  1.
        -12    1    3    3    0    0 -0.54101401973E+01 -0.39730863013E+01 -0.54117926351E+01  0.86222115051E+01  0.00000000000E+00 0.  1.
</event>
<event>
 7    1  0.1476909E-008  0.4614232E+02  0.7816164E-02  0.1320468E+00
        -11   -1    0    0    0    0  0.00000000000E+00  0.00000000000E+00  0.45593999997E+02  0.45594000000E+02  0.51100000000E-03 0.  1.
         11   -1    0    0    0    0 -0.00000000000E+00 -0.00000000000E+00 -0.45593999997E+02  0.45594000000E+02  0.51100000000E-03 0. -1.
    9900012    2    1    2    0    0  0.12190508928E+02 -0.38478062209E+02 -0.19998592039E+02  0.46142318045E+02  0.10000002585E+02 0.  0.
        -12    1    1    2    0    0 -0.12190508928E+02  0.38478062209E+02  0.19998592039E+02  0.45045681955E+02  0.00000000000E+00 0.  1.
         11    1    3    3    0    0  0.42444003180E+01 -0.11236747979E+02 -0.92766038119E+01  0.15176785488E+02  0.51100000000E-03 0. -1.
        -11    1    3    3    0    0 -0.32899847242E-01 -0.86913196576E+01 -0.47654496360E+01  0.99120951512E+01  0.51100000000E-03 0.  1.
        -12    1    3    3    0    0  0.79790084574E+01 -0.18549994573E+02 -0.59565385909E+01  0.21053437406E+02  0.00000000000E+00 0.  1.
</event>
<event>
 7    1  0.1476909E-008  0.4614232E+02  0.7816164E-02  0.1320468E+00
        -11   -1    0    0    0    0  0.00000000000E+00  0.00000000000E+00  0.45593999997E+02  0.45594000000E+02  0.51100000000E-03 0.  1.
         11   -1    0    0    0    0 -0.00000000000E+00 -0.00000000000E+00 -0.45593999997E+02  0.45594000000E+02  0.51100000000E-03 0. -1.
    9900012    2    1    2    0    0 -0.23375165187E+02  0.21909551926E+02 -0.31665224782E+02  0.46142320145E+02  0.10000021736E+02 0.  0.
        -12    1    1    2    0    0  0.23375165187E+02 -0.21909551926E+02  0.31665224782E+02  0.45045679855E+02  0.00000000000E+00 0.  1.
         11    1    3    3    0    0 -0.14247099061E+02  0.16058766064E+02 -0.18781026399E+02  0.28523512266E+02  0.51100000000E-03 0. -1.
        -11    1    3    3    0    0 -0.48272508314E+01  0.13918325483E+01 -0.89985000429E+01  0.10305947395E+02  0.51100000000E-03 0.  1.
        -12    1    3    3    0    0 -0.43008152948E+01  0.44589533138E+01 -0.38856983400E+01  0.73128604830E+01  0.00000000000E+00 0.  1.
</event>
<event>
 7    1  0.1476909E-008  0.4614232E+02  0.7816164E-02  0.1320468E+00
        -11   -1    0    0    0    0  0.00000000000E+00  0.00000000000E+00  0.45593999997E+02  0.45594000000E+02  0.51100000000E-03 0. -1.
         11   -1    0    0    0    0 -0.00000000000E+00 -0.00000000000E+00 -0.45593999997E+02  0.45594000000E+02  0.51100000000E-03 0.  1.
    9900012    2    1    2    0    0  0.84856264366E+01  0.41627829578E+02 -0.14974354691E+02  0.46142319299E+02  0.10000014025E+02 0.  0.
        -12    1    1    2    0    0 -0.84856264366E+01 -0.41627829578E+02  0.14974354691E+02  0.45045680701E+02  0.00000000000E+00 0.  1.
         11    1    3    3    0    0  0.79733544093E+01  0.41139744883E+02 -0.14421121336E+02  0.44317284782E+02  0.51100000000E-03 0. -1.
        -11    1    3    3    0    0  0.20080919298E+00  0.42980789931E+00  0.52124397990E+00  0.70480827889E+00  0.51100000000E-03 0.  1.
         12    1    3    3    0    0  0.31146283431E+00  0.58276795610E-01 -0.10744773351E+01  0.11202262387E+01  0.00000000000E+00 0. -1.
</event>
<event>
 7    1  0.1476909E-008  0.4614232E+02  0.7816164E-02  0.1320468E+00
        -11   -1    0    0    0    0  0.00000000000E+00  0.00000000000E+00  0.45593999997E+02  0.45594000000E+02  0.51100000000E-03 0.  1.
         11   -1    0    0    0    0 -0.00000000000E+00 -0.00000000000E+00 -0.45593999997E+02  0.45594000000E+02  0.51100000000E-03 0. -1.
    9900012    2    1    2    0    0 -0.14065689195E+01 -0.25539962795E+02 -0.37078904920E+02  0.46142319566E+02  0.10000016457E+02 0.  0.
        -12    1    1    2    0    0  0.14065689195E+01  0.25539962795E+02  0.37078904920E+02  0.45045680434E+02  0.00000000000E+00 0.  1.
         11    1    3    3    0    0 -0.30732510352E+01 -0.51407758564E+01 -0.11021591948E+02  0.12543840626E+02  0.51100000000E-03 0. -1.
        -11    1    3    3    0    0  0.31292984479E+01 -0.78154461564E+01 -0.12204181366E+02  0.14826184623E+02  0.51100000000E-03 0.  1.
        -12    1    3    3    0    0 -0.14626163322E+01 -0.12583740782E+02 -0.13853131606E+02  0.18772294317E+02  0.00000000000E+00 0.  1.
</event>
<event>
 7    1  0.1476909E-008  0.4614232E+02  0.7816164E-02  0.1320468E+00
        -11   -1    0    0    0    0  0.00000000000E+00  0.00000000000E+00  0.45593999997E+02  0.45594000000E+02  0.51100000000E-03 0.  1.
         11   -1    0    0    0    0 -0.00000000000E+00 -0.00000000000E+00 -0.45593999997E+02  0.45594000000E+02  0.51100000000E-03 0. -1.
    9900012    2    1    2    0    0  0.67634649505E+01 -0.44036477001E+02 -0.66451252132E+01  0.46142318144E+02  0.10000003492E+02 0.  0.
        -12    1    1    2    0    0 -0.67634649505E+01  0.44036477001E+02  0.66451252132E+01  0.45045681856E+02  0.00000000000E+00 0.  1.
         11    1    3    3    0    0  0.14507424141E+01 -0.87593242721E+01 -0.17811146364E+01  0.90555389052E+01  0.51100000000E-03 0. -1.
        -11    1    3    3    0    0 -0.12431582313E+01 -0.10817816109E+02  0.14597502080E+01  0.10986421560E+02  0.51100000000E-03 0.  1.
        -12    1    3    3    0    0  0.65558807677E+01 -0.24459336619E+02 -0.63237607848E+01  0.26100357679E+02  0.00000000000E+00 0.  1.
</event>
<event>
 7    1  0.1476909E-008  0.4614232E+02  0.7816164E-02  0.1320468E+00
        -11   -1    0    0    0    0  0.00000000000E+00  0.00000000000E+00  0.45593999997E+02  0.45594000000E+02  0.51100000000E-03 0.  1.
         11   -1    0    0    0    0 -0.00000000000E+00 -0.00000000000E+00 -0.45593999997E+02  0.45594000000E+02  0.51100000000E-03 0. -1.
    9900012    2    1    2    0    0  0.23297278202E+02  0.38453076438E+02  0.27768718905E+01  0.46142320111E+02  0.10000021432E+02 0.  0.
        -12    1    1    2    0    0 -0.23297278202E+02 -0.38453076438E+02 -0.27768718905E+01  0.45045679889E+02  0.00000000000E+00 0.  1.
         11    1    3    3    0    0  0.18510824050E+01  0.82187509680E+01  0.15264437437E+01  0.85617991280E+01  0.51100000000E-03 0. -1.
        -11    1    3    3    0    0  0.44988994581E+01  0.65100598342E+01  0.27730290748E+01  0.83851455497E+01  0.51100000000E-03 0.  1.
         12    1    3    3    0    0  0.16947296339E+02  0.23724265635E+02 -0.15226009281E+01  0.29195375434E+02  0.00000000000E+00 0. -1.
</event>
<event>
 7    1  0.1476909E-008  0.4614232E+02  0.7816164E-02  0.1320468E+00
        -11   -1    0    0    0    0  0.00000000000E+00  0.00000000000E+00  0.45593999997E+02  0.45594000000E+02  0.51100000000E-03 0.  1.
         11   -1    0    0    0    0 -0.00000000000E+00 -0.00000000000E+00 -0.45593999997E+02  0.45594000000E+02  0.51100000000E-03 0. -1.
    9900012    2    1    2    0    0  0.38620748946E+02  0.56521807986E+01 -0.22485640428E+02  0.46142318493E+02  0.10000006677E+02 0.  0.
        -12    1    1    2    0    0 -0.38620748946E+02 -0.56521807986E+01  0.22485640428E+02  0.45045681507E+02  0.00000000000E+00 0.  1.
         11    1    3    3    0    0  0.13069732750E+02 -0.63949699340E+00 -0.66291265378E+01  0.14668748736E+02  0.51100000000E-03 0. -1.
        -11    1    3    3    0    0  0.14599564944E+02  0.66302759926E+01 -0.11252167417E+02  0.19588750041E+02  0.51100000000E-03 0.  1.
        -12    1    3    3    0    0  0.10951451252E+02 -0.33859820069E+00 -0.46043464729E+01  0.11884819717E+02  0.00000000000E+00 0.  1.
</event>
<event>
 7    1  0.1608092E-008  0.4614232E+02  0.7816164E-02  0.1320468E+00
        -11   -1    0    0    0    0  0.00000000000E+00  0.00000000000E+00  0.45593999997E+02  0.45594000000E+02  0.51100000000E-03 0.  1.
         11   -1    0    0    0    0 -0.00000000000E+00 -0.00000000000E+00 -0.45593999997E+02  0.45594000000E+02  0.51100000000E-03 0. -1.
    9900012    2    1    2    0    0  0.16835950472E+02  0.41728418314E+02 -0.20984078798E+01  0.46142318310E+02  0.10000005008E+02 0.  0.
        -12    1    1    2    0    0 -0.16835950472E+02 -0.41728418314E+02  0.20984078798E+01  0.45045681690E+02  0.00000000000E+00 0.  1.
         11    1    3    3    0    0  0.86700369026E+01  0.19121326216E+02 -0.80406051491E+00  0.21010501415E+02  0.51100000000E-03 0. -1.
        -11    1    3    3    0    0 -0.96083587796E+00  0.41868491100E+00 -0.40367650471E+00  0.11231463042E+01  0.51100000000E-03 0.  1.
        -12    1    3    3    0    0  0.91267494469E+01  0.22188407187E+02 -0.89067086015E+00  0.24008670591E+02  0.00000000000E+00 0.  1.
</event>
<event>
 7    1  0.1476909E-008  0.4614232E+02  0.7816164E-02  0.1320468E+00
        -11   -1    0    0    0    0  0.00000000000E+00  0.00000000000E+00  0.45593999997E+02  0.45594000000E+02  0.51100000000E-03 0. -1.
         11   -1    0    0    0    0 -0.00000000000E+00 -0.00000000000E+00 -0.45593999997E+02  0.45594000000E+02  0.51100000000E-03 0.  1.
    9900012    2    1    2    0    0 -0.28188630858E+02  0.35034052165E+02 -0.26701792310E+01  0.46142316767E+02  0.99999909390E+01 0.  0.
        -12    1    1    2    0    0  0.28188630858E+02 -0.35034052165E+02  0.26701792310E+01  0.45045683233E+02  0.00000000000E+00 0.  1.
         11    1    3    3    0    0 -0.63736009166E+01  0.14615487462E+02 -0.22277244753E+00  0.15946312747E+02  0.51100000000E-03 0. -1.
        -11    1    3    3    0    0 -0.11157083266E+02  0.81038208915E+01 -0.56369927525E+00  0.13801093333E+02  0.51100000000E-03 0.  1.
         12    1    3    3    0    0 -0.10657946675E+02  0.12314743812E+02 -0.18837075082E+01  0.16394910688E+02  0.00000000000E+00 0. -1.
</event>
<event>
 7    1  0.1476909E-008  0.4614232E+02  0.7816164E-02  0.1320468E+00
        -11   -1    0    0    0    0  0.00000000000E+00  0.00000000000E+00  0.45593999997E+02  0.45594000000E+02  0.51100000000E-03 0.  1.
         11   -1    0    0    0    0 -0.00000000000E+00 -0.00000000000E+00 -0.45593999997E+02  0.45594000000E+02  0.51100000000E-03 0. -1.
    9900012    2    1    2    0    0 -0.16058464782E+02 -0.11219543674E+02 -0.40563049120E+02  0.46142318683E+02  0.10000008407E+02 0.  0.
        -12    1    1    2    0    0  0.16058464782E+02  0.11219543674E+02  0.40563049120E+02  0.45045681317E+02  0.00000000000E+00 0.  1.
         11    1    3    3    0    0 -0.51852461901E+01 -0.46552646852E+01 -0.12720306254E+02  0.14503946318E+02  0.51100000000E-03 0. -1.
        -11    1    3    3    0    0 -0.37054001734E+01 -0.68966514560E+01 -0.13690104270E+02  0.15770629250E+02  0.51100000000E-03 0.  1.
        -12    1    3    3    0    0 -0.71678184187E+01  0.33237246750E+00 -0.14152638595E+02  0.15867743114E+02  0.00000000000E+00 0.  1.
</event>
<event>
 7    1  0.1476909E-008  0.4614232E+02  0.7816164E-02  0.1320468E+00
        -11   -1    0    0    0    0  0.00000000000E+00  0.00000000000E+00  0.45593999997E+02  0.45594000000E+02  0.51100000000E-03 0.  1.
         11   -1    0    0    0    0 -0.00000000000E+00 -0.00000000000E+00 -0.45593999997E+02  0.45594000000E+02  0.51100000000E-03 0. -1.
    9900012    2    1    2    0    0 -0.40591657787E+02  0.19521562793E+02 -0.58260655936E+00  0.46142317342E+02  0.99999961762E+01 0.  0.
        -12    1    1    2    0    0  0.40591657787E+02 -0.19521562793E+02  0.58260655936E+00  0.45045682658E+02  0.00000000000E+00 0.  1.
         11    1    3    3    0    0 -0.35481284977E+02  0.15394747136E+02 -0.15216074320E+01  0.38707042156E+02  0.51100000000E-03 0. -1.
        -11    1    3    3    0    0 -0.46339969186E+01  0.44531924437E+01  0.11354753218E+00  0.64278879645E+01  0.51100000000E-03 0.  1.
         12    1    3    3    0    0 -0.47637589133E+00 -0.32637678716E+00  0.82545334050E+00  0.10073872217E+01  0.00000000000E+00 0. -1.
</event>
<event>
 7    1  0.1476909E-008  0.4614232E+02  0.7816164E-02  0.1320468E+00
        -11   -1    0    0    0    0  0.00000000000E+00  0.00000000000E+00  0.45593999997E+02  0.45594000000E+02  0.51100000000E-03 0. -1.
         11   -1    0    0    0    0 -0.00000000000E+00 -0.00000000000E+00 -0.45593999997E+02  0.45594000000E+02  0.51100000000E-03 0.  1.
    9900012    2    1    2    0    0  0.20172897451E+02  0.14772656870E+02  0.37469138979E+02  0.46142316984E+02  0.99999929126E+01 0.  0.
        -12    1    1    2    0    0 -0.20172897451E+02 -0.14772656870E+02 -0.37469138979E+02  0.45045683016E+02  0.00000000000E+00 0.  1.
         11    1    3    3    0    0  0.13134278835E+02  0.65252020209E+01  0.21881225011E+02  0.26341517613E+02  0.51100000000E-03 0. -1.
        -11    1    3    3    0    0 -0.80377463187E+00 -0.18766218964E-01  0.12564034261E+01  0.14916285262E+01  0.51100000000E-03 0.  1.
        -12    1    3    3    0    0  0.78423932479E+01  0.82662210678E+01  0.14331510542E+02  0.18309170844E+02  0.00000000000E+00 0.  1.
</event>
<event>
 7    1  0.1476909E-008  0.4614232E+02  0.7816164E-02  0.1320468E+00
        -11   -1    0    0    0    0  0.00000000000E+00  0.00000000000E+00  0.45593999997E+02  0.45594000000E+02  0.51100000000E-03 0. -1.
         11   -1    0    0    0    0 -0.00000000000E+00 -0.00000000000E+00 -0.45593999997E+02  0.45594000000E+02  0.51100000000E-03 0.  1.
    9900012    2    1    2    0    0 -0.29846767283E+02  0.33440560259E+02  0.44735806924E+01  0.46142317500E+02  0.99999976184E+01 0.  0.
        -12    1    1    2    0    0  0.29846767283E+02 -0.33440560259E+02 -0.44735806924E+01  0.45045682500E+02  0.00000000000E+00 0.  1.
         11    1    3    3    0    0 -0.20794011261E+02  0.25567573269E+02  0.38142647790E+01  0.33175899735E+02  0.51100000000E-03 0. -1.
        -11    1    3    3    0    0 -0.18496886522E+01  0.72897927103E+00  0.18948090977E+01  0.27464633013E+01  0.51100000000E-03 0.  1.
        -12    1    3    3    0    0 -0.72030673691E+01  0.71440077198E+01 -0.12354931843E+01  0.10219954463E+02  0.00000000000E+00 0.  1.
</event>
<event>
 7    1  0.1476909E-008  0.4614232E+02  0.7816164E-02  0.1320468E+00
        -11   -1    0    0    0    0  0.00000000000E+00  0.00000000000E+00  0.45593999997E+02  0.45594000000E+02  0.51100000000E-03 0.  1.
         11   -1    0    0    0    0 -0.00000000000E+00 -0.00000000000E+00 -0.45593999997E+02  0.45594000000E+02  0.51100000000E-03 0. -1.
    9900012    2    1    2    0    0  0.42770796457E+02  0.15210573199E+01 -0.14052004984E+02  0.46142317754E+02  0.99999999335E+01 0.  0.
        -12    1    1    2    0    0 -0.42770796457E+02 -0.15210573199E+01  0.14052004984E+02  0.45045682246E+02  0.00000000000E+00 0.  1.
         11    1    3    3    0    0  0.28532816767E+02 -0.18778360073E+01 -0.10374141288E+02  0.30418262745E+02  0.51100000000E-03 0. -1.
        -11    1    3    3    0    0  0.14830008964E+00  0.50496719923E+00  0.52035021172E+00  0.74010093423E+00  0.51100000000E-03 0.  1.
         12    1    3    3    0    0  0.14089679600E+02  0.28939261280E+01 -0.41982139083E+01  0.14983954074E+02  0.00000000000E+00 0. -1.
</event>
<event>
 7    1  0.1476909E-008  0.4614232E+02  0.7816164E-02  0.1320468E+00
        -11   -1    0    0    0    0  0.00000000000E+00  0.00000000000E+00  0.45593999997E+02  0.45594000000E+02  0.51100000000E-03 0. -1.
         11   -1    0    0    0    0 -0.00000000000E+00 -0.00000000000E+00 -0.45593999997E+02  0.45594000000E+02  0.51100000000E-03 0.  1.
    9900012    2    1    2    0    0  0.84175239548E+01  0.31933554476E+02  0.30635059614E+02  0.46142317760E+02  0.99999999864E+01 0.  0.
        -12    1    1    2    0    0 -0.84175239548E+01 -0.31933554476E+02 -0.30635059614E+02  0.45045682240E+02  0.00000000000E+00 0.  1.
         11    1    3    3    0    0  0.43733976857E+00  0.17576532920E+02  0.19010056299E+02  0.25894169543E+02  0.51100000000E-03 0. -1.
        -11    1    3    3    0    0  0.24068419015E+01  0.25456602074E+01  0.21139130354E+01  0.40916869886E+01  0.51100000000E-03 0.  1.
         12    1    3    3    0    0  0.55733422847E+01  0.11811361348E+02  0.95110902794E+01  0.16156461228E+02  0.00000000000E+00 0. -1.
</event>
<event>
 7    1  0.1476909E-008  0.4614232E+02  0.7816164E-02  0.1320468E+00
        -11   -1    0    0    0    0  0.00000000000E+00  0.00000000000E+00  0.45593999997E+02  0.45594000000E+02  0.51100000000E-03 0. -1.
         11   -1    0    0    0    0 -0.00000000000E+00 -0.00000000000E+00 -0.45593999997E+02  0.45594000000E+02  0.51100000000E-03 0.  1.
    9900012    2    1    2    0    0 -0.35101980328E+02 -0.27097538409E+02 -0.79175678745E+01  0.46142317723E+02  0.99999996528E+01 0.  0.
        -12    1    1    2    0    0  0.35101980328E+02  0.27097538409E+02  0.79175678745E+01  0.45045682277E+02  0.00000000000E+00 0.  1.
         11    1    3    3    0    0 -0.92814498313E+01 -0.56893137327E+01 -0.54918214250E+01  0.12193182708E+02  0.51100000000E-03 0. -1.
        -11    1    3    3    0    0 -0.57194437183E+00 -0.13594706650E+01  0.54453448927E+00  0.15721955746E+01  0.51100000000E-03 0.  1.
         12    1    3    3    0    0 -0.25248586125E+02 -0.20048754011E+02 -0.29702809388E+01  0.32376939441E+02  0.00000000000E+00 0. -1.
</event>
<event>
 7    1  0.1476909E-008  0.4614232E+02  0.7816164E-02  0.1320468E+00
        -11   -1    0    0    0    0  0.00000000000E+00  0.00000000000E+00  0.45593999997E+02  0.45594000000E+02  0.51100000000E-03 0.  1.
         11   -1    0    0    0    0 -0.00000000000E+00 -0.00000000000E+00 -0.45593999997E+02  0.45594000000E+02  0.51100000000E-03 0. -1.
    9900012    2    1    2    0    0  0.40682678214E+02  0.16993925901E+02 -0.92325328335E+01  0.46142317779E+02  0.10000000165E+02 0.  0.
        -12    1    1    2    0    0 -0.40682678214E+02 -0.16993925901E+02  0.92325328335E+01  0.45045682221E+02  0.00000000000E+00 0.  1.
         11    1    3    3    0    0  0.11103466562E+02  0.12210952927E+01 -0.27132735401E+01  0.11495211915E+02  0.51100000000E-03 0. -1.
        -11    1    3    3    0    0  0.64603510132E+01  0.59256412062E+01 -0.30411352736E+01  0.92788934109E+01  0.51100000000E-03 0.  1.
         12    1    3    3    0    0  0.23118860639E+02  0.98471894022E+01 -0.34781240198E+01  0.25368212453E+02  0.00000000000E+00 0. -1.
</event>
<event>
 7    1  0.1476909E-008  0.4614232E+02  0.7816164E-02  0.1320468E+00
        -11   -1    0    0    0    0  0.00000000000E+00  0.00000000000E+00  0.45593999997E+02  0.45594000000E+02  0.51100000000E-03 0.  1.
         11   -1    0    0    0    0 -0.00000000000E+00 -0.00000000000E+00 -0.45593999997E+02  0.45594000000E+02  0.51100000000E-03 0. -1.
    9900012    2    1    2    0    0 -0.17690840250E+02 -0.43474266906E+01 -0.41197664273E+02  0.46142317752E+02  0.99999999198E+01 0.  0.
        -12    1    1    2    0    0  0.17690840250E+02  0.43474266906E+01  0.41197664273E+02  0.45045682248E+02  0.00000000000E+00 0.  1.
         11    1    3    3    0    0 -0.75738922827E+01 -0.55909196401E+01 -0.13976218218E+02  0.16851020820E+02  0.51100000000E-03 0. -1.
        -11    1    3    3    0    0 -0.63054710320E+01  0.13844657708E+01 -0.21221375023E+02  0.22181579486E+02  0.51100000000E-03 0.  1.
        -12    1    3    3    0    0 -0.38114769350E+01 -0.14097282130E+00 -0.60000710325E+01  0.71097174456E+01  0.00000000000E+00 0.  1.
</event>
<event>
 7    1  0.1476909E-008  0.4614232E+02  0.7816164E-02  0.1320468E+00
        -11   -1    0    0    0    0  0.00000000000E+00  0.00000000000E+00  0.45593999997E+02  0.45594000000E+02  0.51100000000E-03 0. -1.
         11   -1    0    0    0    0 -0.00000000000E+00 -0.00000000000E+00 -0.45593999997E+02  0.45594000000E+02  0.51100000000E-03 0.  1.
    9900012    2    1    2    0    0 -0.39305137715E+02 -0.11118062028E+02  0.18989690481E+02  0.46142317647E+02  0.99999989615E+01 0.  0.
        -12    1    1    2    0    0  0.39305137715E+02  0.11118062028E+02 -0.18989690481E+02  0.45045682353E+02  0.00000000000E+00 0.  1.
         11    1    3    3    0    0 -0.14004469876E+02 -0.60535835883E+01  0.63289511517E+01  0.16517465717E+02  0.51100000000E-03 0. -1.
        -11    1    3    3    0    0 -0.80895061122E+01  0.13157263793E+01  0.21510634348E+01  0.84733888856E+01  0.51100000000E-03 0.  1.
        -12    1    3    3    0    0 -0.17211161726E+02 -0.63802048188E+01  0.10509675895E+02  0.21151463044E+02  0.00000000000E+00 0.  1.
</event>
<event>
 7    1  0.1476909E-008  0.4614232E+02  0.7816164E-02  0.1320468E+00
        -11   -1    0    0    0    0  0.00000000000E+00  0.00000000000E+00  0.45593999997E+02  0.45594000000E+02  0.51100000000E-03 0.  1.
         11   -1    0    0    0    0 -0.00000000000E+00 -0.00000000000E+00 -0.45593999997E+02  0.45594000000E+02  0.51100000000E-03 0. -1.
    9900012    2    1    2    0    0  0.15229496140E+02  0.35247221794E+02 -0.23554389565E+02  0.46142318025E+02  0.10000002403E+02 0.  0.
        -12    1    1    2    0    0 -0.15229496140E+02 -0.35247221794E+02  0.23554389565E+02  0.45045681975E+02  0.00000000000E+00 0.  1.
         11    1    3    3    0    0  0.58736771442E+01  0.18227558292E+02 -0.16554694962E+02  0.25314065063E+02  0.51100000000E-03 0. -1.
        -11    1    3    3    0    0  0.81980710545E+01  0.13042133179E+02 -0.47848054291E+01  0.16130715115E+02  0.51100000000E-03 0.  1.
        -12    1    3    3    0    0  0.11577479411E+01  0.39775303225E+01 -0.22148891735E+01  0.46975378458E+01  0.00000000000E+00 0.  1.
</event>
<event>
 7    1  0.1476909E-008  0.4614232E+02  0.7816164E-02  0.1320468E+00
        -11   -1    0    0    0    0  0.00000000000E+00  0.00000000000E+00  0.45593999997E+02  0.45594000000E+02  0.51100000000E-03 0. -1.
         11   -1    0    0    0    0 -0.00000000000E+00 -0.00000000000E+00 -0.45593999997E+02  0.45594000000E+02  0.51100000000E-03 0.  1.
    9900012    2    1    2    0    0 -0.25681506670E+02  0.11627963711E+02  0.35133515966E+02  0.46142320196E+02  0.10000022201E+02 0.  0.
        -12    1    1    2    0    0  0.25681506670E+02 -0.11627963711E+02 -0.35133515966E+02  0.45045679804E+02  0.00000000000E+00 0.  1.
         11    1    3    3    0    0 -0.16117802845E+02  0.69476141504E+01  0.16489863586E+02  0.24082535420E+02  0.51100000000E-03 0. -1.
        -11    1    3    3    0    0 -0.17562213895E+01  0.24716606810E+01  0.87734989589E+01  0.92826561034E+01  0.51100000000E-03 0.  1.
         12    1    3    3    0    0 -0.78074824352E+01  0.22086888799E+01  0.98701534212E+01  0.12777128672E+02  0.00000000000E+00 0. -1.
</event>
<event>
 7    1  0.1476909E-008  0.4614231E+02  0.7816164E-02  0.1320468E+00
        -11   -1    0    0    0    0  0.00000000000E+00  0.00000000000E+00  0.45593999997E+02  0.45594000000E+02  0.51100000000E-03 0. -1.
         11   -1    0    0    0    0 -0.00000000000E+00 -0.00000000000E+00 -0.45593999997E+02  0.45594000000E+02  0.51100000000E-03 0.  1.
    9900012    2    1    2    0    0  0.39291984230E+02  0.19501803345E+02  0.10243702241E+02  0.46142314368E+02  0.99999690618E+01 0.  0.
        -12    1    1    2    0    0 -0.39291984230E+02 -0.19501803345E+02 -0.10243702241E+02  0.45045685632E+02  0.00000000000E+00 0.  1.
         11    1    3    3    0    0  0.25206539604E+02  0.12085503680E+02  0.57578534479E+01  0.28540881461E+02  0.51100000000E-03 0. -1.
        -11    1    3    3    0    0  0.36439799967E+00  0.13960635255E+01 -0.87524133463E+00  0.16875505694E+01  0.51100000000E-03 0.  1.
        -12    1    3    3    0    0  0.13721046626E+02  0.60202361400E+01  0.53610901278E+01  0.15913882338E+02  0.00000000000E+00 0.  1.
</event>
<event>
 7    1  0.1476909E-008  0.4614232E+02  0.7816164E-02  0.1320468E+00
        -11   -1    0    0    0    0  0.00000000000E+00  0.00000000000E+00  0.45593999997E+02  0.45594000000E+02  0.51100000000E-03 0.  1.
         11   -1    0    0    0    0 -0.00000000000E+00 -0.00000000000E+00 -0.45593999997E+02  0.45594000000E+02  0.51100000000E-03 0. -1.
    9900012    2    1    2    0    0  0.11928038422E+02 -0.36676359440E+02  0.23274021113E+02  0.46142317620E+02  0.99999987102E+01 0.  0.
        -12    1    1    2    0    0 -0.11928038422E+02  0.36676359440E+02 -0.23274021113E+02  0.45045682380E+02  0.00000000000E+00 0.  1.
         11    1    3    3    0    0  0.18127218506E+01 -0.12029509842E+02  0.30405128905E+01  0.12539528956E+02  0.51100000000E-03 0. -1.
        -11    1    3    3    0    0  0.90140408523E+01 -0.20032938761E+02  0.17786064236E+02  0.28265095951E+02  0.51100000000E-03 0.  1.
         12    1    3    3    0    0  0.11012757194E+01 -0.46139108371E+01  0.24474439866E+01  0.53376927123E+01  0.00000000000E+00 0. -1.
</event>
<event>
 7    1  0.1476909E-008  0.4614232E+02  0.7816164E-02  0.1320468E+00
        -11   -1    0    0    0    0  0.00000000000E+00  0.00000000000E+00  0.45593999997E+02  0.45594000000E+02  0.51100000000E-03 0.  1.
         11   -1    0    0    0    0 -0.00000000000E+00 -0.00000000000E+00 -0.45593999997E+02  0.45594000000E+02  0.51100000000E-03 0. -1.
    9900012    2    1    2    0    0 -0.72638456847E+01 -0.44384159512E+02 -0.25291352755E+01  0.46142316578E+02  0.99999892097E+01 0.  0.
        -12    1    1    2    0    0  0.72638456847E+01  0.44384159512E+02  0.25291352755E+01  0.45045683422E+02  0.00000000000E+00 0.  1.
         11    1    3    3    0    0 -0.47183426668E+01 -0.31363450463E+02 -0.52903458108E+01  0.32154572638E+02  0.51100000000E-03 0. -1.
        -11    1    3    3    0    0 -0.15897723066E+01 -0.11578954213E+02  0.13693446148E+01  0.11767525721E+02  0.51100000000E-03 0.  1.
         12    1    3    3    0    0 -0.95573071118E+00 -0.14417548362E+01  0.13918659206E+01  0.22202182192E+01  0.00000000000E+00 0. -1.
</event>
<event>
 7    1  0.1476909E-008  0.4614232E+02  0.7816164E-02  0.1320468E+00
        -11   -1    0    0    0    0  0.00000000000E+00  0.00000000000E+00  0.45593999997E+02  0.45594000000E+02  0.51100000000E-03 0.  1.
         11   -1    0    0    0    0 -0.00000000000E+00 -0.00000000000E+00 -0.45593999997E+02  0.45594000000E+02  0.51100000000E-03 0. -1.
    9900012    2    1    2    0    0 -0.36824697570E+02 -0.25210822431E+02 -0.61212409217E+01  0.46142317530E+02  0.99999978942E+01 0.  0.
        -12    1    1    2    0    0  0.36824697570E+02  0.25210822431E+02  0.61212409217E+01  0.45045682470E+02  0.00000000000E+00 0.  1.
         11    1    3    3    0    0 -0.11266953950E+02 -0.47238943342E+01 -0.46195434344E+01  0.13061378595E+02  0.51100000000E-03 0. -1.
        -11    1    3    3    0    0 -0.35506787211E+01 -0.35008590898E+01  0.12631915205E+01  0.51438299763E+01  0.51100000000E-03 0.  1.
         12    1    3    3    0    0 -0.22007064898E+02 -0.16986069007E+02 -0.27648890079E+01  0.27937108959E+02  0.00000000000E+00 0. -1.
</event>
<event>
 7    1  0.1476909E-008  0.4614232E+02  0.7816164E-02  0.1320468E+00
        -11   -1    0    0    0    0  0.00000000000E+00  0.00000000000E+00  0.45593999997E+02  0.45594000000E+02  0.51100000000E-03 0.  1.
         11   -1    0    0    0    0 -0.00000000000E+00 -0.00000000000E+00 -0.45593999997E+02  0.45594000000E+02  0.51100000000E-03 0. -1.
    9900012    2    1    2    0    0  0.82105497599E+01 -0.20435764765E+02 -0.39294782627E+02  0.46142317070E+02  0.99999936993E+01 0.  0.
        -12    1    1    2    0    0 -0.82105497599E+01  0.20435764765E+02  0.39294782627E+02  0.45045682930E+02  0.00000000000E+00 0.  1.
         11    1    3    3    0    0  0.56569390508E+01 -0.50491044104E+01 -0.13745846863E+02  0.15698494228E+02  0.51100000000E-03 0. -1.
        -11    1    3    3    0    0  0.93684060300E+00 -0.11094913047E+02 -0.21955756593E+02  0.24617676854E+02  0.51100000000E-03 0.  1.
        -12    1    3    3    0    0  0.16167701061E+01 -0.42917473074E+01 -0.35931791713E+01  0.58261459888E+01  0.00000000000E+00 0.  1.
</event>
<event>
 7    1  0.1476909E-008  0.4614232E+02  0.7816164E-02  0.1320468E+00
        -11   -1    0    0    0    0  0.00000000000E+00  0.00000000000E+00  0.45593999997E+02  0.45594000000E+02  0.51100000000E-03 0. -1.
         11   -1    0    0    0    0 -0.00000000000E+00 -0.00000000000E+00 -0.45593999997E+02  0.45594000000E+02  0.51100000000E-03 0.  1.
    9900012    2    1    2    0    0  0.36712892219E+02 -0.25901092602E+02 -0.32265250496E+01  0.46142317444E+02  0.99999971084E+01 0.  0.
        -12    1    1    2    0    0 -0.36712892219E+02  0.25901092602E+02  0.32265250496E+01  0.45045682556E+02  0.00000000000E+00 0.  1.
         11    1    3    3    0    0  0.20571323281E+02 -0.13751470239E+02  0.22524363627E+01  0.24846644544E+02  0.51100000000E-03 0. -1.
        -11    1    3    3    0    0  0.67417795844E+01 -0.55604445842E+01 -0.43478158355E+01  0.97608216221E+01  0.51100000000E-03 0.  1.
        -12    1    3    3    0    0  0.93997893535E+01 -0.65891777790E+01 -0.11311455768E+01  0.11534851278E+02  0.00000000000E+00 0.  1.
</event>
<event>
 7    1  0.1476909E-008  0.4614232E+02  0.7816164E-02  0.1320468E+00
        -11   -1    0    0    0    0  0.00000000000E+00  0.00000000000E+00  0.45593999997E+02  0.45594000000E+02  0.51100000000E-03 0.  1.
         11   -1    0    0    0    0 -0.00000000000E+00 -0.00000000000E+00 -0.45593999997E+02  0.45594000000E+02  0.51100000000E-03 0. -1.
    9900012    2    1    2    0    0  0.31269142587E+02  0.16175915786E+02 -0.28101495340E+02  0.46142316855E+02  0.99999917393E+01 0.  0.
        -12    1    1    2    0    0 -0.31269142587E+02 -0.16175915786E+02  0.28101495340E+02  0.45045683145E+02  0.00000000000E+00 0.  1.
         11    1    3    3    0    0  0.13497939882E+02  0.43361185636E+01 -0.11933342351E+02  0.18531081058E+02  0.51100000000E-03 0. -1.
        -11    1    3    3    0    0  0.40672708079E+01  0.35116029532E-01 -0.46031452359E+01  0.61427087905E+01  0.51100000000E-03 0.  1.
        -12    1    3    3    0    0  0.13703931897E+02  0.11804681193E+02 -0.11565007753E+02  0.21468527007E+02  0.00000000000E+00 0.  1.
</event>
<event>
 7    1  0.1476909E-008  0.4614232E+02  0.7816164E-02  0.1320468E+00
        -11   -1    0    0    0    0  0.00000000000E+00  0.00000000000E+00  0.45593999997E+02  0.45594000000E+02  0.51100000000E-03 0.  1.
         11   -1    0    0    0    0 -0.00000000000E+00 -0.00000000000E+00 -0.45593999997E+02  0.45594000000E+02  0.51100000000E-03 0. -1.
    9900012    2    1    2    0    0 -0.11269336553E+02 -0.35038292304E+02 -0.25969858364E+02  0.46142318549E+02  0.10000007183E+02 0.  0.
        -12    1    1    2    0    0  0.11269336553E+02  0.35038292304E+02  0.25969858364E+02  0.45045681451E+02  0.00000000000E+00 0.  1.
         11    1    3    3    0    0 -0.71200265228E+01 -0.24320436946E+02 -0.16548040466E+02  0.30265757457E+02  0.51100000000E-03 0. -1.
        -11    1    3    3    0    0 -0.63091397511E+00 -0.30443001701E+01  0.15178047101E+00  0.31126923301E+01  0.51100000000E-03 0.  1.
        -12    1    3    3    0    0 -0.35183960551E+01 -0.76735551883E+01 -0.95735983696E+01  0.12763868762E+02  0.00000000000E+00 0.  1.
</event>
<event>
 7    1  0.1476909E-008  0.4614233E+02  0.7816164E-02  0.1320468E+00
        -11   -1    0    0    0    0  0.00000000000E+00  0.00000000000E+00  0.45593999997E+02  0.45594000000E+02  0.51100000000E-03 0. -1.
         11   -1    0    0    0    0 -0.00000000000E+00 -0.00000000000E+00 -0.45593999997E+02  0.45594000000E+02  0.51100000000E-03 0.  1.
    9900012    2    1    2    0    0  0.31215360301E+02 -0.21015173476E+02  0.24760377896E+02  0.46142328193E+02  0.10000095129E+02 0.  0.
        -12    1    1    2    0    0 -0.31215360301E+02  0.21015173476E+02 -0.24760377896E+02  0.45045671807E+02  0.00000000000E+00 0.  1.
         11    1    3    3    0    0  0.24748761991E+01 -0.15905073250E+01  0.35149864630E+01  0.45836509300E+01  0.51100000000E-03 0. -1.
        -11    1    3    3    0    0  0.56756958442E+01 -0.81614864784E+01  0.45045842507E+01  0.10913966483E+02  0.51100000000E-03 0.  1.
        -12    1    3    3    0    0  0.23064788258E+02 -0.11263179673E+02  0.16740807182E+02  0.30644710781E+02  0.00000000000E+00 0.  1.
</event>
<event>
 7    1  0.1476909E-008  0.4614232E+02  0.7816164E-02  0.1320468E+00
        -11   -1    0    0    0    0  0.00000000000E+00  0.00000000000E+00  0.45593999997E+02  0.45594000000E+02  0.51100000000E-03 0.  1.
         11   -1    0    0    0    0 -0.00000000000E+00 -0.00000000000E+00 -0.45593999997E+02  0.45594000000E+02  0.51100000000E-03 0. -1.
    9900012    2    1    2    0    0  0.68919494039E+01 -0.50126920572E+01 -0.44232199580E+02  0.46142317322E+02  0.99999959997E+01 0.  0.
        -12    1    1    2    0    0 -0.68919494039E+01  0.50126920572E+01  0.44232199580E+02  0.45045682678E+02  0.00000000000E+00 0.  1.
         11    1    3    3    0    0  0.90314687848E+00 -0.61223682145E-01 -0.17340215118E+02  0.17363826860E+02  0.51100000000E-03 0. -1.
        -11    1    3    3    0    0  0.51192911255E+01 -0.41803177802E+01 -0.10920500898E+02  0.12764777260E+02  0.51100000000E-03 0.  1.
        -12    1    3    3    0    0  0.86951139987E+00 -0.77115059486E+00 -0.15971483563E+02  0.16013713202E+02  0.00000000000E+00 0.  1.
</event>
<event>
 7    1  0.1476909E-008  0.4614232E+02  0.7816164E-02  0.1320468E+00
        -11   -1    0    0    0    0  0.00000000000E+00  0.00000000000E+00  0.45593999997E+02  0.45594000000E+02  0.51100000000E-03 0.  1.
         11   -1    0    0    0    0 -0.00000000000E+00 -0.00000000000E+00 -0.45593999997E+02  0.45594000000E+02  0.51100000000E-03 0. -1.
    9900012    2    1    2    0    0  0.82112086745E+01 -0.10639790542E+02 -0.42994003237E+02  0.46142318687E+02  0.10000008439E+02 0.  0.
        -12    1    1    2    0    0 -0.82112086745E+01  0.10639790542E+02  0.42994003237E+02  0.45045681313E+02  0.00000000000E+00 0.  1.
         11    1    3    3    0    0  0.71501684019E+00 -0.49779654929E+01 -0.16984537233E+02  0.17713438255E+02  0.51100000000E-03 0. -1.
        -11    1    3    3    0    0  0.38408781077E+01 -0.35494574471E+01 -0.59138796871E+01  0.78946162682E+01  0.51100000000E-03 0.  1.
        -12    1    3    3    0    0  0.36553137265E+01 -0.21123676019E+01 -0.20095586316E+02  0.20534264163E+02  0.00000000000E+00 0.  1.
</event>
<event>
 7    1  0.1476909E-008  0.4614232E+02  0.7816164E-02  0.1320468E+00
        -11   -1    0    0    0    0  0.00000000000E+00  0.00000000000E+00  0.45593999997E+02  0.45594000000E+02  0.51100000000E-03 0.  1.
         11   -1    0    0    0    0 -0.00000000000E+00 -0.00000000000E+00 -0.45593999997E+02  0.45594000000E+02  0.51100000000E-03 0. -1.
    9900012    2    1    2    0    0  0.84640761387E+01 -0.23560236513E+02 -0.37448472695E+02  0.46142318335E+02  0.10000005236E+02 0.  0.
        -12    1    1    2    0    0 -0.84640761387E+01  0.23560236513E+02  0.37448472695E+02  0.45045681665E+02  0.00000000000E+00 0.  1.
         11    1    3    3    0    0  0.77476459308E+01 -0.23199264631E+02 -0.33634212924E+02  0.41587163598E+02  0.51100000000E-03 0. -1.
        -11    1    3    3    0    0  0.12341244042E+01  0.57479674134E+00 -0.26161495587E+01  0.29491851609E+01  0.51100000000E-03 0.  1.
         12    1    3    3    0    0 -0.51769419632E+00 -0.93576862332E+00 -0.11981102127E+01  0.16059695760E+01  0.00000000000E+00 0. -1.
</event>
<event>
 7    1  0.1476909E-008  0.4614232E+02  0.7816164E-02  0.1320468E+00
        -11   -1    0    0    0    0  0.00000000000E+00  0.00000000000E+00  0.45593999997E+02  0.45594000000E+02  0.51100000000E-03 0.  1.
         11   -1    0    0    0    0 -0.00000000000E+00 -0.00000000000E+00 -0.45593999997E+02  0.45594000000E+02  0.51100000000E-03 0. -1.
    9900012    2    1    2    0    0  0.11426588240E+02  0.32513540541E+02 -0.29007173904E+02  0.46142319017E+02  0.10000011455E+02 0.  0.
        -12    1    1    2    0    0 -0.11426588240E+02 -0.32513540541E+02  0.29007173904E+02  0.45045680983E+02  0.00000000000E+00 0.  1.
         11    1    3    3    0    0  0.36913086211E+01  0.41338706346E+01 -0.25862773809E+01  0.61158381856E+01  0.51100000000E-03 0.  1.
        -11    1    3    3    0    0  0.36036511532E+01  0.19944729657E+02 -0.20984777178E+02  0.29174293756E+02  0.51100000000E-03 0. -1.
        -12    1    3    3    0    0  0.41316284652E+01  0.84349402495E+01 -0.54361193456E+01  0.10852187076E+02  0.00000000000E+00 0.  1.
</event>
<event>
 7    1  0.1476909E-008  0.4614232E+02  0.7816164E-02  0.1320468E+00
        -11   -1    0    0    0    0  0.00000000000E+00  0.00000000000E+00  0.45593999997E+02  0.45594000000E+02  0.51100000000E-03 0.  1.
         11   -1    0    0    0    0 -0.00000000000E+00 -0.00000000000E+00 -0.45593999997E+02  0.45594000000E+02  0.51100000000E-03 0. -1.
    9900012    2    1    2    0    0  0.80884601563E+01 -0.30345998078E+02 -0.32292579977E+02  0.46142317536E+02  0.99999979482E+01 0.  0.
        -12    1    1    2    0    0 -0.80884601563E+01  0.30345998078E+02  0.32292579977E+02  0.45045682464E+02  0.00000000000E+00 0.  1.
         11    1    3    3    0    0  0.58796662594E+01 -0.15311747345E+02 -0.12216650377E+02  0.20451567881E+02  0.51100000000E-03 0. -1.
        -11    1    3    3    0    0  0.24068717737E+01 -0.89120857951E+01 -0.15515846571E+02  0.18054356815E+02  0.51100000000E-03 0.  1.
        -12    1    3    3    0    0 -0.19807787672E+00 -0.61221649376E+01 -0.45600830301E+01  0.76363928402E+01  0.00000000000E+00 0.  1.
</event>
<event>
 7    1  0.1522799E-008  0.4614232E+02  0.7816164E-02  0.1320468E+00
        -11   -1    0    0    0    0  0.00000000000E+00  0.00000000000E+00  0.45593999997E+02  0.45594000000E+02  0.51100000000E-03 0.  1.
         11   -1    0    0    0    0 -0.00000000000E+00 -0.00000000000E+00 -0.45593999997E+02  0.45594000000E+02  0.51100000000E-03 0. -1.
    9900012    2    1    2    0    0 -0.32913596759E+02  0.28417306641E+02 -0.11758607477E+02  0.46142322981E+02  0.10000047597E+02 0.  0.
        -12    1    1    2    0    0  0.32913596759E+02 -0.28417306641E+02  0.11758607477E+02  0.45045677019E+02  0.00000000000E+00 0.  1.
         11    1    3    3    0    0 -0.21163119713E+02  0.19634595252E+02 -0.58147641785E+01  0.29448369215E+02  0.51100000000E-03 0. -1.
        -11    1    3    3    0    0 -0.10693942311E+02  0.58591219926E+01 -0.59885161171E+01  0.13584993125E+02  0.51100000000E-03 0.  1.
        -12    1    3    3    0    0 -0.10565347352E+01  0.29235893964E+01  0.44672818641E-01  0.31089606408E+01  0.00000000000E+00 0.  1.
</event>
<event>
 7    1  0.1476909E-008  0.4614232E+02  0.7816164E-02  0.1320468E+00
        -11   -1    0    0    0    0  0.00000000000E+00  0.00000000000E+00  0.45593999997E+02  0.45594000000E+02  0.51100000000E-03 0.  1.
         11   -1    0    0    0    0 -0.00000000000E+00 -0.00000000000E+00 -0.45593999997E+02  0.45594000000E+02  0.51100000000E-03 0. -1.
    9900012    2    1    2    0    0  0.17986488532E+02 -0.44157427245E+01 -0.41062159109E+02  0.46142318029E+02  0.10000002445E+02 0.  0.
        -12    1    1    2    0    0 -0.17986488532E+02  0.44157427245E+01  0.41062159109E+02  0.45045681971E+02  0.00000000000E+00 0.  1.
         11    1    3    3    0    0  0.13699375663E+02 -0.57641079280E+01 -0.31130378933E+02  0.34496352366E+02  0.51100000000E-03 0.  1.
        -11    1    3    3    0    0  0.11977765412E+01 -0.44712784811E+00 -0.21947398148E+00  0.12972127986E+01  0.51100000000E-03 0. -1.
         12    1    3    3    0    0  0.30893363273E+01  0.17954930516E+01 -0.97123061946E+01  0.10348752865E+02  0.00000000000E+00 0. -1.
</event>
<event>
 7    1  0.1476909E-008  0.4614232E+02  0.7816164E-02  0.1320468E+00
        -11   -1    0    0    0    0  0.00000000000E+00  0.00000000000E+00  0.45593999997E+02  0.45594000000E+02  0.51100000000E-03 0. -1.
         11   -1    0    0    0    0 -0.00000000000E+00 -0.00000000000E+00 -0.45593999997E+02  0.45594000000E+02  0.51100000000E-03 0.  1.
    9900012    2    1    2    0    0  0.21765156883E+02  0.34902782412E+02  0.18362657549E+02  0.46142318004E+02  0.10000002211E+02 0.  0.
        -12    1    1    2    0    0 -0.21765156883E+02 -0.34902782412E+02 -0.18362657549E+02  0.45045681996E+02  0.00000000000E+00 0.  1.
         11    1    3    3    0    0  0.17003973337E+02  0.29928704602E+02  0.12705644840E+02  0.36691904822E+02  0.51100000000E-03 0. -1.
        -11    1    3    3    0    0  0.51056141465E+01  0.47072975085E+01  0.46620521200E+01  0.83642498694E+01  0.51100000000E-03 0.  1.
         12    1    3    3    0    0 -0.34443060031E+00  0.26678030182E+00  0.99496058875E+00  0.10861633123E+01  0.00000000000E+00 0. -1.
</event>
<event>
 7    1  0.1476909E-008  0.4614232E+02  0.7816164E-02  0.1320468E+00
        -11   -1    0    0    0    0  0.00000000000E+00  0.00000000000E+00  0.45593999997E+02  0.45594000000E+02  0.51100000000E-03 0.  1.
         11   -1    0    0    0    0 -0.00000000000E+00 -0.00000000000E+00 -0.45593999997E+02  0.45594000000E+02  0.51100000000E-03 0. -1.
    9900012    2    1    2    0    0 -0.23177974102E+02  0.26121430910E+01 -0.38536629499E+02  0.46142316654E+02  0.99999899023E+01 0.  0.
        -12    1    1    2    0    0  0.23177974102E+02 -0.26121430910E+01  0.38536629499E+02  0.45045683346E+02  0.00000000000E+00 0.  1.
         11    1    3    3    0    0 -0.16604622760E+02  0.18005844949E+01 -0.25382294939E+02  0.30384477915E+02  0.51100000000E-03 0. -1.
        -11    1    3    3    0    0 -0.37499084264E+01  0.24848613545E+01 -0.39524634231E+01  0.59881814042E+01  0.51100000000E-03 0.  1.
        -12    1    3    3    0    0 -0.28234429153E+01 -0.16733027584E+01 -0.92018711372E+01  0.97696573349E+01  0.00000000000E+00 0.  1.
</event>
<event>
 7    1  0.1476909E-008  0.4614232E+02  0.7816164E-02  0.1320468E+00
        -11   -1    0    0    0    0  0.00000000000E+00  0.00000000000E+00  0.45593999997E+02  0.45594000000E+02  0.51100000000E-03 0.  1.
         11   -1    0    0    0    0 -0.00000000000E+00 -0.00000000000E+00 -0.45593999997E+02  0.45594000000E+02  0.51100000000E-03 0. -1.
    9900012    2    1    2    0    0  0.11426226045E+01 -0.21136116598E+02 -0.39762700498E+02  0.46142319162E+02  0.10000012773E+02 0.  0.
        -12    1    1    2    0    0 -0.11426226045E+01  0.21136116598E+02  0.39762700498E+02  0.45045680838E+02  0.00000000000E+00 0.  1.
         11    1    3    3    0    0  0.18393794279E+01 -0.10720853635E+02 -0.14330102962E+02  0.17990882983E+02  0.51100000000E-03 0. -1.
        -11    1    3    3    0    0 -0.27531223834E+01 -0.90996104347E+01 -0.21702705267E+02  0.23693670233E+02  0.51100000000E-03 0.  1.
        -12    1    3    3    0    0  0.20563655600E+01 -0.13156525284E+01 -0.37298922687E+01  0.44577659459E+01  0.00000000000E+00 0.  1.
</event>
<event>
 7    1  0.1555023E-008  0.4614232E+02  0.7816164E-02  0.1320468E+00
        -11   -1    0    0    0    0  0.00000000000E+00  0.00000000000E+00  0.45593999997E+02  0.45594000000E+02  0.51100000000E-03 0. -1.
         11   -1    0    0    0    0 -0.00000000000E+00 -0.00000000000E+00 -0.45593999997E+02  0.45594000000E+02  0.51100000000E-03 0.  1.
    9900012    2    1    2    0    0  0.27764410417E+02 -0.35452866560E+02  0.11598484254E+01  0.46142317837E+02  0.10000000696E+02 0.  0.
        -12    1    1    2    0    0 -0.27764410417E+02  0.35452866560E+02 -0.11598484254E+01  0.45045682163E+02  0.00000000000E+00 0.  1.
         11    1    3    3    0    0  0.12968361954E+02 -0.18258660213E+02  0.42515374508E+01  0.22795452518E+02  0.51100000000E-03 0. -1.
        -11    1    3    3    0    0  0.85721893322E+01 -0.10531296948E+02 -0.40726448241E+01  0.14176638582E+02  0.51100000000E-03 0.  1.
        -12    1    3    3    0    0  0.62238591309E+01 -0.66629093983E+01  0.98095579870E+00  0.91702267372E+01  0.00000000000E+00 0.  1.
</event>
<event>
 7    1  0.1476909E-008  0.4614232E+02  0.7816164E-02  0.1320468E+00
        -11   -1    0    0    0    0  0.00000000000E+00  0.00000000000E+00  0.45593999997E+02  0.45594000000E+02  0.51100000000E-03 0.  1.
         11   -1    0    0    0    0 -0.00000000000E+00 -0.00000000000E+00 -0.45593999997E+02  0.45594000000E+02  0.51100000000E-03 0. -1.
    9900012    2    1    2    0    0  0.37302566361E+02 -0.21611595323E+02  0.13060280947E+02  0.46142318210E+02  0.10000004096E+02 0.  0.
        -12    1    1    2    0    0 -0.37302566361E+02  0.21611595323E+02 -0.13060280947E+02  0.45045681790E+02  0.00000000000E+00 0.  1.
         11    1    3    3    0    0  0.12440106960E+02 -0.70700251156E+01  0.60465742183E+01  0.15533916967E+02  0.51100000000E-03 0. -1.
        -11    1    3    3    0    0  0.22906398780E+02 -0.13077165931E+02  0.39200131442E+01  0.26666118525E+02  0.51100000000E-03 0.  1.
        -12    1    3    3    0    0  0.19560606209E+01 -0.14644042758E+01  0.30936935846E+01  0.39422827184E+01  0.00000000000E+00 0.  1.
</event>
<event>
 7    1  0.1476909E-008  0.4614232E+02  0.7816164E-02  0.1320468E+00
        -11   -1    0    0    0    0  0.00000000000E+00  0.00000000000E+00  0.45593999997E+02  0.45594000000E+02  0.51100000000E-03 0.  1.
         11   -1    0    0    0    0 -0.00000000000E+00 -0.00000000000E+00 -0.45593999997E+02  0.45594000000E+02  0.51100000000E-03 0. -1.
    9900012    2    1    2    0    0 -0.11294853539E+02 -0.30804102784E+02 -0.30864978331E+02  0.46142319273E+02  0.10000013787E+02 0.  0.
        -12    1    1    2    0    0  0.11294853539E+02  0.30804102784E+02  0.30864978331E+02  0.45045680727E+02  0.00000000000E+00 0.  1.
         11    1    3    3    0    0 -0.61759192274E+01 -0.10179132633E+02 -0.12811906185E+02  0.17490044592E+02  0.51100000000E-03 0. -1.
        -11    1    3    3    0    0 -0.71034125114E+00 -0.32278508648E+01 -0.15921439997E+00  0.33089205770E+01  0.51100000000E-03 0.  1.
        -12    1    3    3    0    0 -0.44085930600E+01 -0.17397119286E+02 -0.17893857746E+02  0.25343354104E+02  0.00000000000E+00 0.  1.
</event>
<event>
 7    1  0.1476909E-008  0.4614232E+02  0.7816164E-02  0.1320468E+00
        -11   -1    0    0    0    0  0.00000000000E+00  0.00000000000E+00  0.45593999997E+02  0.45594000000E+02  0.51100000000E-03 0. -1.
         11   -1    0    0    0    0 -0.00000000000E+00 -0.00000000000E+00 -0.45593999997E+02  0.45594000000E+02  0.51100000000E-03 0.  1.
    9900012    2    1    2    0    0 -0.41765334850E+02  0.40335949318E+01  0.16385982913E+02  0.46142317419E+02  0.99999968791E+01 0.  0.
        -12    1    1    2    0    0  0.41765334850E+02 -0.40335949318E+01 -0.16385982913E+02  0.45045682581E+02  0.00000000000E+00 0.  1.
         11    1    3    3    0    0 -0.17283953989E+02  0.54290687816E+01  0.89513986106E+01  0.20207359814E+02  0.51100000000E-03 0. -1.
        -11    1    3    3    0    0 -0.13001417598E+02 -0.24867264504E+01  0.49939596356E+01  0.14147801988E+02  0.51100000000E-03 0.  1.
        -12    1    3    3    0    0 -0.11479963263E+02  0.10912526006E+01  0.24406246666E+01  0.11787155616E+02  0.00000000000E+00 0.  1.
</event>
<event>
 7    1  0.1476909E-008  0.4614232E+02  0.7816164E-02  0.1320468E+00
        -11   -1    0    0    0    0  0.00000000000E+00  0.00000000000E+00  0.45593999997E+02  0.45594000000E+02  0.51100000000E-03 0.  1.
         11   -1    0    0    0    0 -0.00000000000E+00 -0.00000000000E+00 -0.45593999997E+02  0.45594000000E+02  0.51100000000E-03 0. -1.
    9900012    2    1    2    0    0 -0.13042219650E+02 -0.35564049972E+02 -0.24376474143E+02  0.46142316129E+02  0.99999851134E+01 0.  0.
        -12    1    1    2    0    0  0.13042219650E+02  0.35564049972E+02  0.24376474143E+02  0.45045683871E+02  0.00000000000E+00 0.  1.
         11    1    3    3    0    0 -0.44240189927E-01 -0.83526997104E+01 -0.72482687241E+01  0.11059247235E+02  0.51100000000E-03 0. -1.
        -11    1    3    3    0    0 -0.12155115148E+02 -0.22413951785E+02 -0.12636162756E+02  0.28457067107E+02  0.51100000000E-03 0.  1.
        -12    1    3    3    0    0 -0.84286431237E+00 -0.47973984761E+01 -0.44920426629E+01  0.66260017864E+01  0.00000000000E+00 0.  1.
</event>
<event>
 7    1  0.1476909E-008  0.4614232E+02  0.7816164E-02  0.1320468E+00
        -11   -1    0    0    0    0  0.00000000000E+00  0.00000000000E+00  0.45593999997E+02  0.45594000000E+02  0.51100000000E-03 0.  1.
         11   -1    0    0    0    0 -0.00000000000E+00 -0.00000000000E+00 -0.45593999997E+02  0.45594000000E+02  0.51100000000E-03 0. -1.
    9900012    2    1    2    0    0  0.21264972561E+02  0.74542583080E+01 -0.39004469094E+02  0.46142316142E+02  0.99999852317E+01 0.  0.
        -12    1    1    2    0    0 -0.21264972561E+02 -0.74542583080E+01  0.39004469094E+02  0.45045683858E+02  0.00000000000E+00 0.  1.
         11    1    3    3    0    0  0.94051492651E+01  0.35012926915E+01 -0.12294076508E+02  0.15870103990E+02  0.51100000000E-03 0. -1.
        -11    1    3    3    0    0 -0.35523033715E+00  0.17460775079E+01 -0.25670235567E+01  0.31248336688E+01  0.51100000000E-03 0.  1.
        -12    1    3    3    0    0  0.12215053633E+02  0.22068881087E+01 -0.24143369029E+02  0.27147378483E+02  0.00000000000E+00 0.  1.
</event>
<event>
 7    1  0.1476909E-008  0.4614232E+02  0.7816164E-02  0.1320468E+00
        -11   -1    0    0    0    0  0.00000000000E+00  0.00000000000E+00  0.45593999997E+02  0.45594000000E+02  0.51100000000E-03 0.  1.
         11   -1    0    0    0    0 -0.00000000000E+00 -0.00000000000E+00 -0.45593999997E+02  0.45594000000E+02  0.51100000000E-03 0. -1.
    9900012    2    1    2    0    0  0.37745056916E+02 -0.11487138005E+02 -0.21736372724E+02  0.46142316962E+02  0.99999927137E+01 0.  0.
        -12    1    1    2    0    0 -0.37745056916E+02  0.11487138005E+02  0.21736372724E+02  0.45045683038E+02  0.00000000000E+00 0.  1.
         11    1    3    3    0    0  0.22273202079E+02 -0.94368520882E+01 -0.13000248331E+02  0.27461903888E+02  0.51100000000E-03 0. -1.
        -11    1    3    3    0    0  0.15872118854E+01  0.49137355490E-01 -0.32258490825E+01  0.35955192411E+01  0.51100000000E-03 0.  1.
        -12    1    3    3    0    0  0.13884642951E+02 -0.20994232721E+01 -0.55102753105E+01  0.15084893833E+02  0.00000000000E+00 0.  1.
</event>
<event>
 7    1  0.1476909E-008  0.4614232E+02  0.7816164E-02  0.1320468E+00
        -11   -1    0    0    0    0  0.00000000000E+00  0.00000000000E+00  0.45593999997E+02  0.45594000000E+02  0.51100000000E-03 0. -1.
         11   -1    0    0    0    0 -0.00000000000E+00 -0.00000000000E+00 -0.45593999997E+02  0.45594000000E+02  0.51100000000E-03 0.  1.
    9900012    2    1    2    0    0 -0.62309967184E+01 -0.26884665918E+02  0.35602006993E+02  0.46142317814E+02  0.10000000484E+02 0.  0.
        -12    1    1    2    0    0  0.62309967184E+01  0.26884665918E+02 -0.35602006993E+02  0.45045682186E+02  0.00000000000E+00 0.  1.
         11    1    3    3    0    0 -0.13048797513E+01 -0.16274338477E+02  0.13710039031E+02  0.21319520973E+02  0.51100000000E-03 0. -1.
        -11    1    3    3    0    0 -0.27233597544E+01 -0.56193441148E+01  0.11520039643E+02  0.13103626607E+02  0.51100000000E-03 0.  1.
         12    1    3    3    0    0 -0.22027572127E+01 -0.49909833261E+01  0.10371928319E+02  0.11719170233E+02  0.00000000000E+00 0. -1.
</event>
<event>
 7    1  0.1476909E-008  0.4614231E+02  0.7816164E-02  0.1320468E+00
        -11   -1    0    0    0    0  0.00000000000E+00  0.00000000000E+00  0.45593999997E+02  0.45594000000E+02  0.51100000000E-03 0. -1.
         11   -1    0    0    0    0 -0.00000000000E+00 -0.00000000000E+00 -0.45593999997E+02  0.45594000000E+02  0.51100000000E-03 0.  1.
    9900012    2    1    2    0    0  0.27281262684E+02 -0.16629520221E+02 -0.31753826854E+02  0.46142314787E+02  0.99999728778E+01 0.  0.
        -12    1    1    2    0    0 -0.27281262684E+02  0.16629520221E+02  0.31753826854E+02  0.45045685213E+02  0.00000000000E+00 0.  1.
         11    1    3    3    0    0  0.17514714333E+02 -0.14021090014E+02 -0.19507295218E+02  0.29730300206E+02  0.51100000000E-03 0. -1.
        -11    1    3    3    0    0  0.96666288110E+01 -0.19607434494E+01 -0.98969680566E+01  0.13972766527E+02  0.51100000000E-03 0.  1.
         12    1    3    3    0    0  0.99919539608E-01 -0.64768675757E+00 -0.23495635802E+01  0.24392480538E+01  0.00000000000E+00 0. -1.
</event>
<event>
 7    1  0.1476909E-008  0.4614231E+02  0.7816164E-02  0.1320468E+00
        -11   -1    0    0    0    0  0.00000000000E+00  0.00000000000E+00  0.45593999997E+02  0.45594000000E+02  0.51100000000E-03 0.  1.
         11   -1    0    0    0    0 -0.00000000000E+00 -0.00000000000E+00 -0.45593999997E+02  0.45594000000E+02  0.51100000000E-03 0. -1.
    9900012    2    1    2    0    0 -0.29141152956E+02 -0.33348385293E+02 -0.82336504812E+01  0.46142305450E+02  0.99998877363E+01 0.  0.
        -12    1    1    2    0    0  0.29141152956E+02  0.33348385293E+02  0.82336504812E+01  0.45045694550E+02  0.00000000000E+00 0.  1.
         11    1    3    3    0    0 -0.20576825273E+01 -0.74581560276E+01 -0.24485787751E+00  0.77406785462E+01  0.51100000000E-03 0. -1.
        -11    1    3    3    0    0 -0.21752969047E+02 -0.20382528447E+02 -0.73966581001E+01  0.30713998104E+02  0.51100000000E-03 0.  1.
        -12    1    3    3    0    0 -0.53305013817E+01 -0.55077008183E+01 -0.59213450359E+00  0.76876287992E+01  0.00000000000E+00 0.  1.
</event>
<event>
 7    1  0.1476909E-008  0.4614232E+02  0.7816164E-02  0.1320468E+00
        -11   -1    0    0    0    0  0.00000000000E+00  0.00000000000E+00  0.45593999997E+02  0.45594000000E+02  0.51100000000E-03 0.  1.
         11   -1    0    0    0    0 -0.00000000000E+00 -0.00000000000E+00 -0.45593999997E+02  0.45594000000E+02  0.51100000000E-03 0. -1.
    9900012    2    1    2    0    0 -0.17092820200E+02 -0.67439450565E+01 -0.41127463047E+02  0.46142317477E+02  0.99999974093E+01 0.  0.
        -12    1    1    2    0    0  0.17092820200E+02  0.67439450565E+01  0.41127463047E+02  0.45045682523E+02  0.00000000000E+00 0.  1.
         11    1    3    3    0    0 -0.12576190213E+02 -0.47655463822E+01 -0.27762430046E+02  0.30848395662E+02  0.51100000000E-03 0. -1.
        -11    1    3    3    0    0 -0.22973405161E+01  0.17522627066E+01 -0.71622446357E+01  0.77230788241E+01  0.51100000000E-03 0.  1.
        -12    1    3    3    0    0 -0.22192894707E+01 -0.37306613809E+01 -0.62027883644E+01  0.75708429905E+01  0.00000000000E+00 0.  1.
</event>
<event>
 7    1  0.1476909E-008  0.4614232E+02  0.7816164E-02  0.1320468E+00
        -11   -1    0    0    0    0  0.00000000000E+00  0.00000000000E+00  0.45593999997E+02  0.45594000000E+02  0.51100000000E-03 0.  1.
         11   -1    0    0    0    0 -0.00000000000E+00 -0.00000000000E+00 -0.45593999997E+02  0.45594000000E+02  0.51100000000E-03 0. -1.
    9900012    2    1    2    0    0 -0.77308398591E+01 -0.13722112922E+02 -0.42202502308E+02  0.46142317976E+02  0.10000001956E+02 0.  0.
        -12    1    1    2    0    0  0.77308398591E+01  0.13722112922E+02  0.42202502308E+02  0.45045682024E+02  0.00000000000E+00 0.  1.
         11    1    3    3    0    0 -0.16943652348E+01 -0.19638620623E+01 -0.45124964053E+01  0.52048296627E+01  0.51100000000E-03 0. -1.
        -11    1    3    3    0    0 -0.27276306946E+01 -0.48094051230E+01 -0.28111066804E+02  0.28649649631E+02  0.51100000000E-03 0.  1.
        -12    1    3    3    0    0 -0.33088439296E+01 -0.69488457366E+01 -0.95789390989E+01  0.12287838682E+02  0.00000000000E+00 0.  1.
</event>
<event>
 7    1  0.1476909E-008  0.4614232E+02  0.7816164E-02  0.1320468E+00
        -11   -1    0    0    0    0  0.00000000000E+00  0.00000000000E+00  0.45593999997E+02  0.45594000000E+02  0.51100000000E-03 0.  1.
         11   -1    0    0    0    0 -0.00000000000E+00 -0.00000000000E+00 -0.45593999997E+02  0.45594000000E+02  0.51100000000E-03 0. -1.
    9900012    2    1    2    0    0  0.16004142996E+01  0.41372157479E+02 -0.17745329123E+02  0.46142318230E+02  0.10000004278E+02 0.  0.
        -12    1    1    2    0    0 -0.16004142996E+01 -0.41372157479E+02  0.17745329123E+02  0.45045681770E+02  0.00000000000E+00 0.  1.
         11    1    3    3    0    0 -0.11764139332E+01  0.27049527263E+01  0.60503093120E+00  0.30111097095E+01  0.51100000000E-03 0. -1.
        -11    1    3    3    0    0  0.62436588275E+00  0.32318316504E+01 -0.30011651020E+01  0.44543866921E+01  0.51100000000E-03 0.  1.
         12    1    3    3    0    0  0.21524623500E+01  0.35435373102E+02 -0.15349194952E+02  0.38676821829E+02  0.00000000000E+00 0. -1.
</event>
<event>
 7    1  0.1476909E-008  0.4614232E+02  0.7816164E-02  0.1320468E+00
        -11   -1    0    0    0    0  0.00000000000E+00  0.00000000000E+00  0.45593999997E+02  0.45594000000E+02  0.51100000000E-03 0. -1.
         11   -1    0    0    0    0 -0.00000000000E+00 -0.00000000000E+00 -0.45593999997E+02  0.45594000000E+02  0.51100000000E-03 0.  1.
    9900012    2    1    2    0    0 -0.36352020954E+02 -0.57446992854E+01  0.25973881173E+02  0.46142317626E+02  0.99999987666E+01 0.  0.
        -12    1    1    2    0    0  0.36352020954E+02  0.57446992854E+01 -0.25973881173E+02  0.45045682374E+02  0.00000000000E+00 0.  1.
         11    1    3    3    0    0 -0.93715825521E+01 -0.32212881870E+01  0.11243577339E+02  0.14987370976E+02  0.51100000000E-03 0. -1.
        -11    1    3    3    0    0 -0.25903580251E+02 -0.30925967414E+01  0.13319543891E+02  0.29291122788E+02  0.51100000000E-03 0.  1.
        -12    1    3    3    0    0 -0.10768581510E+01  0.56918564304E+00  0.14107599430E+01  0.18638238625E+01  0.00000000000E+00 0.  1.
</event>
<event>
 7    1  0.1476909E-008  0.4614232E+02  0.7816164E-02  0.1320468E+00
        -11   -1    0    0    0    0  0.00000000000E+00  0.00000000000E+00  0.45593999997E+02  0.45594000000E+02  0.51100000000E-03 0.  1.
         11   -1    0    0    0    0 -0.00000000000E+00 -0.00000000000E+00 -0.45593999997E+02  0.45594000000E+02  0.51100000000E-03 0. -1.
    9900012    2    1    2    0    0  0.16983703662E+02  0.39909588499E+02 -0.12161084947E+02  0.46142318394E+02  0.10000005773E+02 0.  0.
        -12    1    1    2    0    0 -0.16983703662E+02 -0.39909588499E+02  0.12161084947E+02  0.45045681606E+02  0.00000000000E+00 0.  1.
         11    1    3    3    0    0  0.93091748196E+01  0.14544013632E+02 -0.52015342516E+01  0.18034550928E+02  0.51100000000E-03 0. -1.
        -11    1    3    3    0    0  0.34235382976E+01  0.43663394118E+01 -0.30410084009E+01  0.63271847365E+01  0.51100000000E-03 0.  1.
         12    1    3    3    0    0  0.42509905445E+01  0.20999235456E+02 -0.39185422942E+01  0.21780582730E+02  0.00000000000E+00 0. -1.
</event>
<event>
 7    1  0.1476909E-008  0.4614232E+02  0.7816164E-02  0.1320468E+00
        -11   -1    0    0    0    0  0.00000000000E+00  0.00000000000E+00  0.45593999997E+02  0.45594000000E+02  0.51100000000E-03 0.  1.
         11   -1    0    0    0    0 -0.00000000000E+00 -0.00000000000E+00 -0.45593999997E+02  0.45594000000E+02  0.51100000000E-03 0. -1.
    9900012    2    1    2    0    0 -0.26663893662E+02  0.34644717201E+02  0.10857892531E+02  0.46142317795E+02  0.10000000306E+02 0.  0.
        -12    1    1    2    0    0  0.26663893662E+02 -0.34644717201E+02 -0.10857892531E+02  0.45045682205E+02  0.00000000000E+00 0.  1.
         11    1    3    3    0    0 -0.11884750932E+02  0.92380336263E+01  0.44860105917E+01  0.15707095890E+02  0.51100000000E-03 0. -1.
        -11    1    3    3    0    0 -0.17667994344E+01  0.18475582779E+01 -0.61495149283E+00  0.26292997986E+01  0.51100000000E-03 0.  1.
         12    1    3    3    0    0 -0.13012343295E+02  0.23559125297E+02  0.69868334319E+01  0.27805922106E+02  0.00000000000E+00 0. -1.
</event>
<event>
 7    1  0.1476909E-008  0.4614232E+02  0.7816164E-02  0.1320468E+00
        -11   -1    0    0    0    0  0.00000000000E+00  0.00000000000E+00  0.45593999997E+02  0.45594000000E+02  0.51100000000E-03 0. -1.
         11   -1    0    0    0    0 -0.00000000000E+00 -0.00000000000E+00 -0.45593999997E+02  0.45594000000E+02  0.51100000000E-03 0.  1.
    9900012    2    1    2    0    0 -0.43865875689E+02  0.98648830462E+01 -0.27536328756E+01  0.46142318060E+02  0.10000002724E+02 0.  0.
        -12    1    1    2    0    0  0.43865875689E+02 -0.98648830462E+01  0.27536328756E+01  0.45045681940E+02  0.00000000000E+00 0.  1.
         11    1    3    3    0    0 -0.22009445699E+02  0.48772786567E+01  0.26644958914E+01  0.22700288229E+02  0.51100000000E-03 0. -1.
        -11    1    3    3    0    0 -0.17463834281E+02  0.25623800326E+01 -0.52756717735E+01  0.18422378026E+02  0.51100000000E-03 0.  1.
        -12    1    3    3    0    0 -0.43925957091E+01  0.24252243569E+01 -0.14245699347E+00  0.50196518046E+01  0.00000000000E+00 0.  1.
</event>
<event>
 7    1  0.1476909E-008  0.4614232E+02  0.7816164E-02  0.1320468E+00
        -11   -1    0    0    0    0  0.00000000000E+00  0.00000000000E+00  0.45593999997E+02  0.45594000000E+02  0.51100000000E-03 0.  1.
         11   -1    0    0    0    0 -0.00000000000E+00 -0.00000000000E+00 -0.45593999997E+02  0.45594000000E+02  0.51100000000E-03 0. -1.
    9900012    2    1    2    0    0  0.95579246611E+01 -0.17245877803E+02 -0.40501099586E+02  0.46142319933E+02  0.10000019807E+02 0.  0.
        -12    1    1    2    0    0 -0.95579246611E+01  0.17245877803E+02  0.40501099586E+02  0.45045680067E+02  0.00000000000E+00 0.  1.
         11    1    3    3    0    0  0.29348202309E+01 -0.14314672795E+02 -0.24477319869E+02  0.28507230929E+02  0.51100000000E-03 0. -1.
        -11    1    3    3    0    0  0.31160696248E+01 -0.14959575224E+01 -0.60817206559E+01  0.69953631223E+01  0.51100000000E-03 0.  1.
         12    1    3    3    0    0  0.35070348053E+01 -0.14352474858E+01 -0.99420590607E+01  0.10639725882E+02  0.00000000000E+00 0. -1.
</event>
<event>
 7    1  0.1476909E-008  0.4614232E+02  0.7816164E-02  0.1320468E+00
        -11   -1    0    0    0    0  0.00000000000E+00  0.00000000000E+00  0.45593999997E+02  0.45594000000E+02  0.51100000000E-03 0.  1.
         11   -1    0    0    0    0 -0.00000000000E+00 -0.00000000000E+00 -0.45593999997E+02  0.45594000000E+02  0.51100000000E-03 0. -1.
    9900012    2    1    2    0    0  0.71444807535E+00 -0.75847027393E+01 -0.44396794481E+02  0.46142317500E+02  0.99999976168E+01 0.  0.
        -12    1    1    2    0    0 -0.71444807535E+00  0.75847027393E+01  0.44396794481E+02  0.45045682500E+02  0.00000000000E+00 0.  1.
         11    1    3    3    0    0  0.28505769821E+01 -0.35732727090E+01 -0.33886166282E+02  0.34193074336E+02  0.51100000000E-03 0. -1.
        -11    1    3    3    0    0 -0.10722771280E+01 -0.23460891470E+01 -0.21493746596E+01  0.33576367006E+01  0.51100000000E-03 0.  1.
         12    1    3    3    0    0 -0.10638517787E+01 -0.16653408833E+01 -0.83612535398E+01  0.85916064633E+01  0.00000000000E+00 0. -1.
</event>
<event>
 7    1  0.1476909E-008  0.4614232E+02  0.7816164E-02  0.1320468E+00
        -11   -1    0    0    0    0  0.00000000000E+00  0.00000000000E+00  0.45593999997E+02  0.45594000000E+02  0.51100000000E-03 0.  1.
         11   -1    0    0    0    0 -0.00000000000E+00 -0.00000000000E+00 -0.45593999997E+02  0.45594000000E+02  0.51100000000E-03 0. -1.
    9900012    2    1    2    0    0 -0.15629266516E+02 -0.42204062812E+02  0.19122185693E+01  0.46142317970E+02  0.10000001908E+02 0.  0.
        -12    1    1    2    0    0  0.15629266516E+02  0.42204062812E+02 -0.19122185693E+01  0.45045682030E+02  0.00000000000E+00 0.  1.
         11    1    3    3    0    0 -0.15015526338E+02 -0.30158210979E+02 -0.83445149996E+00  0.33699852081E+02  0.51100000000E-03 0. -1.
        -11    1    3    3    0    0  0.12476145553E+00 -0.76974785582E+01  0.21393088383E+01  0.79902055131E+01  0.51100000000E-03 0.  1.
         12    1    3    3    0    0 -0.73850163284E+00 -0.43483732746E+01  0.60736123089E+00  0.44522603767E+01  0.00000000000E+00 0. -1.
</event>
<event>
 7    1  0.1476909E-008  0.4614232E+02  0.7816164E-02  0.1320468E+00
        -11   -1    0    0    0    0  0.00000000000E+00  0.00000000000E+00  0.45593999997E+02  0.45594000000E+02  0.51100000000E-03 0.  1.
         11   -1    0    0    0    0 -0.00000000000E+00 -0.00000000000E+00 -0.45593999997E+02  0.45594000000E+02  0.51100000000E-03 0. -1.
    9900012    2    1    2    0    0 -0.34695866783E+02  0.24471068826E+02  0.15049155759E+02  0.46142317961E+02  0.10000001824E+02 0.  0.
        -12    1    1    2    0    0  0.34695866783E+02 -0.24471068826E+02 -0.15049155759E+02  0.45045682039E+02  0.00000000000E+00 0.  1.
         11    1    3    3    0    0 -0.20190388229E+01  0.79800801890E+00 -0.45465386364E+00  0.22181174368E+01  0.51100000000E-03 0. -1.
        -11    1    3    3    0    0 -0.11390168446E+01  0.78677353477E+00  0.24769200664E+01  0.28375174437E+01  0.51100000000E-03 0.  1.
        -12    1    3    3    0    0 -0.31537811115E+02  0.22886287273E+02  0.13026889556E+02  0.41086683081E+02  0.00000000000E+00 0.  1.
</event>
<event>
 7    1  0.1476909E-008  0.4614232E+02  0.7816164E-02  0.1320468E+00
        -11   -1    0    0    0    0  0.00000000000E+00  0.00000000000E+00  0.45593999997E+02  0.45594000000E+02  0.51100000000E-03 0.  1.
         11   -1    0    0    0    0 -0.00000000000E+00 -0.00000000000E+00 -0.45593999997E+02  0.45594000000E+02  0.51100000000E-03 0. -1.
    9900012    2    1    2    0    0 -0.22687984979E+02 -0.19426463509E+02 -0.33719153227E+02  0.46142318285E+02  0.10000004774E+02 0.  0.
        -12    1    1    2    0    0  0.22687984979E+02  0.19426463509E+02  0.33719153227E+02  0.45045681715E+02  0.00000000000E+00 0.  1.
         11    1    3    3    0    0 -0.34352514221E+01 -0.67544288383E+00 -0.46158952957E+01  0.57934156647E+01  0.51100000000E-03 0. -1.
        -11    1    3    3    0    0 -0.17215241088E+02 -0.14537240038E+02 -0.20067510168E+02  0.30172849355E+02  0.51100000000E-03 0.  1.
        -12    1    3    3    0    0 -0.20374924694E+01 -0.42137805865E+01 -0.90357477636E+01  0.10176053264E+02  0.00000000000E+00 0.  1.
</event>
<event>
 7    1  0.1476909E-008  0.4614231E+02  0.7816164E-02  0.1320468E+00
        -11   -1    0    0    0    0  0.00000000000E+00  0.00000000000E+00  0.45593999997E+02  0.45594000000E+02  0.51100000000E-03 0. -1.
         11   -1    0    0    0    0 -0.00000000000E+00 -0.00000000000E+00 -0.45593999997E+02  0.45594000000E+02  0.51100000000E-03 0.  1.
    9900012    2    1    2    0    0  0.26490423939E+02  0.34088156269E+02 -0.12859584580E+02  0.46142313482E+02  0.99999609811E+01 0.  0.
        -12    1    1    2    0    0 -0.26490423939E+02 -0.34088156269E+02  0.12859584580E+02  0.45045686518E+02  0.00000000000E+00 0.  1.
         11    1    3    3    0    0  0.92770724963E+01  0.10948055821E+02 -0.55004386484E+01  0.15368110682E+02  0.51100000000E-03 0. -1.
        -11    1    3    3    0    0  0.70481005447E+01  0.15902563496E+02 -0.46430587060E+01  0.18003478593E+02  0.51100000000E-03 0.  1.
         12    1    3    3    0    0  0.10165250898E+02  0.72375369521E+01 -0.27160872259E+01  0.12770724207E+02  0.00000000000E+00 0. -1.
</event>
<event>
 7    1  0.1476909E-008  0.4614232E+02  0.7816164E-02  0.1320468E+00
        -11   -1    0    0    0    0  0.00000000000E+00  0.00000000000E+00  0.45593999997E+02  0.45594000000E+02  0.51100000000E-03 0.  1.
         11   -1    0    0    0    0 -0.00000000000E+00 -0.00000000000E+00 -0.45593999997E+02  0.45594000000E+02  0.51100000000E-03 0. -1.
    9900012    2    1    2    0    0  0.43254630143E+01 -0.33009072851E+02 -0.30344768749E+02  0.46142317507E+02  0.99999976859E+01 0.  0.
        -12    1    1    2    0    0 -0.43254630143E+01  0.33009072851E+02  0.30344768749E+02  0.45045682493E+02  0.00000000000E+00 0.  1.
         11    1    3    3    0    0  0.30270730476E+01 -0.50775974672E+01 -0.27140616677E+01  0.65047135426E+01  0.51100000000E-03 0. -1.
        -11    1    3    3    0    0  0.81269547183E+00 -0.12623745684E+02 -0.16054855047E+02  0.20439613496E+02  0.51100000000E-03 0.  1.
         12    1    3    3    0    0  0.48569449491E+00 -0.15307729701E+02 -0.11575852035E+02  0.19197990469E+02  0.00000000000E+00 0. -1.
</event>
<event>
 7    1  0.1476909E-008  0.4614232E+02  0.7816164E-02  0.1320468E+00
        -11   -1    0    0    0    0  0.00000000000E+00  0.00000000000E+00  0.45593999997E+02  0.45594000000E+02  0.51100000000E-03 0. -1.
         11   -1    0    0    0    0 -0.00000000000E+00 -0.00000000000E+00 -0.45593999997E+02  0.45594000000E+02  0.51100000000E-03 0.  1.
    9900012    2    1    2    0    0 -0.24807426255E+02 -0.24243045289E+02  0.28739865679E+02  0.46142317393E+02  0.99999966394E+01 0.  0.
        -12    1    1    2    0    0  0.24807426255E+02  0.24243045289E+02 -0.28739865679E+02  0.45045682607E+02  0.00000000000E+00 0.  1.
         11    1    3    3    0    0 -0.74590884887E+01 -0.10420040966E+02  0.75587118209E+01  0.14877815010E+02  0.51100000000E-03 0. -1.
        -11    1    3    3    0    0 -0.56375542709E+01 -0.40653539972E+01  0.30863425000E+01  0.76049083866E+01  0.51100000000E-03 0.  1.
         12    1    3    3    0    0 -0.11710783496E+02 -0.97576503261E+01  0.18094811358E+02  0.23659593996E+02  0.00000000000E+00 0. -1.
</event>
<event>
 7    1  0.1476909E-008  0.4614232E+02  0.7816164E-02  0.1320468E+00
        -11   -1    0    0    0    0  0.00000000000E+00  0.00000000000E+00  0.45593999997E+02  0.45594000000E+02  0.51100000000E-03 0.  1.
         11   -1    0    0    0    0 -0.00000000000E+00 -0.00000000000E+00 -0.45593999997E+02  0.45594000000E+02  0.51100000000E-03 0. -1.
    9900012    2    1    2    0    0 -0.26823622758E+02  0.24309381611E+02 -0.26807846654E+02  0.46142318582E+02  0.10000007488E+02 0.  0.
        -12    1    1    2    0    0  0.26823622758E+02 -0.24309381611E+02  0.26807846654E+02  0.45045681418E+02  0.00000000000E+00 0.  1.
         11    1    3    3    0    0 -0.14459693862E+02  0.16836319216E+02 -0.16923903976E+02  0.27909907155E+02  0.51100000000E-03 0. -1.
        -11    1    3    3    0    0 -0.23426821908E+01  0.23873081847E+01 -0.12253043911E+00  0.33470007746E+01  0.51100000000E-03 0.  1.
         12    1    3    3    0    0 -0.10021246705E+02  0.50857542100E+01 -0.97614122388E+01  0.14885410653E+02  0.00000000000E+00 0. -1.
</event>
<event>
 7    1  0.1476909E-008  0.4614232E+02  0.7816164E-02  0.1320468E+00
        -11   -1    0    0    0    0  0.00000000000E+00  0.00000000000E+00  0.45593999997E+02  0.45594000000E+02  0.51100000000E-03 0.  1.
         11   -1    0    0    0    0 -0.00000000000E+00 -0.00000000000E+00 -0.45593999997E+02  0.45594000000E+02  0.51100000000E-03 0. -1.
    9900012    2    1    2    0    0  0.25263594812E+02  0.37163414916E+02  0.31216790555E+01  0.46142317508E+02  0.99999976883E+01 0.  0.
        -12    1    1    2    0    0 -0.25263594812E+02 -0.37163414916E+02 -0.31216790555E+01  0.45045682492E+02  0.00000000000E+00 0.  1.
         11    1    3    3    0    0  0.15662565282E+02  0.24954136805E+02  0.31416938253E+01  0.29629295220E+02  0.51100000000E-03 0. -1.
        -11    1    3    3    0    0  0.91016114660E+01  0.83472109437E+01  0.12600182206E+01  0.12413819235E+02  0.51100000000E-03 0.  1.
         12    1    3    3    0    0  0.49941806428E+00  0.38620671674E+01 -0.12800329903E+01  0.40992030524E+01  0.00000000000E+00 0. -1.
</event>
<event>
 7    1  0.1476909E-008  0.4614232E+02  0.7816164E-02  0.1320468E+00
        -11   -1    0    0    0    0  0.00000000000E+00  0.00000000000E+00  0.45593999997E+02  0.45594000000E+02  0.51100000000E-03 0. -1.
         11   -1    0    0    0    0 -0.00000000000E+00 -0.00000000000E+00 -0.45593999997E+02  0.45594000000E+02  0.51100000000E-03 0.  1.
    9900012    2    1    2    0    0  0.37201314884E+02 -0.92232940945E+01  0.23666568810E+02  0.46142318051E+02  0.10000002641E+02 0.  0.
        -12    1    1    2    0    0 -0.37201314884E+02  0.92232940945E+01 -0.23666568810E+02  0.45045681949E+02  0.00000000000E+00 0.  1.
         11    1    3    3    0    0  0.13939230163E+02 -0.22529571295E+00  0.11149606312E+02  0.17851235724E+02  0.51100000000E-03 0. -1.
        -11    1    3    3    0    0  0.16590802706E+02 -0.46719363149E+01  0.69485687025E+01  0.18583980484E+02  0.51100000000E-03 0.  1.
        -12    1    3    3    0    0  0.66712820154E+01 -0.43260620666E+01  0.55683937948E+01  0.97071018428E+01  0.00000000000E+00 0.  1.
</event>
<event>
 7    1  0.1476909E-008  0.4614233E+02  0.7816164E-02  0.1320468E+00
        -11   -1    0    0    0    0  0.00000000000E+00  0.00000000000E+00  0.45593999997E+02  0.45594000000E+02  0.51100000000E-03 0.  1.
         11   -1    0    0    0    0 -0.00000000000E+00 -0.00000000000E+00 -0.45593999997E+02  0.45594000000E+02  0.51100000000E-03 0. -1.
    9900012    2    1    2    0    0 -0.28080061198E+02 -0.27711570940E+02 -0.21741460634E+02  0.46142333045E+02  0.10000139370E+02 0.  0.
        -12    1    1    2    0    0  0.28080061198E+02  0.27711570940E+02  0.21741460634E+02  0.45045666955E+02  0.00000000000E+00 0.  1.
         11    1    3    3    0    0 -0.48229398829E+00 -0.27841609315E+01 -0.36338841581E+00  0.28488964505E+01  0.51100000000E-03 0.  1.
        -11    1    3    3    0    0 -0.10562403322E+02 -0.79364635153E+01 -0.10557889088E+02  0.16912150642E+02  0.51100000000E-03 0. -1.
         12    1    3    3    0    0 -0.17035363888E+02 -0.16990946494E+02 -0.10820183130E+02  0.26381285953E+02  0.00000000000E+00 0. -1.
</event>
<event>
 7    1  0.1476909E-008  0.4614232E+02  0.7816164E-02  0.1320468E+00
        -11   -1    0    0    0    0  0.00000000000E+00  0.00000000000E+00  0.45593999997E+02  0.45594000000E+02  0.51100000000E-03 0.  1.
         11   -1    0    0    0    0 -0.00000000000E+00 -0.00000000000E+00 -0.45593999997E+02  0.45594000000E+02  0.51100000000E-03 0. -1.
    9900012    2    1    2    0    0 -0.10117379319E+02 -0.13667899300E+02 -0.41712594222E+02  0.46142319272E+02  0.10000013775E+02 0.  0.
        -12    1    1    2    0    0  0.10117379319E+02  0.13667899300E+02  0.41712594222E+02  0.45045680728E+02  0.00000000000E+00 0.  1.
         11    1    3    3    0    0 -0.13813907466E+01  0.13749745818E+01 -0.63829560072E+01  0.66738986467E+01  0.51100000000E-03 0.  1.
        -11    1    3    3    0    0 -0.45051026823E+01 -0.88951195583E+01 -0.17524703319E+02  0.20162696467E+02  0.51100000000E-03 0. -1.
        -12    1    3    3    0    0 -0.42308858897E+01 -0.61477543232E+01 -0.17804934895E+02  0.19305724158E+02  0.00000000000E+00 0.  1.
</event>
<event>
 7    1  0.1476909E-008  0.4614232E+02  0.7816164E-02  0.1320468E+00
        -11   -1    0    0    0    0  0.00000000000E+00  0.00000000000E+00  0.45593999997E+02  0.45594000000E+02  0.51100000000E-03 0.  1.
         11   -1    0    0    0    0 -0.00000000000E+00 -0.00000000000E+00 -0.45593999997E+02  0.45594000000E+02  0.51100000000E-03 0. -1.
    9900012    2    1    2    0    0  0.16091834494E+02  0.41059529938E+02 -0.91804788469E+01  0.46142319542E+02  0.10000016237E+02 0.  0.
        -12    1    1    2    0    0 -0.16091834494E+02 -0.41059529938E+02  0.91804788469E+01  0.45045680458E+02  0.00000000000E+00 0.  1.
         11    1    3    3    0    0  0.14801015081E+02  0.28210413645E+02 -0.76109029071E+01  0.32753981876E+02  0.51100000000E-03 0. -1.
        -11    1    3    3    0    0  0.16651851874E+01  0.12788552836E+02 -0.16470937744E+01  0.13001263151E+02  0.51100000000E-03 0.  1.
        -12    1    3    3    0    0 -0.37436577406E+00  0.60563456395E-01  0.77517834539E-01  0.38707451441E+00  0.00000000000E+00 0.  1.
</event>
<event>
 7    1  0.1476909E-008  0.4614232E+02  0.7816164E-02  0.1320468E+00
        -11   -1    0    0    0    0  0.00000000000E+00  0.00000000000E+00  0.45593999997E+02  0.45594000000E+02  0.51100000000E-03 0. -1.
         11   -1    0    0    0    0 -0.00000000000E+00 -0.00000000000E+00 -0.45593999997E+02  0.45594000000E+02  0.51100000000E-03 0.  1.
    9900012    2    1    2    0    0 -0.29785741009E+02 -0.33712937935E+02 -0.23153874423E+01  0.46142316848E+02  0.99999916703E+01 0.  0.
        -12    1    1    2    0    0  0.29785741009E+02  0.33712937935E+02  0.23153874423E+01  0.45045683152E+02  0.00000000000E+00 0.  1.
         11    1    3    3    0    0 -0.13284448089E+02 -0.19741433045E+02  0.55226859364E-01  0.23795037087E+02  0.51100000000E-03 0. -1.
        -11    1    3    3    0    0 -0.15409808292E+02 -0.10935809217E+02 -0.27657640818E+01  0.19097213568E+02  0.51100000000E-03 0.  1.
         12    1    3    3    0    0 -0.10914846278E+01 -0.30356956725E+01  0.39514978009E+00  0.32500661928E+01  0.00000000000E+00 0. -1.
</event>
<event>
 7    1  0.1476909E-008  0.4614232E+02  0.7816164E-02  0.1320468E+00
        -11   -1    0    0    0    0  0.00000000000E+00  0.00000000000E+00  0.45593999997E+02  0.45594000000E+02  0.51100000000E-03 0.  1.
         11   -1    0    0    0    0 -0.00000000000E+00 -0.00000000000E+00 -0.45593999997E+02  0.45594000000E+02  0.51100000000E-03 0. -1.
    9900012    2    1    2    0    0  0.61035962990E+01  0.43573741194E+02 -0.96534330142E+01  0.46142316762E+02  0.99999908900E+01 0.  0.
        -12    1    1    2    0    0 -0.61035962990E+01 -0.43573741194E+02  0.96534330142E+01  0.45045683238E+02  0.00000000000E+00 0.  1.
         11    1    3    3    0    0  0.19153483871E+01  0.12569811228E+01 -0.66518596527E-01  0.22919393473E+01  0.51100000000E-03 0. -1.
        -11    1    3    3    0    0  0.23881161272E+01  0.14462933801E+02 -0.54221651301E+01  0.15629441057E+02  0.51100000000E-03 0.  1.
         12    1    3    3    0    0  0.18001317847E+01  0.27853826270E+02 -0.41647492876E+01  0.28220936358E+02  0.00000000000E+00 0. -1.
</event>
<event>
 7    1  0.1476909E-008  0.4614232E+02  0.7816164E-02  0.1320468E+00
        -11   -1    0    0    0    0  0.00000000000E+00  0.00000000000E+00  0.45593999997E+02  0.45594000000E+02  0.51100000000E-03 0. -1.
         11   -1    0    0    0    0 -0.00000000000E+00 -0.00000000000E+00 -0.45593999997E+02  0.45594000000E+02  0.51100000000E-03 0.  1.
    9900012    2    1    2    0    0 -0.42324476885E+02 -0.11063773748E+02 -0.10739873915E+02  0.46142319576E+02  0.10000016553E+02 0.  0.
        -12    1    1    2    0    0  0.42324476885E+02  0.11063773748E+02  0.10739873915E+02  0.45045680424E+02  0.00000000000E+00 0.  1.
         11    1    3    3    0    0 -0.32326863641E+02 -0.73797552965E+01 -0.11305086000E+02  0.35032725712E+02  0.51100000000E-03 0. -1.
        -11    1    3    3    0    0 -0.32810580996E+01 -0.46846477926E+00  0.14363906307E+01  0.36122042865E+01  0.51100000000E-03 0.  1.
         12    1    3    3    0    0 -0.67165551445E+01 -0.32155536719E+01 -0.87117854636E+00  0.74973895781E+01  0.00000000000E+00 0. -1.
</event>
<event>
 7    1  0.1476909E-008  0.4614232E+02  0.7816164E-02  0.1320468E+00
        -11   -1    0    0    0    0  0.00000000000E+00  0.00000000000E+00  0.45593999997E+02  0.45594000000E+02  0.51100000000E-03 0.  1.
         11   -1    0    0    0    0 -0.00000000000E+00 -0.00000000000E+00 -0.45593999997E+02  0.45594000000E+02  0.51100000000E-03 0. -1.
    9900012    2    1    2    0    0 -0.17219366841E+02  0.41101976402E+02  0.65752948339E+01  0.46142316958E+02  0.99999926764E+01 0.  0.
        -12    1    1    2    0    0  0.17219366841E+02 -0.41101976402E+02 -0.65752948339E+01  0.45045683042E+02  0.00000000000E+00 0.  1.
         11    1    3    3    0    0 -0.59720001049E+01  0.18636302495E+02  0.53997017681E+01  0.20301067346E+02  0.51100000000E-03 0. -1.
        -11    1    3    3    0    0  0.30271921573E+00  0.44710402040E+00  0.81125340358E+00  0.97451181346E+00  0.51100000000E-03 0.  1.
         12    1    3    3    0    0 -0.11550085952E+02  0.22018569886E+02  0.36433966223E+00  0.24866737798E+02  0.00000000000E+00 0. -1.
</event>
<event>
 7    1  0.1476909E-008  0.4614232E+02  0.7816164E-02  0.1320468E+00
        -11   -1    0    0    0    0  0.00000000000E+00  0.00000000000E+00  0.45593999997E+02  0.45594000000E+02  0.51100000000E-03 0.  1.
         11   -1    0    0    0    0 -0.00000000000E+00 -0.00000000000E+00 -0.45593999997E+02  0.45594000000E+02  0.51100000000E-03 0. -1.
    9900012    2    1    2    0    0 -0.82993560559E+01 -0.11974946328E+01 -0.44258333878E+02  0.46142318498E+02  0.10000006718E+02 0.  0.
        -12    1    1    2    0    0  0.82993560559E+01  0.11974946328E+01  0.44258333878E+02  0.45045681502E+02  0.00000000000E+00 0.  1.
         11    1    3    3    0    0 -0.58351951997E+01  0.45357697067E+00 -0.26408278102E+02  0.27049073693E+02  0.51100000000E-03 0. -1.
        -11    1    3    3    0    0  0.11710208860E+01 -0.21164785754E+01 -0.11586569269E+02  0.11836357512E+02  0.51100000000E-03 0.  1.
         12    1    3    3    0    0 -0.36351817422E+01  0.46540697191E+00 -0.62634865077E+01  0.72568872928E+01  0.00000000000E+00 0. -1.
</event>
<event>
 7    1  0.1476909E-008  0.4614232E+02  0.7816164E-02  0.1320468E+00
        -11   -1    0    0    0    0  0.00000000000E+00  0.00000000000E+00  0.45593999997E+02  0.45594000000E+02  0.51100000000E-03 0.  1.
         11   -1    0    0    0    0 -0.00000000000E+00 -0.00000000000E+00 -0.45593999997E+02  0.45594000000E+02  0.51100000000E-03 0. -1.
    9900012    2    1    2    0    0  0.15911201770E+02 -0.25007144327E+02 -0.33920347567E+02  0.46142316653E+02  0.99999898934E+01 0.  0.
        -12    1    1    2    0    0 -0.15911201770E+02  0.25007144327E+02  0.33920347567E+02  0.45045683347E+02  0.00000000000E+00 0.  1.
         11    1    3    3    0    0  0.15279588562E+02 -0.20298386806E+02 -0.28198184992E+02  0.37955605260E+02  0.51100000000E-03 0. -1.
        -11    1    3    3    0    0 -0.11597455441E+01 -0.13406963156E+01 -0.30546872328E+01  0.35317970905E+01  0.51100000000E-03 0.  1.
        -12    1    3    3    0    0  0.17913587513E+01 -0.33680612050E+01 -0.26674753430E+01  0.46549143023E+01  0.00000000000E+00 0.  1.
</event>
<event>
 7    1  0.1476909E-008  0.4614232E+02  0.7816164E-02  0.1320468E+00
        -11   -1    0    0    0    0  0.00000000000E+00  0.00000000000E+00  0.45593999997E+02  0.45594000000E+02  0.51100000000E-03 0. -1.
         11   -1    0    0    0    0 -0.00000000000E+00 -0.00000000000E+00 -0.45593999997E+02  0.45594000000E+02  0.51100000000E-03 0.  1.
    9900012    2    1    2    0    0  0.16512527670E+02  0.47177656839E+01  0.41643638748E+02  0.46142317285E+02  0.99999956582E+01 0.  0.
        -12    1    1    2    0    0 -0.16512527670E+02 -0.47177656839E+01 -0.41643638748E+02  0.45045682715E+02  0.00000000000E+00 0.  1.
         11    1    3    3    0    0  0.41021950849E+01  0.58306335810E+01  0.12199326954E+02  0.14129680494E+02  0.51100000000E-03 0. -1.
        -11    1    3    3    0    0  0.11114350574E+02 -0.10226131527E+01  0.24916400787E+02  0.27302043051E+02  0.51100000000E-03 0.  1.
         12    1    3    3    0    0  0.12959820105E+01 -0.90254744372E-01  0.45279110076E+01  0.47105937400E+01  0.00000000000E+00 0. -1.
</event>
<event>
 7    1  0.1476909E-008  0.4614232E+02  0.7816164E-02  0.1320468E+00
        -11   -1    0    0    0    0  0.00000000000E+00  0.00000000000E+00  0.45593999997E+02  0.45594000000E+02  0.51100000000E-03 0. -1.
         11   -1    0    0    0    0 -0.00000000000E+00 -0.00000000000E+00 -0.45593999997E+02  0.45594000000E+02  0.51100000000E-03 0.  1.
    9900012    2    1    2    0    0 -0.28884209171E+02  0.37855777485E+01  0.34358193498E+02  0.46142316536E+02  0.99999888304E+01 0.  0.
        -12    1    1    2    0    0  0.28884209171E+02 -0.37855777485E+01 -0.34358193498E+02  0.45045683464E+02  0.00000000000E+00 0.  1.
         11    1    3    3    0    0 -0.18723379460E+02  0.66538992654E+01  0.21509739872E+02  0.29283241341E+02  0.51100000000E-03 0. -1.
        -11    1    3    3    0    0 -0.70762753149E+01 -0.21504834639E+01  0.68735200282E+01  0.10096708835E+02  0.51100000000E-03 0.  1.
         12    1    3    3    0    0 -0.30845543957E+01 -0.71783805296E+00  0.59749335973E+01  0.67623663597E+01  0.00000000000E+00 0. -1.
</event>
<event>
 7    1  0.1476909E-008  0.4614232E+02  0.7816164E-02  0.1320468E+00
        -11   -1    0    0    0    0  0.00000000000E+00  0.00000000000E+00  0.45593999997E+02  0.45594000000E+02  0.51100000000E-03 0. -1.
         11   -1    0    0    0    0 -0.00000000000E+00 -0.00000000000E+00 -0.45593999997E+02  0.45594000000E+02  0.51100000000E-03 0.  1.
    9900012    2    1    2    0    0 -0.37474656853E+02 -0.24406295491E+02  0.53940984811E+01  0.46142318029E+02  0.10000002438E+02 0.  0.
        -12    1    1    2    0    0  0.37474656853E+02  0.24406295491E+02 -0.53940984811E+01  0.45045681971E+02  0.00000000000E+00 0.  1.
         11    1    3    3    0    0 -0.35665367659E+02 -0.23921980001E+02  0.50586645282E+01  0.43241989600E+02  0.51100000000E-03 0. -1.
        -11    1    3    3    0    0 -0.71637748527E+00 -0.12031426501E+01 -0.32123218234E+00  0.14366416790E+01  0.51100000000E-03 0.  1.
         12    1    3    3    0    0 -0.10929117085E+01  0.71882716026E+00  0.65666613522E+00  0.14636867499E+01  0.00000000000E+00 0. -1.
</event>
<event>
 7    1  0.1476909E-008  0.4614232E+02  0.7816164E-02  0.1320468E+00
        -11   -1    0    0    0    0  0.00000000000E+00  0.00000000000E+00  0.45593999997E+02  0.45594000000E+02  0.51100000000E-03 0.  1.
         11   -1    0    0    0    0 -0.00000000000E+00 -0.00000000000E+00 -0.45593999997E+02  0.45594000000E+02  0.51100000000E-03 0. -1.
    9900012    2    1    2    0    0 -0.17329682236E+02 -0.35859039296E+02 -0.21045780852E+02  0.46142317884E+02  0.10000001119E+02 0.  0.
        -12    1    1    2    0    0  0.17329682236E+02  0.35859039296E+02  0.21045780852E+02  0.45045682116E+02  0.00000000000E+00 0.  1.
         11    1    3    3    0    0 -0.93836562063E+01 -0.16259277763E+02 -0.77272359725E+01  0.20300918531E+02  0.51100000000E-03 0. -1.
        -11    1    3    3    0    0 -0.46395899255E+00 -0.23134076291E+01 -0.44173381107E+01  0.50079925170E+01  0.51100000000E-03 0.  1.
         12    1    3    3    0    0 -0.74820670373E+01 -0.17286353904E+02 -0.89012067692E+01  0.20833406836E+02  0.00000000000E+00 0. -1.
</event>
<event>
 7    1  0.1476909E-008  0.4614232E+02  0.7816164E-02  0.1320468E+00
        -11   -1    0    0    0    0  0.00000000000E+00  0.00000000000E+00  0.45593999997E+02  0.45594000000E+02  0.51100000000E-03 0. -1.
         11   -1    0    0    0    0 -0.00000000000E+00 -0.00000000000E+00 -0.45593999997E+02  0.45594000000E+02  0.51100000000E-03 0.  1.
    9900012    2    1    2    0    0 -0.26128502281E+02 -0.36345285554E+02  0.50432566518E+01  0.46142324835E+02  0.10000064502E+02 0.  0.
        -12    1    1    2    0    0  0.26128502281E+02  0.36345285554E+02 -0.50432566518E+01  0.45045675165E+02  0.00000000000E+00 0.  1.
         11    1    3    3    0    0 -0.84728901032E+01 -0.16894394491E+02  0.48033425441E+01  0.19500834130E+02  0.51100000000E-03 0. -1.
        -11    1    3    3    0    0 -0.34267418355E+01 -0.17631847785E+01 -0.72091585887E+00  0.39205994576E+01  0.51100000000E-03 0.  1.
         12    1    3    3    0    0 -0.14228870343E+02 -0.17687706284E+02  0.96082996652E+00  0.22720891247E+02  0.00000000000E+00 0. -1.
</event>
<event>
 7    1  0.1476909E-008  0.4614232E+02  0.7816164E-02  0.1320468E+00
        -11   -1    0    0    0    0  0.00000000000E+00  0.00000000000E+00  0.45593999997E+02  0.45594000000E+02  0.51100000000E-03 0. -1.
         11   -1    0    0    0    0 -0.00000000000E+00 -0.00000000000E+00 -0.45593999997E+02  0.45594000000E+02  0.51100000000E-03 0.  1.
    9900012    2    1    2    0    0 -0.25761838855E+02  0.18596346821E+02  0.31931443541E+02  0.46142317156E+02  0.99999944844E+01 0.  0.
        -12    1    1    2    0    0  0.25761838855E+02 -0.18596346821E+02 -0.31931443541E+02  0.45045682844E+02  0.00000000000E+00 0.  1.
         11    1    3    3    0    0 -0.23109104514E+02  0.16527782736E+02  0.27462253828E+02  0.39514221480E+02  0.51100000000E-03 0. -1.
        -11    1    3    3    0    0  0.37581792727E+00  0.50639307963E+00 -0.35350485472E+00  0.72293776287E+00  0.51100000000E-03 0.  1.
         12    1    3    3    0    0 -0.30285522676E+01  0.15621710059E+01  0.48226945672E+01  0.59051579131E+01  0.00000000000E+00 0. -1.
</event>
<event>
 7    1  0.1476909E-008  0.4614232E+02  0.7816164E-02  0.1320468E+00
        -11   -1    0    0    0    0  0.00000000000E+00  0.00000000000E+00  0.45593999997E+02  0.45594000000E+02  0.51100000000E-03 0. -1.
         11   -1    0    0    0    0 -0.00000000000E+00 -0.00000000000E+00 -0.45593999997E+02  0.45594000000E+02  0.51100000000E-03 0.  1.
    9900012    2    1    2    0    0 -0.46305843297E+01 -0.35316729368E+02  0.27575348156E+02  0.46142317516E+02  0.99999977693E+01 0.  0.
        -12    1    1    2    0    0  0.46305843297E+01  0.35316729368E+02 -0.27575348156E+02  0.45045682484E+02  0.00000000000E+00 0.  1.
         11    1    3    3    0    0 -0.36408998972E+01 -0.42514655417E+01  0.45208913027E+01  0.71951073478E+01  0.51100000000E-03 0. -1.
        -11    1    3    3    0    0 -0.19863958762E+01 -0.63436533107E+01  0.50456921896E+01  0.83454607923E+01  0.51100000000E-03 0.  1.
         12    1    3    3    0    0  0.99671144373E+00 -0.24721610515E+02  0.18008764664E+02  0.30601749376E+02  0.00000000000E+00 0. -1.
</event>
<event>
 7    1  0.1476909E-008  0.4614232E+02  0.7816164E-02  0.1320468E+00
        -11   -1    0    0    0    0  0.00000000000E+00  0.00000000000E+00  0.45593999997E+02  0.45594000000E+02  0.51100000000E-03 0.  1.
         11   -1    0    0    0    0 -0.00000000000E+00 -0.00000000000E+00 -0.45593999997E+02  0.45594000000E+02  0.51100000000E-03 0. -1.
    9900012    2    1    2    0    0 -0.17977133119E+02 -0.33982193584E+02 -0.23476512999E+02  0.46142318092E+02  0.10000003017E+02 0.  0.
        -12    1    1    2    0    0  0.17977133119E+02  0.33982193584E+02  0.23476512999E+02  0.45045681908E+02  0.00000000000E+00 0.  1.
         11    1    3    3    0    0 -0.17187194761E+02 -0.27078813020E+02 -0.15770961880E+02  0.35740523460E+02  0.51100000000E-03 0. -1.
        -11    1    3    3    0    0 -0.84093940915E+00 -0.44338601445E+01 -0.48038331546E+01  0.65911386049E+01  0.51100000000E-03 0.  1.
         12    1    3    3    0    0  0.51001051313E-01 -0.24695204192E+01 -0.29017179645E+01  0.38106560267E+01  0.00000000000E+00 0. -1.
</event>
<event>
 7    1  0.1476909E-008  0.4614232E+02  0.7816164E-02  0.1320468E+00
        -11   -1    0    0    0    0  0.00000000000E+00  0.00000000000E+00  0.45593999997E+02  0.45594000000E+02  0.51100000000E-03 0.  1.
         11   -1    0    0    0    0 -0.00000000000E+00 -0.00000000000E+00 -0.45593999997E+02  0.45594000000E+02  0.51100000000E-03 0. -1.
    9900012    2    1    2    0    0  0.88702172799E+01 -0.43464897079E+02 -0.78252978959E+01  0.46142319631E+02  0.10000017055E+02 0.  0.
        -12    1    1    2    0    0 -0.88702172799E+01  0.43464897079E+02  0.78252978959E+01  0.45045680369E+02  0.00000000000E+00 0.  1.
         11    1    3    3    0    0  0.17741227975E+01 -0.10832943634E+01 -0.20211919427E+00  0.20885140191E+01  0.51100000000E-03 0. -1.
        -11    1    3    3    0    0  0.22999267549E+01 -0.18358628830E+02 -0.37119729320E+00  0.18505855919E+02  0.51100000000E-03 0.  1.
         12    1    3    3    0    0  0.47961677276E+01 -0.24022973886E+02 -0.72519814084E+01  0.25547949694E+02  0.00000000000E+00 0. -1.
</event>
<event>
 7    1  0.1476909E-008  0.4614232E+02  0.7816164E-02  0.1320468E+00
        -11   -1    0    0    0    0  0.00000000000E+00  0.00000000000E+00  0.45593999997E+02  0.45594000000E+02  0.51100000000E-03 0. -1.
         11   -1    0    0    0    0 -0.00000000000E+00 -0.00000000000E+00 -0.45593999997E+02  0.45594000000E+02  0.51100000000E-03 0.  1.
    9900012    2    1    2    0    0 -0.22926062330E+02 -0.45804458226E+01  0.38503620181E+02  0.46142316689E+02  0.99999902243E+01 0.  0.
        -12    1    1    2    0    0  0.22926062330E+02  0.45804458226E+01 -0.38503620181E+02  0.45045683311E+02  0.00000000000E+00 0.  1.
         11    1    3    3    0    0 -0.76195480338E+01  0.20729030557E+01  0.12672572472E+02  0.14931461169E+02  0.51100000000E-03 0. -1.
        -11    1    3    3    0    0 -0.72331203108E+00  0.49842752550E+00  0.25773685673E+00  0.91544461379E+00  0.51100000000E-03 0.  1.
         12    1    3    3    0    0 -0.14583202265E+02 -0.71517764037E+01  0.25573310852E+02  0.30295410906E+02  0.00000000000E+00 0. -1.
</event>
<event>
 7    1  0.1476909E-008  0.4614232E+02  0.7816164E-02  0.1320468E+00
        -11   -1    0    0    0    0  0.00000000000E+00  0.00000000000E+00  0.45593999997E+02  0.45594000000E+02  0.51100000000E-03 0.  1.
         11   -1    0    0    0    0 -0.00000000000E+00 -0.00000000000E+00 -0.45593999997E+02  0.45594000000E+02  0.51100000000E-03 0. -1.
    9900012    2    1    2    0    0  0.32910137303E+02  0.30556179523E+02 -0.35151580071E+01  0.46142316742E+02  0.99999907106E+01 0.  0.
        -12    1    1    2    0    0 -0.32910137303E+02 -0.30556179523E+02  0.35151580071E+01  0.45045683258E+02  0.00000000000E+00 0.  1.
         11    1    3    3    0    0  0.21563630540E+02  0.23747559961E+02 -0.53452163985E+01  0.32519349698E+02  0.51100000000E-03 0. -1.
        -11    1    3    3    0    0  0.10447291340E+02  0.64909934025E+01  0.23718388567E+01  0.12526153101E+02  0.51100000000E-03 0.  1.
         12    1    3    3    0    0  0.89921542283E+00  0.31762615997E+00 -0.54178046537E+00  0.10968139436E+01  0.00000000000E+00 0. -1.
</event>
<event>
 7    1  0.1476909E-008  0.4614232E+02  0.7816164E-02  0.1320468E+00
        -11   -1    0    0    0    0  0.00000000000E+00  0.00000000000E+00  0.45593999997E+02  0.45594000000E+02  0.51100000000E-03 0. -1.
         11   -1    0    0    0    0 -0.00000000000E+00 -0.00000000000E+00 -0.45593999997E+02  0.45594000000E+02  0.51100000000E-03 0.  1.
    9900012    2    1    2    0    0  0.99486341752E+01  0.18911978228E+01  0.43892613660E+02  0.46142317798E+02  0.10000000338E+02 0.  0.
        -12    1    1    2    0    0 -0.99486341752E+01 -0.18911978228E+01 -0.43892613660E+02  0.45045682202E+02  0.00000000000E+00 0.  1.
         11    1    3    3    0    0  0.91422844002E+01  0.20101713498E+01  0.25511574430E+02  0.27174668040E+02  0.51100000000E-03 0. -1.
        -11    1    3    3    0    0  0.19824854217E+01 -0.16313507339E+01  0.13114703286E+02  0.13363644571E+02  0.51100000000E-03 0.  1.
        -12    1    3    3    0    0 -0.11761356467E+01  0.15123772069E+01  0.52663359431E+01  0.56040051874E+01  0.00000000000E+00 0.  1.
</event>
<event>
 7    1  0.1476909E-008  0.4614232E+02  0.7816164E-02  0.1320468E+00
        -11   -1    0    0    0    0  0.00000000000E+00  0.00000000000E+00  0.45593999997E+02  0.45594000000E+02  0.51100000000E-03 0.  1.
         11   -1    0    0    0    0 -0.00000000000E+00 -0.00000000000E+00 -0.45593999997E+02  0.45594000000E+02  0.51100000000E-03 0. -1.
    9900012    2    1    2    0    0 -0.31217794393E+01 -0.44935819803E+02 -0.37423882070E+00  0.46142318043E+02  0.10000002572E+02 0.  0.
        -12    1    1    2    0    0  0.31217794393E+01  0.44935819803E+02  0.37423882070E+00  0.45045681957E+02  0.00000000000E+00 0.  1.
         11    1    3    3    0    0 -0.12529738283E+01 -0.23150826277E+02  0.72675686061E+00  0.23196096148E+02  0.51100000000E-03 0. -1.
        -11    1    3    3    0    0  0.99821417002E+00 -0.26101981470E+01 -0.21560212399E+01  0.35295883250E+01  0.51100000000E-03 0.  1.
        -12    1    3    3    0    0 -0.28670197810E+01 -0.19174795380E+02  0.10550255586E+01  0.19416633570E+02  0.00000000000E+00 0.  1.
</event>
<event>
 7    1  0.1476909E-008  0.4614232E+02  0.7816164E-02  0.1320468E+00
        -11   -1    0    0    0    0  0.00000000000E+00  0.00000000000E+00  0.45593999997E+02  0.45594000000E+02  0.51100000000E-03 0.  1.
         11   -1    0    0    0    0 -0.00000000000E+00 -0.00000000000E+00 -0.45593999997E+02  0.45594000000E+02  0.51100000000E-03 0. -1.
    9900012    2    1    2    0    0  0.25130080324E+02  0.10870236816E+02 -0.35769129114E+02  0.46142316710E+02  0.99999904170E+01 0.  0.
        -12    1    1    2    0    0 -0.25130080324E+02 -0.10870236816E+02  0.35769129114E+02  0.45045683290E+02  0.00000000000E+00 0.  1.
         11    1    3    3    0    0  0.10294455250E+02  0.78741129183E+01 -0.18503971362E+02  0.22591467849E+02  0.51100000000E-03 0. -1.
        -11    1    3    3    0    0  0.58670123326E+01  0.36220734553E+01 -0.60171933825E+01  0.91513860311E+01  0.51100000000E-03 0.  1.
         12    1    3    3    0    0  0.89686127412E+01 -0.62594955795E+00 -0.11247964369E+02  0.14399462830E+02  0.00000000000E+00 0. -1.
</event>
<event>
 7    1  0.1476909E-008  0.4614232E+02  0.7816164E-02  0.1320468E+00
        -11   -1    0    0    0    0  0.00000000000E+00  0.00000000000E+00  0.45593999997E+02  0.45594000000E+02  0.51100000000E-03 0.  1.
         11   -1    0    0    0    0 -0.00000000000E+00 -0.00000000000E+00 -0.45593999997E+02  0.45594000000E+02  0.51100000000E-03 0. -1.
    9900012    2    1    2    0    0  0.28898459866E+02 -0.30377161446E+02 -0.16468775538E+02  0.46142317766E+02  0.10000000046E+02 0.  0.
        -12    1    1    2    0    0 -0.28898459866E+02  0.30377161446E+02  0.16468775538E+02  0.45045682234E+02  0.00000000000E+00 0.  1.
         11    1    3    3    0    0  0.13469822609E+02 -0.14647064418E+02 -0.78193429645E+01  0.21380241857E+02  0.51100000000E-03 0. -1.
        -11    1    3    3    0    0 -0.89034386868E-01 -0.33132504875E+01 -0.94022084333E+00  0.34452244354E+01  0.51100000000E-03 0.  1.
         12    1    3    3    0    0  0.15517671644E+02 -0.12416846541E+02 -0.77092117303E+01  0.21316851474E+02  0.00000000000E+00 0. -1.
</event>
<event>
 7    1  0.1476909E-008  0.4614232E+02  0.7816164E-02  0.1320468E+00
        -11   -1    0    0    0    0  0.00000000000E+00  0.00000000000E+00  0.45593999997E+02  0.45594000000E+02  0.51100000000E-03 0.  1.
         11   -1    0    0    0    0 -0.00000000000E+00 -0.00000000000E+00 -0.45593999997E+02  0.45594000000E+02  0.51100000000E-03 0. -1.
    9900012    2    1    2    0    0 -0.14806537333E+02 -0.36856969936E+02 -0.21247204774E+02  0.46142317728E+02  0.99999996975E+01 0.  0.
        -12    1    1    2    0    0  0.14806537333E+02  0.36856969936E+02  0.21247204774E+02  0.45045682272E+02  0.00000000000E+00 0.  1.
         11    1    3    3    0    0 -0.47161887784E+01 -0.99251514126E+01 -0.29795043536E+01  0.11385451840E+02  0.51100000000E-03 0. -1.
        -11    1    3    3    0    0 -0.50390340425E+00  0.37193944273E+00 -0.48216973212E+00  0.79040843971E+00  0.51100000000E-03 0.  1.
         12    1    3    3    0    0 -0.95864451498E+01 -0.27303757966E+02 -0.17785530688E+02  0.33966457448E+02  0.00000000000E+00 0. -1.
</event>
<event>
 7    1  0.1476909E-008  0.4614232E+02  0.7816164E-02  0.1320468E+00
        -11   -1    0    0    0    0  0.00000000000E+00  0.00000000000E+00  0.45593999997E+02  0.45594000000E+02  0.51100000000E-03 0.  1.
         11   -1    0    0    0    0 -0.00000000000E+00 -0.00000000000E+00 -0.45593999997E+02  0.45594000000E+02  0.51100000000E-03 0. -1.
    9900012    2    1    2    0    0  0.54135037917E+01  0.30097708190E+02 -0.33074694547E+02  0.46142317843E+02  0.10000000747E+02 0.  0.
        -12    1    1    2    0    0 -0.54135037917E+01 -0.30097708190E+02  0.33074694547E+02  0.45045682157E+02  0.00000000000E+00 0.  1.
         11    1    3    3    0    0 -0.59309396958E+00  0.12238538483E+02 -0.89075491092E+01  0.15148531811E+02  0.51100000000E-03 0. -1.
        -11    1    3    3    0    0  0.25314722833E+01  0.44591484270E+01 -0.38647727403E+01  0.64209676226E+01  0.51100000000E-03 0.  1.
         12    1    3    3    0    0  0.34751254780E+01  0.13400021280E+02 -0.20302372698E+02  0.24572818409E+02  0.00000000000E+00 0. -1.
</event>
<event>
 7    1  0.1476909E-008  0.4614232E+02  0.7816164E-02  0.1320468E+00
        -11   -1    0    0    0    0  0.00000000000E+00  0.00000000000E+00  0.45593999997E+02  0.45594000000E+02  0.51100000000E-03 0. -1.
         11   -1    0    0    0    0 -0.00000000000E+00 -0.00000000000E+00 -0.45593999997E+02  0.45594000000E+02  0.51100000000E-03 0.  1.
    9900012    2    1    2    0    0  0.62548304619E+01 -0.38605461745E+02 -0.22351934184E+02  0.46142317162E+02  0.99999945325E+01 0.  0.
        -12    1    1    2    0    0 -0.62548304619E+01  0.38605461745E+02  0.22351934184E+02  0.45045682838E+02  0.00000000000E+00 0.  1.
         11    1    3    3    0    0  0.58778212830E+01 -0.24645705285E+02 -0.14748457560E+02  0.29316830877E+02  0.51100000000E-03 0. -1.
        -11    1    3    3    0    0  0.11240413473E+01 -0.29380568780E+01 -0.42366674414E+01  0.52768360254E+01  0.51100000000E-03 0.  1.
         12    1    3    3    0    0 -0.74703216839E+00 -0.11021699582E+02 -0.33668091826E+01  0.11548650259E+02  0.00000000000E+00 0. -1.
</event>
<event>
 7    1  0.1476909E-008  0.4614232E+02  0.7816164E-02  0.1320468E+00
        -11   -1    0    0    0    0  0.00000000000E+00  0.00000000000E+00  0.45593999997E+02  0.45594000000E+02  0.51100000000E-03 0.  1.
         11   -1    0    0    0    0 -0.00000000000E+00 -0.00000000000E+00 -0.45593999997E+02  0.45594000000E+02  0.51100000000E-03 0. -1.
    9900012    2    1    2    0    0 -0.12034199388E+02 -0.29642531910E+02 -0.31711383085E+02  0.46142317964E+02  0.10000001851E+02 0.  0.
        -12    1    1    2    0    0  0.12034199388E+02  0.29642531910E+02  0.31711383085E+02  0.45045682036E+02  0.00000000000E+00 0.  1.
         11    1    3    3    0    0 -0.31096390376E+01 -0.14846392854E+02 -0.12522269986E+02  0.19669582649E+02  0.51100000000E-03 0. -1.
        -11    1    3    3    0    0 -0.79414927849E+01 -0.12739913432E+02 -0.18957579558E+02  0.24181863552E+02  0.51100000000E-03 0.  1.
        -12    1    3    3    0    0 -0.98306756513E+00 -0.20562256240E+01 -0.23153354101E+00  0.22908717631E+01  0.00000000000E+00 0.  1.
</event>
<event>
 7    1  0.1476909E-008  0.4614232E+02  0.7816164E-02  0.1320468E+00
        -11   -1    0    0    0    0  0.00000000000E+00  0.00000000000E+00  0.45593999997E+02  0.45594000000E+02  0.51100000000E-03 0. -1.
         11   -1    0    0    0    0 -0.00000000000E+00 -0.00000000000E+00 -0.45593999997E+02  0.45594000000E+02  0.51100000000E-03 0.  1.
    9900012    2    1    2    0    0  0.34615907736E+02 -0.17080245187E+02 -0.23218904929E+02  0.46142318851E+02  0.10000009943E+02 0.  0.
        -12    1    1    2    0    0 -0.34615907736E+02  0.17080245187E+02  0.23218904929E+02  0.45045681149E+02  0.00000000000E+00 0.  1.
         11    1    3    3    0    0  0.16244426716E+02 -0.69937876914E+01 -0.67750230558E+01  0.18939255616E+02  0.51100000000E-03 0. -1.
        -11    1    3    3    0    0  0.16116378785E+02 -0.70795628074E+01 -0.15160507733E+02  0.23231419880E+02  0.51100000000E-03 0.  1.
        -12    1    3    3    0    0  0.22551022345E+01 -0.30068946887E+01 -0.12833741404E+01  0.39716433552E+01  0.00000000000E+00 0.  1.
</event>
<event>
 7    1  0.1476909E-008  0.4614232E+02  0.7816164E-02  0.1320468E+00
        -11   -1    0    0    0    0  0.00000000000E+00  0.00000000000E+00  0.45593999997E+02  0.45594000000E+02  0.51100000000E-03 0.  1.
         11   -1    0    0    0    0 -0.00000000000E+00 -0.00000000000E+00 -0.45593999997E+02  0.45594000000E+02  0.51100000000E-03 0. -1.
    9900012    2    1    2    0    0 -0.10541422019E+02  0.38110423160E+01 -0.43628750237E+02  0.46142317976E+02  0.10000001959E+02 0.  0.
        -12    1    1    2    0    0  0.10541422019E+02 -0.38110423160E+01  0.43628750237E+02  0.45045682024E+02  0.00000000000E+00 0.  1.
         11    1    3    3    0    0 -0.43295433631E+01 -0.31466013104E+00 -0.81694636133E+01  0.92511671005E+01  0.51100000000E-03 0. -1.
        -11    1    3    3    0    0 -0.44668595391E+00  0.42483475035E+01 -0.18176996040E+02  0.18672203141E+02  0.51100000000E-03 0.  1.
        -12    1    3    3    0    0 -0.57651927023E+01 -0.12264505644E+00 -0.17282290585E+02  0.18218947735E+02  0.00000000000E+00 0.  1.
</event>
<event>
 7    1  0.1476909E-008  0.4614232E+02  0.7816164E-02  0.1320468E+00
        -11   -1    0    0    0    0  0.00000000000E+00  0.00000000000E+00  0.45593999997E+02  0.45594000000E+02  0.51100000000E-03 0.  1.
         11   -1    0    0    0    0 -0.00000000000E+00 -0.00000000000E+00 -0.45593999997E+02  0.45594000000E+02  0.51100000000E-03 0. -1.
    9900012    2    1    2    0    0  0.25915375867E+02  0.31793385488E+01 -0.36706928128E+02  0.46142317937E+02  0.10000001605E+02 0.  0.
        -12    1    1    2    0    0 -0.25915375867E+02 -0.31793385488E+01  0.36706928128E+02  0.45045682063E+02  0.00000000000E+00 0.  1.
         11    1    3    3    0    0  0.90663942810E+00  0.12977941467E+01 -0.46618247580E+00  0.16503305916E+01  0.51100000000E-03 0. -1.
        -11    1    3    3    0    0  0.17680760818E+02 -0.10543140199E+01 -0.22381058733E+02  0.28541770642E+02  0.51100000000E-03 0.  1.
        -12    1    3    3    0    0  0.73279756211E+01  0.29358584221E+01 -0.13859686919E+02  0.15950216703E+02  0.00000000000E+00 0.  1.
</event>
<event>
 7    1  0.1476909E-008  0.4614232E+02  0.7816164E-02  0.1320468E+00
        -11   -1    0    0    0    0  0.00000000000E+00  0.00000000000E+00  0.45593999997E+02  0.45594000000E+02  0.51100000000E-03 0.  1.
         11   -1    0    0    0    0 -0.00000000000E+00 -0.00000000000E+00 -0.45593999997E+02  0.45594000000E+02  0.51100000000E-03 0. -1.
    9900012    2    1    2    0    0 -0.28500113568E+02  0.10820216557E+02 -0.33162930068E+02  0.46142317738E+02  0.99999997904E+01 0.  0.
        -12    1    1    2    0    0  0.28500113568E+02 -0.10820216557E+02  0.33162930068E+02  0.45045682262E+02  0.00000000000E+00 0.  1.
         11    1    3    3    0    0 -0.62632743207E+01  0.14582976595E+01 -0.24847665413E+01  0.68941498610E+01  0.51100000000E-03 0.  1.
        -11    1    3    3    0    0 -0.11880779480E+02  0.66077610459E+01 -0.14842697970E+02  0.20127620584E+02  0.51100000000E-03 0. -1.
        -12    1    3    3    0    0 -0.10356059767E+02  0.27541578520E+01 -0.15835465557E+02  0.19120547293E+02  0.00000000000E+00 0.  1.
</event>
<event>
 7    1  0.1476909E-008  0.4614232E+02  0.7816164E-02  0.1320468E+00
        -11   -1    0    0    0    0  0.00000000000E+00  0.00000000000E+00  0.45593999997E+02  0.45594000000E+02  0.51100000000E-03 0.  1.
         11   -1    0    0    0    0 -0.00000000000E+00 -0.00000000000E+00 -0.45593999997E+02  0.45594000000E+02  0.51100000000E-03 0. -1.
    9900012    2    1    2    0    0 -0.14292426231E+02 -0.20808073215E+01 -0.42667439921E+02  0.46142316122E+02  0.99999850509E+01 0.  0.
        -12    1    1    2    0    0  0.14292426231E+02  0.20808073215E+01  0.42667439921E+02  0.45045683878E+02  0.00000000000E+00 0.  1.
         11    1    3    3    0    0 -0.41449575429E+01  0.49481181010E+00 -0.32906229677E+01  0.53154220469E+01  0.51100000000E-03 0. -1.
        -11    1    3    3    0    0 -0.22158754250E+01 -0.10529179401E+01 -0.59024685951E+01  0.63920165726E+01  0.51100000000E-03 0.  1.
         12    1    3    3    0    0 -0.79315932632E+01 -0.15227011915E+01 -0.33474348358E+02  0.34434877502E+02  0.00000000000E+00 0. -1.
</event>
<event>
 7    1  0.1476909E-008  0.4614232E+02  0.7816164E-02  0.1320468E+00
        -11   -1    0    0    0    0  0.00000000000E+00  0.00000000000E+00  0.45593999997E+02  0.45594000000E+02  0.51100000000E-03 0.  1.
         11   -1    0    0    0    0 -0.00000000000E+00 -0.00000000000E+00 -0.45593999997E+02  0.45594000000E+02  0.51100000000E-03 0. -1.
    9900012    2    1    2    0    0  0.34488740506E+02  0.10148876136E+02 -0.27141123499E+02  0.46142317706E+02  0.99999994983E+01 0.  0.
        -12    1    1    2    0    0 -0.34488740506E+02 -0.10148876136E+02  0.27141123499E+02  0.45045682294E+02  0.00000000000E+00 0.  1.
         11    1    3    3    0    0  0.24503210638E+02  0.60794033794E+01 -0.23165231096E+02  0.34263601811E+02  0.51100000000E-03 0. -1.
        -11    1    3    3    0    0  0.68491416137E+00 -0.46634503571E+00 -0.47346867738E+00  0.95433639266E+00  0.51100000000E-03 0.  1.
         12    1    3    3    0    0  0.93006157065E+01  0.45358177924E+01 -0.35024237252E+01  0.10924379503E+02  0.00000000000E+00 0. -1.
</event>
<event>
 7    1  0.1476909E-008  0.4614232E+02  0.7816164E-02  0.1320468E+00
        -11   -1    0    0    0    0  0.00000000000E+00  0.00000000000E+00  0.45593999997E+02  0.45594000000E+02  0.51100000000E-03 0.  1.
         11   -1    0    0    0    0 -0.00000000000E+00 -0.00000000000E+00 -0.45593999997E+02  0.45594000000E+02  0.51100000000E-03 0. -1.
    9900012    2    1    2    0    0  0.95804111736E+01  0.31980065916E+02 -0.30242431782E+02  0.46142316807E+02  0.99999913000E+01 0.  0.
        -12    1    1    2    0    0 -0.95804111736E+01 -0.31980065916E+02  0.30242431782E+02  0.45045683193E+02  0.00000000000E+00 0.  1.
         11    1    3    3    0    0  0.68937071393E+01  0.23764465577E+02 -0.19741454881E+02  0.31654352992E+02  0.51100000000E-03 0. -1.
        -11    1    3    3    0    0 -0.42982933830E+00  0.58352070691E+01 -0.76905670716E+01  0.96632922414E+01  0.51100000000E-03 0.  1.
         12    1    3    3    0    0  0.31165333726E+01  0.23803932696E+01 -0.28104098297E+01  0.48246715734E+01  0.00000000000E+00 0. -1.
</event>
<event>
 7    1  0.1476909E-008  0.4614232E+02  0.7816164E-02  0.1320468E+00
        -11   -1    0    0    0    0  0.00000000000E+00  0.00000000000E+00  0.45593999997E+02  0.45594000000E+02  0.51100000000E-03 0. -1.
         11   -1    0    0    0    0 -0.00000000000E+00 -0.00000000000E+00 -0.45593999997E+02  0.45594000000E+02  0.51100000000E-03 0.  1.
    9900012    2    1    2    0    0  0.79948228369E+01 -0.44299530072E+02 -0.16576854310E+01  0.46142317878E+02  0.10000001070E+02 0.  0.
        -12    1    1    2    0    0 -0.79948228369E+01  0.44299530072E+02  0.16576854310E+01  0.45045682122E+02  0.00000000000E+00 0.  1.
         11    1    3    3    0    0  0.38301641204E+01 -0.78385551325E+01  0.25928728159E+01  0.91014335934E+01  0.51100000000E-03 0. -1.
        -11    1    3    3    0    0  0.40994018879E+01 -0.26532232545E+02 -0.36465222370E+01  0.27093570905E+02  0.51100000000E-03 0.  1.
         12    1    3    3    0    0  0.65256828575E-01 -0.99287423944E+01 -0.60403600988E+00  0.99473133805E+01  0.00000000000E+00 0. -1.
</event>
<event>
 7    1  0.1476909E-008  0.4614232E+02  0.7816164E-02  0.1320468E+00
        -11   -1    0    0    0    0  0.00000000000E+00  0.00000000000E+00  0.45593999997E+02  0.45594000000E+02  0.51100000000E-03 0. -1.
         11   -1    0    0    0    0 -0.00000000000E+00 -0.00000000000E+00 -0.45593999997E+02  0.45594000000E+02  0.51100000000E-03 0.  1.
    9900012    2    1    2    0    0  0.26932145860E+02  0.17519931528E+02 -0.31572536343E+02  0.46142317272E+02  0.99999955359E+01 0.  0.
        -12    1    1    2    0    0 -0.26932145860E+02 -0.17519931528E+02  0.31572536343E+02  0.45045682728E+02  0.00000000000E+00 0.  1.
         11    1    3    3    0    0  0.53934034318E+01  0.32211332227E+01 -0.78252695126E+01  0.10034906229E+02  0.51100000000E-03 0. -1.
        -11    1    3    3    0    0  0.13253590069E+02  0.12122570397E+02 -0.12131401423E+02  0.21674530294E+02  0.51100000000E-03 0.  1.
        -12    1    3    3    0    0  0.82851523591E+01  0.21762279076E+01 -0.11615865408E+02  0.14432880748E+02  0.00000000000E+00 0.  1.
</event>
<event>
 7    1  0.1476909E-008  0.4614232E+02  0.7816164E-02  0.1320468E+00
        -11   -1    0    0    0    0  0.00000000000E+00  0.00000000000E+00  0.45593999997E+02  0.45594000000E+02  0.51100000000E-03 0.  1.
         11   -1    0    0    0    0 -0.00000000000E+00 -0.00000000000E+00 -0.45593999997E+02  0.45594000000E+02  0.51100000000E-03 0. -1.
    9900012    2    1    2    0    0 -0.14156062993E+02 -0.82452863324E+01 -0.41961108785E+02  0.46142317448E+02  0.99999971406E+01 0.  0.
        -12    1    1    2    0    0  0.14156062993E+02  0.82452863324E+01  0.41961108785E+02  0.45045682552E+02  0.00000000000E+00 0.  1.
         11    1    3    3    0    0 -0.67614372326E+01 -0.14102801613E+01 -0.78430142149E+01  0.10450779675E+02  0.51100000000E-03 0.  1.
        -11    1    3    3    0    0 -0.33427579865E+01 -0.31081530288E+01 -0.20515607733E+02  0.21017250228E+02  0.51100000000E-03 0. -1.
        -12    1    3    3    0    0 -0.40518677740E+01 -0.37268531422E+01 -0.13602486837E+02  0.14674287545E+02  0.00000000000E+00 0.  1.
</event>
<event>
 7    1  0.1476909E-008  0.4614232E+02  0.7816164E-02  0.1320468E+00
        -11   -1    0    0    0    0  0.00000000000E+00  0.00000000000E+00  0.45593999997E+02  0.45594000000E+02  0.51100000000E-03 0.  1.
         11   -1    0    0    0    0 -0.00000000000E+00 -0.00000000000E+00 -0.45593999997E+02  0.45594000000E+02  0.51100000000E-03 0. -1.
    9900012    2    1    2    0    0  0.27484515846E+02  0.95571679072E+01 -0.34385685095E+02  0.46142318641E+02  0.10000008020E+02 0.  0.
        -12    1    1    2    0    0 -0.27484515846E+02 -0.95571679072E+01  0.34385685095E+02  0.45045681359E+02  0.00000000000E+00 0.  1.
         11    1    3    3    0    0  0.13429217266E+02  0.56314607144E+01 -0.16594999626E+02  0.22078297919E+02  0.51100000000E-03 0. -1.
        -11    1    3    3    0    0  0.15599236907E+01  0.10505681804E+01  0.28537514459E+00  0.19022341224E+01  0.51100000000E-03 0.  1.
        -12    1    3    3    0    0  0.12495374888E+02  0.28751390125E+01 -0.18076060614E+02  0.22161786599E+02  0.00000000000E+00 0.  1.
</event>
<event>
 7    1  0.1476909E-008  0.4614232E+02  0.7816164E-02  0.1320468E+00
        -11   -1    0    0    0    0  0.00000000000E+00  0.00000000000E+00  0.45593999997E+02  0.45594000000E+02  0.51100000000E-03 0.  1.
         11   -1    0    0    0    0 -0.00000000000E+00 -0.00000000000E+00 -0.45593999997E+02  0.45594000000E+02  0.51100000000E-03 0. -1.
    9900012    2    1    2    0    0  0.13289786715E+02  0.33098877975E+02 -0.27512893058E+02  0.46142318314E+02  0.10000005043E+02 0.  0.
        -12    1    1    2    0    0 -0.13289786715E+02 -0.33098877975E+02  0.27512893058E+02  0.45045681686E+02  0.00000000000E+00 0.  1.
         11    1    3    3    0    0 -0.24864569368E+00  0.34538005833E+01 -0.47510767363E+01  0.58790554994E+01  0.51100000000E-03 0. -1.
        -11    1    3    3    0    0 -0.63533170181E-01  0.29993265717E+01 -0.67034234200E+00  0.30739803942E+01  0.51100000000E-03 0.  1.
         12    1    3    3    0    0  0.13601965579E+02  0.26645750820E+02 -0.22091473980E+02  0.37189282421E+02  0.00000000000E+00 0. -1.
</event>
<event>
 7    1  0.1476909E-008  0.4614231E+02  0.7816164E-02  0.1320468E+00
        -11   -1    0    0    0    0  0.00000000000E+00  0.00000000000E+00  0.45593999997E+02  0.45594000000E+02  0.51100000000E-03 0.  1.
         11   -1    0    0    0    0 -0.00000000000E+00 -0.00000000000E+00 -0.45593999997E+02  0.45594000000E+02  0.51100000000E-03 0. -1.
    9900012    2    1    2    0    0 -0.19928928507E+02 -0.40385698595E+02  0.97311171514E+00  0.46142314426E+02  0.99999695858E+01 0.  0.
        -12    1    1    2    0    0  0.19928928507E+02  0.40385698595E+02 -0.97311171514E+00  0.45045685574E+02  0.00000000000E+00 0.  1.
         11    1    3    3    0    0 -0.77738152953E+01 -0.16814286624E+02 -0.22215546289E+01  0.18657109748E+02  0.51100000000E-03 0. -1.
        -11    1    3    3    0    0 -0.51501615221E+01 -0.42736154626E+01  0.16772920095E+01  0.68993667515E+01  0.51100000000E-03 0.  1.
        -12    1    3    3    0    0 -0.70049516893E+01 -0.19297796508E+02  0.15173743345E+01  0.20585837926E+02  0.00000000000E+00 0.  1.
</event>
<event>
 7    1  0.1476909E-008  0.4614232E+02  0.7816164E-02  0.1320468E+00
        -11   -1    0    0    0    0  0.00000000000E+00  0.00000000000E+00  0.45593999997E+02  0.45594000000E+02  0.51100000000E-03 0.  1.
         11   -1    0    0    0    0 -0.00000000000E+00 -0.00000000000E+00 -0.45593999997E+02  0.45594000000E+02  0.51100000000E-03 0. -1.
    9900012    2    1    2    0    0 -0.28215921786E+02  0.12846063394E+02 -0.32679565498E+02  0.46142316654E+02  0.99999899065E+01 0.  0.
        -12    1    1    2    0    0  0.28215921786E+02 -0.12846063394E+02  0.32679565498E+02  0.45045683346E+02  0.00000000000E+00 0.  1.
         11    1    3    3    0    0 -0.20018683852E+02  0.52428108166E+01 -0.24760849782E+02  0.32269714139E+02  0.51100000000E-03 0. -1.
        -11    1    3    3    0    0 -0.11990683441E+01  0.19283000331E+01 -0.86475484624E+00  0.24297956944E+01  0.51100000000E-03 0.  1.
         12    1    3    3    0    0 -0.69981695898E+01  0.56749525440E+01 -0.70539608698E+01  0.11442806821E+02  0.00000000000E+00 0. -1.
</event>
<event>
 7    1  0.1476909E-008  0.4614232E+02  0.7816164E-02  0.1320468E+00
        -11   -1    0    0    0    0  0.00000000000E+00  0.00000000000E+00  0.45593999997E+02  0.45594000000E+02  0.51100000000E-03 0.  1.
         11   -1    0    0    0    0 -0.00000000000E+00 -0.00000000000E+00 -0.45593999997E+02  0.45594000000E+02  0.51100000000E-03 0. -1.
    9900012    2    1    2    0    0 -0.52260754755E+01  0.35941245647E+02 -0.26646360230E+02  0.46142317443E+02  0.99999970984E+01 0.  0.
        -12    1    1    2    0    0  0.52260754755E+01 -0.35941245647E+02  0.26646360230E+02  0.45045682557E+02  0.00000000000E+00 0.  1.
         11    1    3    3    0    0  0.11440783148E+01  0.15968209905E+02 -0.10731810333E+02  0.19273411634E+02  0.51100000000E-03 0. -1.
        -11    1    3    3    0    0 -0.64300322053E+01  0.11504315756E+02 -0.96068904923E+01  0.16309106056E+02  0.51100000000E-03 0.  1.
        -12    1    3    3    0    0  0.59878414944E-01  0.84687199862E+01 -0.63076594053E+01  0.10559799752E+02  0.00000000000E+00 0.  1.
</event>
<event>
 7    1  0.1476909E-008  0.4614232E+02  0.7816164E-02  0.1320468E+00
        -11   -1    0    0    0    0  0.00000000000E+00  0.00000000000E+00  0.45593999997E+02  0.45594000000E+02  0.51100000000E-03 0.  1.
         11   -1    0    0    0    0 -0.00000000000E+00 -0.00000000000E+00 -0.45593999997E+02  0.45594000000E+02  0.51100000000E-03 0. -1.
    9900012    2    1    2    0    0 -0.86189785056E+01  0.94008037109E+01 -0.43202448363E+02  0.46142318237E+02  0.10000004342E+02 0.  0.
        -12    1    1    2    0    0  0.86189785056E+01 -0.94008037109E+01  0.43202448363E+02  0.45045681763E+02  0.00000000000E+00 0.  1.
         11    1    3    3    0    0 -0.22348023825E+01  0.71551605197E+00 -0.25851297695E+01  0.34913036385E+01  0.51100000000E-03 0.  1.
        -11    1    3    3    0    0 -0.28245313506E+01  0.77343416800E+01 -0.18790229388E+02  0.20515134396E+02  0.51100000000E-03 0. -1.
        -12    1    3    3    0    0 -0.35596447724E+01  0.95094597890E+00 -0.21827089205E+02  0.22135880202E+02  0.00000000000E+00 0.  1.
</event>
<event>
 7    1  0.1476909E-008  0.4614232E+02  0.7816164E-02  0.1320468E+00
        -11   -1    0    0    0    0  0.00000000000E+00  0.00000000000E+00  0.45593999997E+02  0.45594000000E+02  0.51100000000E-03 0. -1.
         11   -1    0    0    0    0 -0.00000000000E+00 -0.00000000000E+00 -0.45593999997E+02  0.45594000000E+02  0.51100000000E-03 0.  1.
    9900012    2    1    2    0    0  0.28779690309E+02 -0.25790069684E+02  0.23145522713E+02  0.46142317740E+02  0.99999998095E+01 0.  0.
        -12    1    1    2    0    0 -0.28779690309E+02  0.25790069684E+02 -0.23145522713E+02  0.45045682260E+02  0.00000000000E+00 0.  1.
         11    1    3    3    0    0  0.11173995234E+02 -0.10767462100E+02  0.79737856499E+01  0.17446422769E+02  0.51100000000E-03 0. -1.
        -11    1    3    3    0    0  0.16964681552E+02 -0.13187438658E+02  0.15779741426E+02  0.26659129735E+02  0.51100000000E-03 0.  1.
        -12    1    3    3    0    0  0.64101352241E+00 -0.18351689259E+01 -0.60800436230E+00  0.20367652361E+01  0.00000000000E+00 0.  1.
</event>
<event>
 7    1  0.1476909E-008  0.4614231E+02  0.7816164E-02  0.1320468E+00
        -11   -1    0    0    0    0  0.00000000000E+00  0.00000000000E+00  0.45593999997E+02  0.45594000000E+02  0.51100000000E-03 0.  1.
         11   -1    0    0    0    0 -0.00000000000E+00 -0.00000000000E+00 -0.45593999997E+02  0.45594000000E+02  0.51100000000E-03 0. -1.
    9900012    2    1    2    0    0  0.92985502236E+01 -0.43674858975E+02 -0.59293685916E+01  0.46142314805E+02  0.99999730451E+01 0.  0.
        -12    1    1    2    0    0 -0.92985502236E+01  0.43674858975E+02  0.59293685916E+01  0.45045685195E+02  0.00000000000E+00 0.  1.
         11    1    3    3    0    0  0.20242173654E+01 -0.13600286485E+02 -0.34816253562E+01  0.14184039051E+02  0.51100000000E-03 0. -1.
        -11    1    3    3    0    0 -0.12005531327E+01 -0.10641913914E+01 -0.46511645922E+00  0.16703786169E+01  0.51100000000E-03 0.  1.
        -12    1    3    3    0    0  0.84748859909E+01 -0.29010381099E+02 -0.19826267762E+01  0.30287897137E+02  0.00000000000E+00 0.  1.
</event>
<event>
 7    1  0.1476909E-008  0.4614232E+02  0.7816164E-02  0.1320468E+00
        -11   -1    0    0    0    0  0.00000000000E+00  0.00000000000E+00  0.45593999997E+02  0.45594000000E+02  0.51100000000E-03 0.  1.
         11   -1    0    0    0    0 -0.00000000000E+00 -0.00000000000E+00 -0.45593999997E+02  0.45594000000E+02  0.51100000000E-03 0. -1.
    9900012    2    1    2    0    0  0.31632110679E+02 -0.49804231596E+01 -0.31681515772E+02  0.46142317826E+02  0.10000000594E+02 0.  0.
        -12    1    1    2    0    0 -0.31632110679E+02  0.49804231596E+01  0.31681515772E+02  0.45045682174E+02  0.00000000000E+00 0.  1.
         11    1    3    3    0    0  0.24562927724E+02 -0.40970348309E+00 -0.21447801868E+02  0.32611554402E+02  0.51100000000E-03 0. -1.
        -11    1    3    3    0    0  0.15666818910E+01 -0.23420227014E+01 -0.42697100491E+01  0.51156609198E+01  0.51100000000E-03 0.  1.
         12    1    3    3    0    0  0.55025010645E+01 -0.22286969750E+01 -0.59640038550E+01  0.84151025041E+01  0.00000000000E+00 0. -1.
</event>
<event>
 7    1  0.1476909E-008  0.4614232E+02  0.7816164E-02  0.1320468E+00
        -11   -1    0    0    0    0  0.00000000000E+00  0.00000000000E+00  0.45593999997E+02  0.45594000000E+02  0.51100000000E-03 0.  1.
         11   -1    0    0    0    0 -0.00000000000E+00 -0.00000000000E+00 -0.45593999997E+02  0.45594000000E+02  0.51100000000E-03 0. -1.
    9900012    2    1    2    0    0  0.36529336804E+02  0.15725430104E+01 -0.26310608818E+02  0.46142317907E+02  0.10000001327E+02 0.  0.
        -12    1    1    2    0    0 -0.36529336804E+02 -0.15725430104E+01  0.26310608818E+02  0.45045682093E+02  0.00000000000E+00 0.  1.
         11    1    3    3    0    0  0.31680021405E+01 -0.15972086898E+01 -0.84018395743E+00  0.36459871783E+01  0.51100000000E-03 0. -1.
        -11    1    3    3    0    0  0.33140879146E+01  0.21512115661E+01 -0.31077144260E+01  0.50268060558E+01  0.51100000000E-03 0.  1.
         12    1    3    3    0    0  0.30047246749E+02  0.10185401341E+01 -0.22362710434E+02  0.37469524673E+02  0.00000000000E+00 0. -1.
</event>
<event>
 7    1  0.1476909E-008  0.4614232E+02  0.7816164E-02  0.1320468E+00
        -11   -1    0    0    0    0  0.00000000000E+00  0.00000000000E+00  0.45593999997E+02  0.45594000000E+02  0.51100000000E-03 0.  1.
         11   -1    0    0    0    0 -0.00000000000E+00 -0.00000000000E+00 -0.45593999997E+02  0.45594000000E+02  0.51100000000E-03 0. -1.
    9900012    2    1    2    0    0 -0.15057766126E+02 -0.27979714339E+02 -0.31929810687E+02  0.46142317125E+02  0.99999941949E+01 0.  0.
        -12    1    1    2    0    0  0.15057766126E+02  0.27979714339E+02  0.31929810687E+02  0.45045682875E+02  0.00000000000E+00 0.  1.
         11    1    3    3    0    0 -0.11028868310E+02 -0.22650563836E+02 -0.22748084477E+02  0.33943472508E+02  0.51100000000E-03 0. -1.
        -11    1    3    3    0    0 -0.42317460776E+01 -0.45928065732E+01 -0.95020673504E+01  0.11370612617E+02  0.51100000000E-03 0.  1.
         12    1    3    3    0    0  0.20284826137E+00 -0.73634392950E+00  0.32034113973E+00  0.82823199978E+00  0.00000000000E+00 0. -1.
</event>
<event>
 7    1  0.1476909E-008  0.4614232E+02  0.7816164E-02  0.1320468E+00
        -11   -1    0    0    0    0  0.00000000000E+00  0.00000000000E+00  0.45593999997E+02  0.45594000000E+02  0.51100000000E-03 0.  1.
         11   -1    0    0    0    0 -0.00000000000E+00 -0.00000000000E+00 -0.45593999997E+02  0.45594000000E+02  0.51100000000E-03 0. -1.
    9900012    2    1    2    0    0  0.20865277181E+02  0.35545804283E+02 -0.18172762936E+02  0.46142319778E+02  0.10000018389E+02 0.  0.
        -12    1    1    2    0    0 -0.20865277181E+02 -0.35545804283E+02  0.18172762936E+02  0.45045680222E+02  0.00000000000E+00 0.  1.
         11    1    3    3    0    0  0.31743108237E+01  0.93848153670E+01 -0.59177921380E+01  0.11539985820E+02  0.51100000000E-03 0. -1.
        -11    1    3    3    0    0  0.92103677756E+01  0.18300016244E+02 -0.55088890171E+01  0.21214837439E+02  0.51100000000E-03 0.  1.
         12    1    3    3    0    0  0.84805985814E+01  0.78609726724E+01 -0.67460817807E+01  0.13387496519E+02  0.00000000000E+00 0. -1.
</event>
<event>
 7    1  0.1476909E-008  0.4614232E+02  0.7816164E-02  0.1320468E+00
        -11   -1    0    0    0    0  0.00000000000E+00  0.00000000000E+00  0.45593999997E+02  0.45594000000E+02  0.51100000000E-03 0.  1.
         11   -1    0    0    0    0 -0.00000000000E+00 -0.00000000000E+00 -0.45593999997E+02  0.45594000000E+02  0.51100000000E-03 0. -1.
    9900012    2    1    2    0    0  0.43873279956E+02 -0.75434215950E+00 -0.10182328724E+02  0.46142317138E+02  0.99999943207E+01 0.  0.
        -12    1    1    2    0    0 -0.43873279956E+02  0.75434215950E+00  0.10182328724E+02  0.45045682862E+02  0.00000000000E+00 0.  1.
         11    1    3    3    0    0  0.41712366880E+01 -0.15242703657E+01 -0.14644056938E+01  0.46762271066E+01  0.51100000000E-03 0. -1.
        -11    1    3    3    0    0  0.26862547257E+02  0.15324857866E+01 -0.96153166516E+01  0.28572701524E+02  0.51100000000E-03 0.  1.
         12    1    3    3    0    0  0.12839496012E+02 -0.76255758044E+00  0.89739362151E+00  0.12893388508E+02  0.00000000000E+00 0. -1.
</event>
<event>
 7    1  0.1476909E-008  0.4614232E+02  0.7816164E-02  0.1320468E+00
        -11   -1    0    0    0    0  0.00000000000E+00  0.00000000000E+00  0.45593999997E+02  0.45594000000E+02  0.51100000000E-03 0.  1.
         11   -1    0    0    0    0 -0.00000000000E+00 -0.00000000000E+00 -0.45593999997E+02  0.45594000000E+02  0.51100000000E-03 0. -1.
    9900012    2    1    2    0    0  0.14638015383E+02  0.41073287065E+02 -0.11306062609E+02  0.46142318116E+02  0.10000003234E+02 0.  0.
        -12    1    1    2    0    0 -0.14638015383E+02 -0.41073287065E+02  0.11306062609E+02  0.45045681884E+02  0.00000000000E+00 0.  1.
         11    1    3    3    0    0  0.97103220365E+01  0.28626966438E+02 -0.61292177060E+01  0.30844138365E+02  0.51100000000E-03 0. -1.
        -11    1    3    3    0    0  0.57727503017E+01  0.99801956089E+01 -0.30297606913E+01  0.11920922806E+02  0.51100000000E-03 0.  1.
        -12    1    3    3    0    0 -0.84505695473E+00  0.24661250178E+01 -0.21470842117E+01  0.33772569450E+01  0.00000000000E+00 0.  1.
</event>
<event>
 7    1  0.1476909E-008  0.4614232E+02  0.7816164E-02  0.1320468E+00
        -11   -1    0    0    0    0  0.00000000000E+00  0.00000000000E+00  0.45593999997E+02  0.45594000000E+02  0.51100000000E-03 0. -1.
         11   -1    0    0    0    0 -0.00000000000E+00 -0.00000000000E+00 -0.45593999997E+02  0.45594000000E+02  0.51100000000E-03 0.  1.
    9900012    2    1    2    0    0  0.32809652995E+02  0.30757234518E+02  0.25754236935E+01  0.46142316389E+02  0.99999874848E+01 0.  0.
        -12    1    1    2    0    0 -0.32809652995E+02 -0.30757234518E+02 -0.25754236935E+01  0.45045683611E+02  0.00000000000E+00 0.  1.
         11    1    3    3    0    0  0.88112837809E+01  0.68977127382E+01  0.28771131868E+01  0.11554001187E+02  0.51100000000E-03 0. -1.
        -11    1    3    3    0    0  0.19399699054E+02  0.14726847642E+02  0.71036509153E-01  0.24356383379E+02  0.51100000000E-03 0.  1.
        -12    1    3    3    0    0  0.45986701595E+01  0.91326741377E+01 -0.37272600240E+00  0.10231931822E+02  0.00000000000E+00 0.  1.
</event>
<event>
 7    1  0.1476909E-008  0.4614232E+02  0.7816164E-02  0.1320468E+00
        -11   -1    0    0    0    0  0.00000000000E+00  0.00000000000E+00  0.45593999997E+02  0.45594000000E+02  0.51100000000E-03 0.  1.
         11   -1    0    0    0    0 -0.00000000000E+00 -0.00000000000E+00 -0.45593999997E+02  0.45594000000E+02  0.51100000000E-03 0. -1.
    9900012    2    1    2    0    0  0.23104011849E+02  0.21406900165E+02 -0.32203458675E+02  0.46142317756E+02  0.99999999549E+01 0.  0.
        -12    1    1    2    0    0 -0.23104011849E+02 -0.21406900165E+02  0.32203458675E+02  0.45045682244E+02  0.00000000000E+00 0.  1.
         11    1    3    3    0    0  0.11464144944E+02  0.12376685373E+02 -0.10873318543E+02  0.20070825009E+02  0.51100000000E-03 0. -1.
        -11    1    3    3    0    0  0.84177096025E+01  0.53639729318E+01 -0.15867975415E+02  0.18746271218E+02  0.51100000000E-03 0.  1.
         12    1    3    3    0    0  0.32221573019E+01  0.36662418594E+01 -0.54621647174E+01  0.73252215291E+01  0.00000000000E+00 0. -1.
</event>
<event>
 7    1  0.1476909E-008  0.4614231E+02  0.7816164E-02  0.1320468E+00
        -11   -1    0    0    0    0  0.00000000000E+00  0.00000000000E+00  0.45593999997E+02  0.45594000000E+02  0.51100000000E-03 0.  1.
         11   -1    0    0    0    0 -0.00000000000E+00 -0.00000000000E+00 -0.45593999997E+02  0.45594000000E+02  0.51100000000E-03 0. -1.
    9900012    2    1    2    0    0  0.21250991247E+02 -0.34783119812E+02 -0.19174056373E+02  0.46142306636E+02  0.99998985491E+01 0.  0.
        -12    1    1    2    0    0 -0.21250991247E+02  0.34783119812E+02  0.19174056373E+02  0.45045693364E+02  0.00000000000E+00 0.  1.
         11    1    3    3    0    0  0.14160068463E+02 -0.19160041850E+02 -0.12297246572E+02  0.26811136047E+02  0.51100000000E-03 0. -1.
        -11    1    3    3    0    0  0.49771072229E+01 -0.45766529913E+01 -0.18357402341E+01  0.70062323241E+01  0.51100000000E-03 0.  1.
         12    1    3    3    0    0  0.21138155611E+01 -0.11046424970E+02 -0.50410695669E+01  0.12324938265E+02  0.00000000000E+00 0. -1.
</event>
<event>
 7    1  0.1476909E-008  0.4614232E+02  0.7816164E-02  0.1320468E+00
        -11   -1    0    0    0    0  0.00000000000E+00  0.00000000000E+00  0.45593999997E+02  0.45594000000E+02  0.51100000000E-03 0.  1.
         11   -1    0    0    0    0 -0.00000000000E+00 -0.00000000000E+00 -0.45593999997E+02  0.45594000000E+02  0.51100000000E-03 0. -1.
    9900012    2    1    2    0    0 -0.35802365849E+02  0.26732190708E+02  0.57178781849E+01  0.46142317062E+02  0.99999936209E+01 0.  0.
        -12    1    1    2    0    0  0.35802365849E+02 -0.26732190708E+02 -0.57178781849E+01  0.45045682938E+02  0.00000000000E+00 0.  1.
         11    1    3    3    0    0 -0.22827119285E+01  0.48918919841E+00 -0.13933418955E+01  0.27187279598E+01  0.51100000000E-03 0. -1.
        -11    1    3    3    0    0 -0.86539329186E+01  0.87265646945E+01  0.51587928130E+00  0.12300797455E+02  0.51100000000E-03 0.  1.
         12    1    3    3    0    0 -0.24865721002E+02  0.17516436815E+02  0.65953407990E+01  0.31122791647E+02  0.00000000000E+00 0. -1.
</event>
<event>
 7    1  0.1476909E-008  0.4614232E+02  0.7816164E-02  0.1320468E+00
        -11   -1    0    0    0    0  0.00000000000E+00  0.00000000000E+00  0.45593999997E+02  0.45594000000E+02  0.51100000000E-03 0.  1.
         11   -1    0    0    0    0 -0.00000000000E+00 -0.00000000000E+00 -0.45593999997E+02  0.45594000000E+02  0.51100000000E-03 0. -1.
    9900012    2    1    2    0    0  0.20103149743E+02  0.19893488082E+02 -0.35060318973E+02  0.46142318030E+02  0.10000002456E+02 0.  0.
        -12    1    1    2    0    0 -0.20103149743E+02 -0.19893488082E+02  0.35060318973E+02  0.45045681970E+02  0.00000000000E+00 0.  1.
         11    1    3    3    0    0  0.74490593142E+01  0.49821999192E+01 -0.17463180973E+02  0.19628384820E+02  0.51100000000E-03 0. -1.
        -11    1    3    3    0    0  0.93488865467E+01  0.87377557534E+01 -0.10628976120E+02  0.16635059029E+02  0.51100000000E-03 0.  1.
        -12    1    3    3    0    0  0.33052038818E+01  0.61735324095E+01 -0.69681618796E+01  0.98788741814E+01  0.00000000000E+00 0.  1.
</event>
<event>
 7    1  0.1476909E-008  0.4614232E+02  0.7816164E-02  0.1320468E+00
        -11   -1    0    0    0    0  0.00000000000E+00  0.00000000000E+00  0.45593999997E+02  0.45594000000E+02  0.51100000000E-03 0.  1.
         11   -1    0    0    0    0 -0.00000000000E+00 -0.00000000000E+00 -0.45593999997E+02  0.45594000000E+02  0.51100000000E-03 0. -1.
    9900012    2    1    2    0    0 -0.42643754670E+02 -0.14500228460E+02 -0.60588466645E+00  0.46142317255E+02  0.99999953837E+01 0.  0.
        -12    1    1    2    0    0  0.42643754670E+02  0.14500228460E+02  0.60588466645E+00  0.45045682745E+02  0.00000000000E+00 0.  1.
         11    1    3    3    0    0 -0.13343262213E+02 -0.32593583046E+01  0.40532099103E+01  0.14321123346E+02  0.51100000000E-03 0. -1.
        -11    1    3    3    0    0 -0.20284848303E+02 -0.89633180166E+01 -0.34641001919E+01  0.22445848858E+02  0.51100000000E-03 0.  1.
         12    1    3    3    0    0 -0.90156441535E+01 -0.22775521390E+01 -0.11949943849E+01  0.93753450512E+01  0.00000000000E+00 0. -1.
</event>
<event>
 7    1  0.1476909E-008  0.4614232E+02  0.7816164E-02  0.1320468E+00
        -11   -1    0    0    0    0  0.00000000000E+00  0.00000000000E+00  0.45593999997E+02  0.45594000000E+02  0.51100000000E-03 0. -1.
         11   -1    0    0    0    0 -0.00000000000E+00 -0.00000000000E+00 -0.45593999997E+02  0.45594000000E+02  0.51100000000E-03 0.  1.
    9900012    2    1    2    0    0  0.30561135425E+02  0.15127638608E+02  0.29432721747E+02  0.46142316991E+02  0.99999929764E+01 0.  0.
        -12    1    1    2    0    0 -0.30561135425E+02 -0.15127638608E+02 -0.29432721747E+02  0.45045683009E+02  0.00000000000E+00 0.  1.
         11    1    3    3    0    0  0.12398713981E+02  0.34504894265E+01  0.83007800960E+01  0.15314598791E+02  0.51100000000E-03 0. -1.
        -11    1    3    3    0    0  0.97828128006E-01  0.16421489155E+01  0.76875410734E+00  0.18158211756E+01  0.51100000000E-03 0.  1.
         12    1    3    3    0    0  0.18064593317E+02  0.10035000266E+02  0.20363187543E+02  0.29011897025E+02  0.00000000000E+00 0. -1.
</event>
<event>
 7    1  0.1476909E-008  0.4614232E+02  0.7816164E-02  0.1320468E+00
        -11   -1    0    0    0    0  0.00000000000E+00  0.00000000000E+00  0.45593999997E+02  0.45594000000E+02  0.51100000000E-03 0.  1.
         11   -1    0    0    0    0 -0.00000000000E+00 -0.00000000000E+00 -0.45593999997E+02  0.45594000000E+02  0.51100000000E-03 0. -1.
    9900012    2    1    2    0    0 -0.44500441158E+02  0.52187101679E+01 -0.46464287502E+01  0.46142317641E+02  0.99999989052E+01 0.  0.
        -12    1    1    2    0    0  0.44500441158E+02 -0.52187101679E+01  0.46464287502E+01  0.45045682359E+02  0.00000000000E+00 0.  1.
         11    1    3    3    0    0 -0.22542544562E+02 -0.11011800275E+01  0.56756059487E-01  0.22569495658E+02  0.51100000000E-03 0. -1.
        -11    1    3    3    0    0 -0.10465862129E+02  0.26539181521E+01 -0.39132690631E+01  0.11484390567E+02  0.51100000000E-03 0.  1.
         12    1    3    3    0    0 -0.11492034467E+02  0.36659720433E+01 -0.78991574657E+00  0.12088431416E+02  0.00000000000E+00 0. -1.
</event>
<event>
 7    1  0.1476909E-008  0.4614232E+02  0.7816164E-02  0.1320468E+00
        -11   -1    0    0    0    0  0.00000000000E+00  0.00000000000E+00  0.45593999997E+02  0.45594000000E+02  0.51100000000E-03 0.  1.
         11   -1    0    0    0    0 -0.00000000000E+00 -0.00000000000E+00 -0.45593999997E+02  0.45594000000E+02  0.51100000000E-03 0. -1.
    9900012    2    1    2    0    0  0.12263771075E+02  0.72200465885E+01 -0.42738556603E+02  0.46142319028E+02  0.10000011550E+02 0.  0.
        -12    1    1    2    0    0 -0.12263771075E+02 -0.72200465885E+01  0.42738556603E+02  0.45045680972E+02  0.00000000000E+00 0.  1.
         11    1    3    3    0    0  0.59007352390E+01  0.68859735733E+01 -0.27656181510E+02  0.29104976969E+02  0.51100000000E-03 0. -1.
        -11    1    3    3    0    0  0.45255357965E+01 -0.10458966615E+01 -0.55759074433E+01  0.72570736630E+01  0.51100000000E-03 0.  1.
        -12    1    3    3    0    0  0.18375000390E+01  0.13799696766E+01 -0.95064676505E+01  0.97802683957E+01  0.00000000000E+00 0.  1.
</event>
<event>
 7    1  0.1476909E-008  0.4614232E+02  0.7816164E-02  0.1320468E+00
        -11   -1    0    0    0    0  0.00000000000E+00  0.00000000000E+00  0.45593999997E+02  0.45594000000E+02  0.51100000000E-03 0. -1.
         11   -1    0    0    0    0 -0.00000000000E+00 -0.00000000000E+00 -0.45593999997E+02  0.45594000000E+02  0.51100000000E-03 0.  1.
    9900012    2    1    2    0    0  0.14639392542E+02 -0.37020765377E+02  0.21077586790E+02  0.46142317100E+02  0.99999939675E+01 0.  0.
        -12    1    1    2    0    0 -0.14639392542E+02  0.37020765377E+02 -0.21077586790E+02  0.45045682900E+02  0.00000000000E+00 0.  1.
         11    1    3    3    0    0  0.82109829895E+01 -0.19238458271E+02  0.92261224447E+01  0.22861755268E+02  0.51100000000E-03 0. -1.
        -11    1    3    3    0    0  0.16078655636E+01 -0.60661576745E+00  0.27773695159E+01  0.32660367495E+01  0.51100000000E-03 0.  1.
         12    1    3    3    0    0  0.48205439887E+01 -0.17175691339E+02  0.90740948291E+01  0.20014525083E+02  0.00000000000E+00 0. -1.
</event>
<event>
 7    1  0.1476909E-008  0.4614232E+02  0.7816164E-02  0.1320468E+00
        -11   -1    0    0    0    0  0.00000000000E+00  0.00000000000E+00  0.45593999997E+02  0.45594000000E+02  0.51100000000E-03 0. -1.
         11   -1    0    0    0    0 -0.00000000000E+00 -0.00000000000E+00 -0.45593999997E+02  0.45594000000E+02  0.51100000000E-03 0.  1.
    9900012    2    1    2    0    0  0.19114278702E+02 -0.79253499583E+01  0.40011828249E+02  0.46142320717E+02  0.10000026953E+02 0.  0.
        -12    1    1    2    0    0 -0.19114278702E+02  0.79253499583E+01 -0.40011828249E+02  0.45045679283E+02  0.00000000000E+00 0.  1.
         11    1    3    3    0    0  0.10340989342E+02 -0.37723565410E+01  0.29757081479E+02  0.31727758081E+02  0.51100000000E-03 0. -1.
        -11    1    3    3    0    0  0.31433060297E+01 -0.29098784003E+01  0.52836694234E+01  0.68018326897E+01  0.51100000000E-03 0.  1.
         12    1    3    3    0    0  0.56299833307E+01 -0.12431150169E+01  0.49710773467E+01  0.76127299463E+01  0.00000000000E+00 0. -1.
</event>
<event>
 7    1  0.1476909E-008  0.4614232E+02  0.7816164E-02  0.1320468E+00
        -11   -1    0    0    0    0  0.00000000000E+00  0.00000000000E+00  0.45593999997E+02  0.45594000000E+02  0.51100000000E-03 0.  1.
         11   -1    0    0    0    0 -0.00000000000E+00 -0.00000000000E+00 -0.45593999997E+02  0.45594000000E+02  0.51100000000E-03 0. -1.
    9900012    2    1    2    0    0 -0.33761687526E+02  0.77906496000E+01 -0.28784849917E+02  0.46142319291E+02  0.10000013949E+02 0.  0.
        -12    1    1    2    0    0  0.33761687526E+02 -0.77906496000E+01  0.28784849917E+02  0.45045680709E+02  0.00000000000E+00 0.  1.
         11    1    3    3    0    0 -0.11794042718E+02  0.14324963468E+00 -0.77717384502E+01  0.14125150721E+02  0.51100000000E-03 0. -1.
        -11    1    3    3    0    0 -0.17166172214E+02  0.56924393395E+01 -0.12277445901E+02  0.21859025875E+02  0.51100000000E-03 0.  1.
        -12    1    3    3    0    0 -0.48014725947E+01  0.19549606259E+01 -0.87356655656E+01  0.10158142694E+02  0.00000000000E+00 0.  1.
</event>
<event>
 7    1  0.1476909E-008  0.4614232E+02  0.7816164E-02  0.1320468E+00
        -11   -1    0    0    0    0  0.00000000000E+00  0.00000000000E+00  0.45593999997E+02  0.45594000000E+02  0.51100000000E-03 0.  1.
         11   -1    0    0    0    0 -0.00000000000E+00 -0.00000000000E+00 -0.45593999997E+02  0.45594000000E+02  0.51100000000E-03 0. -1.
    9900012    2    1    2    0    0 -0.39966271576E+02  0.20577018315E+02 -0.28977537477E+01  0.46142317375E+02  0.99999964749E+01 0.  0.
        -12    1    1    2    0    0  0.39966271576E+02 -0.20577018315E+02  0.28977537477E+01  0.45045682625E+02  0.00000000000E+00 0.  1.
         11    1    3    3    0    0 -0.13918263854E+02  0.44119835187E+01 -0.90166516765E+00  0.14628624939E+02  0.51100000000E-03 0. -1.
        -11    1    3    3    0    0 -0.62320563591E+01  0.73901503564E+01  0.60642979499E+00  0.96861037631E+01  0.51100000000E-03 0.  1.
        -12    1    3    3    0    0 -0.19815951363E+02  0.87748844398E+01 -0.26025183750E+01  0.21827588672E+02  0.00000000000E+00 0.  1.
</event>
<event>
 7    1  0.1476909E-008  0.4614233E+02  0.7816164E-02  0.1320468E+00
        -11   -1    0    0    0    0  0.00000000000E+00  0.00000000000E+00  0.45593999997E+02  0.45594000000E+02  0.51100000000E-03 0.  1.
         11   -1    0    0    0    0 -0.00000000000E+00 -0.00000000000E+00 -0.45593999997E+02  0.45594000000E+02  0.51100000000E-03 0. -1.
    9900012    2    1    2    0    0  0.37528574832E+02 -0.21016973889E+02 -0.13379285784E+02  0.46142329748E+02  0.10000109309E+02 0.  0.
        -12    1    1    2    0    0 -0.37528574832E+02  0.21016973889E+02  0.13379285784E+02  0.45045670252E+02  0.00000000000E+00 0.  1.
         11    1    3    3    0    0  0.22896684606E+02 -0.12779300812E+02 -0.10100340125E+02  0.28099565230E+02  0.51100000000E-03 0. -1.
        -11    1    3    3    0    0  0.13525288330E+02 -0.53324886761E+01 -0.19769561970E+01  0.14672328239E+02  0.51100000000E-03 0.  1.
        -12    1    3    3    0    0  0.11066018955E+01 -0.29051844002E+01 -0.13019894621E+01  0.33704362795E+01  0.00000000000E+00 0.  1.
</event>
<event>
 7    1  0.1476909E-008  0.4614232E+02  0.7816164E-02  0.1320468E+00
        -11   -1    0    0    0    0  0.00000000000E+00  0.00000000000E+00  0.45593999997E+02  0.45594000000E+02  0.51100000000E-03 0. -1.
         11   -1    0    0    0    0 -0.00000000000E+00 -0.00000000000E+00 -0.45593999997E+02  0.45594000000E+02  0.51100000000E-03 0.  1.
    9900012    2    1    2    0    0  0.39377178525E+02  0.99640591839E+01 -0.19474823319E+02  0.46142318660E+02  0.10000008201E+02 0.  0.
        -12    1    1    2    0    0 -0.39377178525E+02 -0.99640591839E+01  0.19474823319E+02  0.45045681340E+02  0.00000000000E+00 0.  1.
         11    1    3    3    0    0  0.11942983795E+02 -0.42710655451E+00 -0.59497400917E+01  0.13349782371E+02  0.51100000000E-03 0. -1.
        -11    1    3    3    0    0  0.15255882298E+02  0.79624908752E+01 -0.57632672163E+01  0.18148235586E+02  0.51100000000E-03 0.  1.
         12    1    3    3    0    0  0.12178312433E+02  0.24286748632E+01 -0.77618160112E+01  0.14644300703E+02  0.00000000000E+00 0. -1.
</event>
<event>
 7    1  0.1476909E-008  0.4614231E+02  0.7816164E-02  0.1320468E+00
        -11   -1    0    0    0    0  0.00000000000E+00  0.00000000000E+00  0.45593999997E+02  0.45594000000E+02  0.51100000000E-03 0.  1.
         11   -1    0    0    0    0 -0.00000000000E+00 -0.00000000000E+00 -0.45593999997E+02  0.45594000000E+02  0.51100000000E-03 0. -1.
    9900012    2    1    2    0    0  0.18205457405E+02 -0.32253063168E+02 -0.25640110062E+02  0.46142312005E+02  0.99999475074E+01 0.  0.
        -12    1    1    2    0    0 -0.18205457405E+02  0.32253063168E+02  0.25640110062E+02  0.45045687995E+02  0.00000000000E+00 0.  1.
         11    1    3    3    0    0  0.97886027725E+01 -0.21750807645E+02 -0.12008257988E+02  0.26704168918E+02  0.51100000000E-03 0. -1.
        -11    1    3    3    0    0  0.51045692322E+01 -0.38879035125E+01 -0.55720042661E+01  0.84982146696E+01  0.51100000000E-03 0.  1.
         12    1    3    3    0    0  0.33122853999E+01 -0.66143520103E+01 -0.80598478072E+01  0.10939928417E+02  0.00000000000E+00 0. -1.
</event>
<event>
 7    1  0.1476909E-008  0.4614232E+02  0.7816164E-02  0.1320468E+00
        -11   -1    0    0    0    0  0.00000000000E+00  0.00000000000E+00  0.45593999997E+02  0.45594000000E+02  0.51100000000E-03 0. -1.
         11   -1    0    0    0    0 -0.00000000000E+00 -0.00000000000E+00 -0.45593999997E+02  0.45594000000E+02  0.51100000000E-03 0.  1.
    9900012    2    1    2    0    0 -0.19795526141E+02  0.12522185657E+02  0.38476558215E+02  0.46142317399E+02  0.99999967018E+01 0.  0.
        -12    1    1    2    0    0  0.19795526141E+02 -0.12522185657E+02 -0.38476558215E+02  0.45045682601E+02  0.00000000000E+00 0.  1.
         11    1    3    3    0    0 -0.68451325457E+01  0.38028858956E+01  0.19182494411E+02  0.20719215063E+02  0.51100000000E-03 0. -1.
        -11    1    3    3    0    0 -0.12744535392E+02  0.65613496091E+01  0.17403496755E+02  0.22546755656E+02  0.51100000000E-03 0.  1.
        -12    1    3    3    0    0 -0.20585820358E+00  0.21579501527E+01  0.18905670491E+01  0.28763466809E+01  0.00000000000E+00 0.  1.
</event>
<event>
 7    1  0.1476909E-008  0.4614232E+02  0.7816164E-02  0.1320468E+00
        -11   -1    0    0    0    0  0.00000000000E+00  0.00000000000E+00  0.45593999997E+02  0.45594000000E+02  0.51100000000E-03 0.  1.
         11   -1    0    0    0    0 -0.00000000000E+00 -0.00000000000E+00 -0.45593999997E+02  0.45594000000E+02  0.51100000000E-03 0. -1.
    9900012    2    1    2    0    0  0.35531965144E+01 -0.40197092059E+02 -0.20017042229E+02  0.46142318796E+02  0.10000009441E+02 0.  0.
        -12    1    1    2    0    0 -0.35531965144E+01  0.40197092059E+02  0.20017042229E+02  0.45045681204E+02  0.00000000000E+00 0.  1.
         11    1    3    3    0    0 -0.13221342885E+01 -0.40159851540E+01 -0.49590533613E-01  0.42283135309E+01  0.51100000000E-03 0.  1.
        -11    1    3    3    0    0  0.56333371560E+01 -0.24484677231E+02 -0.13991026048E+02  0.28757307189E+02  0.51100000000E-03 0. -1.
         12    1    3    3    0    0 -0.75800635316E+00 -0.11696429674E+02 -0.59764256472E+01  0.13156698076E+02  0.00000000000E+00 0. -1.
</event>
<event>
 7    1  0.1476909E-008  0.4614232E+02  0.7816164E-02  0.1320468E+00
        -11   -1    0    0    0    0  0.00000000000E+00  0.00000000000E+00  0.45593999997E+02  0.45594000000E+02  0.51100000000E-03 0.  1.
         11   -1    0    0    0    0 -0.00000000000E+00 -0.00000000000E+00 -0.45593999997E+02  0.45594000000E+02  0.51100000000E-03 0. -1.
    9900012    2    1    2    0    0  0.30938789588E+01  0.15675889131E+02 -0.42116600299E+02  0.46142316435E+02  0.99999879097E+01 0.  0.
        -12    1    1    2    0    0 -0.30938789588E+01 -0.15675889131E+02  0.42116600299E+02  0.45045683565E+02  0.00000000000E+00 0.  1.
         11    1    3    3    0    0  0.79986900267E+00  0.73168516846E+01 -0.24203925280E+02  0.25298342006E+02  0.51100000000E-03 0. -1.
        -11    1    3    3    0    0  0.15631790339E+01 -0.59529041664E+00 -0.26713342299E+01  0.31518131609E+01  0.51100000000E-03 0.  1.
         12    1    3    3    0    0  0.73083092228E+00  0.89543278633E+01 -0.15241340789E+02  0.17692161269E+02  0.00000000000E+00 0. -1.
</event>
<event>
 7    1  0.1476909E-008  0.4614232E+02  0.7816164E-02  0.1320468E+00
        -11   -1    0    0    0    0  0.00000000000E+00  0.00000000000E+00  0.45593999997E+02  0.45594000000E+02  0.51100000000E-03 0. -1.
         11   -1    0    0    0    0 -0.00000000000E+00 -0.00000000000E+00 -0.45593999997E+02  0.45594000000E+02  0.51100000000E-03 0.  1.
    9900012    2    1    2    0    0  0.39658110305E+02 -0.15364709668E-01  0.21362293065E+02  0.46142317476E+02  0.99999973974E+01 0.  0.
        -12    1    1    2    0    0 -0.39658110305E+02  0.15364709668E-01 -0.21362293065E+02  0.45045682524E+02  0.00000000000E+00 0.  1.
         11    1    3    3    0    0  0.75533869564E+01  0.22187129321E+01  0.46963245316E+01  0.91668863828E+01  0.51100000000E-03 0.  1.
        -11    1    3    3    0    0 -0.30819810147E+00 -0.44634148952E+00  0.22446481060E+00  0.58701917119E+00  0.51100000000E-03 0. -1.
         12    1    3    3    0    0  0.32412921451E+02 -0.17877361522E+01  0.16441503723E+02  0.36388411922E+02  0.00000000000E+00 0. -1.
</event>
<event>
 7    1  0.1476909E-008  0.4614232E+02  0.7816164E-02  0.1320468E+00
        -11   -1    0    0    0    0  0.00000000000E+00  0.00000000000E+00  0.45593999997E+02  0.45594000000E+02  0.51100000000E-03 0.  1.
         11   -1    0    0    0    0 -0.00000000000E+00 -0.00000000000E+00 -0.45593999997E+02  0.45594000000E+02  0.51100000000E-03 0. -1.
    9900012    2    1    2    0    0 -0.33445516711E+02  0.24112469214E+02 -0.18141106677E+02  0.46142317509E+02  0.99999976976E+01 0.  0.
        -12    1    1    2    0    0  0.33445516711E+02 -0.24112469214E+02  0.18141106677E+02  0.45045682491E+02  0.00000000000E+00 0.  1.
         11    1    3    3    0    0 -0.15251687916E+02  0.86765184192E+01 -0.70597762105E+01  0.18913920708E+02  0.51100000000E-03 0. -1.
        -11    1    3    3    0    0 -0.10524932329E+02  0.46904343320E+01 -0.66447636265E+01  0.13301400628E+02  0.51100000000E-03 0.  1.
        -12    1    3    3    0    0 -0.76688964660E+01  0.10745516463E+02 -0.44365668404E+01  0.13926996172E+02  0.00000000000E+00 0.  1.
</event>
<event>
 7    1  0.1476909E-008  0.4614232E+02  0.7816164E-02  0.1320468E+00
        -11   -1    0    0    0    0  0.00000000000E+00  0.00000000000E+00  0.45593999997E+02  0.45594000000E+02  0.51100000000E-03 0.  1.
         11   -1    0    0    0    0 -0.00000000000E+00 -0.00000000000E+00 -0.45593999997E+02  0.45594000000E+02  0.51100000000E-03 0. -1.
    9900012    2    1    2    0    0  0.15175925133E+02  0.39005569785E+02 -0.16654431795E+02  0.46142320115E+02  0.10000021465E+02 0.  0.
        -12    1    1    2    0    0 -0.15175925133E+02 -0.39005569785E+02  0.16654431795E+02  0.45045679885E+02  0.00000000000E+00 0.  1.
         11    1    3    3    0    0  0.64229925507E+01  0.15047305346E+02 -0.68819178267E+01  0.17749282372E+02  0.51100000000E-03 0. -1.
        -11    1    3    3    0    0  0.66741426841E+01  0.15907537008E+02 -0.10246931969E+02  0.20064733472E+02  0.51100000000E-03 0.  1.
        -12    1    3    3    0    0  0.20787898981E+01  0.80507274306E+01  0.47441800123E+00  0.83283042717E+01  0.00000000000E+00 0.  1.
</event>
<event>
 7    1  0.1476909E-008  0.4614232E+02  0.7816164E-02  0.1320468E+00
        -11   -1    0    0    0    0  0.00000000000E+00  0.00000000000E+00  0.45593999997E+02  0.45594000000E+02  0.51100000000E-03 0. -1.
         11   -1    0    0    0    0 -0.00000000000E+00 -0.00000000000E+00 -0.45593999997E+02  0.45594000000E+02  0.51100000000E-03 0.  1.
    9900012    2    1    2    0    0 -0.32784365723E+02  0.16936077933E+02  0.25835403525E+02  0.46142318221E+02  0.10000004197E+02 0.  0.
        -12    1    1    2    0    0  0.32784365723E+02 -0.16936077933E+02 -0.25835403525E+02  0.45045681779E+02  0.00000000000E+00 0.  1.
         11    1    3    3    0    0 -0.16946300326E+02  0.70890150174E+01  0.97443819535E+01  0.20793850259E+02  0.51100000000E-03 0. -1.
        -11    1    3    3    0    0 -0.23820300860E+01  0.40475757946E+01  0.56989520017E+01  0.73847810613E+01  0.51100000000E-03 0.  1.
        -12    1    3    3    0    0 -0.13456035310E+02  0.57994871207E+01  0.10392069570E+02  0.17963686901E+02  0.00000000000E+00 0.  1.
</event>
<event>
 7    1  0.1476909E-008  0.4614232E+02  0.7816164E-02  0.1320468E+00
        -11   -1    0    0    0    0  0.00000000000E+00  0.00000000000E+00  0.45593999997E+02  0.45594000000E+02  0.51100000000E-03 0.  1.
         11   -1    0    0    0    0 -0.00000000000E+00 -0.00000000000E+00 -0.45593999997E+02  0.45594000000E+02  0.51100000000E-03 0. -1.
    9900012    2    1    2    0    0  0.38671713862E+02  0.10981961851E+02 -0.20322613759E+02  0.46142316865E+02  0.99999918273E+01 0.  0.
        -12    1    1    2    0    0 -0.38671713862E+02 -0.10981961851E+02  0.20322613759E+02  0.45045683135E+02  0.00000000000E+00 0.  1.
         11    1    3    3    0    0  0.18490048284E+02  0.36075008307E+01 -0.14312252372E+02  0.23658751362E+02  0.51100000000E-03 0. -1.
        -11    1    3    3    0    0  0.13426995992E+02  0.50431596841E+01 -0.26435092644E+01  0.14584437681E+02  0.51100000000E-03 0.  1.
        -12    1    3    3    0    0  0.67546695853E+01  0.23313013361E+01 -0.33668521223E+01  0.78991278214E+01  0.00000000000E+00 0.  1.
</event>
<event>
 7    1  0.1476909E-008  0.4614232E+02  0.7816164E-02  0.1320468E+00
        -11   -1    0    0    0    0  0.00000000000E+00  0.00000000000E+00  0.45593999997E+02  0.45594000000E+02  0.51100000000E-03 0. -1.
         11   -1    0    0    0    0 -0.00000000000E+00 -0.00000000000E+00 -0.45593999997E+02  0.45594000000E+02  0.51100000000E-03 0.  1.
    9900012    2    1    2    0    0 -0.23420508304E+01 -0.80497520109E+00  0.44977553456E+02  0.46142317609E+02  0.99999986118E+01 0.  0.
        -12    1    1    2    0    0  0.23420508304E+01  0.80497520109E+00 -0.44977553456E+02  0.45045682391E+02  0.00000000000E+00 0.  1.
         11    1    3    3    0    0  0.53999897020E+00 -0.25102053767E+01  0.37659082529E+02  0.37746512781E+02  0.51100000000E-03 0. -1.
        -11    1    3    3    0    0 -0.18013167169E+01  0.18161886735E+01  0.66381628636E+01  0.71139644135E+01  0.51100000000E-03 0.  1.
         12    1    3    3    0    0 -0.10807330837E+01 -0.11095849793E+00  0.68030806344E+00  0.12818404143E+01  0.00000000000E+00 0. -1.
</event>
<event>
 7    1  0.1476909E-008  0.4614232E+02  0.7816164E-02  0.1320468E+00
        -11   -1    0    0    0    0  0.00000000000E+00  0.00000000000E+00  0.45593999997E+02  0.45594000000E+02  0.51100000000E-03 0.  1.
         11   -1    0    0    0    0 -0.00000000000E+00 -0.00000000000E+00 -0.45593999997E+02  0.45594000000E+02  0.51100000000E-03 0. -1.
    9900012    2    1    2    0    0 -0.14507612359E+02  0.23059888741E+02 -0.35873167959E+02  0.46142318026E+02  0.10000002413E+02 0.  0.
        -12    1    1    2    0    0  0.14507612359E+02 -0.23059888741E+02  0.35873167959E+02  0.45045681974E+02  0.00000000000E+00 0.  1.
         11    1    3    3    0    0 -0.15816356805E+02  0.22328450972E+02 -0.34889524679E+02  0.44339551170E+02  0.51100000000E-03 0. -1.
        -11    1    3    3    0    0  0.10457937214E+01  0.63999617548E+00 -0.86302455297E+00  0.14993636158E+01  0.51100000000E-03 0.  1.
         12    1    3    3    0    0  0.26295072450E+00  0.91441593772E-01 -0.12061872705E+00  0.30340323977E+00  0.00000000000E+00 0. -1.
</event>
<event>
 7    1  0.1476909E-008  0.4614232E+02  0.7816164E-02  0.1320468E+00
        -11   -1    0    0    0    0  0.00000000000E+00  0.00000000000E+00  0.45593999997E+02  0.45594000000E+02  0.51100000000E-03 0. -1.
         11   -1    0    0    0    0 -0.00000000000E+00 -0.00000000000E+00 -0.45593999997E+02  0.45594000000E+02  0.51100000000E-03 0.  1.
    9900012    2    1    2    0    0 -0.33643244332E+02 -0.93513348370E+01  0.28456954536E+02  0.46142316368E+02  0.99999872998E+01 0.  0.
        -12    1    1    2    0    0  0.33643244332E+02  0.93513348370E+01 -0.28456954536E+02  0.45045683632E+02  0.00000000000E+00 0.  1.
         11    1    3    3    0    0 -0.21428228237E+02 -0.40246589863E+01  0.16979000837E+02  0.27634277899E+02  0.51100000000E-03 0. -1.
        -11    1    3    3    0    0 -0.79895697967E+00  0.30254662132E+00 -0.53324450173E+00  0.10070832504E+01  0.51100000000E-03 0.  1.
         12    1    3    3    0    0 -0.11416059115E+02 -0.56292224719E+01  0.12011198201E+02  0.17500955219E+02  0.00000000000E+00 0. -1.
</event>
<event>
 7    1  0.1476909E-008  0.4614232E+02  0.7816164E-02  0.1320468E+00
        -11   -1    0    0    0    0  0.00000000000E+00  0.00000000000E+00  0.45593999997E+02  0.45594000000E+02  0.51100000000E-03 0. -1.
         11   -1    0    0    0    0 -0.00000000000E+00 -0.00000000000E+00 -0.45593999997E+02  0.45594000000E+02  0.51100000000E-03 0.  1.
    9900012    2    1    2    0    0 -0.33497742334E+01 -0.20197211668E+02  0.40124371201E+02  0.46142317512E+02  0.99999977242E+01 0.  0.
        -12    1    1    2    0    0  0.33497742334E+01  0.20197211668E+02 -0.40124371201E+02  0.45045682488E+02  0.00000000000E+00 0.  1.
         11    1    3    3    0    0  0.16962364177E+01 -0.44023582697E+01  0.67348117861E+01  0.82228745810E+01  0.51100000000E-03 0. -1.
        -11    1    3    3    0    0 -0.53823631013E+01 -0.57251222472E+01  0.15886815659E+02  0.17723932108E+02  0.51100000000E-03 0.  1.
        -12    1    3    3    0    0  0.33635245026E+00 -0.10069731151E+02  0.17502743755E+02  0.20195510823E+02  0.00000000000E+00 0.  1.
</event>
<event>
 7    1  0.1476909E-008  0.4614232E+02  0.7816164E-02  0.1320468E+00
        -11   -1    0    0    0    0  0.00000000000E+00  0.00000000000E+00  0.45593999997E+02  0.45594000000E+02  0.51100000000E-03 0.  1.
         11   -1    0    0    0    0 -0.00000000000E+00 -0.00000000000E+00 -0.45593999997E+02  0.45594000000E+02  0.51100000000E-03 0. -1.
    9900012    2    1    2    0    0  0.10272338851E+01  0.44649750024E+02 -0.58701200282E+01  0.46142315459E+02  0.99999790036E+01 0.  0.
        -12    1    1    2    0    0 -0.10272338851E+01 -0.44649750024E+02  0.58701200282E+01  0.45045684541E+02  0.00000000000E+00 0.  1.
         11    1    3    3    0    0 -0.26073974067E+01  0.22899512047E+02 -0.23761619964E+01  0.23169642193E+02  0.51100000000E-03 0. -1.
        -11    1    3    3    0    0  0.17951846039E+01  0.17738013190E+02 -0.89613402075E+00  0.17851130388E+02  0.51100000000E-03 0.  1.
        -12    1    3    3    0    0  0.18394466879E+01  0.40122247868E+01 -0.25978240111E+01  0.51215428779E+01  0.00000000000E+00 0.  1.
</event>
<event>
 7    1  0.1476909E-008  0.4614232E+02  0.7816164E-02  0.1320468E+00
        -11   -1    0    0    0    0  0.00000000000E+00  0.00000000000E+00  0.45593999997E+02  0.45594000000E+02  0.51100000000E-03 0. -1.
         11   -1    0    0    0    0 -0.00000000000E+00 -0.00000000000E+00 -0.45593999997E+02  0.45594000000E+02  0.51100000000E-03 0.  1.
    9900012    2    1    2    0    0  0.32998200209E+02  0.16689463582E+00 -0.30662753333E+02  0.46142317490E+02  0.99999975274E+01 0.  0.
        -12    1    1    2    0    0 -0.32998200209E+02 -0.16689463582E+00  0.30662753333E+02  0.45045682510E+02  0.00000000000E+00 0.  1.
         11    1    3    3    0    0  0.11965693692E+02  0.17157734142E+01 -0.10839350908E+02  0.16236170494E+02  0.51100000000E-03 0. -1.
        -11    1    3    3    0    0  0.18969583674E+02 -0.24674598761E+01 -0.19956436064E+02  0.27644037398E+02  0.51100000000E-03 0.  1.
        -12    1    3    3    0    0  0.20629228420E+01  0.91858109773E+00  0.13303363854E+00  0.22621095981E+01  0.00000000000E+00 0.  1.
</event>
<event>
 7    1  0.1476909E-008  0.4614232E+02  0.7816164E-02  0.1320468E+00
        -11   -1    0    0    0    0  0.00000000000E+00  0.00000000000E+00  0.45593999997E+02  0.45594000000E+02  0.51100000000E-03 0. -1.
         11   -1    0    0    0    0 -0.00000000000E+00 -0.00000000000E+00 -0.45593999997E+02  0.45594000000E+02  0.51100000000E-03 0.  1.
    9900012    2    1    2    0    0 -0.42127165931E+02 -0.15394561491E+02  0.41740415691E+01  0.46142320341E+02  0.10000023527E+02 0.  0.
        -12    1    1    2    0    0  0.42127165931E+02  0.15394561491E+02 -0.41740415691E+01  0.45045679659E+02  0.00000000000E+00 0.  1.
         11    1    3    3    0    0 -0.16515054739E+02 -0.31297374144E+01  0.35636765244E+01  0.17182609812E+02  0.51100000000E-03 0. -1.
        -11    1    3    3    0    0 -0.19691125711E+02 -0.77981752062E+01 -0.15471194279E+01  0.21235478499E+02  0.51100000000E-03 0.  1.
        -12    1    3    3    0    0 -0.59209854811E+01 -0.44666488704E+01  0.21574844725E+01  0.77242320297E+01  0.00000000000E+00 0.  1.
</event>
<event>
 7    1  0.1476909E-008  0.4614232E+02  0.7816164E-02  0.1320468E+00
        -11   -1    0    0    0    0  0.00000000000E+00  0.00000000000E+00  0.45593999997E+02  0.45594000000E+02  0.51100000000E-03 0.  1.
         11   -1    0    0    0    0 -0.00000000000E+00 -0.00000000000E+00 -0.45593999997E+02  0.45594000000E+02  0.51100000000E-03 0. -1.
    9900012    2    1    2    0    0 -0.26856588889E+02  0.30517015215E+02  0.19404869667E+02  0.46142317064E+02  0.99999936396E+01 0.  0.
        -12    1    1    2    0    0  0.26856588889E+02 -0.30517015215E+02 -0.19404869667E+02  0.45045682936E+02  0.00000000000E+00 0.  1.
         11    1    3    3    0    0 -0.14751245596E+02  0.19409452660E+02  0.14517543176E+02  0.28374022614E+02  0.51100000000E-03 0. -1.
        -11    1    3    3    0    0 -0.13107495969E+00 -0.15754212827E+00 -0.44078109064E+00  0.48609505061E+00  0.51100000000E-03 0.  1.
        -12    1    3    3    0    0 -0.11974268333E+02  0.11265104684E+02  0.53281075820E+01  0.17282199399E+02  0.00000000000E+00 0.  1.
</event>
<event>
 7    1  0.1476909E-008  0.4614232E+02  0.7816164E-02  0.1320468E+00
        -11   -1    0    0    0    0  0.00000000000E+00  0.00000000000E+00  0.45593999997E+02  0.45594000000E+02  0.51100000000E-03 0. -1.
         11   -1    0    0    0    0 -0.00000000000E+00 -0.00000000000E+00 -0.45593999997E+02  0.45594000000E+02  0.51100000000E-03 0.  1.
    9900012    2    1    2    0    0  0.44341335182E+02  0.74848803600E+01  0.26336846605E+01  0.46142315028E+02  0.99999750783E+01 0.  0.
        -12    1    1    2    0    0 -0.44341335182E+02 -0.74848803600E+01 -0.26336846605E+01  0.45045684972E+02  0.00000000000E+00 0.  1.
         11    1    3    3    0    0  0.82950272888E+01  0.19525200743E+01 -0.15134312264E+01  0.86550728882E+01  0.51100000000E-03 0. -1.
        -11    1    3    3    0    0  0.30894520469E+02  0.42669461620E+01  0.62015786180E+01  0.31798393076E+02  0.51100000000E-03 0.  1.
        -12    1    3    3    0    0  0.51517874235E+01  0.12654141237E+01 -0.20544627311E+01  0.56888490641E+01  0.00000000000E+00 0.  1.
</event>
<event>
 7    1  0.1476909E-008  0.4614233E+02  0.7816164E-02  0.1320468E+00
        -11   -1    0    0    0    0  0.00000000000E+00  0.00000000000E+00  0.45593999997E+02  0.45594000000E+02  0.51100000000E-03 0.  1.
         11   -1    0    0    0    0 -0.00000000000E+00 -0.00000000000E+00 -0.45593999997E+02  0.45594000000E+02  0.51100000000E-03 0. -1.
    9900012    2    1    2    0    0  0.18420353276E+01 -0.25485511277E+02 -0.37097281855E+02  0.46142326509E+02  0.10000079772E+02 0.  0.
        -12    1    1    2    0    0 -0.18420353276E+01  0.25485511277E+02  0.37097281855E+02  0.45045673491E+02  0.00000000000E+00 0.  1.
         11    1    3    3    0    0 -0.37000349180E+00 -0.14573037423E+02 -0.16497485427E+02  0.22015388890E+02  0.51100000000E-03 0. -1.
        -11    1    3    3    0    0 -0.99986895769E+00 -0.38539251214E+01 -0.11506570511E+02  0.12175945219E+02  0.51100000000E-03 0.  1.
        -12    1    3    3    0    0  0.32119077771E+01 -0.70585487332E+01 -0.90932259168E+01  0.11950992401E+02  0.00000000000E+00 0.  1.
</event>
<event>
 7    1  0.1476909E-008  0.4614232E+02  0.7816164E-02  0.1320468E+00
        -11   -1    0    0    0    0  0.00000000000E+00  0.00000000000E+00  0.45593999997E+02  0.45594000000E+02  0.51100000000E-03 0.  1.
         11   -1    0    0    0    0 -0.00000000000E+00 -0.00000000000E+00 -0.45593999997E+02  0.45594000000E+02  0.51100000000E-03 0. -1.
    9900012    2    1    2    0    0  0.17168130348E+02  0.31476616074E+02 -0.27268872280E+02  0.46142318137E+02  0.10000003423E+02 0.  0.
        -12    1    1    2    0    0 -0.17168130348E+02 -0.31476616074E+02  0.27268872280E+02  0.45045681863E+02  0.00000000000E+00 0.  1.
         11    1    3    3    0    0  0.75304412432E+01  0.17639765019E+02 -0.11800620422E+02  0.22519402697E+02  0.51100000000E-03 0. -1.
        -11    1    3    3    0    0  0.99454682996E+01  0.13937682600E+02 -0.13993748606E+02  0.22113261547E+02  0.51100000000E-03 0.  1.
         12    1    3    3    0    0 -0.30777919482E+00 -0.10083154441E+00 -0.14745032522E+01  0.15096538921E+01  0.00000000000E+00 0. -1.
</event>
<event>
 7    1  0.1476909E-008  0.4614232E+02  0.7816164E-02  0.1320468E+00
        -11   -1    0    0    0    0  0.00000000000E+00  0.00000000000E+00  0.45593999997E+02  0.45594000000E+02  0.51100000000E-03 0.  1.
         11   -1    0    0    0    0 -0.00000000000E+00 -0.00000000000E+00 -0.45593999997E+02  0.45594000000E+02  0.51100000000E-03 0. -1.
    9900012    2    1    2    0    0 -0.33103980870E+01  0.40072985743E+02 -0.20305430990E+02  0.46142318192E+02  0.10000003933E+02 0.  0.
        -12    1    1    2    0    0  0.33103980870E+01 -0.40072985743E+02  0.20305430990E+02  0.45045681808E+02  0.00000000000E+00 0.  1.
         11    1    3    3    0    0 -0.48824015090E+01  0.32251712964E+02 -0.13386015063E+02  0.35258987977E+02  0.51100000000E-03 0. -1.
        -11    1    3    3    0    0  0.67861384717E+00  0.25872608167E+00 -0.10113229188E+01  0.12450824254E+01  0.51100000000E-03 0.  1.
         12    1    3    3    0    0  0.89338957485E+00  0.75625466969E+01 -0.59080930080E+01  0.96382477902E+01  0.00000000000E+00 0. -1.
</event>
<event>
 7    1  0.1476909E-008  0.4614232E+02  0.7816164E-02  0.1320468E+00
        -11   -1    0    0    0    0  0.00000000000E+00  0.00000000000E+00  0.45593999997E+02  0.45594000000E+02  0.51100000000E-03 0.  1.
         11   -1    0    0    0    0 -0.00000000000E+00 -0.00000000000E+00 -0.45593999997E+02  0.45594000000E+02  0.51100000000E-03 0. -1.
    9900012    2    1    2    0    0  0.10558447913E+02 -0.10634586309E+02 -0.42479857481E+02  0.46142317189E+02  0.99999947853E+01 0.  0.
        -12    1    1    2    0    0 -0.10558447913E+02  0.10634586309E+02  0.42479857481E+02  0.45045682811E+02  0.00000000000E+00 0.  1.
         11    1    3    3    0    0  0.62300038334E+01 -0.55070228383E+01 -0.10594983514E+02  0.13468256169E+02  0.51100000000E-03 0. -1.
        -11    1    3    3    0    0 -0.29503263648E+00 -0.50801212227E+00 -0.32609062505E+01  0.33134016370E+01  0.51100000000E-03 0.  1.
         12    1    3    3    0    0  0.46234767162E+01 -0.46195513486E+01 -0.28623967716E+02  0.29360659383E+02  0.00000000000E+00 0. -1.
</event>
<event>
 7    1  0.1476909E-008  0.4614232E+02  0.7816164E-02  0.1320468E+00
        -11   -1    0    0    0    0  0.00000000000E+00  0.00000000000E+00  0.45593999997E+02  0.45594000000E+02  0.51100000000E-03 0. -1.
         11   -1    0    0    0    0 -0.00000000000E+00 -0.00000000000E+00 -0.45593999997E+02  0.45594000000E+02  0.51100000000E-03 0.  1.
    9900012    2    1    2    0    0 -0.59656458236E+01 -0.31608555970E+02 -0.31534483010E+02  0.46142319193E+02  0.10000013060E+02 0.  0.
        -12    1    1    2    0    0  0.59656458236E+01  0.31608555970E+02  0.31534483010E+02  0.45045680807E+02  0.00000000000E+00 0.  1.
         11    1    3    3    0    0  0.15332599037E+01 -0.92015184601E+01 -0.87425280611E+01  0.12784780994E+02  0.51100000000E-03 0. -1.
        -11    1    3    3    0    0 -0.69197698037E+00 -0.42003911848E+01 -0.14656429851E+01  0.45022469798E+01  0.51100000000E-03 0.  1.
        -12    1    3    3    0    0 -0.68069287469E+01 -0.18206646326E+02 -0.21326311964E+02  0.28855291220E+02  0.00000000000E+00 0.  1.
</event>
<event>
 7    1  0.1476909E-008  0.4614232E+02  0.7816164E-02  0.1320468E+00
        -11   -1    0    0    0    0  0.00000000000E+00  0.00000000000E+00  0.45593999997E+02  0.45594000000E+02  0.51100000000E-03 0. -1.
         11   -1    0    0    0    0 -0.00000000000E+00 -0.00000000000E+00 -0.45593999997E+02  0.45594000000E+02  0.51100000000E-03 0.  1.
    9900012    2    1    2    0    0 -0.33300360111E+01  0.41240693909E+02  0.17810938226E+02  0.46142317694E+02  0.99999993921E+01 0.  0.
        -12    1    1    2    0    0  0.33300360111E+01 -0.41240693909E+02 -0.17810938226E+02  0.45045682306E+02  0.00000000000E+00 0.  1.
         11    1    3    3    0    0  0.22021540439E+01  0.26271281875E+02  0.91494759770E+01  0.27905960738E+02  0.51100000000E-03 0. -1.
        -11    1    3    3    0    0 -0.42426737064E+01  0.10564538157E+02  0.69472346181E+01  0.13336934271E+02  0.51100000000E-03 0.  1.
         12    1    3    3    0    0 -0.12895163486E+01  0.44048738765E+01  0.17142276305E+01  0.48994226854E+01  0.00000000000E+00 0. -1.
</event>
<event>
 7    1  0.1476909E-008  0.4614232E+02  0.7816164E-02  0.1320468E+00
        -11   -1    0    0    0    0  0.00000000000E+00  0.00000000000E+00  0.45593999997E+02  0.45594000000E+02  0.51100000000E-03 0. -1.
         11   -1    0    0    0    0 -0.00000000000E+00 -0.00000000000E+00 -0.45593999997E+02  0.45594000000E+02  0.51100000000E-03 0.  1.
    9900012    2    1    2    0    0  0.42235933976E+02  0.79639173786E+01 -0.13483888606E+02  0.46142319288E+02  0.10000013927E+02 0.  0.
        -12    1    1    2    0    0 -0.42235933976E+02 -0.79639173786E+01  0.13483888606E+02  0.45045680712E+02  0.00000000000E+00 0.  1.
         11    1    3    3    0    0  0.34659765165E+02  0.65304072427E+01 -0.11787378750E+02  0.37187199923E+02  0.51100000000E-03 0. -1.
        -11    1    3    3    0    0 -0.10320874357E+00  0.92006934958E+00 -0.76776179513E+00  0.12027626898E+01  0.51100000000E-03 0.  1.
        -12    1    3    3    0    0  0.76793775544E+01  0.51344078636E+00 -0.92874806062E+00  0.77523566755E+01  0.00000000000E+00 0.  1.
</event>
<event>
 7    1  0.1476909E-008  0.4614232E+02  0.7816164E-02  0.1320468E+00
        -11   -1    0    0    0    0  0.00000000000E+00  0.00000000000E+00  0.45593999997E+02  0.45594000000E+02  0.51100000000E-03 0.  1.
         11   -1    0    0    0    0 -0.00000000000E+00 -0.00000000000E+00 -0.45593999997E+02  0.45594000000E+02  0.51100000000E-03 0. -1.
    9900012    2    1    2    0    0  0.24911880136E+02  0.36989880348E+02 -0.63451112078E+01  0.46142318117E+02  0.10000003246E+02 0.  0.
        -12    1    1    2    0    0 -0.24911880136E+02 -0.36989880348E+02  0.63451112078E+01  0.45045681883E+02  0.00000000000E+00 0.  1.
         11    1    3    3    0    0  0.21809551213E+02  0.26607704188E+02 -0.37020970639E+01  0.34602485015E+02  0.51100000000E-03 0. -1.
        -11    1    3    3    0    0  0.66618663465E+00  0.69048809458E+01 -0.11066533497E+01  0.70246613730E+01  0.51100000000E-03 0.  1.
         12    1    3    3    0    0  0.24361422881E+01  0.34772952142E+01 -0.15363607942E+01  0.45151717292E+01  0.00000000000E+00 0. -1.
</event>
<event>
 7    1  0.1476909E-008  0.4614232E+02  0.7816164E-02  0.1320468E+00
        -11   -1    0    0    0    0  0.00000000000E+00  0.00000000000E+00  0.45593999997E+02  0.45594000000E+02  0.51100000000E-03 0.  1.
         11   -1    0    0    0    0 -0.00000000000E+00 -0.00000000000E+00 -0.45593999997E+02  0.45594000000E+02  0.51100000000E-03 0. -1.
    9900012    2    1    2    0    0  0.57277423547E+01  0.38857245067E+02 -0.22054953828E+02  0.46142317465E+02  0.99999972987E+01 0.  0.
        -12    1    1    2    0    0 -0.57277423547E+01 -0.38857245067E+02  0.22054953828E+02  0.45045682535E+02  0.00000000000E+00 0.  1.
         11    1    3    3    0    0  0.51214141762E+00  0.58242768965E+01 -0.48299066642E+01  0.75836988894E+01  0.51100000000E-03 0. -1.
        -11    1    3    3    0    0  0.28160401406E+01  0.34879612089E+01 -0.43313708823E+01  0.62335166198E+01  0.51100000000E-03 0.  1.
        -12    1    3    3    0    0  0.23995607964E+01  0.29545006962E+02 -0.12893676282E+02  0.32325101956E+02  0.00000000000E+00 0.  1.
</event>
<event>
 7    1  0.1476909E-008  0.4614232E+02  0.7816164E-02  0.1320468E+00
        -11   -1    0    0    0    0  0.00000000000E+00  0.00000000000E+00  0.45593999997E+02  0.45594000000E+02  0.51100000000E-03 0.  1.
         11   -1    0    0    0    0 -0.00000000000E+00 -0.00000000000E+00 -0.45593999997E+02  0.45594000000E+02  0.51100000000E-03 0. -1.
    9900012    2    1    2    0    0  0.12568739431E+02 -0.42159419341E+02  0.96810978199E+01  0.46142317576E+02  0.99999983157E+01 0.  0.
        -12    1    1    2    0    0 -0.12568739431E+02  0.42159419341E+02 -0.96810978199E+01  0.45045682424E+02  0.00000000000E+00 0.  1.
         11    1    3    3    0    0  0.66934752824E+01 -0.16615508706E+02  0.49316171717E+01  0.18579520691E+02  0.51100000000E-03 0. -1.
        -11    1    3    3    0    0  0.60478242697E+01 -0.23985977276E+02  0.25581977358E+01  0.24868607926E+02  0.51100000000E-03 0.  1.
        -12    1    3    3    0    0 -0.17256012157E+00 -0.15579333589E+01  0.21912829124E+01  0.26941889594E+01  0.00000000000E+00 0.  1.
</event>
<event>
 7    1  0.1476909E-008  0.4614231E+02  0.7816164E-02  0.1320468E+00
        -11   -1    0    0    0    0  0.00000000000E+00  0.00000000000E+00  0.45593999997E+02  0.45594000000E+02  0.51100000000E-03 0. -1.
         11   -1    0    0    0    0 -0.00000000000E+00 -0.00000000000E+00 -0.45593999997E+02  0.45594000000E+02  0.51100000000E-03 0.  1.
    9900012    2    1    2    0    0 -0.44877895678E+02  0.17216456154E+01 -0.34819780456E+01  0.46142314799E+02  0.99999729875E+01 0.  0.
        -12    1    1    2    0    0  0.44877895678E+02 -0.17216456154E+01  0.34819780456E+01  0.45045685201E+02  0.00000000000E+00 0.  1.
         11    1    3    3    0    0 -0.17905681198E+01  0.76188981105E+00  0.13268533600E+01  0.23552389212E+01  0.51100000000E-03 0. -1.
        -11    1    3    3    0    0 -0.25742271561E+02  0.37249107624E+00 -0.58486916730E+01  0.26400956219E+02  0.51100000000E-03 0.  1.
         12    1    3    3    0    0 -0.17345055997E+02  0.58726472808E+00  0.10398602674E+01  0.17386119659E+02  0.00000000000E+00 0. -1.
</event>
<event>
 7    1  0.1476909E-008  0.4614232E+02  0.7816164E-02  0.1320468E+00
        -11   -1    0    0    0    0  0.00000000000E+00  0.00000000000E+00  0.45593999997E+02  0.45594000000E+02  0.51100000000E-03 0.  1.
         11   -1    0    0    0    0 -0.00000000000E+00 -0.00000000000E+00 -0.45593999997E+02  0.45594000000E+02  0.51100000000E-03 0. -1.
    9900012    2    1    2    0    0  0.14277751262E+01  0.25916359694E+02 -0.36815991425E+02  0.46142318007E+02  0.10000002239E+02 0.  0.
        -12    1    1    2    0    0 -0.14277751262E+01 -0.25916359694E+02  0.36815991425E+02  0.45045681993E+02  0.00000000000E+00 0.  1.
         11    1    3    3    0    0 -0.34779481677E+01  0.57190799810E+01 -0.11068362970E+02  0.12934939443E+02  0.51100000000E-03 0. -1.
        -11    1    3    3    0    0  0.29702042489E+01  0.68203687678E+01 -0.97645774498E+01  0.12275443635E+02  0.51100000000E-03 0.  1.
        -12    1    3    3    0    0  0.19355190450E+01  0.13376910945E+02 -0.15983051005E+02  0.20931934928E+02  0.00000000000E+00 0.  1.
</event>
<event>
 7    1  0.1476909E-008  0.4614232E+02  0.7816164E-02  0.1320468E+00
        -11   -1    0    0    0    0  0.00000000000E+00  0.00000000000E+00  0.45593999997E+02  0.45594000000E+02  0.51100000000E-03 0. -1.
         11   -1    0    0    0    0 -0.00000000000E+00 -0.00000000000E+00 -0.45593999997E+02  0.45594000000E+02  0.51100000000E-03 0.  1.
    9900012    2    1    2    0    0  0.12438515015E+02 -0.43052625038E+02 -0.45681756536E+01  0.46142318661E+02  0.10000008210E+02 0.  0.
        -12    1    1    2    0    0 -0.12438515015E+02  0.43052625038E+02  0.45681756536E+01  0.45045681339E+02  0.00000000000E+00 0.  1.
         11    1    3    3    0    0  0.14127845568E+01 -0.10521836587E+02  0.28009317078E+01  0.10979536605E+02  0.51100000000E-03 0. -1.
        -11    1    3    3    0    0  0.73376599015E+01 -0.21699458893E+02 -0.56426694992E+01  0.23591258729E+02  0.51100000000E-03 0.  1.
         12    1    3    3    0    0  0.36880705563E+01 -0.10831329559E+02 -0.17264378622E+01  0.11571523328E+02  0.00000000000E+00 0. -1.
</event>
<event>
 7    1  0.1476909E-008  0.4614232E+02  0.7816164E-02  0.1320468E+00
        -11   -1    0    0    0    0  0.00000000000E+00  0.00000000000E+00  0.45593999997E+02  0.45594000000E+02  0.51100000000E-03 0.  1.
         11   -1    0    0    0    0 -0.00000000000E+00 -0.00000000000E+00 -0.45593999997E+02  0.45594000000E+02  0.51100000000E-03 0. -1.
    9900012    2    1    2    0    0  0.38801113382E+02  0.20723928006E+02 -0.97008122071E+01  0.46142319306E+02  0.10000014092E+02 0.  0.
        -12    1    1    2    0    0 -0.38801113382E+02 -0.20723928006E+02  0.97008122071E+01  0.45045680694E+02  0.00000000000E+00 0.  1.
         11    1    3    3    0    0  0.23930576329E+02  0.12040033718E+02 -0.71748316067E+01  0.27732888494E+02  0.51100000000E-03 0. -1.
        -11    1    3    3    0    0  0.44539221387E+01  0.60108786640E+01 -0.10232269007E+01  0.75508329529E+01  0.51100000000E-03 0.  1.
        -12    1    3    3    0    0  0.10416614914E+02  0.26730156238E+01 -0.15027536997E+01  0.10858597860E+02  0.00000000000E+00 0.  1.
</event>
<event>
 7    1  0.1476909E-008  0.4614232E+02  0.7816164E-02  0.1320468E+00
        -11   -1    0    0    0    0  0.00000000000E+00  0.00000000000E+00  0.45593999997E+02  0.45594000000E+02  0.51100000000E-03 0.  1.
         11   -1    0    0    0    0 -0.00000000000E+00 -0.00000000000E+00 -0.45593999997E+02  0.45594000000E+02  0.51100000000E-03 0. -1.
    9900012    2    1    2    0    0 -0.39083301766E+02  0.14251860654E+02 -0.17276963221E+02  0.46142317997E+02  0.10000002149E+02 0.  0.
        -12    1    1    2    0    0  0.39083301766E+02 -0.14251860654E+02  0.17276963221E+02  0.45045682003E+02  0.00000000000E+00 0.  1.
         11    1    3    3    0    0 -0.25828753387E+02  0.12154760699E+02 -0.75721699463E+01  0.29533040262E+02  0.51100000000E-03 0. -1.
        -11    1    3    3    0    0 -0.25170206960E+01  0.26677270925E+00 -0.24454405377E+01  0.35194801530E+01  0.51100000000E-03 0.  1.
         12    1    3    3    0    0 -0.10737527683E+02  0.18303272452E+01 -0.72593527375E+01  0.13089797582E+02  0.00000000000E+00 0. -1.
</event>
<event>
 7    1  0.1476909E-008  0.4614232E+02  0.7816164E-02  0.1320468E+00
        -11   -1    0    0    0    0  0.00000000000E+00  0.00000000000E+00  0.45593999997E+02  0.45594000000E+02  0.51100000000E-03 0.  1.
         11   -1    0    0    0    0 -0.00000000000E+00 -0.00000000000E+00 -0.45593999997E+02  0.45594000000E+02  0.51100000000E-03 0. -1.
    9900012    2    1    2    0    0  0.35585669644E+02 -0.18861641721E+02 -0.20174541434E+02  0.46142317250E+02  0.99999953361E+01 0.  0.
        -12    1    1    2    0    0 -0.35585669644E+02  0.18861641721E+02  0.20174541434E+02  0.45045682750E+02  0.00000000000E+00 0.  1.
         11    1    3    3    0    0  0.38368050992E+01 -0.26791466977E+01 -0.13126409527E+01  0.48602393901E+01  0.51100000000E-03 0. -1.
        -11    1    3    3    0    0  0.30761866613E+02 -0.13865897207E+02 -0.19064614024E+02  0.38755838928E+02  0.51100000000E-03 0.  1.
        -12    1    3    3    0    0  0.98699793172E+00 -0.23165978164E+01  0.20271354317E+00  0.25262389318E+01  0.00000000000E+00 0.  1.
</event>
<event>
 7    1  0.1476909E-008  0.4614232E+02  0.7816164E-02  0.1320468E+00
        -11   -1    0    0    0    0  0.00000000000E+00  0.00000000000E+00  0.45593999997E+02  0.45594000000E+02  0.51100000000E-03 0. -1.
         11   -1    0    0    0    0 -0.00000000000E+00 -0.00000000000E+00 -0.45593999997E+02  0.45594000000E+02  0.51100000000E-03 0.  1.
    9900012    2    1    2    0    0  0.64009486597E+01 -0.30791775153E+02  0.32249153476E+02  0.46142318068E+02  0.10000002796E+02 0.  0.
        -12    1    1    2    0    0 -0.64009486597E+01  0.30791775153E+02 -0.32249153476E+02  0.45045681932E+02  0.00000000000E+00 0.  1.
         11    1    3    3    0    0  0.59025079892E+00 -0.13100903034E+02  0.10457763140E+02  0.16773397583E+02  0.51100000000E-03 0.  1.
        -11    1    3    3    0    0  0.35656078333E+01 -0.13195499593E+02  0.11294546005E+02  0.17731371590E+02  0.51100000000E-03 0. -1.
        -12    1    3    3    0    0  0.22450900275E+01 -0.44953725250E+01  0.10496844331E+02  0.11637548895E+02  0.00000000000E+00 0.  1.
</event>
<event>
 7    1  0.1476909E-008  0.4614232E+02  0.7816164E-02  0.1320468E+00
        -11   -1    0    0    0    0  0.00000000000E+00  0.00000000000E+00  0.45593999997E+02  0.45594000000E+02  0.51100000000E-03 0.  1.
         11   -1    0    0    0    0 -0.00000000000E+00 -0.00000000000E+00 -0.45593999997E+02  0.45594000000E+02  0.51100000000E-03 0. -1.
    9900012    2    1    2    0    0 -0.33776229139E+02 -0.27821997928E+02 -0.10687203774E+02  0.46142317099E+02  0.99999939594E+01 0.  0.
        -12    1    1    2    0    0  0.33776229139E+02  0.27821997928E+02  0.10687203774E+02  0.45045682901E+02  0.00000000000E+00 0.  1.
         11    1    3    3    0    0 -0.10864107288E+02 -0.42821781729E+01 -0.14070227052E+01  0.11762040224E+02  0.51100000000E-03 0. -1.
        -11    1    3    3    0    0 -0.14234795930E+02 -0.11708586419E+02 -0.52484922120E+01  0.19164213573E+02  0.51100000000E-03 0.  1.
        -12    1    3    3    0    0 -0.86773259213E+01 -0.11831233335E+02 -0.40316888564E+01  0.15216063302E+02  0.00000000000E+00 0.  1.
</event>
<event>
 7    1  0.1476909E-008  0.4614232E+02  0.7816164E-02  0.1320468E+00
        -11   -1    0    0    0    0  0.00000000000E+00  0.00000000000E+00  0.45593999997E+02  0.45594000000E+02  0.51100000000E-03 0.  1.
         11   -1    0    0    0    0 -0.00000000000E+00 -0.00000000000E+00 -0.45593999997E+02  0.45594000000E+02  0.51100000000E-03 0. -1.
    9900012    2    1    2    0    0  0.27199738136E+02 -0.31955628086E+02  0.16374536190E+02  0.46142319225E+02  0.10000013353E+02 0.  0.
        -12    1    1    2    0    0 -0.27199738136E+02  0.31955628086E+02 -0.16374536190E+02  0.45045680775E+02  0.00000000000E+00 0.  1.
         11    1    3    3    0    0  0.13348877300E+02 -0.94365870578E+01  0.64868425932E+01  0.17587519085E+02  0.51100000000E-03 0. -1.
        -11    1    3    3    0    0  0.13276346354E+02 -0.19585176524E+02  0.96587947034E+01  0.25556463515E+02  0.51100000000E-03 0.  1.
         12    1    3    3    0    0  0.57451448108E+00 -0.29338645043E+01  0.22889889296E+00  0.29983366259E+01  0.00000000000E+00 0. -1.
</event>
<event>
 7    1  0.1476909E-008  0.4614232E+02  0.7816164E-02  0.1320468E+00
        -11   -1    0    0    0    0  0.00000000000E+00  0.00000000000E+00  0.45593999997E+02  0.45594000000E+02  0.51100000000E-03 0.  1.
         11   -1    0    0    0    0 -0.00000000000E+00 -0.00000000000E+00 -0.45593999997E+02  0.45594000000E+02  0.51100000000E-03 0. -1.
    9900012    2    1    2    0    0  0.11103613648E+02 -0.98264741361E+01 -0.42535439519E+02  0.46142318241E+02  0.10000004380E+02 0.  0.
        -12    1    1    2    0    0 -0.11103613648E+02  0.98264741361E+01  0.42535439519E+02  0.45045681759E+02  0.00000000000E+00 0.  1.
         11    1    3    3    0    0  0.25419845451E+01 -0.74764848960E+01 -0.27781684070E+02  0.28882200086E+02  0.51100000000E-03 0. -1.
        -11    1    3    3    0    0  0.57202324277E+01 -0.10079111703E+01 -0.98924164617E+01  0.11471566923E+02  0.51100000000E-03 0.  1.
         12    1    3    3    0    0  0.28413966748E+01 -0.13420780699E+01 -0.48613389882E+01  0.57885512321E+01  0.00000000000E+00 0. -1.
</event>
<event>
 7    1  0.1476909E-008  0.4614232E+02  0.7816164E-02  0.1320468E+00
        -11   -1    0    0    0    0  0.00000000000E+00  0.00000000000E+00  0.45593999997E+02  0.45594000000E+02  0.51100000000E-03 0.  1.
         11   -1    0    0    0    0 -0.00000000000E+00 -0.00000000000E+00 -0.45593999997E+02  0.45594000000E+02  0.51100000000E-03 0. -1.
    9900012    2    1    2    0    0  0.37277679634E+02  0.23996709237E+02  0.79778505886E+01  0.46142317042E+02  0.99999934435E+01 0.  0.
        -12    1    1    2    0    0 -0.37277679634E+02 -0.23996709237E+02 -0.79778505886E+01  0.45045682958E+02  0.00000000000E+00 0.  1.
         11    1    3    3    0    0  0.10034147909E+02  0.49814863466E+01  0.44205720982E+01  0.12043288107E+02  0.51100000000E-03 0. -1.
        -11    1    3    3    0    0  0.24221381182E+02  0.18475580630E+02  0.16997321903E+01  0.30510841938E+02  0.51100000000E-03 0.  1.
        -12    1    3    3    0    0  0.30221505426E+01  0.53964226134E+00  0.18575463000E+01  0.35881869976E+01  0.00000000000E+00 0.  1.
</event>
<event>
 7    1  0.1476909E-008  0.4614232E+02  0.7816164E-02  0.1320468E+00
        -11   -1    0    0    0    0  0.00000000000E+00  0.00000000000E+00  0.45593999997E+02  0.45594000000E+02  0.51100000000E-03 0.  1.
         11   -1    0    0    0    0 -0.00000000000E+00 -0.00000000000E+00 -0.45593999997E+02  0.45594000000E+02  0.51100000000E-03 0. -1.
    9900012    2    1    2    0    0  0.92289836141E+01 -0.20526197948E+02 -0.39020693913E+02  0.46142317697E+02  0.99999994137E+01 0.  0.
        -12    1    1    2    0    0 -0.92289836141E+01  0.20526197948E+02  0.39020693913E+02  0.45045682303E+02  0.00000000000E+00 0.  1.
         11    1    3    3    0    0  0.35037406589E+01 -0.93941507798E+01 -0.10870045457E+02  0.14787973356E+02  0.51100000000E-03 0. -1.
        -11    1    3    3    0    0 -0.80754608276E+00 -0.40809228419E+01 -0.95527582706E+01  0.10419273140E+02  0.51100000000E-03 0.  1.
        -12    1    3    3    0    0  0.65327890380E+01 -0.70511243263E+01 -0.18597890185E+02  0.20935071201E+02  0.00000000000E+00 0.  1.
</event>
<event>
 7    1  0.1476909E-008  0.4614232E+02  0.7816164E-02  0.1320468E+00
        -11   -1    0    0    0    0  0.00000000000E+00  0.00000000000E+00  0.45593999997E+02  0.45594000000E+02  0.51100000000E-03 0.  1.
         11   -1    0    0    0    0 -0.00000000000E+00 -0.00000000000E+00 -0.45593999997E+02  0.45594000000E+02  0.51100000000E-03 0. -1.
    9900012    2    1    2    0    0  0.15692371370E+02  0.32613748715E+02 -0.26818023444E+02  0.46142317566E+02  0.99999982232E+01 0.  0.
        -12    1    1    2    0    0 -0.15692371370E+02 -0.32613748715E+02  0.26818023444E+02  0.45045682434E+02  0.00000000000E+00 0.  1.
         11    1    3    3    0    0  0.22473899360E+01  0.11561176160E+02 -0.62579437052E+01  0.13336919262E+02  0.51100000000E-03 0. -1.
        -11    1    3    3    0    0  0.27539625037E+01  0.17828308120E+01 -0.12683422614E+01  0.35173125435E+01  0.51100000000E-03 0.  1.
        -12    1    3    3    0    0  0.10691018930E+02  0.19269741744E+02 -0.19291737478E+02  0.29288085761E+02  0.00000000000E+00 0.  1.
</event>
<event>
 7    1  0.1476909E-008  0.4614231E+02  0.7816164E-02  0.1320468E+00
        -11   -1    0    0    0    0  0.00000000000E+00  0.00000000000E+00  0.45593999997E+02  0.45594000000E+02  0.51100000000E-03 0.  1.
         11   -1    0    0    0    0 -0.00000000000E+00 -0.00000000000E+00 -0.45593999997E+02  0.45594000000E+02  0.51100000000E-03 0. -1.
    9900012    2    1    2    0    0  0.36300096966E+02  0.14508776052E+02 -0.22381067874E+02  0.46142314064E+02  0.99999662898E+01 0.  0.
        -12    1    1    2    0    0 -0.36300096966E+02 -0.14508776052E+02  0.22381067874E+02  0.45045685936E+02  0.00000000000E+00 0.  1.
         11    1    3    3    0    0  0.10947806964E+02  0.33938967574E+01 -0.94987694971E+01  0.14886222984E+02  0.51100000000E-03 0. -1.
        -11    1    3    3    0    0  0.23516782880E+02  0.10891770636E+02 -0.13605354327E+02  0.29270726183E+02  0.51100000000E-03 0.  1.
        -12    1    3    3    0    0  0.18355071216E+01  0.22310865823E+00  0.72305595097E+00  0.19853648972E+01  0.00000000000E+00 0.  1.
</event>
<event>
 7    1  0.1476909E-008  0.4614232E+02  0.7816164E-02  0.1320468E+00
        -11   -1    0    0    0    0  0.00000000000E+00  0.00000000000E+00  0.45593999997E+02  0.45594000000E+02  0.51100000000E-03 0.  1.
         11   -1    0    0    0    0 -0.00000000000E+00 -0.00000000000E+00 -0.45593999997E+02  0.45594000000E+02  0.51100000000E-03 0. -1.
    9900012    2    1    2    0    0  0.79667120118E+01 -0.29837252253E+02 -0.32793037983E+02  0.46142318049E+02  0.10000002623E+02 0.  0.
        -12    1    1    2    0    0 -0.79667120118E+01  0.29837252253E+02  0.32793037983E+02  0.45045681951E+02  0.00000000000E+00 0.  1.
         11    1    3    3    0    0  0.29720430756E+00 -0.37495026444E+01 -0.86450818429E+01  0.94278598214E+01  0.51100000000E-03 0. -1.
        -11    1    3    3    0    0  0.68317568053E+01 -0.14857165418E+02 -0.15276694378E+02  0.22378240697E+02  0.51100000000E-03 0.  1.
         12    1    3    3    0    0  0.83775089886E+00 -0.11230584190E+02 -0.88712617627E+01  0.14336217531E+02  0.00000000000E+00 0. -1.
</event>
<event>
 7    1  0.1476909E-008  0.4614232E+02  0.7816164E-02  0.1320468E+00
        -11   -1    0    0    0    0  0.00000000000E+00  0.00000000000E+00  0.45593999997E+02  0.45594000000E+02  0.51100000000E-03 0.  1.
         11   -1    0    0    0    0 -0.00000000000E+00 -0.00000000000E+00 -0.45593999997E+02  0.45594000000E+02  0.51100000000E-03 0. -1.
    9900012    2    1    2    0    0 -0.10133617691E+02 -0.12506881062E+02 -0.42071383629E+02  0.46142316501E+02  0.99999885094E+01 0.  0.
        -12    1    1    2    0    0  0.10133617691E+02  0.12506881062E+02  0.42071383629E+02  0.45045683499E+02  0.00000000000E+00 0.  1.
         11    1    3    3    0    0 -0.96328737318E+01 -0.78222622377E+01 -0.26279750192E+02  0.29062094096E+02  0.51100000000E-03 0. -1.
        -11    1    3    3    0    0  0.16598230667E+01 -0.38272210130E+01 -0.10633861691E+02  0.11422856387E+02  0.51100000000E-03 0.  1.
        -12    1    3    3    0    0 -0.21605670257E+01 -0.85739781089E+00 -0.51577717460E+01  0.56573660181E+01  0.00000000000E+00 0.  1.
</event>
<event>
 7    1  0.1476909E-008  0.4614232E+02  0.7816164E-02  0.1320468E+00
        -11   -1    0    0    0    0  0.00000000000E+00  0.00000000000E+00  0.45593999997E+02  0.45594000000E+02  0.51100000000E-03 0.  1.
         11   -1    0    0    0    0 -0.00000000000E+00 -0.00000000000E+00 -0.45593999997E+02  0.45594000000E+02  0.51100000000E-03 0. -1.
    9900012    2    1    2    0    0  0.10555581023E+02  0.27798507026E+02 -0.33836906023E+02  0.46142317712E+02  0.99999995515E+01 0.  0.
        -12    1    1    2    0    0 -0.10555581023E+02 -0.27798507026E+02  0.33836906023E+02  0.45045682288E+02  0.00000000000E+00 0.  1.
         11    1    3    3    0    0  0.36553015107E+01  0.78753483598E+01 -0.72066581416E+01  0.11283539460E+02  0.51100000000E-03 0. -1.
        -11    1    3    3    0    0  0.29739891859E+01  0.46927855933E+01 -0.12646192642E+02  0.13812785269E+02  0.51100000000E-03 0.  1.
        -12    1    3    3    0    0  0.39262903259E+01  0.15230373073E+02 -0.13984055239E+02  0.21045992982E+02  0.00000000000E+00 0.  1.
</event>
<event>
 7    1  0.1476909E-008  0.4614232E+02  0.7816164E-02  0.1320468E+00
        -11   -1    0    0    0    0  0.00000000000E+00  0.00000000000E+00  0.45593999997E+02  0.45594000000E+02  0.51100000000E-03 0.  1.
         11   -1    0    0    0    0 -0.00000000000E+00 -0.00000000000E+00 -0.45593999997E+02  0.45594000000E+02  0.51100000000E-03 0. -1.
    9900012    2    1    2    0    0 -0.24603762095E+02 -0.37137617425E+02 -0.66757617379E+01  0.46142317276E+02  0.99999955779E+01 0.  0.
        -12    1    1    2    0    0  0.24603762095E+02  0.37137617425E+02  0.66757617379E+01  0.45045682724E+02  0.00000000000E+00 0.  1.
         11    1    3    3    0    0 -0.19786030440E+02 -0.27182168551E+02 -0.75969086010E+01  0.34468395789E+02  0.51100000000E-03 0. -1.
        -11    1    3    3    0    0 -0.25276192086E+01 -0.86165025837E+01  0.85626805288E+00  0.90203198878E+01  0.51100000000E-03 0.  1.
         12    1    3    3    0    0 -0.22901124471E+01 -0.13389462904E+01  0.64878810243E-01  0.26536015995E+01  0.00000000000E+00 0. -1.
</event>
<event>
 7    1  0.1476909E-008  0.4614232E+02  0.7816164E-02  0.1320468E+00
        -11   -1    0    0    0    0  0.00000000000E+00  0.00000000000E+00  0.45593999997E+02  0.45594000000E+02  0.51100000000E-03 0.  1.
         11   -1    0    0    0    0 -0.00000000000E+00 -0.00000000000E+00 -0.45593999997E+02  0.45594000000E+02  0.51100000000E-03 0. -1.
    9900012    2    1    2    0    0 -0.59542514025E+01  0.44236546065E+02  0.60653459299E+01  0.46142317202E+02  0.99999949022E+01 0.  0.
        -12    1    1    2    0    0  0.59542514025E+01 -0.44236546065E+02 -0.60653459299E+01  0.45045682798E+02  0.00000000000E+00 0.  1.
         11    1    3    3    0    0 -0.56335261411E+01  0.32626044021E+02  0.55246892691E+01  0.33566613726E+02  0.51100000000E-03 0. -1.
        -11    1    3    3    0    0  0.16057473383E+01  0.41496260459E+01 -0.13344147007E+01  0.46452646523E+01  0.51100000000E-03 0.  1.
        -12    1    3    3    0    0 -0.19264725996E+01  0.74608759980E+01  0.18750713614E+01  0.79304388243E+01  0.00000000000E+00 0.  1.
</event>
<event>
 7    1  0.1476909E-008  0.4614232E+02  0.7816164E-02  0.1320468E+00
        -11   -1    0    0    0    0  0.00000000000E+00  0.00000000000E+00  0.45593999997E+02  0.45594000000E+02  0.51100000000E-03 0. -1.
         11   -1    0    0    0    0 -0.00000000000E+00 -0.00000000000E+00 -0.45593999997E+02  0.45594000000E+02  0.51100000000E-03 0.  1.
    9900012    2    1    2    0    0  0.24075373815E+01 -0.26633487625E+02  0.36248788648E+02  0.46142316769E+02  0.99999909495E+01 0.  0.
        -12    1    1    2    0    0 -0.24075373815E+01  0.26633487625E+02 -0.36248788648E+02  0.45045683231E+02  0.00000000000E+00 0.  1.
         11    1    3    3    0    0 -0.59510488482E-02 -0.13417347515E+02  0.15882442887E+02  0.20791278029E+02  0.51100000000E-03 0. -1.
        -11    1    3    3    0    0  0.20739764180E+01 -0.28112359508E+00  0.20893988799E+01  0.29573631158E+01  0.51100000000E-03 0.  1.
        -12    1    3    3    0    0  0.33951201241E+00 -0.12935016515E+02  0.18276946882E+02  0.22393675624E+02  0.00000000000E+00 0.  1.
</event>
<event>
 7    1  0.1476909E-008  0.4614232E+02  0.7816164E-02  0.1320468E+00
        -11   -1    0    0    0    0  0.00000000000E+00  0.00000000000E+00  0.45593999997E+02  0.45594000000E+02  0.51100000000E-03 0.  1.
         11   -1    0    0    0    0 -0.00000000000E+00 -0.00000000000E+00 -0.45593999997E+02  0.45594000000E+02  0.51100000000E-03 0. -1.
    9900012    2    1    2    0    0  0.38971169945E+02  0.22580960748E+02 -0.67950303187E+00  0.46142316526E+02  0.99999887412E+01 0.  0.
        -12    1    1    2    0    0 -0.38971169945E+02 -0.22580960748E+02  0.67950303187E+00  0.45045683474E+02  0.00000000000E+00 0.  1.
         11    1    3    3    0    0  0.27920109402E+02  0.10888683537E+02  0.69634619236E+00  0.29976337943E+02  0.51100000000E-03 0. -1.
        -11    1    3    3    0    0  0.81653799560E+01  0.82525360967E+01 -0.76239727300E+00  0.11634390045E+02  0.51100000000E-03 0.  1.
         12    1    3    3    0    0  0.28856805874E+01  0.34397411143E+01 -0.61345195124E+00  0.45315885385E+01  0.00000000000E+00 0. -1.
</event>
<event>
 7    1  0.1476909E-008  0.4614232E+02  0.7816164E-02  0.1320468E+00
        -11   -1    0    0    0    0  0.00000000000E+00  0.00000000000E+00  0.45593999997E+02  0.45594000000E+02  0.51100000000E-03 0.  1.
         11   -1    0    0    0    0 -0.00000000000E+00 -0.00000000000E+00 -0.45593999997E+02  0.45594000000E+02  0.51100000000E-03 0. -1.
    9900012    2    1    2    0    0  0.23261297212E+02 -0.33403052156E+02 -0.19294084273E+02  0.46142317307E+02  0.99999958617E+01 0.  0.
        -12    1    1    2    0    0 -0.23261297212E+02  0.33403052156E+02  0.19294084273E+02  0.45045682693E+02  0.00000000000E+00 0.  1.
         11    1    3    3    0    0  0.82165246816E+01 -0.85827707033E+01 -0.76018051876E+01  0.14105412903E+02  0.51100000000E-03 0. -1.
        -11    1    3    3    0    0  0.14186887785E+02 -0.21707660190E+02 -0.12379757566E+02  0.28735843360E+02  0.51100000000E-03 0.  1.
        -12    1    3    3    0    0  0.85788474490E+00 -0.31126212624E+01  0.68747847985E+00  0.33010610445E+01  0.00000000000E+00 0.  1.
</event>
<event>
 7    1  0.1476909E-008  0.4614232E+02  0.7816164E-02  0.1320468E+00
        -11   -1    0    0    0    0  0.00000000000E+00  0.00000000000E+00  0.45593999997E+02  0.45594000000E+02  0.51100000000E-03 0. -1.
         11   -1    0    0    0    0 -0.00000000000E+00 -0.00000000000E+00 -0.45593999997E+02  0.45594000000E+02  0.51100000000E-03 0.  1.
    9900012    2    1    2    0    0  0.12786634027E+02 -0.37736411739E+02  0.21013774010E+02  0.46142317867E+02  0.10000000967E+02 0.  0.
        -12    1    1    2    0    0 -0.12786634027E+02  0.37736411739E+02 -0.21013774010E+02  0.45045682133E+02  0.00000000000E+00 0.  1.
         11    1    3    3    0    0  0.65846093752E+01 -0.74139657077E+01  0.61700005040E+01  0.11678736003E+02  0.51100000000E-03 0. -1.
        -11    1    3    3    0    0  0.60721037718E+01 -0.25453660842E+02  0.11684100165E+02  0.28657939413E+02  0.51100000000E-03 0.  1.
        -12    1    3    3    0    0  0.12992088031E+00 -0.48687851887E+01  0.31596733411E+01  0.58056424512E+01  0.00000000000E+00 0.  1.
</event>
<event>
 7    1  0.1476909E-008  0.4614232E+02  0.7816164E-02  0.1320468E+00
        -11   -1    0    0    0    0  0.00000000000E+00  0.00000000000E+00  0.45593999997E+02  0.45594000000E+02  0.51100000000E-03 0. -1.
         11   -1    0    0    0    0 -0.00000000000E+00 -0.00000000000E+00 -0.45593999997E+02  0.45594000000E+02  0.51100000000E-03 0.  1.
    9900012    2    1    2    0    0 -0.10729751336E+02  0.40158060355E+02  0.17358457162E+02  0.46142318628E+02  0.10000007905E+02 0.  0.
        -12    1    1    2    0    0  0.10729751336E+02 -0.40158060355E+02 -0.17358457162E+02  0.45045681372E+02  0.00000000000E+00 0.  1.
         11    1    3    3    0    0 -0.39946151882E+01  0.21238159661E+02  0.77367525403E+01  0.22953729903E+02  0.51100000000E-03 0. -1.
        -11    1    3    3    0    0 -0.16901422495E+00  0.48500112433E+00 -0.85038424505E+00  0.99345131949E+00  0.51100000000E-03 0.  1.
        -12    1    3    3    0    0 -0.65661219230E+01  0.18434899570E+02  0.10472088866E+02  0.22195137406E+02  0.00000000000E+00 0.  1.
</event>
<event>
 7    1  0.1476909E-008  0.4614232E+02  0.7816164E-02  0.1320468E+00
        -11   -1    0    0    0    0  0.00000000000E+00  0.00000000000E+00  0.45593999997E+02  0.45594000000E+02  0.51100000000E-03 0.  1.
         11   -1    0    0    0    0 -0.00000000000E+00 -0.00000000000E+00 -0.45593999997E+02  0.45594000000E+02  0.51100000000E-03 0. -1.
    9900012    2    1    2    0    0  0.19015818099E+02 -0.14942163751E+02 -0.38003206917E+02  0.46142319502E+02  0.10000015878E+02 0.  0.
        -12    1    1    2    0    0 -0.19015818099E+02  0.14942163751E+02  0.38003206917E+02  0.45045680498E+02  0.00000000000E+00 0.  1.
         11    1    3    3    0    0  0.29435627030E+01 -0.46555307170E+01 -0.61863738601E+01  0.82831002313E+01  0.51100000000E-03 0. -1.
        -11    1    3    3    0    0  0.16730733349E+02 -0.89559720842E+01 -0.30168968144E+02  0.35641177218E+02  0.51100000000E-03 0.  1.
        -12    1    3    3    0    0 -0.65847795264E+00 -0.13306609502E+01 -0.16478649128E+01  0.22180420531E+01  0.00000000000E+00 0.  1.
</event>
<event>
 7    1  0.1476909E-008  0.4614232E+02  0.7816164E-02  0.1320468E+00
        -11   -1    0    0    0    0  0.00000000000E+00  0.00000000000E+00  0.45593999997E+02  0.45594000000E+02  0.51100000000E-03 0.  1.
         11   -1    0    0    0    0 -0.00000000000E+00 -0.00000000000E+00 -0.45593999997E+02  0.45594000000E+02  0.51100000000E-03 0. -1.
    9900012    2    1    2    0    0  0.13085576063E+02 -0.36105255936E+02 -0.23543399405E+02  0.46142318047E+02  0.10000002605E+02 0.  0.
        -12    1    1    2    0    0 -0.13085576063E+02  0.36105255936E+02  0.23543399405E+02  0.45045681953E+02  0.00000000000E+00 0.  1.
         11    1    3    3    0    0  0.10310898917E+01 -0.12049014941E+02 -0.96113268128E+01  0.15447314031E+02  0.51100000000E-03 0. -1.
        -11    1    3    3    0    0  0.69416588094E+01 -0.10916962888E+02 -0.89941135316E+01  0.15756293479E+02  0.51100000000E-03 0.  1.
         12    1    3    3    0    0  0.51128273620E+01 -0.13139278107E+02 -0.49379590604E+01  0.14938710537E+02  0.00000000000E+00 0. -1.
</event>
<event>
 7    1  0.1476909E-008  0.4614232E+02  0.7816164E-02  0.1320468E+00
        -11   -1    0    0    0    0  0.00000000000E+00  0.00000000000E+00  0.45593999997E+02  0.45594000000E+02  0.51100000000E-03 0.  1.
         11   -1    0    0    0    0 -0.00000000000E+00 -0.00000000000E+00 -0.45593999997E+02  0.45594000000E+02  0.51100000000E-03 0. -1.
    9900012    2    1    2    0    0  0.14825251892E+02 -0.27594419500E+02 -0.32370872368E+02  0.46142318086E+02  0.10000002964E+02 0.  0.
        -12    1    1    2    0    0 -0.14825251892E+02  0.27594419500E+02  0.32370872368E+02  0.45045681914E+02  0.00000000000E+00 0.  1.
         11    1    3    3    0    0  0.40806596262E+01 -0.90431316499E+01 -0.64249043236E+01  0.11819873470E+02  0.51100000000E-03 0. -1.
        -11    1    3    3    0    0  0.44727100051E-01  0.56080811766E+00 -0.57122661914E+00  0.80175206258E+00  0.51100000000E-03 0.  1.
         12    1    3    3    0    0  0.10699865166E+02 -0.19112095968E+02 -0.25374741425E+02  0.33520692553E+02  0.00000000000E+00 0. -1.
</event>
<event>
 7    1  0.1476909E-008  0.4614232E+02  0.7816164E-02  0.1320468E+00
        -11   -1    0    0    0    0  0.00000000000E+00  0.00000000000E+00  0.45593999997E+02  0.45594000000E+02  0.51100000000E-03 0.  1.
         11   -1    0    0    0    0 -0.00000000000E+00 -0.00000000000E+00 -0.45593999997E+02  0.45594000000E+02  0.51100000000E-03 0. -1.
    9900012    2    1    2    0    0 -0.85154156745E+01 -0.29399074958E+01 -0.44135678895E+02  0.46142317502E+02  0.99999976351E+01 0.  0.
        -12    1    1    2    0    0  0.85154156745E+01  0.29399074958E+01  0.44135678895E+02  0.45045682498E+02  0.00000000000E+00 0.  1.
         11    1    3    3    0    0 -0.45523591536E+01 -0.77069666696E+00 -0.93050214801E+01  0.10387558530E+02  0.51100000000E-03 0. -1.
        -11    1    3    3    0    0 -0.21003815691E+01  0.13156572284E+01 -0.42499610899E+01  0.49198298959E+01  0.51100000000E-03 0.  1.
        -12    1    3    3    0    0 -0.18626749518E+01 -0.34848680573E+01 -0.30580696325E+02  0.30834929075E+02  0.00000000000E+00 0.  1.
</event>
<event>
 7    1  0.1806771E-008  0.4614232E+02  0.7816164E-02  0.1320468E+00
        -11   -1    0    0    0    0  0.00000000000E+00  0.00000000000E+00  0.45593999997E+02  0.45594000000E+02  0.51100000000E-03 0. -1.
         11   -1    0    0    0    0 -0.00000000000E+00 -0.00000000000E+00 -0.45593999997E+02  0.45594000000E+02  0.51100000000E-03 0.  1.
    9900012    2    1    2    0    0  0.26442050557E+02  0.36371221694E+02  0.26581461322E+01  0.46142317121E+02  0.99999941659E+01 0.  0.
        -12    1    1    2    0    0 -0.26442050557E+02 -0.36371221694E+02 -0.26581461322E+01  0.45045682879E+02  0.00000000000E+00 0.  1.
         11    1    3    3    0    0  0.13624397088E+02  0.23353945111E+02  0.30299315523E+01  0.27206826969E+02  0.51100000000E-03 0. -1.
        -11    1    3    3    0    0  0.34479167363E+01  0.97628672925E+00 -0.80305695405E+00  0.36723516077E+01  0.51100000000E-03 0.  1.
        -12    1    3    3    0    0  0.93697367329E+01  0.12040989854E+02  0.43127153394E+00  0.15263138545E+02  0.00000000000E+00 0.  1.
</event>
<event>
 7    1  0.1476909E-008  0.4614232E+02  0.7816164E-02  0.1320468E+00
        -11   -1    0    0    0    0  0.00000000000E+00  0.00000000000E+00  0.45593999997E+02  0.45594000000E+02  0.51100000000E-03 0.  1.
         11   -1    0    0    0    0 -0.00000000000E+00 -0.00000000000E+00 -0.45593999997E+02  0.45594000000E+02  0.51100000000E-03 0. -1.
    9900012    2    1    2    0    0  0.92484557763E+00  0.43536512554E+01 -0.44825258884E+02  0.46142318158E+02  0.10000003615E+02 0.  0.
        -12    1    1    2    0    0 -0.92484557763E+00 -0.43536512554E+01  0.44825258884E+02  0.45045681842E+02  0.00000000000E+00 0.  1.
         11    1    3    3    0    0  0.55994060630E+00  0.14483157562E+01 -0.28917649709E+01  0.32822944597E+01  0.51100000000E-03 0. -1.
        -11    1    3    3    0    0 -0.31356830225E+01 -0.12634086182E+01 -0.14145610082E+02  0.14543967623E+02  0.51100000000E-03 0.  1.
        -12    1    3    3    0    0  0.35005879938E+01  0.41687441175E+01 -0.27787883831E+02  0.28316056075E+02  0.00000000000E+00 0.  1.
</event>
<event>
 7    1  0.1476909E-008  0.4614232E+02  0.7816164E-02  0.1320468E+00
        -11   -1    0    0    0    0  0.00000000000E+00  0.00000000000E+00  0.45593999997E+02  0.45594000000E+02  0.51100000000E-03 0.  1.
         11   -1    0    0    0    0 -0.00000000000E+00 -0.00000000000E+00 -0.45593999997E+02  0.45594000000E+02  0.51100000000E-03 0. -1.
    9900012    2    1    2    0    0  0.40927090681E+02 -0.11037236234E+02 -0.15240281332E+02  0.46142317517E+02  0.99999977746E+01 0.  0.
        -12    1    1    2    0    0 -0.40927090681E+02  0.11037236234E+02  0.15240281332E+02  0.45045682483E+02  0.00000000000E+00 0.  1.
         11    1    3    3    0    0  0.14235076978E+02 -0.42924053640E+01 -0.50804766251E+01  0.15712205555E+02  0.51100000000E-03 0. -1.
        -11    1    3    3    0    0  0.11081665717E+02 -0.42485438719E+01 -0.44808682209E+00  0.11876625032E+02  0.51100000000E-03 0.  1.
        -12    1    3    3    0    0  0.15610347986E+02 -0.24962869983E+01 -0.97117178845E+01  0.18553486930E+02  0.00000000000E+00 0.  1.
</event>
<event>
 7    1  0.1476909E-008  0.4614232E+02  0.7816164E-02  0.1320468E+00
        -11   -1    0    0    0    0  0.00000000000E+00  0.00000000000E+00  0.45593999997E+02  0.45594000000E+02  0.51100000000E-03 0.  1.
         11   -1    0    0    0    0 -0.00000000000E+00 -0.00000000000E+00 -0.45593999997E+02  0.45594000000E+02  0.51100000000E-03 0. -1.
    9900012    2    1    2    0    0  0.82750062261E+01 -0.10180635991E+02 -0.43092833439E+02  0.46142319064E+02  0.10000011877E+02 0.  0.
        -12    1    1    2    0    0 -0.82750062261E+01  0.10180635991E+02  0.43092833439E+02  0.45045680936E+02  0.00000000000E+00 0.  1.
         11    1    3    3    0    0  0.83288660936E+00 -0.12632445672E+01 -0.11531033519E+02  0.11629884832E+02  0.51100000000E-03 0.  1.
        -11    1    3    3    0    0  0.67265911809E+01 -0.48473613674E+01 -0.12444404873E+02  0.14953499726E+02  0.51100000000E-03 0. -1.
        -12    1    3    3    0    0  0.71552843586E+00 -0.40700300565E+01 -0.19117395047E+02  0.19558934505E+02  0.00000000000E+00 0.  1.
</event>
<event>
 7    1  0.1476909E-008  0.4614232E+02  0.7816164E-02  0.1320468E+00
        -11   -1    0    0    0    0  0.00000000000E+00  0.00000000000E+00  0.45593999997E+02  0.45594000000E+02  0.51100000000E-03 0.  1.
         11   -1    0    0    0    0 -0.00000000000E+00 -0.00000000000E+00 -0.45593999997E+02  0.45594000000E+02  0.51100000000E-03 0. -1.
    9900012    2    1    2    0    0  0.18224257567E+02  0.38988643535E+02 -0.13299458574E+02  0.46142317778E+02  0.10000000150E+02 0.  0.
        -12    1    1    2    0    0 -0.18224257567E+02 -0.38988643535E+02  0.13299458574E+02  0.45045682222E+02  0.00000000000E+00 0.  1.
         11    1    3    3    0    0  0.24622486643E+01  0.93043345842E+01 -0.38732997797E+00  0.96324106698E+01  0.51100000000E-03 0. -1.
        -11    1    3    3    0    0  0.63280372379E+01  0.10208095910E+02 -0.76459075165E+01  0.14237597389E+02  0.51100000000E-03 0.  1.
         12    1    3    3    0    0  0.94339716646E+01  0.19476213040E+02 -0.52662210795E+01  0.22272309719E+02  0.00000000000E+00 0. -1.
</event>
<event>
 7    1  0.1476909E-008  0.4614232E+02  0.7816164E-02  0.1320468E+00
        -11   -1    0    0    0    0  0.00000000000E+00  0.00000000000E+00  0.45593999997E+02  0.45594000000E+02  0.51100000000E-03 0.  1.
         11   -1    0    0    0    0 -0.00000000000E+00 -0.00000000000E+00 -0.45593999997E+02  0.45594000000E+02  0.51100000000E-03 0. -1.
    9900012    2    1    2    0    0  0.39896911727E+02 -0.91533986120E+01  0.18803329360E+02  0.46142318003E+02  0.10000002210E+02 0.  0.
        -12    1    1    2    0    0 -0.39896911727E+02  0.91533986120E+01 -0.18803329360E+02  0.45045681997E+02  0.00000000000E+00 0.  1.
         11    1    3    3    0    0  0.48624874815E+01 -0.34183949533E+01  0.49797174818E+01  0.77541469566E+01  0.51100000000E-03 0.  1.
        -11    1    3    3    0    0  0.32660650205E+02 -0.47556437272E+01  0.13915531857E+02  0.35818657795E+02  0.51100000000E-03 0. -1.
         12    1    3    3    0    0  0.23737740404E+01 -0.97935993147E+00 -0.91919978914E-01  0.25695132521E+01  0.00000000000E+00 0. -1.
</event>
<event>
 7    1  0.1476909E-008  0.4614232E+02  0.7816164E-02  0.1320468E+00
        -11   -1    0    0    0    0  0.00000000000E+00  0.00000000000E+00  0.45593999997E+02  0.45594000000E+02  0.51100000000E-03 0.  1.
         11   -1    0    0    0    0 -0.00000000000E+00 -0.00000000000E+00 -0.45593999997E+02  0.45594000000E+02  0.51100000000E-03 0. -1.
    9900012    2    1    2    0    0 -0.36718086806E+02 -0.17854704689E+02 -0.19029059605E+02  0.46142317769E+02  0.10000000070E+02 0.  0.
        -12    1    1    2    0    0  0.36718086806E+02  0.17854704689E+02  0.19029059605E+02  0.45045682231E+02  0.00000000000E+00 0.  1.
         11    1    3    3    0    0 -0.11114796571E+02 -0.83802596400E+01 -0.37744592772E+01  0.14422690371E+02  0.51100000000E-03 0. -1.
        -11    1    3    3    0    0 -0.11412653187E+02 -0.16265070143E+01 -0.52641937202E+01  0.12673038847E+02  0.51100000000E-03 0.  1.
        -12    1    3    3    0    0 -0.14190637048E+02 -0.78479380346E+01 -0.99904066074E+01  0.19046588551E+02  0.00000000000E+00 0.  1.
</event>
<event>
 7    1  0.1476909E-008  0.4614232E+02  0.7816164E-02  0.1320468E+00
        -11   -1    0    0    0    0  0.00000000000E+00  0.00000000000E+00  0.45593999997E+02  0.45594000000E+02  0.51100000000E-03 0.  1.
         11   -1    0    0    0    0 -0.00000000000E+00 -0.00000000000E+00 -0.45593999997E+02  0.45594000000E+02  0.51100000000E-03 0. -1.
    9900012    2    1    2    0    0 -0.11846246509E+02  0.26692994188E+02 -0.34296705512E+02  0.46142317587E+02  0.99999984123E+01 0.  0.
        -12    1    1    2    0    0  0.11846246509E+02 -0.26692994188E+02  0.34296705512E+02  0.45045682413E+02  0.00000000000E+00 0.  1.
         11    1    3    3    0    0 -0.33112051415E+00  0.63087022428E+01 -0.40305192788E+01  0.74936273393E+01  0.51100000000E-03 0. -1.
        -11    1    3    3    0    0  0.39486309152E+00  0.74898668729E+00 -0.23643003354E+01  0.25113371450E+01  0.51100000000E-03 0.  1.
         12    1    3    3    0    0 -0.11909989087E+02  0.19635305258E+02 -0.27901885898E+02  0.36137353103E+02  0.00000000000E+00 0. -1.
</event>
<event>
 7    1  0.1476909E-008  0.4614232E+02  0.7816164E-02  0.1320468E+00
        -11   -1    0    0    0    0  0.00000000000E+00  0.00000000000E+00  0.45593999997E+02  0.45594000000E+02  0.51100000000E-03 0.  1.
         11   -1    0    0    0    0 -0.00000000000E+00 -0.00000000000E+00 -0.45593999997E+02  0.45594000000E+02  0.51100000000E-03 0. -1.
    9900012    2    1    2    0    0 -0.27424582377E+02 -0.60775561642E+01 -0.35214616350E+02  0.46142316387E+02  0.99999874740E+01 0.  0.
        -12    1    1    2    0    0  0.27424582377E+02  0.60775561642E+01  0.35214616350E+02  0.45045683613E+02  0.00000000000E+00 0.  1.
         11    1    3    3    0    0 -0.58727255563E+01  0.19334589636E+00 -0.62255054642E+01  0.85605611172E+01  0.51100000000E-03 0. -1.
        -11    1    3    3    0    0 -0.13687974653E+01  0.14386475187E+01 -0.99863554305E+00  0.22227429885E+01  0.51100000000E-03 0.  1.
        -12    1    3    3    0    0 -0.20183059355E+02 -0.77095495793E+01 -0.27990475342E+02  0.35359012282E+02  0.00000000000E+00 0.  1.
</event>
<event>
 7    1  0.1476909E-008  0.4614232E+02  0.7816164E-02  0.1320468E+00
        -11   -1    0    0    0    0  0.00000000000E+00  0.00000000000E+00  0.45593999997E+02  0.45594000000E+02  0.51100000000E-03 0. -1.
         11   -1    0    0    0    0 -0.00000000000E+00 -0.00000000000E+00 -0.45593999997E+02  0.45594000000E+02  0.51100000000E-03 0.  1.
    9900012    2    1    2    0    0 -0.43067400779E+02 -0.12731617717E+02  0.34955107004E+01  0.46142315472E+02  0.99999791222E+01 0.  0.
        -12    1    1    2    0    0  0.43067400779E+02  0.12731617717E+02 -0.34955107004E+01  0.45045684528E+02  0.00000000000E+00 0.  1.
         11    1    3    3    0    0 -0.21969944410E+02 -0.27969314692E+01  0.32347492013E+01  0.22382244875E+02  0.51100000000E-03 0. -1.
        -11    1    3    3    0    0 -0.42676764346E+01 -0.41625682972E+01  0.27666873709E+00  0.59679630387E+01  0.51100000000E-03 0.  1.
         12    1    3    3    0    0 -0.16829779935E+02 -0.57721179508E+01 -0.15907237934E-01  0.17792107558E+02  0.00000000000E+00 0. -1.
</event>
<event>
 7    1  0.1476909E-008  0.4614232E+02  0.7816164E-02  0.1320468E+00
        -11   -1    0    0    0    0  0.00000000000E+00  0.00000000000E+00  0.45593999997E+02  0.45594000000E+02  0.51100000000E-03 0. -1.
         11   -1    0    0    0    0 -0.00000000000E+00 -0.00000000000E+00 -0.45593999997E+02  0.45594000000E+02  0.51100000000E-03 0.  1.
    9900012    2    1    2    0    0 -0.25906172401E+01  0.42829517746E+02  0.13712567990E+02  0.46142318642E+02  0.10000008037E+02 0.  0.
        -12    1    1    2    0    0  0.25906172401E+01 -0.42829517746E+02 -0.13712567990E+02  0.45045681358E+02  0.00000000000E+00 0.  1.
         11    1    3    3    0    0  0.46651575770E+00  0.63901031748E+01  0.44481010700E+01  0.77997858257E+01  0.51100000000E-03 0. -1.
        -11    1    3    3    0    0  0.18126848771E+01  0.38851604457E+01  0.91953292061E+00  0.43847279512E+01  0.51100000000E-03 0.  1.
         12    1    3    3    0    0 -0.48698178749E+01  0.32554254126E+02  0.83449339995E+01  0.33957804866E+02  0.00000000000E+00 0. -1.
</event>
<event>
 7    1  0.1476909E-008  0.4614232E+02  0.7816164E-02  0.1320468E+00
        -11   -1    0    0    0    0  0.00000000000E+00  0.00000000000E+00  0.45593999997E+02  0.45594000000E+02  0.51100000000E-03 0.  1.
         11   -1    0    0    0    0 -0.00000000000E+00 -0.00000000000E+00 -0.45593999997E+02  0.45594000000E+02  0.51100000000E-03 0. -1.
    9900012    2    1    2    0    0  0.10066083337E+02 -0.10894303543E+02 -0.42533535005E+02  0.46142317816E+02  0.10000000500E+02 0.  0.
        -12    1    1    2    0    0 -0.10066083337E+02  0.10894303543E+02  0.42533535005E+02  0.45045682184E+02  0.00000000000E+00 0.  1.
         11    1    3    3    0    0  0.88099444118E+01 -0.39050330881E+01 -0.27927813426E+02  0.29543648505E+02  0.51100000000E-03 0. -1.
        -11    1    3    3    0    0  0.31983967926E+00 -0.10527720273E+01 -0.39443220498E+00  0.11688470333E+01  0.51100000000E-03 0.  1.
         12    1    3    3    0    0  0.93629924609E+00 -0.59364984275E+01 -0.14211289373E+02  0.15429822277E+02  0.00000000000E+00 0. -1.
</event>
<event>
 7    1  0.1476909E-008  0.4614232E+02  0.7816164E-02  0.1320468E+00
        -11   -1    0    0    0    0  0.00000000000E+00  0.00000000000E+00  0.45593999997E+02  0.45594000000E+02  0.51100000000E-03 0.  1.
         11   -1    0    0    0    0 -0.00000000000E+00 -0.00000000000E+00 -0.45593999997E+02  0.45594000000E+02  0.51100000000E-03 0. -1.
    9900012    2    1    2    0    0 -0.13398209457E+02  0.28103409831E+02 -0.32554565850E+02  0.46142318537E+02  0.10000007076E+02 0.  0.
        -12    1    1    2    0    0  0.13398209457E+02 -0.28103409831E+02  0.32554565850E+02  0.45045681463E+02  0.00000000000E+00 0.  1.
         11    1    3    3    0    0 -0.81501306029E+01  0.82570923610E+01 -0.12665279968E+02  0.17175957616E+02  0.51100000000E-03 0. -1.
        -11    1    3    3    0    0 -0.13827286207E+01  0.13443593720E+02 -0.13876212778E+02  0.19369858850E+02  0.51100000000E-03 0.  1.
        -12    1    3    3    0    0 -0.38653502337E+01  0.64027237496E+01 -0.60130731036E+01  0.95965020707E+01  0.00000000000E+00 0.  1.
</event>
<event>
 7    1  0.1476909E-008  0.4614232E+02  0.7816164E-02  0.1320468E+00
        -11   -1    0    0    0    0  0.00000000000E+00  0.00000000000E+00  0.45593999997E+02  0.45594000000E+02  0.51100000000E-03 0.  1.
         11   -1    0    0    0    0 -0.00000000000E+00 -0.00000000000E+00 -0.45593999997E+02  0.45594000000E+02  0.51100000000E-03 0. -1.
    9900012    2    1    2    0    0  0.13204398918E+02  0.80257766053E+01 -0.42312460272E+02  0.46142317241E+02  0.99999952607E+01 0.  0.
        -12    1    1    2    0    0 -0.13204398918E+02 -0.80257766053E+01  0.42312460272E+02  0.45045682759E+02  0.00000000000E+00 0.  1.
         11    1    3    3    0    0  0.20837471145E+01  0.84211122332E+00 -0.13739075376E+02  0.13921686170E+02  0.51100000000E-03 0. -1.
        -11    1    3    3    0    0  0.28246206183E+01 -0.11536011744E+01 -0.73086059535E+01  0.79199115243E+01  0.51100000000E-03 0.  1.
         12    1    3    3    0    0  0.82960311851E+01  0.83372665563E+01 -0.21264778942E+02  0.24300719547E+02  0.00000000000E+00 0. -1.
</event>
<event>
 7    1  0.1476909E-008  0.4614232E+02  0.7816164E-02  0.1320468E+00
        -11   -1    0    0    0    0  0.00000000000E+00  0.00000000000E+00  0.45593999997E+02  0.45594000000E+02  0.51100000000E-03 0.  1.
         11   -1    0    0    0    0 -0.00000000000E+00 -0.00000000000E+00 -0.45593999997E+02  0.45594000000E+02  0.51100000000E-03 0. -1.
    9900012    2    1    2    0    0  0.87769834259E+01  0.22887419188E+02 -0.37792109111E+02  0.46142324223E+02  0.10000058923E+02 0.  0.
        -12    1    1    2    0    0 -0.87769834259E+01 -0.22887419188E+02  0.37792109111E+02  0.45045675777E+02  0.00000000000E+00 0.  1.
         11    1    3    3    0    0  0.35970398450E+01  0.79141781089E+01 -0.21196834377E+02  0.22910231309E+02  0.51100000000E-03 0. -1.
        -11    1    3    3    0    0  0.34127845645E+01  0.66430904005E+01 -0.98920541106E+01  0.12394776454E+02  0.51100000000E-03 0.  1.
         12    1    3    3    0    0  0.17671590163E+01  0.83301506787E+01 -0.67032206239E+01  0.10837316460E+02  0.00000000000E+00 0. -1.
</event>
<event>
 7    1  0.1476909E-008  0.4614232E+02  0.7816164E-02  0.1320468E+00
        -11   -1    0    0    0    0  0.00000000000E+00  0.00000000000E+00  0.45593999997E+02  0.45594000000E+02  0.51100000000E-03 0.  1.
         11   -1    0    0    0    0 -0.00000000000E+00 -0.00000000000E+00 -0.45593999997E+02  0.45594000000E+02  0.51100000000E-03 0. -1.
    9900012    2    1    2    0    0 -0.11727155293E+02  0.42564860353E+02 -0.89342003297E+01  0.46142318257E+02  0.10000004525E+02 0.  0.
        -12    1    1    2    0    0  0.11727155293E+02 -0.42564860353E+02  0.89342003297E+01  0.45045681743E+02  0.00000000000E+00 0.  1.
         11    1    3    3    0    0 -0.78502590426E+00  0.39591012892E+01 -0.15082005985E+01  0.43087606101E+01  0.51100000000E-03 0. -1.
        -11    1    3    3    0    0 -0.55594089502E+01  0.84738311396E+01  0.71675424884E+00  0.10160048178E+02  0.51100000000E-03 0.  1.
        -12    1    3    3    0    0 -0.53827204388E+01  0.30131927924E+02 -0.81427539800E+01  0.31673509470E+02  0.00000000000E+00 0.  1.
</event>
<event>
 7    1  0.1476909E-008  0.4614232E+02  0.7816164E-02  0.1320468E+00
        -11   -1    0    0    0    0  0.00000000000E+00  0.00000000000E+00  0.45593999997E+02  0.45594000000E+02  0.51100000000E-03 0. -1.
         11   -1    0    0    0    0 -0.00000000000E+00 -0.00000000000E+00 -0.45593999997E+02  0.45594000000E+02  0.51100000000E-03 0.  1.
    9900012    2    1    2    0    0 -0.20522729045E+02  0.22482301917E+02  0.33203572415E+02  0.46142317320E+02  0.99999959819E+01 0.  0.
        -12    1    1    2    0    0  0.20522729045E+02 -0.22482301917E+02 -0.33203572415E+02  0.45045682680E+02  0.00000000000E+00 0.  1.
         11    1    3    3    0    0 -0.14658588528E+02  0.12920738043E+02  0.26438435907E+02  0.32875683760E+02  0.51100000000E-03 0. -1.
        -11    1    3    3    0    0 -0.42064720953E+01  0.80815281135E+01  0.47884152958E+01  0.10292445066E+02  0.51100000000E-03 0.  1.
        -12    1    3    3    0    0 -0.16576684212E+01  0.14800357602E+01  0.19767212126E+01  0.29741884941E+01  0.00000000000E+00 0.  1.
</event>
<event>
 7    1  0.1476909E-008  0.4614232E+02  0.7816164E-02  0.1320468E+00
        -11   -1    0    0    0    0  0.00000000000E+00  0.00000000000E+00  0.45593999997E+02  0.45594000000E+02  0.51100000000E-03 0. -1.
         11   -1    0    0    0    0 -0.00000000000E+00 -0.00000000000E+00 -0.45593999997E+02  0.45594000000E+02  0.51100000000E-03 0.  1.
    9900012    2    1    2    0    0  0.37912594110E+02 -0.24091052727E+02  0.33719256972E+01  0.46142317671E+02  0.99999991762E+01 0.  0.
        -12    1    1    2    0    0 -0.37912594110E+02  0.24091052727E+02 -0.33719256972E+01  0.45045682329E+02  0.00000000000E+00 0.  1.
         11    1    3    3    0    0  0.31244439859E+02 -0.17512322528E+02  0.15585452285E+01  0.35851436874E+02  0.51100000000E-03 0. -1.
        -11    1    3    3    0    0  0.40532108122E+01 -0.16440236582E+01  0.17353237769E+01  0.47056009764E+01  0.51100000000E-03 0.  1.
         12    1    3    3    0    0  0.26149434383E+01 -0.49347065406E+01  0.78056691725E-01  0.55852798206E+01  0.00000000000E+00 0. -1.
</event>
<event>
 7    1  0.1476909E-008  0.4614232E+02  0.7816164E-02  0.1320468E+00
        -11   -1    0    0    0    0  0.00000000000E+00  0.00000000000E+00  0.45593999997E+02  0.45594000000E+02  0.51100000000E-03 0.  1.
         11   -1    0    0    0    0 -0.00000000000E+00 -0.00000000000E+00 -0.45593999997E+02  0.45594000000E+02  0.51100000000E-03 0. -1.
    9900012    2    1    2    0    0  0.13825354710E+02 -0.33231042543E+02 -0.27086359631E+02  0.46142317638E+02  0.99999988800E+01 0.  0.
        -12    1    1    2    0    0 -0.13825354710E+02  0.33231042543E+02  0.27086359631E+02  0.45045682362E+02  0.00000000000E+00 0.  1.
         11    1    3    3    0    0  0.11520571938E+02 -0.24704660640E+02 -0.19932722582E+02  0.33769176254E+02  0.51100000000E-03 0. -1.
        -11    1    3    3    0    0  0.97381287885E+00 -0.45429846411E+01 -0.73706066503E+00  0.47042831183E+01  0.51100000000E-03 0.  1.
         12    1    3    3    0    0  0.13309698934E+01 -0.39833972624E+01 -0.64165763841E+01  0.76688582657E+01  0.00000000000E+00 0. -1.
</event>
<event>
 7    1  0.1476909E-008  0.4614232E+02  0.7816164E-02  0.1320468E+00
        -11   -1    0    0    0    0  0.00000000000E+00  0.00000000000E+00  0.45593999997E+02  0.45594000000E+02  0.51100000000E-03 0. -1.
         11   -1    0    0    0    0 -0.00000000000E+00 -0.00000000000E+00 -0.45593999997E+02  0.45594000000E+02  0.51100000000E-03 0.  1.
    9900012    2    1    2    0    0  0.27315788869E+02  0.25956458305E+02 -0.24682446628E+02  0.46142320731E+02  0.10000027080E+02 0.  0.
        -12    1    1    2    0    0 -0.27315788869E+02 -0.25956458305E+02  0.24682446628E+02  0.45045679269E+02  0.00000000000E+00 0.  1.
         11    1    3    3    0    0  0.13997227849E+02  0.17115366774E+02 -0.11215540503E+02  0.24792065592E+02  0.51100000000E-03 0. -1.
        -11    1    3    3    0    0  0.46885844495E+01  0.48542972089E+01 -0.76673423485E+01  0.10214458600E+02  0.51100000000E-03 0.  1.
         12    1    3    3    0    0  0.86299765703E+01  0.39867943223E+01 -0.57995637762E+01  0.11135796539E+02  0.00000000000E+00 0. -1.
</event>
<event>
 7    1  0.1476909E-008  0.4614232E+02  0.7816164E-02  0.1320468E+00
        -11   -1    0    0    0    0  0.00000000000E+00  0.00000000000E+00  0.45593999997E+02  0.45594000000E+02  0.51100000000E-03 0.  1.
         11   -1    0    0    0    0 -0.00000000000E+00 -0.00000000000E+00 -0.45593999997E+02  0.45594000000E+02  0.51100000000E-03 0. -1.
    9900012    2    1    2    0    0  0.89461315131E+01 -0.43919811534E+02  0.44866865946E+01  0.46142317956E+02  0.10000001774E+02 0.  0.
        -12    1    1    2    0    0 -0.89461315131E+01  0.43919811534E+02 -0.44866865946E+01  0.45045682044E+02  0.00000000000E+00 0.  1.
         11    1    3    3    0    0  0.76144712109E+01 -0.21343480507E+02  0.33438953132E+01  0.22906461274E+02  0.51100000000E-03 0. -1.
        -11    1    3    3    0    0  0.44596748093E-01 -0.14686911516E+02  0.30897378855E+01  0.15008458922E+02  0.51100000000E-03 0.  1.
        -12    1    3    3    0    0  0.12870635542E+01 -0.78894195104E+01 -0.19469466041E+01  0.82273977589E+01  0.00000000000E+00 0.  1.
</event>
<event>
 7    1  0.1476909E-008  0.4614232E+02  0.7816164E-02  0.1320468E+00
        -11   -1    0    0    0    0  0.00000000000E+00  0.00000000000E+00  0.45593999997E+02  0.45594000000E+02  0.51100000000E-03 0.  1.
         11   -1    0    0    0    0 -0.00000000000E+00 -0.00000000000E+00 -0.45593999997E+02  0.45594000000E+02  0.51100000000E-03 0. -1.
    9900012    2    1    2    0    0 -0.42096793942E+02  0.13609088120E+02  0.84714937033E+01  0.46142317130E+02  0.99999942484E+01 0.  0.
        -12    1    1    2    0    0  0.42096793942E+02 -0.13609088120E+02 -0.84714937033E+01  0.45045682870E+02  0.00000000000E+00 0.  1.
         11    1    3    3    0    0 -0.22226031685E+02  0.77445232679E+01  0.28224385535E+01  0.23705279681E+02  0.51100000000E-03 0. -1.
        -11    1    3    3    0    0 -0.41220496303E+01 -0.55648409596E+00 -0.82249333762E+00  0.42399838744E+01  0.51100000000E-03 0.  1.
        -12    1    3    3    0    0 -0.15748712626E+02  0.64210489480E+01  0.64715484874E+01  0.18197053575E+02  0.00000000000E+00 0.  1.
</event>
<event>
 7    1  0.1476909E-008  0.4614232E+02  0.7816164E-02  0.1320468E+00
        -11   -1    0    0    0    0  0.00000000000E+00  0.00000000000E+00  0.45593999997E+02  0.45594000000E+02  0.51100000000E-03 0.  1.
         11   -1    0    0    0    0 -0.00000000000E+00 -0.00000000000E+00 -0.45593999997E+02  0.45594000000E+02  0.51100000000E-03 0. -1.
    9900012    2    1    2    0    0  0.37327512327E+02  0.22326818605E+02  0.11716804306E+02  0.46142317535E+02  0.99999979371E+01 0.  0.
        -12    1    1    2    0    0 -0.37327512327E+02 -0.22326818605E+02 -0.11716804306E+02  0.45045682465E+02  0.00000000000E+00 0.  1.
         11    1    3    3    0    0  0.61787703684E+01  0.35726509605E+01 -0.13272608580E+01  0.72596597577E+01  0.51100000000E-03 0. -1.
        -11    1    3    3    0    0  0.31846561223E+01  0.80957449179E+00  0.21024152250E+01  0.39009736624E+01  0.51100000000E-03 0.  1.
         12    1    3    3    0    0  0.27964085837E+02  0.17944593153E+02  0.10941649939E+02  0.34981684115E+02  0.00000000000E+00 0. -1.
</event>
<event>
 7    1  0.1476909E-008  0.4614232E+02  0.7816164E-02  0.1320468E+00
        -11   -1    0    0    0    0  0.00000000000E+00  0.00000000000E+00  0.45593999997E+02  0.45594000000E+02  0.51100000000E-03 0. -1.
         11   -1    0    0    0    0 -0.00000000000E+00 -0.00000000000E+00 -0.45593999997E+02  0.45594000000E+02  0.51100000000E-03 0.  1.
    9900012    2    1    2    0    0 -0.35143044747E+01 -0.14633927197E+02  0.42457170112E+02  0.46142318131E+02  0.10000003371E+02 0.  0.
        -12    1    1    2    0    0  0.35143044747E+01  0.14633927197E+02 -0.42457170112E+02  0.45045681869E+02  0.00000000000E+00 0.  1.
         11    1    3    3    0    0 -0.22265671639E+01 -0.48410439432E+01  0.14666401717E+02  0.15604379109E+02  0.51100000000E-03 0. -1.
        -11    1    3    3    0    0 -0.38797213006E+01 -0.26059356137E+01  0.72868236818E+01  0.86568433868E+01  0.51100000000E-03 0.  1.
        -12    1    3    3    0    0  0.25919839898E+01 -0.71869476399E+01  0.20503944713E+02  0.21881095635E+02  0.00000000000E+00 0.  1.
</event>
<event>
 7    1  0.1476909E-008  0.4614232E+02  0.7816164E-02  0.1320468E+00
        -11   -1    0    0    0    0  0.00000000000E+00  0.00000000000E+00  0.45593999997E+02  0.45594000000E+02  0.51100000000E-03 0. -1.
         11   -1    0    0    0    0 -0.00000000000E+00 -0.00000000000E+00 -0.45593999997E+02  0.45594000000E+02  0.51100000000E-03 0.  1.
    9900012    2    1    2    0    0 -0.18185489086E+02 -0.39793575384E+02  0.10717869069E+02  0.46142319047E+02  0.10000011725E+02 0.  0.
        -12    1    1    2    0    0  0.18185489086E+02  0.39793575384E+02 -0.10717869069E+02  0.45045680953E+02  0.00000000000E+00 0.  1.
         11    1    3    3    0    0 -0.99389141210E+01 -0.29770964173E+02  0.89676981695E+01  0.32642180265E+02  0.51100000000E-03 0. -1.
        -11    1    3    3    0    0 -0.82763736124E+01 -0.91663987111E+01  0.21812056308E+01  0.12541087822E+02  0.51100000000E-03 0.  1.
        -12    1    3    3    0    0  0.29798647816E-01 -0.85621249990E+00 -0.43103473094E+00  0.95905095990E+00  0.00000000000E+00 0.  1.
</event>
<event>
 7    1  0.1476909E-008  0.4614232E+02  0.7816164E-02  0.1320468E+00
        -11   -1    0    0    0    0  0.00000000000E+00  0.00000000000E+00  0.45593999997E+02  0.45594000000E+02  0.51100000000E-03 0.  1.
         11   -1    0    0    0    0 -0.00000000000E+00 -0.00000000000E+00 -0.45593999997E+02  0.45594000000E+02  0.51100000000E-03 0. -1.
    9900012    2    1    2    0    0 -0.42573618163E+02 -0.81536743873E+01 -0.12252272095E+02  0.46142317177E+02  0.99999946749E+01 0.  0.
        -12    1    1    2    0    0  0.42573618163E+02  0.81536743873E+01  0.12252272095E+02  0.45045682823E+02  0.00000000000E+00 0.  1.
         11    1    3    3    0    0 -0.28326122728E+02 -0.13698682079E+01 -0.89783088171E+01  0.29746525801E+02  0.51100000000E-03 0. -1.
        -11    1    3    3    0    0 -0.49180224275E+01 -0.20459469452E+01 -0.25545893557E+01  0.59075181369E+01  0.51100000000E-03 0.  1.
         12    1    3    3    0    0 -0.93294730069E+01 -0.47378592341E+01 -0.71937392212E+00  0.10488273240E+02  0.00000000000E+00 0. -1.
</event>
<event>
 7    1  0.1476909E-008  0.4614232E+02  0.7816164E-02  0.1320468E+00
        -11   -1    0    0    0    0  0.00000000000E+00  0.00000000000E+00  0.45593999997E+02  0.45594000000E+02  0.51100000000E-03 0.  1.
         11   -1    0    0    0    0 -0.00000000000E+00 -0.00000000000E+00 -0.45593999997E+02  0.45594000000E+02  0.51100000000E-03 0. -1.
    9900012    2    1    2    0    0  0.44904658588E+02  0.16919936959E+00 -0.35575664886E+01  0.46142320177E+02  0.10000022033E+02 0.  0.
        -12    1    1    2    0    0 -0.44904658588E+02 -0.16919936959E+00  0.35575664886E+01  0.45045679823E+02  0.00000000000E+00 0.  1.
         11    1    3    3    0    0  0.21761493339E+02 -0.10884596059E+01 -0.38084935678E+01  0.22119040670E+02  0.51100000000E-03 0. -1.
        -11    1    3    3    0    0  0.13706157060E+02 -0.12967513644E-01  0.31618114389E+01  0.14066128158E+02  0.51100000000E-03 0.  1.
         12    1    3    3    0    0  0.94370081892E+01  0.12706264891E+01 -0.29108843597E+01  0.99571513494E+01  0.00000000000E+00 0. -1.
</event>
<event>
 7    1  0.1476909E-008  0.4614232E+02  0.7816164E-02  0.1320468E+00
        -11   -1    0    0    0    0  0.00000000000E+00  0.00000000000E+00  0.45593999997E+02  0.45594000000E+02  0.51100000000E-03 0.  1.
         11   -1    0    0    0    0 -0.00000000000E+00 -0.00000000000E+00 -0.45593999997E+02  0.45594000000E+02  0.51100000000E-03 0. -1.
    9900012    2    1    2    0    0  0.44607377550E+02  0.32025251919E+01 -0.53888045656E+01  0.46142317475E+02  0.99999973909E+01 0.  0.
        -12    1    1    2    0    0 -0.44607377550E+02 -0.32025251919E+01  0.53888045656E+01  0.45045682525E+02  0.00000000000E+00 0.  1.
         11    1    3    3    0    0  0.36553230111E+02  0.37174719147E+01 -0.70974185974E+01  0.37421004530E+02  0.51100000000E-03 0. -1.
        -11    1    3    3    0    0  0.18736738248E-01 -0.29964637156E+00  0.51326499272E+00  0.59462612390E+00  0.51100000000E-03 0.  1.
         12    1    3    3    0    0  0.80354107007E+01 -0.21530035123E+00  0.11953490391E+01  0.81266868215E+01  0.00000000000E+00 0. -1.
</event>
<event>
 7    1  0.1476909E-008  0.4614232E+02  0.7816164E-02  0.1320468E+00
        -11   -1    0    0    0    0  0.00000000000E+00  0.00000000000E+00  0.45593999997E+02  0.45594000000E+02  0.51100000000E-03 0.  1.
         11   -1    0    0    0    0 -0.00000000000E+00 -0.00000000000E+00 -0.45593999997E+02  0.45594000000E+02  0.51100000000E-03 0. -1.
    9900012    2    1    2    0    0  0.38911547499E+02  0.22021375701E+02 -0.54830501816E+01  0.46142319233E+02  0.10000013419E+02 0.  0.
        -12    1    1    2    0    0 -0.38911547499E+02 -0.22021375701E+02  0.54830501816E+01  0.45045680767E+02  0.00000000000E+00 0.  1.
         11    1    3    3    0    0  0.24721727790E+02  0.14432798433E+02  0.85416854241E+00  0.28639118347E+02  0.51100000000E-03 0. -1.
        -11    1    3    3    0    0  0.13501960762E+02  0.77552582385E+01 -0.58048206927E+01  0.16617548504E+02  0.51100000000E-03 0.  1.
         12    1    3    3    0    0  0.68785894758E+00 -0.16668097091E+00 -0.53239803137E+00  0.88565238194E+00  0.00000000000E+00 0. -1.
</event>
<event>
 7    1  0.1476909E-008  0.4614232E+02  0.7816164E-02  0.1320468E+00
        -11   -1    0    0    0    0  0.00000000000E+00  0.00000000000E+00  0.45593999997E+02  0.45594000000E+02  0.51100000000E-03 0. -1.
         11   -1    0    0    0    0 -0.00000000000E+00 -0.00000000000E+00 -0.45593999997E+02  0.45594000000E+02  0.51100000000E-03 0.  1.
    9900012    2    1    2    0    0 -0.89394156092E+01 -0.15335760865E+02  0.41400661709E+02  0.46142317602E+02  0.99999985526E+01 0.  0.
        -12    1    1    2    0    0  0.89394156092E+01  0.15335760865E+02 -0.41400661709E+02  0.45045682398E+02  0.00000000000E+00 0.  1.
         11    1    3    3    0    0 -0.12944579832E+01 -0.86050436762E+00  0.45044653283E+01  0.47651125267E+01  0.51100000000E-03 0. -1.
        -11    1    3    3    0    0 -0.27837521068E+01 -0.10165776175E+02  0.13681450168E+02  0.17270621297E+02  0.51100000000E-03 0.  1.
        -12    1    3    3    0    0 -0.48612055191E+01 -0.43094803221E+01  0.23214746213E+02  0.24106583778E+02  0.00000000000E+00 0.  1.
</event>
<event>
 7    1  0.1476909E-008  0.4614233E+02  0.7816164E-02  0.1320468E+00
        -11   -1    0    0    0    0  0.00000000000E+00  0.00000000000E+00  0.45593999997E+02  0.45594000000E+02  0.51100000000E-03 0.  1.
         11   -1    0    0    0    0 -0.00000000000E+00 -0.00000000000E+00 -0.45593999997E+02  0.45594000000E+02  0.51100000000E-03 0. -1.
    9900012    2    1    2    0    0 -0.29746228074E+02 -0.12375132380E+01 -0.33804480328E+02  0.46142329688E+02  0.10000108754E+02 0.  0.
        -12    1    1    2    0    0  0.29746228074E+02  0.12375132380E+01  0.33804480328E+02  0.45045670312E+02  0.00000000000E+00 0.  1.
         11    1    3    3    0    0 -0.14795475598E+02 -0.22060941221E+01 -0.14813512169E+02  0.21052626737E+02  0.51100000000E-03 0. -1.
        -11    1    3    3    0    0 -0.10372399069E+02  0.26650557469E+01 -0.16332031191E+02  0.19530090313E+02  0.51100000000E-03 0.  1.
        -12    1    3    3    0    0 -0.45783534069E+01 -0.16964748628E+01 -0.26589369680E+01  0.55596126375E+01  0.00000000000E+00 0.  1.
</event>
<event>
 7    1  0.1476909E-008  0.4614232E+02  0.7816164E-02  0.1320468E+00
        -11   -1    0    0    0    0  0.00000000000E+00  0.00000000000E+00  0.45593999997E+02  0.45594000000E+02  0.51100000000E-03 0.  1.
         11   -1    0    0    0    0 -0.00000000000E+00 -0.00000000000E+00 -0.45593999997E+02  0.45594000000E+02  0.51100000000E-03 0. -1.
    9900012    2    1    2    0    0  0.71358936186E+01 -0.38436031107E+01 -0.44310486848E+02  0.46142317551E+02  0.99999980851E+01 0.  0.
        -12    1    1    2    0    0 -0.71358936186E+01  0.38436031107E+01  0.44310486848E+02  0.45045682449E+02  0.00000000000E+00 0.  1.
         11    1    3    3    0    0  0.26279928916E+01  0.24730167088E+01 -0.17247415081E+02  0.17620882086E+02  0.51100000000E-03 0. -1.
        -11    1    3    3    0    0 -0.13392956750E+00 -0.36450730270E+01 -0.11060746804E+02  0.11646656800E+02  0.51100000000E-03 0.  1.
         12    1    3    3    0    0  0.46418302944E+01 -0.26715467926E+01 -0.16002324963E+02  0.16874778665E+02  0.00000000000E+00 0. -1.
</event>
<event>
 7    1  0.1476909E-008  0.4614232E+02  0.7816164E-02  0.1320468E+00
        -11   -1    0    0    0    0  0.00000000000E+00  0.00000000000E+00  0.45593999997E+02  0.45594000000E+02  0.51100000000E-03 0.  1.
         11   -1    0    0    0    0 -0.00000000000E+00 -0.00000000000E+00 -0.45593999997E+02  0.45594000000E+02  0.51100000000E-03 0. -1.
    9900012    2    1    2    0    0  0.32181918902E+02 -0.31468735747E+02 -0.17766105512E+01  0.46142316758E+02  0.99999908492E+01 0.  0.
        -12    1    1    2    0    0 -0.32181918902E+02  0.31468735747E+02  0.17766105512E+01  0.45045683242E+02  0.00000000000E+00 0.  1.
         11    1    3    3    0    0  0.24162755453E+02 -0.19522996261E+02 -0.16934341526E+01  0.31110349622E+02  0.51100000000E-03 0. -1.
        -11    1    3    3    0    0  0.44443610190E+01 -0.10013900225E+02 -0.33289580466E+00  0.10960901535E+02  0.51100000000E-03 0.  1.
        -12    1    3    3    0    0  0.35748024301E+01 -0.19318392605E+01  0.24971940604E+00  0.40710656006E+01  0.00000000000E+00 0.  1.
</event>
<event>
 7    1  0.1476909E-008  0.4614232E+02  0.7816164E-02  0.1320468E+00
        -11   -1    0    0    0    0  0.00000000000E+00  0.00000000000E+00  0.45593999997E+02  0.45594000000E+02  0.51100000000E-03 0.  1.
         11   -1    0    0    0    0 -0.00000000000E+00 -0.00000000000E+00 -0.45593999997E+02  0.45594000000E+02  0.51100000000E-03 0. -1.
    9900012    2    1    2    0    0  0.58298103796E+01 -0.22697433258E+02 -0.38470158205E+02  0.46142320542E+02  0.10000025356E+02 0.  0.
        -12    1    1    2    0    0 -0.58298103796E+01  0.22697433258E+02  0.38470158205E+02  0.45045679458E+02  0.00000000000E+00 0.  1.
         11    1    3    3    0    0  0.67750836656E-01 -0.99797974958E+01 -0.17006310263E+02  0.19718406053E+02  0.51100000000E-03 0. -1.
        -11    1    3    3    0    0  0.28396403176E+01 -0.95027345303E+01 -0.18990919250E+02  0.21424764524E+02  0.51100000000E-03 0.  1.
        -12    1    3    3    0    0  0.29224192253E+01 -0.32149012321E+01 -0.24729286915E+01  0.49991499651E+01  0.00000000000E+00 0.  1.
</event>
<event>
 7    1  0.1476909E-008  0.4614232E+02  0.7816164E-02  0.1320468E+00
        -11   -1    0    0    0    0  0.00000000000E+00  0.00000000000E+00  0.45593999997E+02  0.45594000000E+02  0.51100000000E-03 0.  1.
         11   -1    0    0    0    0 -0.00000000000E+00 -0.00000000000E+00 -0.45593999997E+02  0.45594000000E+02  0.51100000000E-03 0. -1.
    9900012    2    1    2    0    0 -0.13555771530E+02 -0.61111087704E+01 -0.42520688356E+02  0.46142317294E+02  0.99999957382E+01 0.  0.
        -12    1    1    2    0    0  0.13555771530E+02  0.61111087704E+01  0.42520688356E+02  0.45045682706E+02  0.00000000000E+00 0.  1.
         11    1    3    3    0    0 -0.10562368574E+02 -0.54551989005E+01 -0.30503277341E+02  0.32737940585E+02  0.51100000000E-03 0. -1.
        -11    1    3    3    0    0 -0.10108237918E+01  0.22191099171E+01 -0.52666420945E+01  0.58037688423E+01  0.51100000000E-03 0.  1.
        -12    1    3    3    0    0 -0.19825791637E+01 -0.28750197871E+01 -0.67507689213E+01  0.76006078668E+01  0.00000000000E+00 0.  1.
</event>
<event>
 7    1  0.1696434E-008  0.4614232E+02  0.7816164E-02  0.1320468E+00
        -11   -1    0    0    0    0  0.00000000000E+00  0.00000000000E+00  0.45593999997E+02  0.45594000000E+02  0.51100000000E-03 0. -1.
         11   -1    0    0    0    0 -0.00000000000E+00 -0.00000000000E+00 -0.45593999997E+02  0.45594000000E+02  0.51100000000E-03 0.  1.
    9900012    2    1    2    0    0  0.93664145319E+01  0.26410516101E+02  0.35268517752E+02  0.46142318450E+02  0.10000006283E+02 0.  0.
        -12    1    1    2    0    0 -0.93664145319E+01 -0.26410516101E+02 -0.35268517752E+02  0.45045681550E+02  0.00000000000E+00 0.  1.
         11    1    3    3    0    0  0.71957661384E+01  0.17985875531E+02  0.24070802491E+02  0.30897804157E+02  0.51100000000E-03 0. -1.
        -11    1    3    3    0    0 -0.11926355042E+01  0.19392026581E+01  0.56810824958E+00  0.23464086684E+01  0.51100000000E-03 0.  1.
        -12    1    3    3    0    0  0.33632838977E+01  0.64854379116E+01  0.10629607011E+02  0.12898105624E+02  0.00000000000E+00 0.  1.
</event>
<event>
 7    1  0.1476909E-008  0.4614232E+02  0.7816164E-02  0.1320468E+00
        -11   -1    0    0    0    0  0.00000000000E+00  0.00000000000E+00  0.45593999997E+02  0.45594000000E+02  0.51100000000E-03 0.  1.
         11   -1    0    0    0    0 -0.00000000000E+00 -0.00000000000E+00 -0.45593999997E+02  0.45594000000E+02  0.51100000000E-03 0. -1.
    9900012    2    1    2    0    0 -0.39425789769E+02  0.41824821901E+00 -0.21784068149E+02  0.46142318125E+02  0.10000003315E+02 0.  0.
        -12    1    1    2    0    0  0.39425789769E+02 -0.41824821901E+00  0.21784068149E+02  0.45045681875E+02  0.00000000000E+00 0.  1.
         11    1    3    3    0    0 -0.25729419950E+02  0.13597764613E+01 -0.12400828365E+02  0.28594275430E+02  0.51100000000E-03 0. -1.
        -11    1    3    3    0    0 -0.17037459015E+01  0.16249864458E+01 -0.26953700352E+01  0.35788756522E+01  0.51100000000E-03 0.  1.
        -12    1    3    3    0    0 -0.11992623918E+02 -0.25665146881E+01 -0.66878697486E+01  0.13969167042E+02  0.00000000000E+00 0.  1.
</event>
<event>
 7    1  0.1476909E-008  0.4614232E+02  0.7816164E-02  0.1320468E+00
        -11   -1    0    0    0    0  0.00000000000E+00  0.00000000000E+00  0.45593999997E+02  0.45594000000E+02  0.51100000000E-03 0.  1.
         11   -1    0    0    0    0 -0.00000000000E+00 -0.00000000000E+00 -0.45593999997E+02  0.45594000000E+02  0.51100000000E-03 0. -1.
    9900012    2    1    2    0    0 -0.76391962158E+01  0.13094907618E+02 -0.42417916728E+02  0.46142316700E+02  0.99999903275E+01 0.  0.
        -12    1    1    2    0    0  0.76391962158E+01 -0.13094907618E+02  0.42417916728E+02  0.45045683300E+02  0.00000000000E+00 0.  1.
         11    1    3    3    0    0 -0.76580890936E+01  0.96477893448E+01 -0.24557124582E+02  0.27473233079E+02  0.51100000000E-03 0. -1.
        -11    1    3    3    0    0 -0.19184299265E+00  0.14735685312E+01 -0.12548674458E+01  0.19449679991E+01  0.51100000000E-03 0.  1.
         12    1    3    3    0    0  0.21073587049E+00  0.19735497422E+01 -0.16605924700E+02  0.16724115622E+02  0.00000000000E+00 0. -1.
</event>
<event>
 7    1  0.1476909E-008  0.4614232E+02  0.7816164E-02  0.1320468E+00
        -11   -1    0    0    0    0  0.00000000000E+00  0.00000000000E+00  0.45593999997E+02  0.45594000000E+02  0.51100000000E-03 0.  1.
         11   -1    0    0    0    0 -0.00000000000E+00 -0.00000000000E+00 -0.45593999997E+02  0.45594000000E+02  0.51100000000E-03 0. -1.
    9900012    2    1    2    0    0  0.19032659992E+02 -0.39445776597E+01 -0.40636334964E+02  0.46142316982E+02  0.99999928945E+01 0.  0.
        -12    1    1    2    0    0 -0.19032659992E+02  0.39445776597E+01  0.40636334964E+02  0.45045683018E+02  0.00000000000E+00 0.  1.
         11    1    3    3    0    0  0.14335618860E+02 -0.92966837854E+00 -0.32328297509E+02  0.35376447977E+02  0.51100000000E-03 0. -1.
        -11    1    3    3    0    0  0.31562980446E+01 -0.36280561193E+01 -0.43897863083E+01  0.65111621577E+01  0.51100000000E-03 0.  1.
        -12    1    3    3    0    0  0.15407430870E+01  0.61314683816E+00 -0.39182511467E+01  0.42547068470E+01  0.00000000000E+00 0.  1.
</event>
<event>
 7    1  0.1476909E-008  0.4614232E+02  0.7816164E-02  0.1320468E+00
        -11   -1    0    0    0    0  0.00000000000E+00  0.00000000000E+00  0.45593999997E+02  0.45594000000E+02  0.51100000000E-03 0.  1.
         11   -1    0    0    0    0 -0.00000000000E+00 -0.00000000000E+00 -0.45593999997E+02  0.45594000000E+02  0.51100000000E-03 0. -1.
    9900012    2    1    2    0    0  0.43698847224E+01 -0.15872057220E+02 -0.41929646452E+02  0.46142319359E+02  0.10000014569E+02 0.  0.
        -12    1    1    2    0    0 -0.43698847224E+01  0.15872057220E+02  0.41929646452E+02  0.45045680641E+02  0.00000000000E+00 0.  1.
         11    1    3    3    0    0  0.26647819156E+01 -0.28716055397E+01 -0.15937438232E+02  0.16411859087E+02  0.51100000000E-03 0. -1.
        -11    1    3    3    0    0  0.20739272101E-01 -0.86761840293E+01 -0.10846225061E+02  0.13889463552E+02  0.51100000000E-03 0.  1.
        -12    1    3    3    0    0  0.16843635346E+01 -0.43242676508E+01 -0.15145983159E+02  0.15840996720E+02  0.00000000000E+00 0.  1.
</event>
<event>
 7    1  0.1476909E-008  0.4614232E+02  0.7816164E-02  0.1320468E+00
        -11   -1    0    0    0    0  0.00000000000E+00  0.00000000000E+00  0.45593999997E+02  0.45594000000E+02  0.51100000000E-03 0. -1.
         11   -1    0    0    0    0 -0.00000000000E+00 -0.00000000000E+00 -0.45593999997E+02  0.45594000000E+02  0.51100000000E-03 0.  1.
    9900012    2    1    2    0    0 -0.42559162137E+02 -0.14550206710E+02  0.24743828212E+01  0.46142319103E+02  0.10000012235E+02 0.  0.
        -12    1    1    2    0    0  0.42559162137E+02  0.14550206710E+02 -0.24743828212E+01  0.45045680897E+02  0.00000000000E+00 0.  1.
         11    1    3    3    0    0 -0.18224074165E+02 -0.70471819939E+01  0.43355738593E+00  0.19543992056E+02  0.51100000000E-03 0. -1.
        -11    1    3    3    0    0 -0.12870927822E+02 -0.48315901167E+00  0.26175826995E+01  0.13143285932E+02  0.51100000000E-03 0.  1.
         12    1    3    3    0    0 -0.11464160150E+02 -0.70198657046E+01 -0.57675726420E+00  0.13455041114E+02  0.00000000000E+00 0. -1.
</event>
<event>
 7    1  0.1476909E-008  0.4614232E+02  0.7816164E-02  0.1320468E+00
        -11   -1    0    0    0    0  0.00000000000E+00  0.00000000000E+00  0.45593999997E+02  0.45594000000E+02  0.51100000000E-03 0. -1.
         11   -1    0    0    0    0 -0.00000000000E+00 -0.00000000000E+00 -0.45593999997E+02  0.45594000000E+02  0.51100000000E-03 0.  1.
    9900012    2    1    2    0    0  0.30532437890E+02 -0.11028377386E+02  0.31229130885E+02  0.46142317776E+02  0.10000000132E+02 0.  0.
        -12    1    1    2    0    0 -0.30532437890E+02  0.11028377386E+02 -0.31229130885E+02  0.45045682224E+02  0.00000000000E+00 0.  1.
         11    1    3    3    0    0  0.10787462048E+02 -0.64720338113E+01  0.10690262393E+02  0.16508733125E+02  0.51100000000E-03 0. -1.
        -11    1    3    3    0    0  0.27512508855E+01  0.10080131500E+01  0.88133591378E+00  0.30597753511E+01  0.51100000000E-03 0.  1.
        -12    1    3    3    0    0  0.16993724956E+02 -0.55643567252E+01  0.19657532578E+02  0.26573809300E+02  0.00000000000E+00 0.  1.
</event>
<event>
 7    1  0.1476909E-008  0.4614232E+02  0.7816164E-02  0.1320468E+00
        -11   -1    0    0    0    0  0.00000000000E+00  0.00000000000E+00  0.45593999997E+02  0.45594000000E+02  0.51100000000E-03 0.  1.
         11   -1    0    0    0    0 -0.00000000000E+00 -0.00000000000E+00 -0.45593999997E+02  0.45594000000E+02  0.51100000000E-03 0. -1.
    9900012    2    1    2    0    0 -0.44225978409E+02 -0.58245421376E+01 -0.62650628737E+01  0.46142317963E+02  0.10000001844E+02 0.  0.
        -12    1    1    2    0    0  0.44225978409E+02  0.58245421376E+01  0.62650628737E+01  0.45045682037E+02  0.00000000000E+00 0.  1.
         11    1    3    3    0    0 -0.12980207522E+02 -0.31993773340E+01 -0.74085993697E+00  0.13389199989E+02  0.51100000000E-03 0. -1.
        -11    1    3    3    0    0 -0.15665817229E+02 -0.32369361794E+01  0.58399480668E+00  0.16007393151E+02  0.51100000000E-03 0.  1.
         12    1    3    3    0    0 -0.15579953657E+02  0.61177137576E+00 -0.61081977434E+01  0.16745724823E+02  0.00000000000E+00 0. -1.
</event>
<event>
 7    1  0.1476909E-008  0.4614232E+02  0.7816164E-02  0.1320468E+00
        -11   -1    0    0    0    0  0.00000000000E+00  0.00000000000E+00  0.45593999997E+02  0.45594000000E+02  0.51100000000E-03 0.  1.
         11   -1    0    0    0    0 -0.00000000000E+00 -0.00000000000E+00 -0.45593999997E+02  0.45594000000E+02  0.51100000000E-03 0. -1.
    9900012    2    1    2    0    0 -0.11460138440E+01 -0.36941739460E+02 -0.25750874865E+02  0.46142322978E+02  0.10000047573E+02 0.  0.
        -12    1    1    2    0    0  0.11460138440E+01  0.36941739460E+02  0.25750874865E+02  0.45045677022E+02  0.00000000000E+00 0.  1.
         11    1    3    3    0    0  0.13636635493E+01 -0.12819981161E+02 -0.13097414422E+02  0.18378078247E+02  0.51100000000E-03 0. -1.
        -11    1    3    3    0    0 -0.26016795805E+01 -0.22001012030E+02 -0.98436889491E+01  0.24242761381E+02  0.51100000000E-03 0.  1.
        -12    1    3    3    0    0  0.92002187261E-01 -0.21207462687E+01 -0.28097714936E+01  0.35214833501E+01  0.00000000000E+00 0.  1.
</event>
<event>
 7    1  0.1476909E-008  0.4614232E+02  0.7816164E-02  0.1320468E+00
        -11   -1    0    0    0    0  0.00000000000E+00  0.00000000000E+00  0.45593999997E+02  0.45594000000E+02  0.51100000000E-03 0.  1.
         11   -1    0    0    0    0 -0.00000000000E+00 -0.00000000000E+00 -0.45593999997E+02  0.45594000000E+02  0.51100000000E-03 0. -1.
    9900012    2    1    2    0    0 -0.26562252825E+02 -0.54087482699E+01 -0.35976460408E+02  0.46142317227E+02  0.99999951313E+01 0.  0.
        -12    1    1    2    0    0  0.26562252825E+02  0.54087482699E+01  0.35976460408E+02  0.45045682773E+02  0.00000000000E+00 0.  1.
         11    1    3    3    0    0 -0.13585057952E+02 -0.34280874532E+01 -0.11613379678E+02  0.18198246371E+02  0.51100000000E-03 0. -1.
        -11    1    3    3    0    0 -0.75546552312E+00  0.85199138284E+00 -0.19052665871E+01  0.22196077361E+01  0.51100000000E-03 0.  1.
         12    1    3    3    0    0 -0.12221729350E+02 -0.28326521995E+01 -0.22457814142E+02  0.25724463121E+02  0.00000000000E+00 0. -1.
</event>
<event>
 7    1  0.1476909E-008  0.4614232E+02  0.7816164E-02  0.1320468E+00
        -11   -1    0    0    0    0  0.00000000000E+00  0.00000000000E+00  0.45593999997E+02  0.45594000000E+02  0.51100000000E-03 0.  1.
         11   -1    0    0    0    0 -0.00000000000E+00 -0.00000000000E+00 -0.45593999997E+02  0.45594000000E+02  0.51100000000E-03 0. -1.
    9900012    2    1    2    0    0 -0.35058089884E+02  0.25825455813E+02 -0.11536448367E+02  0.46142317908E+02  0.10000001338E+02 0.  0.
        -12    1    1    2    0    0  0.35058089884E+02 -0.25825455813E+02  0.11536448367E+02  0.45045682092E+02  0.00000000000E+00 0.  1.
         11    1    3    3    0    0 -0.13377019209E+02  0.49825930714E+01 -0.47487815206E+01  0.15043995574E+02  0.51100000000E-03 0.  1.
        -11    1    3    3    0    0 -0.17157884675E+02  0.16627463064E+02 -0.36672697931E+01  0.24172596105E+02  0.51100000000E-03 0. -1.
         12    1    3    3    0    0 -0.45231859999E+01  0.42153996771E+01 -0.31203970531E+01  0.69257262288E+01  0.00000000000E+00 0. -1.
</event>
<event>
 7    1  0.1476909E-008  0.4614232E+02  0.7816164E-02  0.1320468E+00
        -11   -1    0    0    0    0  0.00000000000E+00  0.00000000000E+00  0.45593999997E+02  0.45594000000E+02  0.51100000000E-03 0. -1.
         11   -1    0    0    0    0 -0.00000000000E+00 -0.00000000000E+00 -0.45593999997E+02  0.45594000000E+02  0.51100000000E-03 0.  1.
    9900012    2    1    2    0    0  0.10825430538E+02 -0.27878447774E+02  0.33685540577E+02  0.46142318291E+02  0.10000004836E+02 0.  0.
        -12    1    1    2    0    0 -0.10825430538E+02  0.27878447774E+02 -0.33685540577E+02  0.45045681709E+02  0.00000000000E+00 0.  1.
         11    1    3    3    0    0  0.18211359805E+01 -0.15002324882E+02  0.20112637077E+02  0.25157592464E+02  0.51100000000E-03 0. -1.
        -11    1    3    3    0    0  0.38023719672E+01 -0.38030356213E+01  0.32174013550E+01  0.62668001607E+01  0.51100000000E-03 0.  1.
         12    1    3    3    0    0  0.52019225905E+01 -0.90730872703E+01  0.10355502145E+02  0.14717925667E+02  0.00000000000E+00 0. -1.
</event>
<event>
 7    1  0.1476909E-008  0.4614232E+02  0.7816164E-02  0.1320468E+00
        -11   -1    0    0    0    0  0.00000000000E+00  0.00000000000E+00  0.45593999997E+02  0.45594000000E+02  0.51100000000E-03 0.  1.
         11   -1    0    0    0    0 -0.00000000000E+00 -0.00000000000E+00 -0.45593999997E+02  0.45594000000E+02  0.51100000000E-03 0. -1.
    9900012    2    1    2    0    0  0.14158113169E+02 -0.28078294419E+02 -0.32253227200E+02  0.46142318178E+02  0.10000003802E+02 0.  0.
        -12    1    1    2    0    0 -0.14158113169E+02  0.28078294419E+02  0.32253227200E+02  0.45045681822E+02  0.00000000000E+00 0.  1.
         11    1    3    3    0    0  0.93701745749E+01 -0.12865281305E+02 -0.19699123474E+02  0.25325305537E+02  0.51100000000E-03 0. -1.
        -11    1    3    3    0    0  0.39359444667E+01 -0.14539501062E+02 -0.10106251213E+02  0.18139048041E+02  0.51100000000E-03 0.  1.
         12    1    3    3    0    0  0.85199412781E+00 -0.67351205112E+00 -0.24478525122E+01  0.26779645999E+01  0.00000000000E+00 0. -1.
</event>
<event>
 7    1  0.1476909E-008  0.4614232E+02  0.7816164E-02  0.1320468E+00
        -11   -1    0    0    0    0  0.00000000000E+00  0.00000000000E+00  0.45593999997E+02  0.45594000000E+02  0.51100000000E-03 0.  1.
         11   -1    0    0    0    0 -0.00000000000E+00 -0.00000000000E+00 -0.45593999997E+02  0.45594000000E+02  0.51100000000E-03 0. -1.
    9900012    2    1    2    0    0 -0.44613305864E+02  0.26033862532E+01 -0.56558512728E+01  0.46142319478E+02  0.10000015652E+02 0.  0.
        -12    1    1    2    0    0  0.44613305864E+02 -0.26033862532E+01  0.56558512728E+01  0.45045680522E+02  0.00000000000E+00 0.  1.
         11    1    3    3    0    0 -0.19784117674E+02  0.57071676133E+01 -0.20850799658E+01  0.20696150199E+02  0.51100000000E-03 0. -1.
        -11    1    3    3    0    0 -0.16619896360E+02 -0.29219051578E+01 -0.35032034439E+01  0.17234584979E+02  0.51100000000E-03 0.  1.
         12    1    3    3    0    0 -0.82092918295E+01 -0.18187620228E+00 -0.67567863013E-01  0.82115842997E+01  0.00000000000E+00 0. -1.
</event>
<event>
 7    1  0.1476909E-008  0.4614232E+02  0.7816164E-02  0.1320468E+00
        -11   -1    0    0    0    0  0.00000000000E+00  0.00000000000E+00  0.45593999997E+02  0.45594000000E+02  0.51100000000E-03 0.  1.
         11   -1    0    0    0    0 -0.00000000000E+00 -0.00000000000E+00 -0.45593999997E+02  0.45594000000E+02  0.51100000000E-03 0. -1.
    9900012    2    1    2    0    0  0.22990389285E+02  0.54344317394E+01 -0.38353910752E+02  0.46142317434E+02  0.99999970199E+01 0.  0.
        -12    1    1    2    0    0 -0.22990389285E+02 -0.54344317394E+01  0.38353910752E+02  0.45045682566E+02  0.00000000000E+00 0.  1.
         11    1    3    3    0    0  0.22076198808E+02  0.62961996933E+01 -0.37948796247E+02  0.44352134349E+02  0.51100000000E-03 0. -1.
        -11    1    3    3    0    0 -0.16575027924E+00  0.39784768029E-02 -0.37018937348E+00  0.40562225864E+00  0.51100000000E-03 0.  1.
         12    1    3    3    0    0  0.10799407562E+01 -0.86574643068E+00 -0.34925131596E-01  0.13845608271E+01  0.00000000000E+00 0. -1.
</event>
<event>
 7    1  0.1476909E-008  0.4614232E+02  0.7816164E-02  0.1320468E+00
        -11   -1    0    0    0    0  0.00000000000E+00  0.00000000000E+00  0.45593999997E+02  0.45594000000E+02  0.51100000000E-03 0.  1.
         11   -1    0    0    0    0 -0.00000000000E+00 -0.00000000000E+00 -0.45593999997E+02  0.45594000000E+02  0.51100000000E-03 0. -1.
    9900012    2    1    2    0    0 -0.20867299293E+02 -0.37944756771E+02 -0.12404223337E+02  0.46142317601E+02  0.99999985433E+01 0.  0.
        -12    1    1    2    0    0  0.20867299293E+02  0.37944756771E+02  0.12404223337E+02  0.45045682399E+02  0.00000000000E+00 0.  1.
         11    1    3    3    0    0 -0.90535273572E+01 -0.19349209029E+02 -0.11093066856E+02  0.24071027818E+02  0.51100000000E-03 0. -1.
        -11    1    3    3    0    0 -0.26018032738E+01 -0.41230809799E+01 -0.18680392808E+00  0.48789417921E+01  0.51100000000E-03 0.  1.
         12    1    3    3    0    0 -0.92119686623E+01 -0.14472466762E+02 -0.11243525521E+01  0.17192347992E+02  0.00000000000E+00 0. -1.
</event>
<event>
 7    1  0.1476909E-008  0.4614232E+02  0.7816164E-02  0.1320468E+00
        -11   -1    0    0    0    0  0.00000000000E+00  0.00000000000E+00  0.45593999997E+02  0.45594000000E+02  0.51100000000E-03 0.  1.
         11   -1    0    0    0    0 -0.00000000000E+00 -0.00000000000E+00 -0.45593999997E+02  0.45594000000E+02  0.51100000000E-03 0. -1.
    9900012    2    1    2    0    0  0.28931133831E+02  0.32275932014E+02  0.12262432661E+02  0.46142317111E+02  0.99999940748E+01 0.  0.
        -12    1    1    2    0    0 -0.28931133831E+02 -0.32275932014E+02 -0.12262432661E+02  0.45045682889E+02  0.00000000000E+00 0.  1.
         11    1    3    3    0    0  0.25077393080E+02  0.30539188943E+02  0.96185451787E+01  0.40669818251E+02  0.51100000000E-03 0. -1.
        -11    1    3    3    0    0  0.25413096040E+01  0.14489350470E+00  0.70493773537E+00  0.26412470734E+01  0.51100000000E-03 0.  1.
         12    1    3    3    0    0  0.13124311467E+01  0.15918495669E+01  0.19389497466E+01  0.28312517865E+01  0.00000000000E+00 0. -1.
</event>
<event>
 7    1  0.1476909E-008  0.4614232E+02  0.7816164E-02  0.1320468E+00
        -11   -1    0    0    0    0  0.00000000000E+00  0.00000000000E+00  0.45593999997E+02  0.45594000000E+02  0.51100000000E-03 0. -1.
         11   -1    0    0    0    0 -0.00000000000E+00 -0.00000000000E+00 -0.45593999997E+02  0.45594000000E+02  0.51100000000E-03 0.  1.
    9900012    2    1    2    0    0 -0.26162328134E+01  0.31393706721E+02  0.32197887255E+02  0.46142318303E+02  0.10000004943E+02 0.  0.
        -12    1    1    2    0    0  0.26162328134E+01 -0.31393706721E+02 -0.32197887255E+02  0.45045681697E+02  0.00000000000E+00 0.  1.
         11    1    3    3    0    0 -0.35928434963E+01  0.25113832932E+02  0.25492136473E+02  0.35964734827E+02  0.51100000000E-03 0. -1.
        -11    1    3    3    0    0  0.37475552238E+00 -0.58512394080E+00  0.10670750841E+01  0.12733660997E+01  0.51100000000E-03 0.  1.
         12    1    3    3    0    0  0.60185516051E+00  0.68649977300E+01  0.56386756980E+01  0.89042173768E+01  0.00000000000E+00 0. -1.
</event>
<event>
 7    1  0.1476909E-008  0.4614232E+02  0.7816164E-02  0.1320468E+00
        -11   -1    0    0    0    0  0.00000000000E+00  0.00000000000E+00  0.45593999997E+02  0.45594000000E+02  0.51100000000E-03 0.  1.
         11   -1    0    0    0    0 -0.00000000000E+00 -0.00000000000E+00 -0.45593999997E+02  0.45594000000E+02  0.51100000000E-03 0. -1.
    9900012    2    1    2    0    0  0.21098136760E+02  0.25385213234E+02 -0.30652456179E+02  0.46142317682E+02  0.99999992774E+01 0.  0.
        -12    1    1    2    0    0 -0.21098136760E+02 -0.25385213234E+02  0.30652456179E+02  0.45045682318E+02  0.00000000000E+00 0.  1.
         11    1    3    3    0    0  0.75333331433E+01  0.68140925733E+01 -0.11959510460E+02  0.15691171293E+02  0.51100000000E-03 0. -1.
        -11    1    3    3    0    0 -0.46784685876E+00  0.23742307179E+01 -0.84875625689E+00  0.25644179905E+01  0.51100000000E-03 0.  1.
        -12    1    3    3    0    0  0.14032650476E+02  0.16196889943E+02 -0.17844189462E+02  0.27886728398E+02  0.00000000000E+00 0.  1.
</event>
<event>
 7    1  0.1476909E-008  0.4614232E+02  0.7816164E-02  0.1320468E+00
        -11   -1    0    0    0    0  0.00000000000E+00  0.00000000000E+00  0.45593999997E+02  0.45594000000E+02  0.51100000000E-03 0.  1.
         11   -1    0    0    0    0 -0.00000000000E+00 -0.00000000000E+00 -0.45593999997E+02  0.45594000000E+02  0.51100000000E-03 0. -1.
    9900012    2    1    2    0    0  0.30876961418E+02  0.18444633708E+02 -0.27120513550E+02  0.46142317473E+02  0.99999973755E+01 0.  0.
        -12    1    1    2    0    0 -0.30876961418E+02 -0.18444633708E+02  0.27120513550E+02  0.45045682527E+02  0.00000000000E+00 0.  1.
         11    1    3    3    0    0  0.11340032195E+02  0.94174818145E+01 -0.95932124376E+01  0.17587353952E+02  0.51100000000E-03 0. -1.
        -11    1    3    3    0    0  0.87167057374E+01  0.43767122588E+00 -0.68216751970E+01  0.11077353825E+02  0.51100000000E-03 0.  1.
        -12    1    3    3    0    0  0.10820223486E+02  0.85894806679E+01 -0.10705625916E+02  0.17477609696E+02  0.00000000000E+00 0.  1.
</event>
<event>
 7    1  0.1476909E-008  0.4614232E+02  0.7816164E-02  0.1320468E+00
        -11   -1    0    0    0    0  0.00000000000E+00  0.00000000000E+00  0.45593999997E+02  0.45594000000E+02  0.51100000000E-03 0. -1.
         11   -1    0    0    0    0 -0.00000000000E+00 -0.00000000000E+00 -0.45593999997E+02  0.45594000000E+02  0.51100000000E-03 0.  1.
    9900012    2    1    2    0    0  0.24527863219E+02 -0.36667767962E+02  0.91089084369E+01  0.46142317695E+02  0.99999993930E+01 0.  0.
        -12    1    1    2    0    0 -0.24527863219E+02  0.36667767962E+02 -0.91089084369E+01  0.45045682305E+02  0.00000000000E+00 0.  1.
         11    1    3    3    0    0  0.17669599680E+02 -0.30209601167E+02  0.64627495403E+01  0.35589350758E+02  0.51100000000E-03 0. -1.
        -11    1    3    3    0    0  0.27143054364E+01 -0.45169919083E+00  0.15947073407E+01  0.31803424226E+01  0.51100000000E-03 0.  1.
        -12    1    3    3    0    0  0.41439581036E+01 -0.60064676047E+01  0.10514515559E+01  0.73726245140E+01  0.00000000000E+00 0.  1.
</event>
<event>
 7    1  0.1476909E-008  0.4614232E+02  0.7816164E-02  0.1320468E+00
        -11   -1    0    0    0    0  0.00000000000E+00  0.00000000000E+00  0.45593999997E+02  0.45594000000E+02  0.51100000000E-03 0.  1.
         11   -1    0    0    0    0 -0.00000000000E+00 -0.00000000000E+00 -0.45593999997E+02  0.45594000000E+02  0.51100000000E-03 0. -1.
    9900012    2    1    2    0    0 -0.28013674761E+02 -0.53794465217E-01 -0.35275271164E+02  0.46142316266E+02  0.99999863626E+01 0.  0.
        -12    1    1    2    0    0  0.28013674761E+02  0.53794465217E-01  0.35275271164E+02  0.45045683734E+02  0.00000000000E+00 0.  1.
         11    1    3    3    0    0 -0.21039928125E+02 -0.12085235014E+01 -0.25288137569E+02  0.32918520722E+02  0.51100000000E-03 0. -1.
        -11    1    3    3    0    0 -0.20796133236E+01 -0.19657549857E+01 -0.31799410389E+01  0.42779679185E+01  0.51100000000E-03 0.  1.
        -12    1    3    3    0    0 -0.48941333123E+01  0.31204840220E+01 -0.68071925561E+01  0.89458276255E+01  0.00000000000E+00 0.  1.
</event>
<event>
 7    1  0.1476909E-008  0.4614232E+02  0.7816164E-02  0.1320468E+00
        -11   -1    0    0    0    0  0.00000000000E+00  0.00000000000E+00  0.45593999997E+02  0.45594000000E+02  0.51100000000E-03 0. -1.
         11   -1    0    0    0    0 -0.00000000000E+00 -0.00000000000E+00 -0.45593999997E+02  0.45594000000E+02  0.51100000000E-03 0.  1.
    9900012    2    1    2    0    0 -0.15360823212E+02  0.58140191137E+01  0.41944675257E+02  0.46142317738E+02  0.99999997921E+01 0.  0.
        -12    1    1    2    0    0  0.15360823212E+02 -0.58140191137E+01 -0.41944675257E+02  0.45045682262E+02  0.00000000000E+00 0.  1.
         11    1    3    3    0    0 -0.40526481917E+01  0.56564767717E+01  0.13432756720E+02  0.15128074570E+02  0.51100000000E-03 0. -1.
        -11    1    3    3    0    0  0.28628212533E+00  0.59105816939E-01  0.27229929486E+01  0.27386386786E+01  0.51100000000E-03 0.  1.
        -12    1    3    3    0    0 -0.11594457146E+02  0.98436524992E-01  0.25788925588E+02  0.28275604489E+02  0.00000000000E+00 0.  1.
</event>
<event>
 7    1  0.1476909E-008  0.4614233E+02  0.7816164E-02  0.1320468E+00
        -11   -1    0    0    0    0  0.00000000000E+00  0.00000000000E+00  0.45593999997E+02  0.45594000000E+02  0.51100000000E-03 0. -1.
         11   -1    0    0    0    0 -0.00000000000E+00 -0.00000000000E+00 -0.45593999997E+02  0.45594000000E+02  0.51100000000E-03 0.  1.
    9900012    2    1    2    0    0 -0.18199632358E+02  0.31807246288E+02  0.26195130620E+02  0.46142329813E+02  0.10000109896E+02 0.  0.
        -12    1    1    2    0    0  0.18199632358E+02 -0.31807246288E+02 -0.26195130620E+02  0.45045670187E+02  0.00000000000E+00 0.  1.
         11    1    3    3    0    0 -0.66270646494E+01  0.60405374234E+01  0.56202459778E+01  0.10582686017E+02  0.51100000000E-03 0.  1.
        -11    1    3    3    0    0 -0.76090554156E+01  0.22268872656E+02  0.18271264618E+02  0.29793279858E+02  0.51100000000E-03 0. -1.
         12    1    3    3    0    0 -0.39635122932E+01  0.34978362083E+01  0.23036200242E+01  0.57663639370E+01  0.00000000000E+00 0. -1.
</event>
<event>
 7    1  0.1476909E-008  0.4614233E+02  0.7816164E-02  0.1320468E+00
        -11   -1    0    0    0    0  0.00000000000E+00  0.00000000000E+00  0.45593999997E+02  0.45594000000E+02  0.51100000000E-03 0.  1.
         11   -1    0    0    0    0 -0.00000000000E+00 -0.00000000000E+00 -0.45593999997E+02  0.45594000000E+02  0.51100000000E-03 0. -1.
    9900012    2    1    2    0    0 -0.35206697349E+01  0.29609752290E+02 -0.33763591694E+02  0.46142326843E+02  0.10000082819E+02 0.  0.
        -12    1    1    2    0    0  0.35206697349E+01 -0.29609752290E+02  0.33763591694E+02  0.45045673157E+02  0.00000000000E+00 0.  1.
         11    1    3    3    0    0 -0.24626621087E+01  0.22165409909E+02 -0.26652401456E+02  0.34752274814E+02  0.51100000000E-03 0. -1.
        -11    1    3    3    0    0 -0.11227155342E+01 -0.29200779892E+00 -0.87819908731E+00  0.14549888740E+01  0.51100000000E-03 0.  1.
        -12    1    3    3    0    0  0.64707908027E-01  0.77363501806E+01 -0.62329911502E+01  0.99350631558E+01  0.00000000000E+00 0.  1.
</event>
<event>
 7    1  0.1476909E-008  0.4614232E+02  0.7816164E-02  0.1320468E+00
        -11   -1    0    0    0    0  0.00000000000E+00  0.00000000000E+00  0.45593999997E+02  0.45594000000E+02  0.51100000000E-03 0.  1.
         11   -1    0    0    0    0 -0.00000000000E+00 -0.00000000000E+00 -0.45593999997E+02  0.45594000000E+02  0.51100000000E-03 0. -1.
    9900012    2    1    2    0    0  0.26370997138E+02 -0.13483146457E+02 -0.33939489700E+02  0.46142315528E+02  0.99999796378E+01 0.  0.
        -12    1    1    2    0    0 -0.26370997138E+02  0.13483146457E+02  0.33939489700E+02  0.45045684472E+02  0.00000000000E+00 0.  1.
         11    1    3    3    0    0  0.17217020202E+02 -0.13692663818E+02 -0.23284487254E+02  0.32032517447E+02  0.51100000000E-03 0. -1.
        -11    1    3    3    0    0  0.80407661399E+01 -0.24367742645E+00 -0.93946403003E+01  0.12368207851E+02  0.51100000000E-03 0.  1.
         12    1    3    3    0    0  0.11132107960E+01  0.45319478709E+00 -0.12603621456E+01  0.17415902300E+01  0.00000000000E+00 0. -1.
</event>
<event>
 7    1  0.1476909E-008  0.4614232E+02  0.7816164E-02  0.1320468E+00
        -11   -1    0    0    0    0  0.00000000000E+00  0.00000000000E+00  0.45593999997E+02  0.45594000000E+02  0.51100000000E-03 0.  1.
         11   -1    0    0    0    0 -0.00000000000E+00 -0.00000000000E+00 -0.45593999997E+02  0.45594000000E+02  0.51100000000E-03 0. -1.
    9900012    2    1    2    0    0  0.12847598930E+02 -0.34459850482E+01 -0.43036936021E+02  0.46142317928E+02  0.10000001524E+02 0.  0.
        -12    1    1    2    0    0 -0.12847598930E+02  0.34459850482E+01  0.43036936021E+02  0.45045682072E+02  0.00000000000E+00 0.  1.
         11    1    3    3    0    0  0.23178189610E+01 -0.22098450126E+01 -0.24711231813E+02  0.24917878676E+02  0.51100000000E-03 0. -1.
        -11    1    3    3    0    0  0.69743243586E+01 -0.15181240012E+01 -0.11981173149E+02  0.13946125305E+02  0.51100000000E-03 0.  1.
        -12    1    3    3    0    0  0.35554556103E+01  0.28198396559E+00 -0.63445310594E+01  0.72783139475E+01  0.00000000000E+00 0.  1.
</event>
<event>
 7    1  0.1476909E-008  0.4614232E+02  0.7816164E-02  0.1320468E+00
        -11   -1    0    0    0    0  0.00000000000E+00  0.00000000000E+00  0.45593999997E+02  0.45594000000E+02  0.51100000000E-03 0. -1.
         11   -1    0    0    0    0 -0.00000000000E+00 -0.00000000000E+00 -0.45593999997E+02  0.45594000000E+02  0.51100000000E-03 0.  1.
    9900012    2    1    2    0    0 -0.19979101672E+02  0.40355216841E+02 -0.11855100621E+01  0.46142318031E+02  0.10000002463E+02 0.  0.
        -12    1    1    2    0    0  0.19979101672E+02 -0.40355216841E+02  0.11855100621E+01  0.45045681969E+02  0.00000000000E+00 0.  1.
         11    1    3    3    0    0 -0.10787744096E+02  0.26559481895E+02  0.22752380875E+01  0.28756881087E+02  0.51100000000E-03 0. -1.
        -11    1    3    3    0    0 -0.72628970868E+01  0.74473425685E+01 -0.20782646809E+01  0.10608099253E+02  0.51100000000E-03 0.  1.
         12    1    3    3    0    0 -0.19284604896E+01  0.63483923775E+01 -0.13824834686E+01  0.67773376911E+01  0.00000000000E+00 0. -1.
</event>
<event>
 7    1  0.1476909E-008  0.4614232E+02  0.7816164E-02  0.1320468E+00
        -11   -1    0    0    0    0  0.00000000000E+00  0.00000000000E+00  0.45593999997E+02  0.45594000000E+02  0.51100000000E-03 0. -1.
         11   -1    0    0    0    0 -0.00000000000E+00 -0.00000000000E+00 -0.45593999997E+02  0.45594000000E+02  0.51100000000E-03 0.  1.
    9900012    2    1    2    0    0  0.71345298763E+01 -0.43949707907E+02  0.68289926885E+01  0.46142317823E+02  0.10000000566E+02 0.  0.
        -12    1    1    2    0    0 -0.71345298763E+01  0.43949707907E+02 -0.68289926885E+01  0.45045682177E+02  0.00000000000E+00 0.  1.
         11    1    3    3    0    0 -0.73038114584E+00 -0.27507421769E+01  0.22844323058E+01  0.36494753544E+01  0.51100000000E-03 0. -1.
        -11    1    3    3    0    0  0.13864613862E+01 -0.53870442015E+01 -0.10832297894E+01  0.56670898566E+01  0.51100000000E-03 0.  1.
         12    1    3    3    0    0  0.64784496360E+01 -0.35811921528E+02  0.56277901721E+01  0.36825752612E+02  0.00000000000E+00 0. -1.
</event>
<event>
 7    1  0.1476909E-008  0.4614232E+02  0.7816164E-02  0.1320468E+00
        -11   -1    0    0    0    0  0.00000000000E+00  0.00000000000E+00  0.45593999997E+02  0.45594000000E+02  0.51100000000E-03 0.  1.
         11   -1    0    0    0    0 -0.00000000000E+00 -0.00000000000E+00 -0.45593999997E+02  0.45594000000E+02  0.51100000000E-03 0. -1.
    9900012    2    1    2    0    0 -0.36210993078E+02  0.23916342970E+02 -0.12078326559E+02  0.46142318151E+02  0.10000003557E+02 0.  0.
        -12    1    1    2    0    0  0.36210993078E+02 -0.23916342970E+02  0.12078326559E+02  0.45045681849E+02  0.00000000000E+00 0.  1.
         11    1    3    3    0    0 -0.14411741851E+01  0.21325773394E+01 -0.21633221220E+01  0.33622659034E+01  0.51100000000E-03 0. -1.
        -11    1    3    3    0    0 -0.55279414686E+01  0.97445108473E+00 -0.28579659806E+00  0.56204423094E+01  0.51100000000E-03 0.  1.
        -12    1    3    3    0    0 -0.29241877425E+02  0.20809314546E+02 -0.96292078385E+01  0.37159609938E+02  0.00000000000E+00 0.  1.
</event>
<event>
 7    1  0.1476909E-008  0.4614232E+02  0.7816164E-02  0.1320468E+00
        -11   -1    0    0    0    0  0.00000000000E+00  0.00000000000E+00  0.45593999997E+02  0.45594000000E+02  0.51100000000E-03 0. -1.
         11   -1    0    0    0    0 -0.00000000000E+00 -0.00000000000E+00 -0.45593999997E+02  0.45594000000E+02  0.51100000000E-03 0.  1.
    9900012    2    1    2    0    0 -0.13893544751E+02 -0.42367695216E+02  0.64079071950E+01  0.46142318095E+02  0.10000003045E+02 0.  0.
        -12    1    1    2    0    0  0.13893544751E+02  0.42367695216E+02 -0.64079071950E+01  0.45045681905E+02  0.00000000000E+00 0.  1.
         11    1    3    3    0    0 -0.75739571744E+00 -0.40928113307E+01  0.63325980731E+00  0.42101984640E+01  0.51100000000E-03 0. -1.
        -11    1    3    3    0    0 -0.62301155486E+00 -0.15744519437E+02  0.24645955761E+01  0.15948425230E+02  0.51100000000E-03 0.  1.
        -12    1    3    3    0    0 -0.12513137479E+02 -0.22530364449E+02  0.33100518116E+01  0.25983694401E+02  0.00000000000E+00 0.  1.
</event>
<event>
 7    1  0.1476909E-008  0.4614231E+02  0.7816164E-02  0.1320468E+00
        -11   -1    0    0    0    0  0.00000000000E+00  0.00000000000E+00  0.45593999997E+02  0.45594000000E+02  0.51100000000E-03 0. -1.
         11   -1    0    0    0    0 -0.00000000000E+00 -0.00000000000E+00 -0.45593999997E+02  0.45594000000E+02  0.51100000000E-03 0.  1.
    9900012    2    1    2    0    0  0.13483793510E+01  0.32487841090E+02  0.31174285262E+02  0.46142312003E+02  0.99999474902E+01 0.  0.
        -12    1    1    2    0    0 -0.13483793510E+01 -0.32487841090E+02 -0.31174285262E+02  0.45045687997E+02  0.00000000000E+00 0.  1.
         11    1    3    3    0    0  0.17674865221E+01  0.13749408470E+02  0.76850115283E+01  0.15850225372E+02  0.51100000000E-03 0. -1.
        -11    1    3    3    0    0  0.11241610805E+00  0.84849359859E+00  0.28382447422E+01  0.29644919035E+01  0.51100000000E-03 0.  1.
         12    1    3    3    0    0 -0.53152327914E+00  0.17889939021E+02  0.20651028992E+02  0.27327594727E+02  0.00000000000E+00 0. -1.
</event>
<event>
 7    1  0.1476909E-008  0.4614232E+02  0.7816164E-02  0.1320468E+00
        -11   -1    0    0    0    0  0.00000000000E+00  0.00000000000E+00  0.45593999997E+02  0.45594000000E+02  0.51100000000E-03 0.  1.
         11   -1    0    0    0    0 -0.00000000000E+00 -0.00000000000E+00 -0.45593999997E+02  0.45594000000E+02  0.51100000000E-03 0. -1.
    9900012    2    1    2    0    0  0.81073841107E+01 -0.72027120753E+01 -0.43720758399E+02  0.46142318150E+02  0.10000003548E+02 0.  0.
        -12    1    1    2    0    0 -0.81073841107E+01  0.72027120753E+01  0.43720758399E+02  0.45045681850E+02  0.00000000000E+00 0.  1.
         11    1    3    3    0    0  0.55069443265E+01 -0.62844782797E+01 -0.15523562711E+02  0.17629580329E+02  0.51100000000E-03 0. -1.
        -11    1    3    3    0    0  0.23304594770E+00  0.84505703900E+00 -0.25550937992E+01  0.27012842125E+01  0.51100000000E-03 0.  1.
         12    1    3    3    0    0  0.23673938365E+01 -0.17632908346E+01 -0.25642101888E+02  0.25811453609E+02  0.00000000000E+00 0. -1.
</event>
<event>
 7    1  0.1476909E-008  0.4614232E+02  0.7816164E-02  0.1320468E+00
        -11   -1    0    0    0    0  0.00000000000E+00  0.00000000000E+00  0.45593999997E+02  0.45594000000E+02  0.51100000000E-03 0. -1.
         11   -1    0    0    0    0 -0.00000000000E+00 -0.00000000000E+00 -0.45593999997E+02  0.45594000000E+02  0.51100000000E-03 0.  1.
    9900012    2    1    2    0    0  0.43001076281E+02 -0.12937172916E+02  0.35567515905E+01  0.46142317784E+02  0.10000000211E+02 0.  0.
        -12    1    1    2    0    0 -0.43001076281E+02  0.12937172916E+02 -0.35567515905E+01  0.45045682216E+02  0.00000000000E+00 0.  1.
         11    1    3    3    0    0  0.36256812522E+02 -0.11203934056E+02  0.50931930708E+01  0.38288708630E+02  0.51100000000E-03 0. -1.
        -11    1    3    3    0    0  0.11245774539E+01  0.40656307169E+00 -0.13967265240E+01  0.18386987859E+01  0.51100000000E-03 0.  1.
        -12    1    3    3    0    0  0.56196863054E+01 -0.21398019313E+01 -0.13971495627E+00  0.60149103688E+01  0.00000000000E+00 0.  1.
</event>
<event>
 7    1  0.1476909E-008  0.4614232E+02  0.7816164E-02  0.1320468E+00
        -11   -1    0    0    0    0  0.00000000000E+00  0.00000000000E+00  0.45593999997E+02  0.45594000000E+02  0.51100000000E-03 0. -1.
         11   -1    0    0    0    0 -0.00000000000E+00 -0.00000000000E+00 -0.45593999997E+02  0.45594000000E+02  0.51100000000E-03 0.  1.
    9900012    2    1    2    0    0  0.40749032118E+02  0.18079150576E+02  0.64632931543E+01  0.46142318048E+02  0.10000002620E+02 0.  0.
        -12    1    1    2    0    0 -0.40749032118E+02 -0.18079150576E+02 -0.64632931543E+01  0.45045681952E+02  0.00000000000E+00 0.  1.
         11    1    3    3    0    0  0.16299846871E+02  0.85237738024E+01  0.40548834656E+01  0.18835652578E+02  0.51100000000E-03 0. -1.
        -11    1    3    3    0    0  0.16366298649E+01  0.69480352027E+00  0.22054921715E+01  0.28329322664E+01  0.51100000000E-03 0.  1.
        -12    1    3    3    0    0  0.22812555382E+02  0.88605732538E+01  0.20291751723E+00  0.24473733204E+02  0.00000000000E+00 0.  1.
</event>
<event>
 7    1  0.1476909E-008  0.4614232E+02  0.7816164E-02  0.1320468E+00
        -11   -1    0    0    0    0  0.00000000000E+00  0.00000000000E+00  0.45593999997E+02  0.45594000000E+02  0.51100000000E-03 0. -1.
         11   -1    0    0    0    0 -0.00000000000E+00 -0.00000000000E+00 -0.45593999997E+02  0.45594000000E+02  0.51100000000E-03 0.  1.
    9900012    2    1    2    0    0  0.37516548536E+02  0.22522147931E+02 -0.10694622255E+02  0.46142317558E+02  0.99999981441E+01 0.  0.
        -12    1    1    2    0    0 -0.37516548536E+02 -0.22522147931E+02  0.10694622255E+02  0.45045682442E+02  0.00000000000E+00 0.  1.
         11    1    3    3    0    0  0.14368319129E+02  0.86296514362E+01  0.21429188713E-01  0.16760666394E+02  0.51100000000E-03 0. -1.
        -11    1    3    3    0    0  0.14655142074E+02  0.62506739726E+01 -0.63101828468E+01  0.17136584320E+02  0.51100000000E-03 0.  1.
         12    1    3    3    0    0  0.84930873337E+01  0.76418225226E+01 -0.44058685972E+01  0.12245066844E+02  0.00000000000E+00 0. -1.
</event>
<event>
 7    1  0.1476909E-008  0.4614231E+02  0.7816164E-02  0.1320468E+00
        -11   -1    0    0    0    0  0.00000000000E+00  0.00000000000E+00  0.45593999997E+02  0.45594000000E+02  0.51100000000E-03 0.  1.
         11   -1    0    0    0    0 -0.00000000000E+00 -0.00000000000E+00 -0.45593999997E+02  0.45594000000E+02  0.51100000000E-03 0. -1.
    9900012    2    1    2    0    0 -0.21618084367E+02 -0.25035457465E+02 -0.30577738169E+02  0.46142314594E+02  0.99999711163E+01 0.  0.
        -12    1    1    2    0    0  0.21618084367E+02  0.25035457465E+02  0.30577738169E+02  0.45045685406E+02  0.00000000000E+00 0.  1.
         11    1    3    3    0    0 -0.15455750453E+02 -0.12827456155E+02 -0.19937559428E+02  0.28300708996E+02  0.51100000000E-03 0. -1.
        -11    1    3    3    0    0 -0.20894196247E+01 -0.54030048306E+01 -0.20368710883E+01  0.61406009201E+01  0.51100000000E-03 0.  1.
         12    1    3    3    0    0 -0.40729142895E+01 -0.68049964793E+01 -0.86033076529E+01  0.11701004678E+02  0.00000000000E+00 0. -1.
</event>
<event>
 7    1  0.1476909E-008  0.4614232E+02  0.7816164E-02  0.1320468E+00
        -11   -1    0    0    0    0  0.00000000000E+00  0.00000000000E+00  0.45593999997E+02  0.45594000000E+02  0.51100000000E-03 0.  1.
         11   -1    0    0    0    0 -0.00000000000E+00 -0.00000000000E+00 -0.45593999997E+02  0.45594000000E+02  0.51100000000E-03 0. -1.
    9900012    2    1    2    0    0 -0.92263981082E+01 -0.36231661713E+01 -0.43941548990E+02  0.46142317823E+02  0.10000000568E+02 0.  0.
        -12    1    1    2    0    0  0.92263981082E+01  0.36231661713E+01  0.43941548990E+02  0.45045682177E+02  0.00000000000E+00 0.  1.
         11    1    3    3    0    0 -0.44178825884E+01 -0.55191512826E+01 -0.29882779289E+02  0.30707640999E+02  0.51100000000E-03 0. -1.
        -11    1    3    3    0    0 -0.33191343393E+00 -0.61521475018E+00 -0.32078588758E+00  0.76912909401E+00  0.51100000000E-03 0.  1.
         12    1    3    3    0    0 -0.44766020858E+01  0.25111998614E+01 -0.13737983813E+02  0.14665547730E+02  0.00000000000E+00 0. -1.
</event>
<event>
 7    1  0.1476909E-008  0.4614232E+02  0.7816164E-02  0.1320468E+00
        -11   -1    0    0    0    0  0.00000000000E+00  0.00000000000E+00  0.45593999997E+02  0.45594000000E+02  0.51100000000E-03 0. -1.
         11   -1    0    0    0    0 -0.00000000000E+00 -0.00000000000E+00 -0.45593999997E+02  0.45594000000E+02  0.51100000000E-03 0.  1.
    9900012    2    1    2    0    0 -0.32639163730E+02  0.24527512743E+02  0.19031541455E+02  0.46142318071E+02  0.10000002826E+02 0.  0.
        -12    1    1    2    0    0  0.32639163730E+02 -0.24527512743E+02 -0.19031541455E+02  0.45045681929E+02  0.00000000000E+00 0.  1.
         11    1    3    3    0    0 -0.12155030528E+02  0.69204639173E+01  0.33779749122E+01  0.14389173109E+02  0.51100000000E-03 0. -1.
        -11    1    3    3    0    0  0.22246837767E+00  0.10498391226E+01  0.29287788223E+00  0.11123992437E+01  0.51100000000E-03 0.  1.
         12    1    3    3    0    0 -0.20706601579E+02  0.16557209703E+02  0.15360688660E+02  0.30640745719E+02  0.00000000000E+00 0. -1.
</event>
<event>
 7    1  0.1476909E-008  0.4614232E+02  0.7816164E-02  0.1320468E+00
        -11   -1    0    0    0    0  0.00000000000E+00  0.00000000000E+00  0.45593999997E+02  0.45594000000E+02  0.51100000000E-03 0.  1.
         11   -1    0    0    0    0 -0.00000000000E+00 -0.00000000000E+00 -0.45593999997E+02  0.45594000000E+02  0.51100000000E-03 0. -1.
    9900012    2    1    2    0    0 -0.37769991533E+02 -0.47160597500E+01 -0.24089416881E+02  0.46142317792E+02  0.10000000278E+02 0.  0.
        -12    1    1    2    0    0  0.37769991533E+02  0.47160597500E+01  0.24089416881E+02  0.45045682208E+02  0.00000000000E+00 0.  1.
         11    1    3    3    0    0 -0.29330175992E+02 -0.51349466769E+01 -0.22642119074E+02  0.37407117739E+02  0.51100000000E-03 0. -1.
        -11    1    3    3    0    0 -0.78077968243E+01  0.70602247276E-01 -0.16605136194E+01  0.79827302139E+01  0.51100000000E-03 0.  1.
         12    1    3    3    0    0 -0.63201871627E+00  0.34828467963E+00  0.21321581221E+00  0.75246983884E+00  0.00000000000E+00 0. -1.
</event>
<event>
 7    1  0.1476909E-008  0.4614231E+02  0.7816164E-02  0.1320468E+00
        -11   -1    0    0    0    0  0.00000000000E+00  0.00000000000E+00  0.45593999997E+02  0.45594000000E+02  0.51100000000E-03 0.  1.
         11   -1    0    0    0    0 -0.00000000000E+00 -0.00000000000E+00 -0.45593999997E+02  0.45594000000E+02  0.51100000000E-03 0. -1.
    9900012    2    1    2    0    0  0.40679033726E+02  0.15970719010E+02 -0.10920935706E+02  0.46142306674E+02  0.99998988985E+01 0.  0.
        -12    1    1    2    0    0 -0.40679033726E+02 -0.15970719010E+02  0.10920935706E+02  0.45045693326E+02  0.00000000000E+00 0.  1.
         11    1    3    3    0    0  0.19975905709E+02  0.52481170486E+01 -0.40847855165E+01  0.21053859846E+02  0.51100000000E-03 0. -1.
        -11    1    3    3    0    0  0.10582616546E+02  0.86442608583E+01 -0.52377104031E+01  0.14633818001E+02  0.51100000000E-03 0.  1.
        -12    1    3    3    0    0  0.10120511471E+02  0.20783411028E+01 -0.15984397860E+01  0.10454628827E+02  0.00000000000E+00 0.  1.
</event>
<event>
 7    1  0.1476909E-008  0.4614231E+02  0.7816164E-02  0.1320468E+00
        -11   -1    0    0    0    0  0.00000000000E+00  0.00000000000E+00  0.45593999997E+02  0.45594000000E+02  0.51100000000E-03 0.  1.
         11   -1    0    0    0    0 -0.00000000000E+00 -0.00000000000E+00 -0.45593999997E+02  0.45594000000E+02  0.51100000000E-03 0. -1.
    9900012    2    1    2    0    0  0.32241154278E+02 -0.23901117867E+02 -0.20453809585E+02  0.46142314402E+02  0.99999693711E+01 0.  0.
        -12    1    1    2    0    0 -0.32241154278E+02  0.23901117867E+02  0.20453809585E+02  0.45045685598E+02  0.00000000000E+00 0.  1.
         11    1    3    3    0    0  0.20999581135E+02 -0.18291172833E+02 -0.14780956556E+02  0.31528179275E+02  0.51100000000E-03 0. -1.
        -11    1    3    3    0    0  0.10578515608E+02 -0.46028716686E+01 -0.33765263679E+01  0.12020497105E+02  0.51100000000E-03 0.  1.
        -12    1    3    3    0    0  0.66305753518E+00 -0.10070733646E+01 -0.22963266610E+01  0.25936380222E+01  0.00000000000E+00 0.  1.
</event>
<event>
 7    1  0.1476909E-008  0.4614232E+02  0.7816164E-02  0.1320468E+00
        -11   -1    0    0    0    0  0.00000000000E+00  0.00000000000E+00  0.45593999997E+02  0.45594000000E+02  0.51100000000E-03 0. -1.
         11   -1    0    0    0    0 -0.00000000000E+00 -0.00000000000E+00 -0.45593999997E+02  0.45594000000E+02  0.51100000000E-03 0.  1.
    9900012    2    1    2    0    0  0.25663522146E+02 -0.36991056315E+02 -0.14693268776E+01  0.46142317214E+02  0.99999950081E+01 0.  0.
        -12    1    1    2    0    0 -0.25663522146E+02  0.36991056315E+02  0.14693268776E+01  0.45045682786E+02  0.00000000000E+00 0.  1.
         11    1    3    3    0    0  0.21120886391E+02 -0.27847951249E+02  0.22740326458E+01  0.35025297364E+02  0.51100000000E-03 0. -1.
        -11    1    3    3    0    0  0.41459677741E+01 -0.69483446314E+01 -0.36721561918E+01  0.88855654439E+01  0.51100000000E-03 0.  1.
         12    1    3    3    0    0  0.39666798125E+00 -0.21947604340E+01 -0.71203331618E-01  0.22314544056E+01  0.00000000000E+00 0. -1.
</event>
<event>
 7    1  0.1476909E-008  0.4614232E+02  0.7816164E-02  0.1320468E+00
        -11   -1    0    0    0    0  0.00000000000E+00  0.00000000000E+00  0.45593999997E+02  0.45594000000E+02  0.51100000000E-03 0. -1.
         11   -1    0    0    0    0 -0.00000000000E+00 -0.00000000000E+00 -0.45593999997E+02  0.45594000000E+02  0.51100000000E-03 0.  1.
    9900012    2    1    2    0    0 -0.44227629552E+01  0.44525141781E+02  0.52023436617E+01  0.46142318050E+02  0.10000002635E+02 0.  0.
        -12    1    1    2    0    0  0.44227629552E+01 -0.44525141781E+02 -0.52023436617E+01  0.45045681950E+02  0.00000000000E+00 0.  1.
         11    1    3    3    0    0 -0.53177941179E+01  0.28314290835E+02  0.14569686326E+01  0.28846156722E+02  0.51100000000E-03 0. -1.
        -11    1    3    3    0    0  0.10111375786E+01  0.47659213409E+00 -0.16805165180E-01  0.11179543550E+01  0.51100000000E-03 0.  1.
         12    1    3    3    0    0 -0.11610641587E+00  0.15734258811E+02  0.37621801943E+01  0.16178206973E+02  0.00000000000E+00 0. -1.
</event>
<event>
 7    1  0.1476909E-008  0.4614232E+02  0.7816164E-02  0.1320468E+00
        -11   -1    0    0    0    0  0.00000000000E+00  0.00000000000E+00  0.45593999997E+02  0.45594000000E+02  0.51100000000E-03 0.  1.
         11   -1    0    0    0    0 -0.00000000000E+00 -0.00000000000E+00 -0.45593999997E+02  0.45594000000E+02  0.51100000000E-03 0. -1.
    9900012    2    1    2    0    0 -0.34294192101E+01 -0.20225403430E+02 -0.40103437191E+02  0.46142317248E+02  0.99999953234E+01 0.  0.
        -12    1    1    2    0    0  0.34294192101E+01  0.20225403430E+02  0.40103437191E+02  0.45045682752E+02  0.00000000000E+00 0.  1.
         11    1    3    3    0    0 -0.23238199764E+01 -0.20351571989E+02 -0.37207856038E+02  0.42473652691E+02  0.51100000000E-03 0. -1.
        -11    1    3    3    0    0 -0.14573155943E+01  0.56457008343E+00 -0.26001701464E+01  0.30337094739E+01  0.51100000000E-03 0.  1.
         12    1    3    3    0    0  0.35171636061E+00 -0.43840152424E+00 -0.29541100648E+00  0.63495508308E+00  0.00000000000E+00 0. -1.
</event>
<event>
 7    1  0.1476909E-008  0.4614232E+02  0.7816164E-02  0.1320468E+00
        -11   -1    0    0    0    0  0.00000000000E+00  0.00000000000E+00  0.45593999997E+02  0.45594000000E+02  0.51100000000E-03 0.  1.
         11   -1    0    0    0    0 -0.00000000000E+00 -0.00000000000E+00 -0.45593999997E+02  0.45594000000E+02  0.51100000000E-03 0. -1.
    9900012    2    1    2    0    0  0.33837542479E+02 -0.26256336474E+02  0.13954889634E+02  0.46142318401E+02  0.10000005836E+02 0.  0.
        -12    1    1    2    0    0 -0.33837542479E+02  0.26256336474E+02 -0.13954889634E+02  0.45045681599E+02  0.00000000000E+00 0.  1.
         11    1    3    3    0    0  0.76230312293E+01 -0.10178706333E+02  0.62172070787E+01  0.14155222777E+02  0.51100000000E-03 0. -1.
        -11    1    3    3    0    0  0.24724174052E+02 -0.13805148638E+02  0.71691347952E+01  0.29210672801E+02  0.51100000000E-03 0.  1.
        -12    1    3    3    0    0  0.14903371968E+01 -0.22724815028E+01  0.56854776024E+00  0.27764228237E+01  0.00000000000E+00 0.  1.
</event>
<event>
 7    1  0.1476909E-008  0.4614232E+02  0.7816164E-02  0.1320468E+00
        -11   -1    0    0    0    0  0.00000000000E+00  0.00000000000E+00  0.45593999997E+02  0.45594000000E+02  0.51100000000E-03 0. -1.
         11   -1    0    0    0    0 -0.00000000000E+00 -0.00000000000E+00 -0.45593999997E+02  0.45594000000E+02  0.51100000000E-03 0.  1.
    9900012    2    1    2    0    0 -0.49452175308E+01  0.44680422501E+02 -0.28841011764E+01  0.46142319065E+02  0.10000011892E+02 0.  0.
        -12    1    1    2    0    0  0.49452175308E+01 -0.44680422501E+02  0.28841011764E+01  0.45045680935E+02  0.00000000000E+00 0.  1.
         11    1    3    3    0    0  0.12045383605E+01  0.13585759265E+02 -0.66390073589E+00  0.13655201643E+02  0.51100000000E-03 0. -1.
        -11    1    3    3    0    0 -0.47096391733E+01  0.85185523861E+01 -0.15403872917E+01  0.98549088868E+01  0.51100000000E-03 0.  1.
         12    1    3    3    0    0 -0.14401167180E+01  0.22576110850E+02 -0.67981314882E+00  0.22632208536E+02  0.00000000000E+00 0. -1.
</event>
<event>
 7    1  0.1476909E-008  0.4614233E+02  0.7816164E-02  0.1320468E+00
        -11   -1    0    0    0    0  0.00000000000E+00  0.00000000000E+00  0.45593999997E+02  0.45594000000E+02  0.51100000000E-03 0.  1.
         11   -1    0    0    0    0 -0.00000000000E+00 -0.00000000000E+00 -0.45593999997E+02  0.45594000000E+02  0.51100000000E-03 0. -1.
    9900012    2    1    2    0    0  0.17068311584E+02 -0.40190183641E+02 -0.11069539754E+02  0.46142325048E+02  0.10000066452E+02 0.  0.
        -12    1    1    2    0    0 -0.17068311584E+02  0.40190183641E+02  0.11069539754E+02  0.45045674952E+02  0.00000000000E+00 0.  1.
         11    1    3    3    0    0  0.10854817716E+02 -0.22148961720E+02 -0.79419724407E+01  0.25912902181E+02  0.51100000000E-03 0. -1.
        -11    1    3    3    0    0  0.30212873013E+01 -0.12537685839E+02  0.49875537048E+00  0.12906219444E+02  0.51100000000E-03 0.  1.
        -12    1    3    3    0    0  0.31922065676E+01 -0.55035360822E+01 -0.36263226839E+01  0.73232034238E+01  0.00000000000E+00 0.  1.
</event>
<event>
 7    1  0.1476909E-008  0.4614232E+02  0.7816164E-02  0.1320468E+00
        -11   -1    0    0    0    0  0.00000000000E+00  0.00000000000E+00  0.45593999997E+02  0.45594000000E+02  0.51100000000E-03 0. -1.
         11   -1    0    0    0    0 -0.00000000000E+00 -0.00000000000E+00 -0.45593999997E+02  0.45594000000E+02  0.51100000000E-03 0.  1.
    9900012    2    1    2    0    0  0.41187060098E+02 -0.17209998540E+02  0.60461188806E+01  0.46142317379E+02  0.99999965141E+01 0.  0.
        -12    1    1    2    0    0 -0.41187060098E+02  0.17209998540E+02 -0.60461188806E+01  0.45045682621E+02  0.00000000000E+00 0.  1.
         11    1    3    3    0    0  0.15201327129E+00 -0.94678746181E+00  0.82966960221E+00  0.12680167359E+01  0.51100000000E-03 0. -1.
        -11    1    3    3    0    0  0.26386859527E+01 -0.28710743264E+01  0.25285848816E+00  0.39076423865E+01  0.51100000000E-03 0.  1.
         12    1    3    3    0    0  0.38396360874E+02 -0.13392136752E+02  0.49635907903E+01  0.40966658256E+02  0.00000000000E+00 0. -1.
</event>
<event>
 7    1  0.1476909E-008  0.4614232E+02  0.7816164E-02  0.1320468E+00
        -11   -1    0    0    0    0  0.00000000000E+00  0.00000000000E+00  0.45593999997E+02  0.45594000000E+02  0.51100000000E-03 0.  1.
         11   -1    0    0    0    0 -0.00000000000E+00 -0.00000000000E+00 -0.45593999997E+02  0.45594000000E+02  0.51100000000E-03 0. -1.
    9900012    2    1    2    0    0 -0.19718747308E+02  0.12935626587E+02 -0.38379083733E+02  0.46142317646E+02  0.99999989487E+01 0.  0.
        -12    1    1    2    0    0  0.19718747308E+02 -0.12935626587E+02  0.38379083733E+02  0.45045682354E+02  0.00000000000E+00 0.  1.
         11    1    3    3    0    0 -0.11007117812E+02  0.10340957230E+02 -0.23470604486E+02  0.27909878434E+02  0.51100000000E-03 0. -1.
        -11    1    3    3    0    0  0.29794647275E+00 -0.66853776175E+00 -0.21843141329E+01  0.23036803884E+01  0.51100000000E-03 0.  1.
         12    1    3    3    0    0 -0.90095759684E+01  0.32632071185E+01 -0.12724165114E+02  0.15928758824E+02  0.00000000000E+00 0. -1.
</event>
<event>
 7    1  0.1476909E-008  0.4614232E+02  0.7816164E-02  0.1320468E+00
        -11   -1    0    0    0    0  0.00000000000E+00  0.00000000000E+00  0.45593999997E+02  0.45594000000E+02  0.51100000000E-03 0.  1.
         11   -1    0    0    0    0 -0.00000000000E+00 -0.00000000000E+00 -0.45593999997E+02  0.45594000000E+02  0.51100000000E-03 0. -1.
    9900012    2    1    2    0    0 -0.14931592429E+02 -0.41095359963E+02 -0.10832009872E+02  0.46142317623E+02  0.99999987397E+01 0.  0.
        -12    1    1    2    0    0  0.14931592429E+02  0.41095359963E+02  0.10832009872E+02  0.45045682377E+02  0.00000000000E+00 0.  1.
         11    1    3    3    0    0 -0.68404080809E+01 -0.22385561044E+02 -0.49466471586E+01  0.23924335818E+02  0.51100000000E-03 0.  1.
        -11    1    3    3    0    0 -0.62655609670E+01 -0.12296208168E+02 -0.78520778370E+00  0.13822826812E+02  0.51100000000E-03 0. -1.
        -12    1    3    3    0    0 -0.18256233811E+01 -0.64135907509E+01 -0.51001549296E+01  0.83951549929E+01  0.00000000000E+00 0.  1.
</event>
<event>
 7    1  0.1476909E-008  0.4614232E+02  0.7816164E-02  0.1320468E+00
        -11   -1    0    0    0    0  0.00000000000E+00  0.00000000000E+00  0.45593999997E+02  0.45594000000E+02  0.51100000000E-03 0.  1.
         11   -1    0    0    0    0 -0.00000000000E+00 -0.00000000000E+00 -0.45593999997E+02  0.45594000000E+02  0.51100000000E-03 0. -1.
    9900012    2    1    2    0    0  0.53581043686E+01  0.28931815786E+02 -0.34107978430E+02  0.46142318302E+02  0.10000004928E+02 0.  0.
        -12    1    1    2    0    0 -0.53581043686E+01 -0.28931815786E+02  0.34107978430E+02  0.45045681698E+02  0.00000000000E+00 0.  1.
         11    1    3    3    0    0  0.16432782617E+01  0.14544281331E+02 -0.18625769910E+02  0.23688727021E+02  0.51100000000E-03 0. -1.
        -11    1    3    3    0    0  0.12197874984E+00  0.54695484066E+01 -0.18565574441E+01  0.57773388677E+01  0.51100000000E-03 0.  1.
        -12    1    3    3    0    0  0.35928473570E+01  0.89179860491E+01 -0.13625651076E+02  0.16676252413E+02  0.00000000000E+00 0.  1.
</event>
<event>
 7    1  0.1476909E-008  0.4614232E+02  0.7816164E-02  0.1320468E+00
        -11   -1    0    0    0    0  0.00000000000E+00  0.00000000000E+00  0.45593999997E+02  0.45594000000E+02  0.51100000000E-03 0.  1.
         11   -1    0    0    0    0 -0.00000000000E+00 -0.00000000000E+00 -0.45593999997E+02  0.45594000000E+02  0.51100000000E-03 0. -1.
    9900012    2    1    2    0    0 -0.16162217772E+02 -0.21479668123E+02 -0.36145816916E+02  0.46142317559E+02  0.99999981600E+01 0.  0.
        -12    1    1    2    0    0  0.16162217772E+02  0.21479668123E+02  0.36145816916E+02  0.45045682441E+02  0.00000000000E+00 0.  1.
         11    1    3    3    0    0 -0.31015454412E+01 -0.46894989866E+01 -0.62008282738E+01  0.83702602356E+01  0.51100000000E-03 0. -1.
        -11    1    3    3    0    0  0.78132750988E+00 -0.38495893373E+01 -0.36597072119E+01  0.53687305652E+01  0.51100000000E-03 0.  1.
        -12    1    3    3    0    0 -0.13841999841E+02 -0.12940579799E+02 -0.26285281431E+02  0.32403326758E+02  0.00000000000E+00 0.  1.
</event>
<event>
 7    1  0.1476909E-008  0.4614232E+02  0.7816164E-02  0.1320468E+00
        -11   -1    0    0    0    0  0.00000000000E+00  0.00000000000E+00  0.45593999997E+02  0.45594000000E+02  0.51100000000E-03 0. -1.
         11   -1    0    0    0    0 -0.00000000000E+00 -0.00000000000E+00 -0.45593999997E+02  0.45594000000E+02  0.51100000000E-03 0.  1.
    9900012    2    1    2    0    0 -0.43606959027E+02 -0.96450121872E+01 -0.58753938602E+01  0.46142318867E+02  0.10000010085E+02 0.  0.
        -12    1    1    2    0    0  0.43606959027E+02  0.96450121872E+01  0.58753938602E+01  0.45045681133E+02  0.00000000000E+00 0.  1.
         11    1    3    3    0    0 -0.25834069158E+02 -0.85670338486E+01  0.41370504161E-01  0.27217547832E+02  0.51100000000E-03 0. -1.
        -11    1    3    3    0    0 -0.87344446532E+01  0.70712866775E+00 -0.28800172817E+01  0.92241560132E+01  0.51100000000E-03 0.  1.
         12    1    3    3    0    0 -0.90384452162E+01 -0.17851070063E+01 -0.30367470827E+01  0.97006150215E+01  0.00000000000E+00 0. -1.
</event>
<event>
 7    1  0.1476909E-008  0.4614232E+02  0.7816164E-02  0.1320468E+00
        -11   -1    0    0    0    0  0.00000000000E+00  0.00000000000E+00  0.45593999997E+02  0.45594000000E+02  0.51100000000E-03 0. -1.
         11   -1    0    0    0    0 -0.00000000000E+00 -0.00000000000E+00 -0.45593999997E+02  0.45594000000E+02  0.51100000000E-03 0.  1.
    9900012    2    1    2    0    0 -0.31619577691E+02  0.14786690600E+02  0.28472259047E+02  0.46142318215E+02  0.10000004140E+02 0.  0.
        -12    1    1    2    0    0  0.31619577691E+02 -0.14786690600E+02 -0.28472259047E+02  0.45045681785E+02  0.00000000000E+00 0.  1.
         11    1    3    3    0    0 -0.12374824418E+02  0.41445469402E+01  0.15824205066E+02  0.20511436199E+02  0.51100000000E-03 0. -1.
        -11    1    3    3    0    0 -0.93809944601E+01  0.67285479688E+01  0.80016439524E+01  0.14046448698E+02  0.51100000000E-03 0.  1.
         12    1    3    3    0    0 -0.98637588127E+01  0.39135956907E+01  0.46464100289E+01  0.11584433318E+02  0.00000000000E+00 0. -1.
</event>
<event>
 7    1  0.1476909E-008  0.4614232E+02  0.7816164E-02  0.1320468E+00
        -11   -1    0    0    0    0  0.00000000000E+00  0.00000000000E+00  0.45593999997E+02  0.45594000000E+02  0.51100000000E-03 0.  1.
         11   -1    0    0    0    0 -0.00000000000E+00 -0.00000000000E+00 -0.45593999997E+02  0.45594000000E+02  0.51100000000E-03 0. -1.
    9900012    2    1    2    0    0 -0.27619392640E+02  0.65775576972E+01 -0.34971679723E+02  0.46142317658E+02  0.99999990567E+01 0.  0.
        -12    1    1    2    0    0  0.27619392640E+02 -0.65775576972E+01  0.34971679723E+02  0.45045682342E+02  0.00000000000E+00 0.  1.
         11    1    3    3    0    0 -0.16450521479E+02  0.85914319988E+01 -0.23235805060E+02  0.29737770558E+02  0.51100000000E-03 0. -1.
        -11    1    3    3    0    0 -0.98014838223E+01 -0.16906653219E+01 -0.94397514243E+01  0.13712634377E+02  0.51100000000E-03 0.  1.
         12    1    3    3    0    0 -0.13673873387E+01 -0.32320897969E+00 -0.22961232387E+01  0.26919127225E+01  0.00000000000E+00 0. -1.
</event>
<event>
 7    1  0.1476909E-008  0.4614232E+02  0.7816164E-02  0.1320468E+00
        -11   -1    0    0    0    0  0.00000000000E+00  0.00000000000E+00  0.45593999997E+02  0.45594000000E+02  0.51100000000E-03 0. -1.
         11   -1    0    0    0    0 -0.00000000000E+00 -0.00000000000E+00 -0.45593999997E+02  0.45594000000E+02  0.51100000000E-03 0.  1.
    9900012    2    1    2    0    0  0.23907288095E+02 -0.27851704139E+02  0.26112021660E+02  0.46142317380E+02  0.99999965286E+01 0.  0.
        -12    1    1    2    0    0 -0.23907288095E+02  0.27851704139E+02 -0.26112021660E+02  0.45045682620E+02  0.00000000000E+00 0.  1.
         11    1    3    3    0    0  0.60040323438E+01 -0.60429955699E+01  0.65187558363E+01  0.10726620053E+02  0.51100000000E-03 0. -1.
        -11    1    3    3    0    0  0.13338460796E+02 -0.17247763303E+02  0.19026476172E+02  0.28937979735E+02  0.51100000000E-03 0.  1.
        -12    1    3    3    0    0  0.45647949550E+01 -0.45609452664E+01  0.56678965201E+00  0.64777175930E+01  0.00000000000E+00 0.  1.
</event>
<event>
 7    1  0.1476909E-008  0.4614232E+02  0.7816164E-02  0.1320468E+00
        -11   -1    0    0    0    0  0.00000000000E+00  0.00000000000E+00  0.45593999997E+02  0.45594000000E+02  0.51100000000E-03 0.  1.
         11   -1    0    0    0    0 -0.00000000000E+00 -0.00000000000E+00 -0.45593999997E+02  0.45594000000E+02  0.51100000000E-03 0. -1.
    9900012    2    1    2    0    0 -0.10614677224E+02 -0.71659532121E+01 -0.43186702075E+02  0.46142317697E+02  0.99999994127E+01 0.  0.
        -12    1    1    2    0    0  0.10614677224E+02  0.71659532121E+01  0.43186702075E+02  0.45045682303E+02  0.00000000000E+00 0.  1.
         11    1    3    3    0    0 -0.59678310637E+01 -0.48007844503E+01 -0.24255726448E+02  0.25436249816E+02  0.51100000000E-03 0. -1.
        -11    1    3    3    0    0 -0.16424870697E+01  0.17142396089E+01 -0.11297900720E+02  0.11544649936E+02  0.51100000000E-03 0.  1.
        -12    1    3    3    0    0 -0.30043590908E+01 -0.40794083707E+01 -0.76330749078E+01  0.91614179442E+01  0.00000000000E+00 0.  1.
</event>
<event>
 7    1  0.1476909E-008  0.4614232E+02  0.7816164E-02  0.1320468E+00
        -11   -1    0    0    0    0  0.00000000000E+00  0.00000000000E+00  0.45593999997E+02  0.45594000000E+02  0.51100000000E-03 0.  1.
         11   -1    0    0    0    0 -0.00000000000E+00 -0.00000000000E+00 -0.45593999997E+02  0.45594000000E+02  0.51100000000E-03 0. -1.
    9900012    2    1    2    0    0 -0.38883900059E+02 -0.21001724383E+02  0.87225788784E+01  0.46142317708E+02  0.99999995157E+01 0.  0.
        -12    1    1    2    0    0  0.38883900059E+02  0.21001724383E+02 -0.87225788784E+01  0.45045682292E+02  0.00000000000E+00 0.  1.
         11    1    3    3    0    0 -0.28069755201E+02 -0.11892315614E+02  0.34022919100E+01  0.30674320175E+02  0.51100000000E-03 0. -1.
        -11    1    3    3    0    0 -0.16734242591E+01 -0.27887660332E+01  0.27733956893E+00  0.32641204384E+01  0.51100000000E-03 0.  1.
        -12    1    3    3    0    0 -0.91407205990E+01 -0.63206427355E+01  0.50429473995E+01  0.12203877094E+02  0.00000000000E+00 0.  1.
</event>
<event>
 7    1  0.1476909E-008  0.4614232E+02  0.7816164E-02  0.1320468E+00
        -11   -1    0    0    0    0  0.00000000000E+00  0.00000000000E+00  0.45593999997E+02  0.45594000000E+02  0.51100000000E-03 0.  1.
         11   -1    0    0    0    0 -0.00000000000E+00 -0.00000000000E+00 -0.45593999997E+02  0.45594000000E+02  0.51100000000E-03 0. -1.
    9900012    2    1    2    0    0 -0.44715429872E+02 -0.44817525880E+01 -0.30915489494E+01  0.46142318189E+02  0.10000003900E+02 0.  0.
        -12    1    1    2    0    0  0.44715429872E+02  0.44817525880E+01  0.30915489494E+01  0.45045681811E+02  0.00000000000E+00 0.  1.
         11    1    3    3    0    0 -0.29814405674E+02 -0.72198490549E+01 -0.35247570682E+01  0.30877968176E+02  0.51100000000E-03 0. -1.
        -11    1    3    3    0    0 -0.43491393597E+01  0.13732675845E+01 -0.47715100278E+00  0.45856897375E+01  0.51100000000E-03 0.  1.
         12    1    3    3    0    0 -0.10551884839E+02  0.13648288825E+01  0.91035912154E+00  0.10678660275E+02  0.00000000000E+00 0. -1.
</event>
<event>
 7    1  0.1476909E-008  0.4614232E+02  0.7816164E-02  0.1320468E+00
        -11   -1    0    0    0    0  0.00000000000E+00  0.00000000000E+00  0.45593999997E+02  0.45594000000E+02  0.51100000000E-03 0. -1.
         11   -1    0    0    0    0 -0.00000000000E+00 -0.00000000000E+00 -0.45593999997E+02  0.45594000000E+02  0.51100000000E-03 0.  1.
    9900012    2    1    2    0    0  0.10576696737E+02 -0.23097321886E+01  0.43725417352E+02  0.46142317640E+02  0.99999988948E+01 0.  0.
        -12    1    1    2    0    0 -0.10576696737E+02  0.23097321886E+01 -0.43725417352E+02  0.45045682360E+02  0.00000000000E+00 0.  1.
         11    1    3    3    0    0  0.55871936630E+01 -0.87146059615E+00  0.31853995701E+02  0.32352020323E+02  0.51100000000E-03 0. -1.
        -11    1    3    3    0    0  0.56483879412E+01 -0.68595599094E+00  0.81695337081E+01  0.99557070681E+01  0.51100000000E-03 0.  1.
         12    1    3    3    0    0 -0.65888486722E+00 -0.75231560149E+00  0.37018879437E+01  0.38345902493E+01  0.00000000000E+00 0. -1.
</event>
<event>
 7    1  0.1713286E-008  0.4614232E+02  0.7816164E-02  0.1320468E+00
        -11   -1    0    0    0    0  0.00000000000E+00  0.00000000000E+00  0.45593999997E+02  0.45594000000E+02  0.51100000000E-03 0. -1.
         11   -1    0    0    0    0 -0.00000000000E+00 -0.00000000000E+00 -0.45593999997E+02  0.45594000000E+02  0.51100000000E-03 0.  1.
    9900012    2    1    2    0    0  0.19043233267E+02  0.40177929731E+02  0.72251436615E+01  0.46142317946E+02  0.10000001690E+02 0.  0.
        -12    1    1    2    0    0 -0.19043233267E+02 -0.40177929731E+02 -0.72251436615E+01  0.45045682054E+02  0.00000000000E+00 0.  1.
         11    1    3    3    0    0  0.35757257965E+01  0.10963509668E+02  0.26600757982E+01  0.11834710082E+02  0.51100000000E-03 0. -1.
        -11    1    3    3    0    0  0.61300567590E+01  0.46249656578E+01  0.53087288685E+00  0.76973845875E+01  0.51100000000E-03 0.  1.
        -12    1    3    3    0    0  0.93374507119E+01  0.24589454405E+02  0.40341949765E+01  0.26610223277E+02  0.00000000000E+00 0.  1.
</event>
<event>
 7    1  0.1476909E-008  0.4614232E+02  0.7816164E-02  0.1320468E+00
        -11   -1    0    0    0    0  0.00000000000E+00  0.00000000000E+00  0.45593999997E+02  0.45594000000E+02  0.51100000000E-03 0. -1.
         11   -1    0    0    0    0 -0.00000000000E+00 -0.00000000000E+00 -0.45593999997E+02  0.45594000000E+02  0.51100000000E-03 0.  1.
    9900012    2    1    2    0    0 -0.17591788726E+02 -0.21994755707E+02 -0.35154984218E+02  0.46142320689E+02  0.10000026697E+02 0.  0.
        -12    1    1    2    0    0  0.17591788726E+02  0.21994755707E+02  0.35154984218E+02  0.45045679311E+02  0.00000000000E+00 0.  1.
         11    1    3    3    0    0 -0.72321603191E+01 -0.11740084715E+02 -0.20962233373E+02  0.25090814260E+02  0.51100000000E-03 0.  1.
        -11    1    3    3    0    0 -0.99726006746E+01 -0.10568266711E+02 -0.14448580638E+02  0.20491522837E+02  0.51100000000E-03 0. -1.
        -12    1    3    3    0    0 -0.38702773238E+00  0.31359571801E+00  0.25582979238E+00  0.55998359141E+00  0.00000000000E+00 0.  1.
</event>
<event>
 7    1  0.1476909E-008  0.4614232E+02  0.7816164E-02  0.1320468E+00
        -11   -1    0    0    0    0  0.00000000000E+00  0.00000000000E+00  0.45593999997E+02  0.45594000000E+02  0.51100000000E-03 0.  1.
         11   -1    0    0    0    0 -0.00000000000E+00 -0.00000000000E+00 -0.45593999997E+02  0.45594000000E+02  0.51100000000E-03 0. -1.
    9900012    2    1    2    0    0  0.88005524976E+01  0.63399186786E+01 -0.43720352382E+02  0.46142317570E+02  0.99999982613E+01 0.  0.
        -12    1    1    2    0    0 -0.88005524976E+01 -0.63399186786E+01  0.43720352382E+02  0.45045682430E+02  0.00000000000E+00 0.  1.
         11    1    3    3    0    0  0.40956569163E+01  0.58169963312E+01 -0.30067569107E+02  0.30897743674E+02  0.51100000000E-03 0. -1.
        -11    1    3    3    0    0  0.96357510449E+00 -0.20023601465E+01 -0.53720264189E+01  0.58134835723E+01  0.51100000000E-03 0.  1.
        -12    1    3    3    0    0  0.37413204768E+01  0.25252824939E+01 -0.82807568565E+01  0.94310903241E+01  0.00000000000E+00 0.  1.
</event>
<event>
 7    1  0.1476909E-008  0.4614232E+02  0.7816164E-02  0.1320468E+00
        -11   -1    0    0    0    0  0.00000000000E+00  0.00000000000E+00  0.45593999997E+02  0.45594000000E+02  0.51100000000E-03 0. -1.
         11   -1    0    0    0    0 -0.00000000000E+00 -0.00000000000E+00 -0.45593999997E+02  0.45594000000E+02  0.51100000000E-03 0.  1.
    9900012    2    1    2    0    0  0.19015969222E+02  0.32794902610E+02  0.24331066359E+02  0.46142317489E+02  0.99999975219E+01 0.  0.
        -12    1    1    2    0    0 -0.19015969222E+02 -0.32794902610E+02 -0.24331066359E+02  0.45045682511E+02  0.00000000000E+00 0.  1.
         11    1    3    3    0    0  0.13777268071E+01 -0.39749943087E+00  0.75864378407E+00  0.16222446193E+01  0.51100000000E-03 0.  1.
        -11    1    3    3    0    0  0.70403314596E+01  0.16587654230E+02  0.12395003536E+02  0.21871274605E+02  0.51100000000E-03 0. -1.
         12    1    3    3    0    0  0.10597910955E+02  0.16604747811E+02  0.11177419039E+02  0.22648798265E+02  0.00000000000E+00 0. -1.
</event>
<event>
 7    1  0.1476909E-008  0.4614231E+02  0.7816164E-02  0.1320468E+00
        -11   -1    0    0    0    0  0.00000000000E+00  0.00000000000E+00  0.45593999997E+02  0.45594000000E+02  0.51100000000E-03 0. -1.
         11   -1    0    0    0    0 -0.00000000000E+00 -0.00000000000E+00 -0.45593999997E+02  0.45594000000E+02  0.51100000000E-03 0.  1.
    9900012    2    1    2    0    0 -0.24067713091E+02 -0.21671692876E+02  0.31308094001E+02  0.46142313908E+02  0.99999648604E+01 0.  0.
        -12    1    1    2    0    0  0.24067713091E+02  0.21671692876E+02 -0.31308094001E+02  0.45045686092E+02  0.00000000000E+00 0.  1.
         11    1    3    3    0    0 -0.16265461568E+02 -0.83536206863E+01  0.17120221681E+02  0.25048956251E+02  0.51100000000E-03 0. -1.
        -11    1    3    3    0    0 -0.39538654032E+01 -0.86798747135E+01  0.79146925607E+01  0.12394177474E+02  0.51100000000E-03 0.  1.
         12    1    3    3    0    0 -0.38483861207E+01 -0.46381974762E+01  0.62731797593E+01  0.86991801829E+01  0.00000000000E+00 0. -1.
</event>
<event>
 7    1  0.1476909E-008  0.4614232E+02  0.7816164E-02  0.1320468E+00
        -11   -1    0    0    0    0  0.00000000000E+00  0.00000000000E+00  0.45593999997E+02  0.45594000000E+02  0.51100000000E-03 0. -1.
         11   -1    0    0    0    0 -0.00000000000E+00 -0.00000000000E+00 -0.45593999997E+02  0.45594000000E+02  0.51100000000E-03 0.  1.
    9900012    2    1    2    0    0  0.28122611228E+01  0.44813147465E+02  0.36036866005E+01  0.46142317016E+02  0.99999932094E+01 0.  0.
        -12    1    1    2    0    0 -0.28122611228E+01 -0.44813147465E+02 -0.36036866005E+01  0.45045682984E+02  0.00000000000E+00 0.  1.
         11    1    3    3    0    0 -0.10124895210E+01  0.14939390412E+02  0.53655105425E+01  0.15905949345E+02  0.51100000000E-03 0. -1.
        -11    1    3    3    0    0  0.24695449250E+01  0.24951265323E+02 -0.16929538913E+01  0.25130268334E+02  0.51100000000E-03 0.  1.
         12    1    3    3    0    0  0.13552057187E+01  0.49224917295E+01 -0.68870050695E-01  0.51060993382E+01  0.00000000000E+00 0. -1.
</event>
<event>
 7    1  0.1476909E-008  0.4614232E+02  0.7816164E-02  0.1320468E+00
        -11   -1    0    0    0    0  0.00000000000E+00  0.00000000000E+00  0.45593999997E+02  0.45594000000E+02  0.51100000000E-03 0. -1.
         11   -1    0    0    0    0 -0.00000000000E+00 -0.00000000000E+00 -0.45593999997E+02  0.45594000000E+02  0.51100000000E-03 0.  1.
    9900012    2    1    2    0    0  0.19281687703E+02 -0.10321409172E+02  0.39380178935E+02  0.46142318066E+02  0.10000002782E+02 0.  0.
        -12    1    1    2    0    0 -0.19281687703E+02  0.10321409172E+02 -0.39380178935E+02  0.45045681934E+02  0.00000000000E+00 0.  1.
         11    1    3    3    0    0  0.76515088691E+01 -0.37876025284E+01  0.76181201303E+01  0.11442345715E+02  0.51100000000E-03 0. -1.
        -11    1    3    3    0    0  0.65680478197E+01 -0.23887490093E+01  0.12045597350E+02  0.13926298495E+02  0.51100000000E-03 0.  1.
        -12    1    3    3    0    0  0.50621310139E+01 -0.41450576341E+01  0.19716461454E+02  0.20773673856E+02  0.00000000000E+00 0.  1.
</event>
<event>
 7    1  0.1476909E-008  0.4614232E+02  0.7816164E-02  0.1320468E+00
        -11   -1    0    0    0    0  0.00000000000E+00  0.00000000000E+00  0.45593999997E+02  0.45594000000E+02  0.51100000000E-03 0.  1.
         11   -1    0    0    0    0 -0.00000000000E+00 -0.00000000000E+00 -0.45593999997E+02  0.45594000000E+02  0.51100000000E-03 0. -1.
    9900012    2    1    2    0    0 -0.23482057433E+02 -0.99718254262E+01 -0.37125047862E+02  0.46142317606E+02  0.99999985836E+01 0.  0.
        -12    1    1    2    0    0  0.23482057433E+02  0.99718254262E+01  0.37125047862E+02  0.45045682394E+02  0.00000000000E+00 0.  1.
         11    1    3    3    0    0 -0.15357619194E+02 -0.21209195858E+01 -0.18504167019E+02  0.24140401084E+02  0.51100000000E-03 0. -1.
        -11    1    3    3    0    0 -0.17754496622E+01 -0.32184383141E+01 -0.78552922884E+01  0.86727264387E+01  0.51100000000E-03 0.  1.
        -12    1    3    3    0    0 -0.63489885772E+01 -0.46324675263E+01 -0.10765588555E+02  0.13329190083E+02  0.00000000000E+00 0.  1.
</event>
<event>
 7    1  0.1476909E-008  0.4614232E+02  0.7816164E-02  0.1320468E+00
        -11   -1    0    0    0    0  0.00000000000E+00  0.00000000000E+00  0.45593999997E+02  0.45594000000E+02  0.51100000000E-03 0. -1.
         11   -1    0    0    0    0 -0.00000000000E+00 -0.00000000000E+00 -0.45593999997E+02  0.45594000000E+02  0.51100000000E-03 0.  1.
    9900012    2    1    2    0    0 -0.10976028937E+02 -0.43656287946E+02 -0.16639843754E+01  0.46142317272E+02  0.99999955376E+01 0.  0.
        -12    1    1    2    0    0  0.10976028937E+02  0.43656287946E+02  0.16639843754E+01  0.45045682728E+02  0.00000000000E+00 0.  1.
         11    1    3    3    0    0 -0.36514144846E+01 -0.61782051246E+01  0.16548623385E+01  0.73648907609E+01  0.51100000000E-03 0.  1.
        -11    1    3    3    0    0 -0.79748870390E+01 -0.33138268428E+02 -0.17931215410E+01  0.34131494881E+02  0.51100000000E-03 0. -1.
        -12    1    3    3    0    0  0.65027258636E+00 -0.43398143938E+01 -0.15257251730E+01  0.46459316302E+01  0.00000000000E+00 0.  1.
</event>
<event>
 7    1  0.1476909E-008  0.4614232E+02  0.7816164E-02  0.1320468E+00
        -11   -1    0    0    0    0  0.00000000000E+00  0.00000000000E+00  0.45593999997E+02  0.45594000000E+02  0.51100000000E-03 0. -1.
         11   -1    0    0    0    0 -0.00000000000E+00 -0.00000000000E+00 -0.45593999997E+02  0.45594000000E+02  0.51100000000E-03 0.  1.
    9900012    2    1    2    0    0 -0.23848161362E+02 -0.38186270363E+02  0.14790479255E+01  0.46142316218E+02  0.99999859288E+01 0.  0.
        -12    1    1    2    0    0  0.23848161362E+02  0.38186270363E+02 -0.14790479255E+01  0.45045683782E+02  0.00000000000E+00 0.  1.
         11    1    3    3    0    0 -0.99786655054E+01 -0.22113207696E+02  0.13413218982E+01  0.24297466217E+02  0.51100000000E-03 0. -1.
        -11    1    3    3    0    0 -0.18379085908E+01 -0.11746226519E+01  0.14988364097E+01  0.26465368327E+01  0.51100000000E-03 0.  1.
         12    1    3    3    0    0 -0.12031587266E+02 -0.14898440016E+02 -0.13611103824E+01  0.19198313168E+02  0.00000000000E+00 0. -1.
</event>
<event>
 7    1  0.1476909E-008  0.4614232E+02  0.7816164E-02  0.1320468E+00
        -11   -1    0    0    0    0  0.00000000000E+00  0.00000000000E+00  0.45593999997E+02  0.45594000000E+02  0.51100000000E-03 0.  1.
         11   -1    0    0    0    0 -0.00000000000E+00 -0.00000000000E+00 -0.45593999997E+02  0.45594000000E+02  0.51100000000E-03 0. -1.
    9900012    2    1    2    0    0 -0.14166499579E+02  0.32435611542E+02 -0.27863145023E+02  0.46142318109E+02  0.10000003173E+02 0.  0.
        -12    1    1    2    0    0  0.14166499579E+02 -0.32435611542E+02  0.27863145023E+02  0.45045681891E+02  0.00000000000E+00 0.  1.
         11    1    3    3    0    0 -0.11533606349E+02  0.23415598664E+02 -0.17932558125E+02  0.31668453979E+02  0.51100000000E-03 0. -1.
        -11    1    3    3    0    0  0.71909617395E+00  0.53079960803E+01 -0.64311723849E+01  0.83697013209E+01  0.51100000000E-03 0.  1.
         12    1    3    3    0    0 -0.33519894044E+01  0.37120167975E+01 -0.34994145130E+01  0.61041628096E+01  0.00000000000E+00 0. -1.
</event>
<event>
 7    1  0.1476909E-008  0.4614231E+02  0.7816164E-02  0.1320468E+00
        -11   -1    0    0    0    0  0.00000000000E+00  0.00000000000E+00  0.45593999997E+02  0.45594000000E+02  0.51100000000E-03 0. -1.
         11   -1    0    0    0    0 -0.00000000000E+00 -0.00000000000E+00 -0.45593999997E+02  0.45594000000E+02  0.51100000000E-03 0.  1.
    9900012    2    1    2    0    0  0.15223664909E+02 -0.18459422100E+02  0.38165484640E+02  0.46142307028E+02  0.99999021228E+01 0.  0.
        -12    1    1    2    0    0 -0.15223664909E+02  0.18459422100E+02 -0.38165484640E+02  0.45045692972E+02  0.00000000000E+00 0.  1.
         11    1    3    3    0    0  0.26143688458E+01 -0.91302401385E+01  0.15525084661E+02  0.18199573166E+02  0.51100000000E-03 0.  1.
        -11    1    3    3    0    0  0.61786480783E+01 -0.51128834918E+01  0.15486851275E+02  0.17440178679E+02  0.51100000000E-03 0. -1.
        -12    1    3    3    0    0  0.64306479853E+01 -0.42162984695E+01  0.71535487052E+01  0.10502555183E+02  0.00000000000E+00 0.  1.
</event>
<event>
 7    1  0.1476909E-008  0.4614232E+02  0.7816164E-02  0.1320468E+00
        -11   -1    0    0    0    0  0.00000000000E+00  0.00000000000E+00  0.45593999997E+02  0.45594000000E+02  0.51100000000E-03 0. -1.
         11   -1    0    0    0    0 -0.00000000000E+00 -0.00000000000E+00 -0.45593999997E+02  0.45594000000E+02  0.51100000000E-03 0.  1.
    9900012    2    1    2    0    0  0.12991157830E+02 -0.42484554680E+02  0.74435162364E+01  0.46142317609E+02  0.99999986119E+01 0.  0.
        -12    1    1    2    0    0 -0.12991157830E+02  0.42484554680E+02 -0.74435162364E+01  0.45045682391E+02  0.00000000000E+00 0.  1.
         11    1    3    3    0    0 -0.74983220418E+00 -0.40490556872E+00  0.65310818076E+00  0.10736607522E+01  0.51100000000E-03 0. -1.
        -11    1    3    3    0    0 -0.14607717849E+00 -0.14931747807E+01  0.95143993029E+00  0.17765550005E+01  0.51100000000E-03 0.  1.
         12    1    3    3    0    0  0.13887067212E+02 -0.40586474331E+02  0.58389681254E+01  0.43292101856E+02  0.00000000000E+00 0. -1.
</event>
<event>
 7    1  0.1476909E-008  0.4614231E+02  0.7816164E-02  0.1320468E+00
        -11   -1    0    0    0    0  0.00000000000E+00  0.00000000000E+00  0.45593999997E+02  0.45594000000E+02  0.51100000000E-03 0. -1.
         11   -1    0    0    0    0 -0.00000000000E+00 -0.00000000000E+00 -0.45593999997E+02  0.45594000000E+02  0.51100000000E-03 0.  1.
    9900012    2    1    2    0    0  0.16373337553E+02  0.39200649281E+02  0.14977873909E+02  0.46142314374E+02  0.99999691160E+01 0.  0.
        -12    1    1    2    0    0 -0.16373337553E+02 -0.39200649281E+02 -0.14977873909E+02  0.45045685626E+02  0.00000000000E+00 0.  1.
         11    1    3    3    0    0  0.80413149848E+01  0.21089254612E+02  0.11610372214E+02  0.25381492273E+02  0.51100000000E-03 0. -1.
        -11    1    3    3    0    0  0.30572524277E+01  0.26710616660E+01 -0.17785149322E+00  0.40636183685E+01  0.51100000000E-03 0.  1.
        -12    1    3    3    0    0  0.52747701403E+01  0.15440333003E+02  0.35453531876E+01  0.16697203733E+02  0.00000000000E+00 0.  1.
</event>
<event>
 7    1  0.1476909E-008  0.4614232E+02  0.7816164E-02  0.1320468E+00
        -11   -1    0    0    0    0  0.00000000000E+00  0.00000000000E+00  0.45593999997E+02  0.45594000000E+02  0.51100000000E-03 0.  1.
         11   -1    0    0    0    0 -0.00000000000E+00 -0.00000000000E+00 -0.45593999997E+02  0.45594000000E+02  0.51100000000E-03 0. -1.
    9900012    2    1    2    0    0 -0.43854524104E+02 -0.13542780300E+01 -0.10200986514E+02  0.46142317863E+02  0.10000000927E+02 0.  0.
        -12    1    1    2    0    0  0.43854524104E+02  0.13542780300E+01  0.10200986514E+02  0.45045682137E+02  0.00000000000E+00 0.  1.
         11    1    3    3    0    0 -0.21275534060E+02 -0.75469159309E+00 -0.53270352718E+00  0.21295578936E+02  0.51100000000E-03 0. -1.
        -11    1    3    3    0    0 -0.76407023283E-02 -0.26767085663E+00 -0.31099921722E+00  0.41039839432E+00  0.51100000000E-03 0.  1.
         12    1    3    3    0    0 -0.22571349342E+02 -0.33191558029E+00 -0.93572837694E+01  0.24436340532E+02  0.00000000000E+00 0. -1.
</event>
<event>
 7    1  0.1476909E-008  0.4614232E+02  0.7816164E-02  0.1320468E+00
        -11   -1    0    0    0    0  0.00000000000E+00  0.00000000000E+00  0.45593999997E+02  0.45594000000E+02  0.51100000000E-03 0. -1.
         11   -1    0    0    0    0 -0.00000000000E+00 -0.00000000000E+00 -0.45593999997E+02  0.45594000000E+02  0.51100000000E-03 0.  1.
    9900012    2    1    2    0    0  0.38130482569E+02  0.66975491364E+01  0.23028733555E+02  0.46142318358E+02  0.10000005446E+02 0.  0.
        -12    1    1    2    0    0 -0.38130482569E+02 -0.66975491364E+01 -0.23028733555E+02  0.45045681642E+02  0.00000000000E+00 0.  1.
         11    1    3    3    0    0  0.42172778493E+01  0.22733868930E+01  0.50224741224E+01  0.69411070439E+01  0.51100000000E-03 0. -1.
        -11    1    3    3    0    0  0.31174350699E+02  0.22632669553E+01  0.15385709040E+02  0.34837947151E+02  0.51100000000E-03 0.  1.
        -12    1    3    3    0    0  0.27388540212E+01  0.21608952881E+01  0.26205503927E+01  0.43632641630E+01  0.00000000000E+00 0.  1.
</event>
<event>
 7    1  0.1476909E-008  0.4614232E+02  0.7816164E-02  0.1320468E+00
        -11   -1    0    0    0    0  0.00000000000E+00  0.00000000000E+00  0.45593999997E+02  0.45594000000E+02  0.51100000000E-03 0.  1.
         11   -1    0    0    0    0 -0.00000000000E+00 -0.00000000000E+00 -0.45593999997E+02  0.45594000000E+02  0.51100000000E-03 0. -1.
    9900012    2    1    2    0    0 -0.24589698131E+02  0.12474476441E+02 -0.35620887518E+02  0.46142318251E+02  0.10000004471E+02 0.  0.
        -12    1    1    2    0    0  0.24589698131E+02 -0.12474476441E+02  0.35620887518E+02  0.45045681749E+02  0.00000000000E+00 0.  1.
         11    1    3    3    0    0 -0.12708970440E+02  0.93751056787E+01 -0.24236862584E+02  0.28928118575E+02  0.51100000000E-03 0.  1.
        -11    1    3    3    0    0 -0.10689849863E+02  0.14725714483E+01 -0.10334291774E+02  0.14941182801E+02  0.51100000000E-03 0. -1.
        -12    1    3    3    0    0 -0.11908778277E+01  0.16267993136E+01 -0.10497331603E+01  0.22730168752E+01  0.00000000000E+00 0.  1.
</event>
<event>
 7    1  0.1476909E-008  0.4614231E+02  0.7816164E-02  0.1320468E+00
        -11   -1    0    0    0    0  0.00000000000E+00  0.00000000000E+00  0.45593999997E+02  0.45594000000E+02  0.51100000000E-03 0.  1.
         11   -1    0    0    0    0 -0.00000000000E+00 -0.00000000000E+00 -0.45593999997E+02  0.45594000000E+02  0.51100000000E-03 0. -1.
    9900012    2    1    2    0    0 -0.88187862999E+01 -0.22618736641E+02 -0.37943847274E+02  0.46142314468E+02  0.99999699744E+01 0.  0.
        -12    1    1    2    0    0  0.88187862999E+01  0.22618736641E+02  0.37943847274E+02  0.45045685532E+02  0.00000000000E+00 0.  1.
         11    1    3    3    0    0 -0.23208946685E+01 -0.93122953903E+00 -0.57036793130E+01  0.62278165101E+01  0.51100000000E-03 0. -1.
        -11    1    3    3    0    0 -0.23719992908E+01 -0.12531658433E+02 -0.13003809915E+02  0.18214497421E+02  0.51100000000E-03 0.  1.
        -12    1    3    3    0    0 -0.41258923405E+01 -0.91558486688E+01 -0.19236358046E+02  0.21700000538E+02  0.00000000000E+00 0.  1.
</event>
<event>
 7    1  0.1476909E-008  0.4614232E+02  0.7816164E-02  0.1320468E+00
        -11   -1    0    0    0    0  0.00000000000E+00  0.00000000000E+00  0.45593999997E+02  0.45594000000E+02  0.51100000000E-03 0.  1.
         11   -1    0    0    0    0 -0.00000000000E+00 -0.00000000000E+00 -0.45593999997E+02  0.45594000000E+02  0.51100000000E-03 0. -1.
    9900012    2    1    2    0    0 -0.45155835237E+01 -0.34126893056E+02 -0.29053023813E+02  0.46142317445E+02  0.99999971152E+01 0.  0.
        -12    1    1    2    0    0  0.45155835237E+01  0.34126893056E+02  0.29053023813E+02  0.45045682555E+02  0.00000000000E+00 0.  1.
         11    1    3    3    0    0 -0.13710047536E+01 -0.22813624374E+02 -0.23766634560E+02  0.32972625460E+02  0.51100000000E-03 0. -1.
        -11    1    3    3    0    0 -0.33515978979E+01 -0.72918354483E+01 -0.32638053308E+01  0.86635153473E+01  0.51100000000E-03 0.  1.
         12    1    3    3    0    0  0.20701912773E+00 -0.40214332336E+01 -0.20225839212E+01  0.45061766377E+01  0.00000000000E+00 0. -1.
</event>
<event>
 7    1  0.1476909E-008  0.4614232E+02  0.7816164E-02  0.1320468E+00
        -11   -1    0    0    0    0  0.00000000000E+00  0.00000000000E+00  0.45593999997E+02  0.45594000000E+02  0.51100000000E-03 0.  1.
         11   -1    0    0    0    0 -0.00000000000E+00 -0.00000000000E+00 -0.45593999997E+02  0.45594000000E+02  0.51100000000E-03 0. -1.
    9900012    2    1    2    0    0  0.10200587357E+02  0.25238443837E+02 -0.35889864866E+02  0.46142318411E+02  0.10000005928E+02 0.  0.
        -12    1    1    2    0    0 -0.10200587357E+02 -0.25238443837E+02  0.35889864866E+02  0.45045681589E+02  0.00000000000E+00 0.  1.
         11    1    3    3    0    0  0.78489800919E+01  0.17161503000E+02 -0.29184659960E+02  0.34754396138E+02  0.51100000000E-03 0. -1.
        -11    1    3    3    0    0 -0.96115541598E+00  0.10603044373E+01 -0.12804496152E+01  0.19203168258E+01  0.51100000000E-03 0.  1.
        -12    1    3    3    0    0  0.33127626814E+01  0.70166363988E+01 -0.54247552906E+01  0.94676054469E+01  0.00000000000E+00 0.  1.
</event>
<event>
 7    1  0.1476909E-008  0.4614232E+02  0.7816164E-02  0.1320468E+00
        -11   -1    0    0    0    0  0.00000000000E+00  0.00000000000E+00  0.45593999997E+02  0.45594000000E+02  0.51100000000E-03 0.  1.
         11   -1    0    0    0    0 -0.00000000000E+00 -0.00000000000E+00 -0.45593999997E+02  0.45594000000E+02  0.51100000000E-03 0. -1.
    9900012    2    1    2    0    0 -0.38940059376E+02 -0.10425247151E+02 -0.20102226751E+02  0.46142317380E+02  0.99999965204E+01 0.  0.
        -12    1    1    2    0    0  0.38940059376E+02  0.10425247151E+02  0.20102226751E+02  0.45045682620E+02  0.00000000000E+00 0.  1.
         11    1    3    3    0    0 -0.16038081508E+02 -0.65287733614E+01 -0.96917166182E+01  0.19843747411E+02  0.51100000000E-03 0. -1.
        -11    1    3    3    0    0 -0.63791044082E+01 -0.22274011698E+01 -0.11229072911E+00  0.67577287968E+01  0.51100000000E-03 0.  1.
        -12    1    3    3    0    0 -0.16522873460E+02 -0.16690726198E+01 -0.10298219404E+02  0.19540841172E+02  0.00000000000E+00 0.  1.
</event>
<event>
 7    1  0.1476909E-008  0.4614232E+02  0.7816164E-02  0.1320468E+00
        -11   -1    0    0    0    0  0.00000000000E+00  0.00000000000E+00  0.45593999997E+02  0.45594000000E+02  0.51100000000E-03 0.  1.
         11   -1    0    0    0    0 -0.00000000000E+00 -0.00000000000E+00 -0.45593999997E+02  0.45594000000E+02  0.51100000000E-03 0. -1.
    9900012    2    1    2    0    0 -0.18781736125E+02 -0.23038721799E+02 -0.33846375893E+02  0.46142317908E+02  0.10000001343E+02 0.  0.
        -12    1    1    2    0    0  0.18781736125E+02  0.23038721799E+02  0.33846375893E+02  0.45045682092E+02  0.00000000000E+00 0.  1.
         11    1    3    3    0    0 -0.76090495772E+01 -0.96244782279E+01 -0.14325128515E+02  0.18861005377E+02  0.51100000000E-03 0. -1.
        -11    1    3    3    0    0 -0.32599300556E+01 -0.26122811590E+01 -0.78245254758E+00  0.42501045954E+01  0.51100000000E-03 0.  1.
        -12    1    3    3    0    0 -0.79127564923E+01 -0.10801962412E+02 -0.18738794831E+02  0.23031207936E+02  0.00000000000E+00 0.  1.
</event>
<event>
 7    1  0.1476909E-008  0.4614232E+02  0.7816164E-02  0.1320468E+00
        -11   -1    0    0    0    0  0.00000000000E+00  0.00000000000E+00  0.45593999997E+02  0.45594000000E+02  0.51100000000E-03 0.  1.
         11   -1    0    0    0    0 -0.00000000000E+00 -0.00000000000E+00 -0.45593999997E+02  0.45594000000E+02  0.51100000000E-03 0. -1.
    9900012    2    1    2    0    0  0.32444755224E+02  0.91882826362E+00 -0.31234709083E+02  0.46142318316E+02  0.10000005057E+02 0.  0.
        -12    1    1    2    0    0 -0.32444755224E+02 -0.91882826362E+00  0.31234709083E+02  0.45045681684E+02  0.00000000000E+00 0.  1.
         11    1    3    3    0    0  0.23406668120E+01 -0.83368016195E+00 -0.41840118858E+01  0.48661791437E+01  0.51100000000E-03 0. -1.
        -11    1    3    3    0    0  0.23678832361E+02  0.46113724054E+01 -0.21558515086E+02  0.32353074512E+02  0.51100000000E-03 0.  1.
        -12    1    3    3    0    0  0.64252560505E+01 -0.28588639798E+01 -0.54921821117E+01  0.89230646595E+01  0.00000000000E+00 0.  1.
</event>
<event>
 7    1  0.1476909E-008  0.4614232E+02  0.7816164E-02  0.1320468E+00
        -11   -1    0    0    0    0  0.00000000000E+00  0.00000000000E+00  0.45593999997E+02  0.45594000000E+02  0.51100000000E-03 0.  1.
         11   -1    0    0    0    0 -0.00000000000E+00 -0.00000000000E+00 -0.45593999997E+02  0.45594000000E+02  0.51100000000E-03 0. -1.
    9900012    2    1    2    0    0 -0.26963976774E+02  0.26121660037E+01 -0.35989360254E+02  0.46142317564E+02  0.99999981987E+01 0.  0.
        -12    1    1    2    0    0  0.26963976774E+02 -0.26121660037E+01  0.35989360254E+02  0.45045682436E+02  0.00000000000E+00 0.  1.
         11    1    3    3    0    0 -0.18105441518E+02 -0.28072165444E+01 -0.22521452211E+02  0.29032796752E+02  0.51100000000E-03 0. -1.
        -11    1    3    3    0    0 -0.56915405354E+01  0.31569984058E+01 -0.97800772172E+01  0.11747773544E+02  0.51100000000E-03 0.  1.
         12    1    3    3    0    0 -0.31669947201E+01  0.22623841423E+01 -0.36878308262E+01  0.53617472681E+01  0.00000000000E+00 0. -1.
</event>
<event>
 7    1  0.1476909E-008  0.4614231E+02  0.7816164E-02  0.1320468E+00
        -11   -1    0    0    0    0  0.00000000000E+00  0.00000000000E+00  0.45593999997E+02  0.45594000000E+02  0.51100000000E-03 0.  1.
         11   -1    0    0    0    0 -0.00000000000E+00 -0.00000000000E+00 -0.45593999997E+02  0.45594000000E+02  0.51100000000E-03 0. -1.
    9900012    2    1    2    0    0  0.18365226666E+02 -0.26580481331E+02 -0.31389653748E+02  0.46142313185E+02  0.99999582691E+01 0.  0.
        -12    1    1    2    0    0 -0.18365226666E+02  0.26580481331E+02  0.31389653748E+02  0.45045686815E+02  0.00000000000E+00 0.  1.
         11    1    3    3    0    0  0.80708155583E+01 -0.17150865733E+02 -0.17924499944E+02  0.26087889100E+02  0.51100000000E-03 0. -1.
        -11    1    3    3    0    0  0.71030469867E+01 -0.35186678975E+01 -0.55691733222E+01  0.96876205552E+01  0.51100000000E-03 0.  1.
        -12    1    3    3    0    0  0.31913641206E+01 -0.59109477006E+01 -0.78959804810E+01  0.10366803530E+02  0.00000000000E+00 0.  1.
</event>
<event>
 7    1  0.1476909E-008  0.4614232E+02  0.7816164E-02  0.1320468E+00
        -11   -1    0    0    0    0  0.00000000000E+00  0.00000000000E+00  0.45593999997E+02  0.45594000000E+02  0.51100000000E-03 0.  1.
         11   -1    0    0    0    0 -0.00000000000E+00 -0.00000000000E+00 -0.45593999997E+02  0.45594000000E+02  0.51100000000E-03 0. -1.
    9900012    2    1    2    0    0 -0.14585030975E+02  0.42581703542E+02 -0.17857251221E+01  0.46142318527E+02  0.10000006987E+02 0.  0.
        -12    1    1    2    0    0  0.14585030975E+02 -0.42581703542E+02  0.17857251221E+01  0.45045681473E+02  0.00000000000E+00 0.  1.
         11    1    3    3    0    0 -0.53803917584E+01  0.23013798710E+02 -0.27355237979E+01  0.23792154952E+02  0.51100000000E-03 0. -1.
        -11    1    3    3    0    0 -0.80160742156E+01  0.11810036837E+02 -0.84720642024E+00  0.14298677383E+02  0.51100000000E-03 0.  1.
        -12    1    3    3    0    0 -0.11885650014E+01  0.77578679954E+01  0.17970050960E+01  0.80514861927E+01  0.00000000000E+00 0.  1.
</event>
<event>
 7    1  0.1476909E-008  0.4614232E+02  0.7816164E-02  0.1320468E+00
        -11   -1    0    0    0    0  0.00000000000E+00  0.00000000000E+00  0.45593999997E+02  0.45594000000E+02  0.51100000000E-03 0.  1.
         11   -1    0    0    0    0 -0.00000000000E+00 -0.00000000000E+00 -0.45593999997E+02  0.45594000000E+02  0.51100000000E-03 0. -1.
    9900012    2    1    2    0    0 -0.33428367544E+02  0.19229828325E+02 -0.23278131072E+02  0.46142318295E+02  0.10000004871E+02 0.  0.
        -12    1    1    2    0    0  0.33428367544E+02 -0.19229828325E+02  0.23278131072E+02  0.45045681705E+02  0.00000000000E+00 0.  1.
         11    1    3    3    0    0 -0.19378680169E+02  0.10942939709E+02 -0.10032712770E+02  0.24411810673E+02  0.51100000000E-03 0. -1.
        -11    1    3    3    0    0 -0.78351382532E+01  0.75093847258E+01 -0.71863103169E+01  0.13016270842E+02  0.51100000000E-03 0.  1.
        -12    1    3    3    0    0 -0.62145491218E+01  0.77750389103E+00 -0.60591079849E+01  0.87142367801E+01  0.00000000000E+00 0.  1.
</event>
<event>
 7    1  0.1476909E-008  0.4614232E+02  0.7816164E-02  0.1320468E+00
        -11   -1    0    0    0    0  0.00000000000E+00  0.00000000000E+00  0.45593999997E+02  0.45594000000E+02  0.51100000000E-03 0.  1.
         11   -1    0    0    0    0 -0.00000000000E+00 -0.00000000000E+00 -0.45593999997E+02  0.45594000000E+02  0.51100000000E-03 0. -1.
    9900012    2    1    2    0    0  0.94634743397E+01  0.35092115153E+02 -0.26610139686E+02  0.46142318447E+02  0.10000006252E+02 0.  0.
        -12    1    1    2    0    0 -0.94634743397E+01 -0.35092115153E+02  0.26610139686E+02  0.45045681553E+02  0.00000000000E+00 0.  1.
         11    1    3    3    0    0  0.82060863495E+01  0.20985545149E+02 -0.13309078506E+02  0.26169916494E+02  0.51100000000E-03 0. -1.
        -11    1    3    3    0    0  0.33155615402E+00  0.13694716360E+02 -0.11414956859E+02  0.17831332705E+02  0.51100000000E-03 0.  1.
        -12    1    3    3    0    0  0.92583183618E+00  0.41185364365E+00 -0.18861043215E+01  0.21410692479E+01  0.00000000000E+00 0.  1.
</event>
<event>
 7    1  0.1476909E-008  0.4614232E+02  0.7816164E-02  0.1320468E+00
        -11   -1    0    0    0    0  0.00000000000E+00  0.00000000000E+00  0.45593999997E+02  0.45594000000E+02  0.51100000000E-03 0.  1.
         11   -1    0    0    0    0 -0.00000000000E+00 -0.00000000000E+00 -0.45593999997E+02  0.45594000000E+02  0.51100000000E-03 0. -1.
    9900012    2    1    2    0    0  0.27867555242E+02  0.35105264117E+02 -0.44870149922E+01  0.46142317549E+02  0.99999980696E+01 0.  0.
        -12    1    1    2    0    0 -0.27867555242E+02 -0.35105264117E+02  0.44870149922E+01  0.45045682451E+02  0.00000000000E+00 0.  1.
         11    1    3    3    0    0  0.20822919871E+02  0.22594627289E+02 -0.48989218549E+01  0.31114475890E+02  0.51100000000E-03 0. -1.
        -11    1    3    3    0    0 -0.27034104879E+00  0.26696292269E+01 -0.51003742910E+00  0.27313262222E+01  0.51100000000E-03 0.  1.
         12    1    3    3    0    0  0.73149764195E+01  0.98410076015E+01  0.92194429176E+00  0.12296515438E+02  0.00000000000E+00 0. -1.
</event>
<event>
 7    1  0.1476909E-008  0.4614232E+02  0.7816164E-02  0.1320468E+00
        -11   -1    0    0    0    0  0.00000000000E+00  0.00000000000E+00  0.45593999997E+02  0.45594000000E+02  0.51100000000E-03 0.  1.
         11   -1    0    0    0    0 -0.00000000000E+00 -0.00000000000E+00 -0.45593999997E+02  0.45594000000E+02  0.51100000000E-03 0. -1.
    9900012    2    1    2    0    0 -0.44849133847E+02  0.39269296526E+01  0.14993062432E+01  0.46142317603E+02  0.99999985627E+01 0.  0.
        -12    1    1    2    0    0  0.44849133847E+02 -0.39269296526E+01 -0.14993062432E+01  0.45045682397E+02  0.00000000000E+00 0.  1.
         11    1    3    3    0    0 -0.25722238170E+02  0.22822604655E+01 -0.24456620243E+01  0.25938841769E+02  0.51100000000E-03 0. -1.
        -11    1    3    3    0    0 -0.59171760047E+01  0.28113543538E+01  0.14512515695E+01  0.67099043624E+01  0.51100000000E-03 0.  1.
        -12    1    3    3    0    0 -0.13209719673E+02 -0.11666851667E+01  0.24937166981E+01  0.13493571472E+02  0.00000000000E+00 0.  1.
</event>
<event>
 7    1  0.1476909E-008  0.4614232E+02  0.7816164E-02  0.1320468E+00
        -11   -1    0    0    0    0  0.00000000000E+00  0.00000000000E+00  0.45593999997E+02  0.45594000000E+02  0.51100000000E-03 0.  1.
         11   -1    0    0    0    0 -0.00000000000E+00 -0.00000000000E+00 -0.45593999997E+02  0.45594000000E+02  0.51100000000E-03 0. -1.
    9900012    2    1    2    0    0  0.23238226182E+01 -0.17113984513E+02 -0.41603184383E+02  0.46142316874E+02  0.99999919109E+01 0.  0.
        -12    1    1    2    0    0 -0.23238226182E+01  0.17113984513E+02  0.41603184383E+02  0.45045683126E+02  0.00000000000E+00 0.  1.
         11    1    3    3    0    0  0.22522598799E+01 -0.68362784439E+01 -0.19806351142E+02  0.21073654722E+02  0.51100000000E-03 0. -1.
        -11    1    3    3    0    0  0.19906632159E+01 -0.32809421915E+00 -0.57152786956E+01  0.60609237485E+01  0.51100000000E-03 0.  1.
         12    1    3    3    0    0 -0.19191004776E+01 -0.99496118501E+01 -0.16081554545E+02  0.19007738403E+02  0.00000000000E+00 0. -1.
</event>
<event>
 7    1  0.1476909E-008  0.4614232E+02  0.7816164E-02  0.1320468E+00
        -11   -1    0    0    0    0  0.00000000000E+00  0.00000000000E+00  0.45593999997E+02  0.45594000000E+02  0.51100000000E-03 0. -1.
         11   -1    0    0    0    0 -0.00000000000E+00 -0.00000000000E+00 -0.45593999997E+02  0.45594000000E+02  0.51100000000E-03 0.  1.
    9900012    2    1    2    0    0  0.37981026124E+02  0.19873766534E+02  0.13841549191E+02  0.46142318456E+02  0.10000006341E+02 0.  0.
        -12    1    1    2    0    0 -0.37981026124E+02 -0.19873766534E+02 -0.13841549191E+02  0.45045681544E+02  0.00000000000E+00 0.  1.
         11    1    3    3    0    0  0.13322403231E+02  0.80539262129E+01  0.17707779910E+01  0.15668050621E+02  0.51100000000E-03 0. -1.
        -11    1    3    3    0    0  0.12756210322E+02  0.42300971451E+01  0.85397073617E+01  0.15922977916E+02  0.51100000000E-03 0.  1.
         12    1    3    3    0    0  0.11902412571E+02  0.75897431758E+01  0.35310638387E+01  0.14551289919E+02  0.00000000000E+00 0. -1.
</event>
<event>
 7    1  0.1476909E-008  0.4614232E+02  0.7816164E-02  0.1320468E+00
        -11   -1    0    0    0    0  0.00000000000E+00  0.00000000000E+00  0.45593999997E+02  0.45594000000E+02  0.51100000000E-03 0.  1.
         11   -1    0    0    0    0 -0.00000000000E+00 -0.00000000000E+00 -0.45593999997E+02  0.45594000000E+02  0.51100000000E-03 0. -1.
    9900012    2    1    2    0    0 -0.26182989630E+02  0.42551784371E+00 -0.36652195573E+02  0.46142318168E+02  0.10000003708E+02 0.  0.
        -12    1    1    2    0    0  0.26182989630E+02 -0.42551784371E+00  0.36652195573E+02  0.45045681832E+02  0.00000000000E+00 0.  1.
         11    1    3    3    0    0 -0.99281954932E+01 -0.47424450637E-01 -0.15774904114E+02  0.18639176884E+02  0.51100000000E-03 0. -1.
        -11    1    3    3    0    0 -0.39393291173E+01  0.16056052274E+01 -0.10603759859E+02  0.11425235465E+02  0.51100000000E-03 0.  1.
         12    1    3    3    0    0 -0.12315465020E+02 -0.11326629331E+01 -0.10273531600E+02  0.16077905819E+02  0.00000000000E+00 0. -1.
</event>
<event>
 7    1  0.1476909E-008  0.4614232E+02  0.7816164E-02  0.1320468E+00
        -11   -1    0    0    0    0  0.00000000000E+00  0.00000000000E+00  0.45593999997E+02  0.45594000000E+02  0.51100000000E-03 0.  1.
         11   -1    0    0    0    0 -0.00000000000E+00 -0.00000000000E+00 -0.45593999997E+02  0.45594000000E+02  0.51100000000E-03 0. -1.
    9900012    2    1    2    0    0 -0.30373945269E+01  0.42916725721E+02 -0.13343253281E+02  0.46142317408E+02  0.99999967769E+01 0.  0.
        -12    1    1    2    0    0  0.30373945269E+01 -0.42916725721E+02  0.13343253281E+02  0.45045682592E+02  0.00000000000E+00 0.  1.
         11    1    3    3    0    0  0.63176053736E+00  0.13522761195E+02 -0.55230360504E+01  0.14620811167E+02  0.51100000000E-03 0. -1.
        -11    1    3    3    0    0  0.15443782820E+01  0.49480857343E+01 -0.32311124924E+01  0.61080884827E+01  0.51100000000E-03 0.  1.
        -12    1    3    3    0    0 -0.52135333463E+01  0.24445878791E+02 -0.45891047381E+01  0.25413417758E+02  0.00000000000E+00 0.  1.
</event>
<event>
 7    1  0.1476909E-008  0.4614231E+02  0.7816164E-02  0.1320468E+00
        -11   -1    0    0    0    0  0.00000000000E+00  0.00000000000E+00  0.45593999997E+02  0.45594000000E+02  0.51100000000E-03 0.  1.
         11   -1    0    0    0    0 -0.00000000000E+00 -0.00000000000E+00 -0.45593999997E+02  0.45594000000E+02  0.51100000000E-03 0. -1.
    9900012    2    1    2    0    0 -0.38841371358E+02  0.69408791539E+01 -0.21732151880E+02  0.46142308112E+02  0.99999120073E+01 0.  0.
        -12    1    1    2    0    0  0.38841371358E+02 -0.69408791539E+01  0.21732151880E+02  0.45045691888E+02  0.00000000000E+00 0.  1.
         11    1    3    3    0    0 -0.22990538430E+02  0.82437818377E+01 -0.13216490055E+02  0.27770495241E+02  0.51100000000E-03 0.  1.
        -11    1    3    3    0    0 -0.14501836278E+02 -0.21845018318E+01 -0.75842483261E+01  0.16510485354E+02  0.51100000000E-03 0. -1.
         12    1    3    3    0    0 -0.13489966490E+01  0.88159914802E+00 -0.93141349953E+00  0.18613275166E+01  0.00000000000E+00 0. -1.
</event>
<event>
 7    1  0.1476909E-008  0.4614232E+02  0.7816164E-02  0.1320468E+00
        -11   -1    0    0    0    0  0.00000000000E+00  0.00000000000E+00  0.45593999997E+02  0.45594000000E+02  0.51100000000E-03 0. -1.
         11   -1    0    0    0    0 -0.00000000000E+00 -0.00000000000E+00 -0.45593999997E+02  0.45594000000E+02  0.51100000000E-03 0.  1.
    9900012    2    1    2    0    0 -0.30505884345E+01 -0.41084147634E+02  0.18218123774E+02  0.46142319736E+02  0.10000018013E+02 0.  0.
        -12    1    1    2    0    0  0.30505884345E+01  0.41084147634E+02 -0.18218123774E+02  0.45045680264E+02  0.00000000000E+00 0.  1.
         11    1    3    3    0    0 -0.20512311284E+01 -0.16112904876E+02  0.10488767315E+02  0.19335136222E+02  0.51100000000E-03 0. -1.
        -11    1    3    3    0    0 -0.27527420542E+01 -0.18583209573E+02  0.40066251443E+01  0.19208495833E+02  0.51100000000E-03 0.  1.
        -12    1    3    3    0    0  0.17533847480E+01 -0.63880331850E+01  0.37227313144E+01  0.75986876818E+01  0.00000000000E+00 0.  1.
</event>
<event>
 7    1  0.1476909E-008  0.4614232E+02  0.7816164E-02  0.1320468E+00
        -11   -1    0    0    0    0  0.00000000000E+00  0.00000000000E+00  0.45593999997E+02  0.45594000000E+02  0.51100000000E-03 0.  1.
         11   -1    0    0    0    0 -0.00000000000E+00 -0.00000000000E+00 -0.45593999997E+02  0.45594000000E+02  0.51100000000E-03 0. -1.
    9900012    2    1    2    0    0 -0.43211840889E+02  0.11879635608E+02 -0.45524219841E+01  0.46142317841E+02  0.10000000731E+02 0.  0.
        -12    1    1    2    0    0  0.43211840889E+02 -0.11879635608E+02  0.45524219841E+01  0.45045682159E+02  0.00000000000E+00 0.  1.
         11    1    3    3    0    0 -0.23110443840E+01  0.29166483061E+00 -0.13470867943E+00  0.23332683531E+01  0.51100000000E-03 0. -1.
        -11    1    3    3    0    0 -0.53734124894E+01  0.43177192365E+01  0.15298270040E+01  0.70609228936E+01  0.51100000000E-03 0.  1.
        -12    1    3    3    0    0 -0.35527384016E+02  0.72702515410E+01 -0.59475403086E+01  0.36748126595E+02  0.00000000000E+00 0.  1.
</event>
<event>
 7    1  0.1476909E-008  0.4614232E+02  0.7816164E-02  0.1320468E+00
        -11   -1    0    0    0    0  0.00000000000E+00  0.00000000000E+00  0.45593999997E+02  0.45594000000E+02  0.51100000000E-03 0.  1.
         11   -1    0    0    0    0 -0.00000000000E+00 -0.00000000000E+00 -0.45593999997E+02  0.45594000000E+02  0.51100000000E-03 0. -1.
    9900012    2    1    2    0    0 -0.14116838721E+02  0.37585306996E+02 -0.20424813887E+02  0.46142318078E+02  0.10000002893E+02 0.  0.
        -12    1    1    2    0    0  0.14116838721E+02 -0.37585306996E+02  0.20424813887E+02  0.45045681922E+02  0.00000000000E+00 0.  1.
         11    1    3    3    0    0 -0.58559085742E+01  0.15162233298E+02 -0.95420613535E+01  0.18847703280E+02  0.51100000000E-03 0. -1.
        -11    1    3    3    0    0 -0.25822882867E+00  0.57794316814E+01 -0.56814691985E+01  0.81084896992E+01  0.51100000000E-03 0.  1.
        -12    1    3    3    0    0 -0.80027013186E+01  0.16643642017E+02 -0.52012833353E+01  0.19186125099E+02  0.00000000000E+00 0.  1.
</event>
<event>
 7    1  0.1476909E-008  0.4614232E+02  0.7816164E-02  0.1320468E+00
        -11   -1    0    0    0    0  0.00000000000E+00  0.00000000000E+00  0.45593999997E+02  0.45594000000E+02  0.51100000000E-03 0.  1.
         11   -1    0    0    0    0 -0.00000000000E+00 -0.00000000000E+00 -0.45593999997E+02  0.45594000000E+02  0.51100000000E-03 0. -1.
    9900012    2    1    2    0    0  0.38315765824E+02  0.17609276171E+02 -0.15840737415E+02  0.46142317856E+02  0.10000000868E+02 0.  0.
        -12    1    1    2    0    0 -0.38315765824E+02 -0.17609276171E+02  0.15840737415E+02  0.45045682144E+02  0.00000000000E+00 0.  1.
         11    1    3    3    0    0  0.31095862218E+01 -0.91331870279E+00 -0.77417507898E+00  0.33321201715E+01  0.51100000000E-03 0. -1.
        -11    1    3    3    0    0  0.21175228445E+02  0.84642448103E+01 -0.88471662268E+01  0.24460296205E+02  0.51100000000E-03 0.  1.
         12    1    3    3    0    0  0.14030951157E+02  0.10058350063E+02 -0.62193961095E+01  0.18349901480E+02  0.00000000000E+00 0. -1.
</event>
<event>
 7    1  0.1476909E-008  0.4614232E+02  0.7816164E-02  0.1320468E+00
        -11   -1    0    0    0    0  0.00000000000E+00  0.00000000000E+00  0.45593999997E+02  0.45594000000E+02  0.51100000000E-03 0. -1.
         11   -1    0    0    0    0 -0.00000000000E+00 -0.00000000000E+00 -0.45593999997E+02  0.45594000000E+02  0.51100000000E-03 0.  1.
    9900012    2    1    2    0    0 -0.17568851791E+02  0.13783511705E+02  0.39121141892E+02  0.46142317731E+02  0.99999997242E+01 0.  0.
        -12    1    1    2    0    0  0.17568851791E+02 -0.13783511705E+02 -0.39121141892E+02  0.45045682269E+02  0.00000000000E+00 0.  1.
         11    1    3    3    0    0 -0.70469857341E+01  0.43701708626E+01  0.15272164129E+02  0.17378072355E+02  0.51100000000E-03 0. -1.
        -11    1    3    3    0    0 -0.90525251154E+01  0.89146840788E+01  0.14463215431E+02  0.19251088386E+02  0.51100000000E-03 0.  1.
        -12    1    3    3    0    0 -0.14693409411E+01  0.49865676318E+00  0.93857623320E+01  0.95131569903E+01  0.00000000000E+00 0.  1.
</event>
<event>
 7    1  0.1476909E-008  0.4614232E+02  0.7816164E-02  0.1320468E+00
        -11   -1    0    0    0    0  0.00000000000E+00  0.00000000000E+00  0.45593999997E+02  0.45594000000E+02  0.51100000000E-03 0.  1.
         11   -1    0    0    0    0 -0.00000000000E+00 -0.00000000000E+00 -0.45593999997E+02  0.45594000000E+02  0.51100000000E-03 0. -1.
    9900012    2    1    2    0    0 -0.24814430707E+02 -0.12646527629E+02 -0.35403712579E+02  0.46142317668E+02  0.99999991490E+01 0.  0.
        -12    1    1    2    0    0  0.24814430707E+02  0.12646527629E+02  0.35403712579E+02  0.45045682332E+02  0.00000000000E+00 0.  1.
         11    1    3    3    0    0 -0.87640846326E+01 -0.35647229853E+01 -0.12025504152E+02  0.15301280331E+02  0.51100000000E-03 0. -1.
        -11    1    3    3    0    0 -0.10114504241E+02 -0.91821193924E+01 -0.19272404954E+02  0.23622872508E+02  0.51100000000E-03 0.  1.
        -12    1    3    3    0    0 -0.59358418338E+01  0.10031474921E+00 -0.41058034737E+01  0.72181648283E+01  0.00000000000E+00 0.  1.
</event>
<event>
 7    1  0.1476909E-008  0.4614232E+02  0.7816164E-02  0.1320468E+00
        -11   -1    0    0    0    0  0.00000000000E+00  0.00000000000E+00  0.45593999997E+02  0.45594000000E+02  0.51100000000E-03 0. -1.
         11   -1    0    0    0    0 -0.00000000000E+00 -0.00000000000E+00 -0.45593999997E+02  0.45594000000E+02  0.51100000000E-03 0.  1.
    9900012    2    1    2    0    0  0.23662521579E+02 -0.35553311686E+02  0.14323432224E+02  0.46142316411E+02  0.99999876848E+01 0.  0.
        -12    1    1    2    0    0 -0.23662521579E+02  0.35553311686E+02 -0.14323432224E+02  0.45045683589E+02  0.00000000000E+00 0.  1.
         11    1    3    3    0    0  0.94470746728E+01 -0.17194624846E+02  0.47541606195E+01  0.20186737897E+02  0.51100000000E-03 0. -1.
        -11    1    3    3    0    0 -0.71209931180E+00 -0.10671289991E+01  0.55309736655E+00  0.13970564372E+01  0.51100000000E-03 0.  1.
        -12    1    3    3    0    0  0.14927546218E+02 -0.17291557841E+02  0.90161742384E+01  0.24558522076E+02  0.00000000000E+00 0.  1.
</event>
<event>
 7    1  0.1476909E-008  0.4614231E+02  0.7816164E-02  0.1320468E+00
        -11   -1    0    0    0    0  0.00000000000E+00  0.00000000000E+00  0.45593999997E+02  0.45594000000E+02  0.51100000000E-03 0.  1.
         11   -1    0    0    0    0 -0.00000000000E+00 -0.00000000000E+00 -0.45593999997E+02  0.45594000000E+02  0.51100000000E-03 0. -1.
    9900012    2    1    2    0    0  0.19970231329E+02  0.43193863936E+01 -0.40145319197E+02  0.46142313285E+02  0.99999591875E+01 0.  0.
        -12    1    1    2    0    0 -0.19970231329E+02 -0.43193863936E+01  0.40145319197E+02  0.45045686715E+02  0.00000000000E+00 0.  1.
         11    1    3    3    0    0  0.20331194872E+00 -0.30620844900E+00 -0.55926307062E+01  0.56046960524E+01  0.51100000000E-03 0. -1.
        -11    1    3    3    0    0  0.13401504170E+02  0.29154887630E+01 -0.17354365930E+02  0.22119548048E+02  0.51100000000E-03 0.  1.
         12    1    3    3    0    0  0.63654152098E+01  0.17101060796E+01 -0.17198322561E+02  0.18418069185E+02  0.00000000000E+00 0. -1.
</event>
<event>
 7    1  0.1476909E-008  0.4614232E+02  0.7816164E-02  0.1320468E+00
        -11   -1    0    0    0    0  0.00000000000E+00  0.00000000000E+00  0.45593999997E+02  0.45594000000E+02  0.51100000000E-03 0. -1.
         11   -1    0    0    0    0 -0.00000000000E+00 -0.00000000000E+00 -0.45593999997E+02  0.45594000000E+02  0.51100000000E-03 0.  1.
    9900012    2    1    2    0    0 -0.27383409892E+02  0.35760086649E+02 -0.69173870588E+00  0.46142318332E+02  0.10000005207E+02 0.  0.
        -12    1    1    2    0    0  0.27383409892E+02 -0.35760086649E+02  0.69173870588E+00  0.45045681668E+02  0.00000000000E+00 0.  1.
         11    1    3    3    0    0 -0.20261773244E+02  0.29451486735E+02 -0.13164979360E+01  0.35772373320E+02  0.51100000000E-03 0. -1.
        -11    1    3    3    0    0 -0.73910342962E+01  0.47977079408E+01  0.42048893043E+00  0.88216892178E+01  0.51100000000E-03 0.  1.
        -12    1    3    3    0    0  0.26939764823E+00  0.15108919736E+01  0.20427029968E+00  0.15482557942E+01  0.00000000000E+00 0.  1.
</event>
<event>
 7    1  0.1476909E-008  0.4614232E+02  0.7816164E-02  0.1320468E+00
        -11   -1    0    0    0    0  0.00000000000E+00  0.00000000000E+00  0.45593999997E+02  0.45594000000E+02  0.51100000000E-03 0.  1.
         11   -1    0    0    0    0 -0.00000000000E+00 -0.00000000000E+00 -0.45593999997E+02  0.45594000000E+02  0.51100000000E-03 0. -1.
    9900012    2    1    2    0    0  0.27731207634E+02 -0.78884789924E+01 -0.34610194470E+02  0.46142317200E+02  0.99999948831E+01 0.  0.
        -12    1    1    2    0    0 -0.27731207634E+02  0.78884789924E+01  0.34610194470E+02  0.45045682800E+02  0.00000000000E+00 0.  1.
         11    1    3    3    0    0  0.15184330387E+02 -0.82987853433E+01 -0.20309599044E+02  0.26681707986E+02  0.51100000000E-03 0. -1.
        -11    1    3    3    0    0  0.10882408902E+01  0.10747919552E+01 -0.29240487992E+01  0.32999253966E+01  0.51100000000E-03 0.  1.
         12    1    3    3    0    0  0.11458636358E+02 -0.66448560433E+00 -0.11376546627E+02  0.16160683818E+02  0.00000000000E+00 0. -1.
</event>
<event>
 7    1  0.1476909E-008  0.4614232E+02  0.7816164E-02  0.1320468E+00
        -11   -1    0    0    0    0  0.00000000000E+00  0.00000000000E+00  0.45593999997E+02  0.45594000000E+02  0.51100000000E-03 0.  1.
         11   -1    0    0    0    0 -0.00000000000E+00 -0.00000000000E+00 -0.45593999997E+02  0.45594000000E+02  0.51100000000E-03 0. -1.
    9900012    2    1    2    0    0  0.30751593813E+02 -0.30385854317E+02 -0.12655149814E+02  0.46142317838E+02  0.10000000704E+02 0.  0.
        -12    1    1    2    0    0 -0.30751593813E+02  0.30385854317E+02  0.12655149814E+02  0.45045682162E+02  0.00000000000E+00 0.  1.
         11    1    3    3    0    0  0.24535071233E+02 -0.20540694595E+02 -0.10662496281E+02  0.33728010348E+02  0.51100000000E-03 0. -1.
        -11    1    3    3    0    0  0.35778158129E+01 -0.79388063929E+01 -0.26319207445E+01  0.90968357136E+01  0.51100000000E-03 0.  1.
        -12    1    3    3    0    0  0.26387067664E+01 -0.19063533298E+01  0.63926721237E+00  0.33174717762E+01  0.00000000000E+00 0.  1.
</event>
<event>
 7    1  0.1476909E-008  0.4614232E+02  0.7816164E-02  0.1320468E+00
        -11   -1    0    0    0    0  0.00000000000E+00  0.00000000000E+00  0.45593999997E+02  0.45594000000E+02  0.51100000000E-03 0. -1.
         11   -1    0    0    0    0 -0.00000000000E+00 -0.00000000000E+00 -0.45593999997E+02  0.45594000000E+02  0.51100000000E-03 0.  1.
    9900012    2    1    2    0    0  0.25662247085E+02 -0.16853642895E+02  0.32962361580E+02  0.46142317796E+02  0.10000000320E+02 0.  0.
        -12    1    1    2    0    0 -0.25662247085E+02  0.16853642895E+02 -0.32962361580E+02  0.45045682204E+02  0.00000000000E+00 0.  1.
         11    1    3    3    0    0  0.23530469670E+01  0.96726283134E+00  0.22687596532E+01  0.34087678183E+01  0.51100000000E-03 0.  1.
        -11    1    3    3    0    0  0.21924444179E+02 -0.17365623036E+02  0.30275414641E+02  0.41217069861E+02  0.51100000000E-03 0. -1.
         12    1    3    3    0    0  0.13847559388E+01 -0.45528269035E+00  0.41818728549E+00  0.15164801166E+01  0.00000000000E+00 0. -1.
</event>
<event>
 7    1  0.1476909E-008  0.4614232E+02  0.7816164E-02  0.1320468E+00
        -11   -1    0    0    0    0  0.00000000000E+00  0.00000000000E+00  0.45593999997E+02  0.45594000000E+02  0.51100000000E-03 0. -1.
         11   -1    0    0    0    0 -0.00000000000E+00 -0.00000000000E+00 -0.45593999997E+02  0.45594000000E+02  0.51100000000E-03 0.  1.
    9900012    2    1    2    0    0  0.15229325539E+02  0.36093204442E+02  0.22236494781E+02  0.46142318038E+02  0.10000002521E+02 0.  0.
        -12    1    1    2    0    0 -0.15229325539E+02 -0.36093204442E+02 -0.22236494781E+02  0.45045681962E+02  0.00000000000E+00 0.  1.
         11    1    3    3    0    0  0.73876328058E+01  0.12594015639E+02  0.56270440354E+01  0.15647682679E+02  0.51100000000E-03 0. -1.
        -11    1    3    3    0    0  0.48806330634E+01  0.17282291756E+02  0.85368981311E+01  0.19884084525E+02  0.51100000000E-03 0.  1.
        -12    1    3    3    0    0  0.29610596701E+01  0.62168970470E+01  0.80725526148E+01  0.10610550833E+02  0.00000000000E+00 0.  1.
</event>
<event>
 7    1  0.1476909E-008  0.4614232E+02  0.7816164E-02  0.1320468E+00
        -11   -1    0    0    0    0  0.00000000000E+00  0.00000000000E+00  0.45593999997E+02  0.45594000000E+02  0.51100000000E-03 0.  1.
         11   -1    0    0    0    0 -0.00000000000E+00 -0.00000000000E+00 -0.45593999997E+02  0.45594000000E+02  0.51100000000E-03 0. -1.
    9900012    2    1    2    0    0  0.35187105018E+02  0.20520494505E+02 -0.19232536889E+02  0.46142317305E+02  0.99999958366E+01 0.  0.
        -12    1    1    2    0    0 -0.35187105018E+02 -0.20520494505E+02  0.19232536889E+02  0.45045682695E+02  0.00000000000E+00 0.  1.
         11    1    3    3    0    0  0.13689858779E+02  0.88076259680E+01 -0.96098244205E+01  0.18903312784E+02  0.51100000000E-03 0. -1.
        -11    1    3    3    0    0  0.20312775046E+02  0.92195835359E+01 -0.10012710813E+02  0.24451256179E+02  0.51100000000E-03 0.  1.
        -12    1    3    3    0    0  0.11844711940E+01  0.24932850011E+01  0.38999834423E+00  0.27877483413E+01  0.00000000000E+00 0.  1.
</event>
<event>
 7    1  0.1476909E-008  0.4614232E+02  0.7816164E-02  0.1320468E+00
        -11   -1    0    0    0    0  0.00000000000E+00  0.00000000000E+00  0.45593999997E+02  0.45594000000E+02  0.51100000000E-03 0.  1.
         11   -1    0    0    0    0 -0.00000000000E+00 -0.00000000000E+00 -0.45593999997E+02  0.45594000000E+02  0.51100000000E-03 0. -1.
    9900012    2    1    2    0    0  0.11770073139E+02  0.40926688739E+02 -0.14682813859E+02  0.46142317681E+02  0.99999992663E+01 0.  0.
        -12    1    1    2    0    0 -0.11770073139E+02 -0.40926688739E+02  0.14682813859E+02  0.45045682319E+02  0.00000000000E+00 0.  1.
         11    1    3    3    0    0  0.11719277263E+02  0.26782303442E+02 -0.88398262497E+01  0.30541377926E+02  0.51100000000E-03 0. -1.
        -11    1    3    3    0    0  0.22562931022E+00  0.13659082730E+02 -0.61705376682E+01  0.14989896096E+02  0.51100000000E-03 0.  1.
         12    1    3    3    0    0 -0.17483343443E+00  0.48530256657E+00  0.32755005903E+00  0.61104365809E+00  0.00000000000E+00 0. -1.
</event>
<event>
 7    1  0.1476909E-008  0.4614232E+02  0.7816164E-02  0.1320468E+00
        -11   -1    0    0    0    0  0.00000000000E+00  0.00000000000E+00  0.45593999997E+02  0.45594000000E+02  0.51100000000E-03 0.  1.
         11   -1    0    0    0    0 -0.00000000000E+00 -0.00000000000E+00 -0.45593999997E+02  0.45594000000E+02  0.51100000000E-03 0. -1.
    9900012    2    1    2    0    0  0.94169035020E+01  0.42981287191E+02  0.96459533316E+01  0.46142317234E+02  0.99999951958E+01 0.  0.
        -12    1    1    2    0    0 -0.94169035020E+01 -0.42981287191E+02 -0.96459533316E+01  0.45045682766E+02  0.00000000000E+00 0.  1.
         11    1    3    3    0    0  0.68448934108E+01  0.25206537302E+02  0.28871401975E+01  0.26278463946E+02  0.51100000000E-03 0. -1.
        -11    1    3    3    0    0 -0.15097570291E+01  0.47950735930E+01  0.24439418451E+01  0.55897181550E+01  0.51100000000E-03 0.  1.
        -12    1    3    3    0    0  0.40817671202E+01  0.12979676296E+02  0.43148712890E+01  0.14274135134E+02  0.00000000000E+00 0.  1.
</event>
<event>
 7    1  0.1476909E-008  0.4614232E+02  0.7816164E-02  0.1320468E+00
        -11   -1    0    0    0    0  0.00000000000E+00  0.00000000000E+00  0.45593999997E+02  0.45594000000E+02  0.51100000000E-03 0. -1.
         11   -1    0    0    0    0 -0.00000000000E+00 -0.00000000000E+00 -0.45593999997E+02  0.45594000000E+02  0.51100000000E-03 0.  1.
    9900012    2    1    2    0    0  0.42490432729E+02  0.81366111179E+01  0.12548792575E+02  0.46142317531E+02  0.99999979059E+01 0.  0.
        -12    1    1    2    0    0 -0.42490432729E+02 -0.81366111179E+01 -0.12548792575E+02  0.45045682469E+02  0.00000000000E+00 0.  1.
         11    1    3    3    0    0  0.46186385269E+01  0.99458473894E+00  0.36134007533E+01  0.59479144169E+01  0.51100000000E-03 0. -1.
        -11    1    3    3    0    0  0.67023479525E+01  0.21251483659E+01 -0.98952549946E+00  0.71004848165E+01  0.51100000000E-03 0.  1.
        -12    1    3    3    0    0  0.31169446250E+02  0.50168780131E+01  0.99249173208E+01  0.33093918298E+02  0.00000000000E+00 0.  1.
</event>
<event>
 7    1  0.1476909E-008  0.4614232E+02  0.7816164E-02  0.1320468E+00
        -11   -1    0    0    0    0  0.00000000000E+00  0.00000000000E+00  0.45593999997E+02  0.45594000000E+02  0.51100000000E-03 0.  1.
         11   -1    0    0    0    0 -0.00000000000E+00 -0.00000000000E+00 -0.45593999997E+02  0.45594000000E+02  0.51100000000E-03 0. -1.
    9900012    2    1    2    0    0  0.15297690799E+02  0.96161338329E+01 -0.41262865757E+02  0.46142318030E+02  0.10000002450E+02 0.  0.
        -12    1    1    2    0    0 -0.15297690799E+02 -0.96161338329E+01  0.41262865757E+02  0.45045681970E+02  0.00000000000E+00 0.  1.
         11    1    3    3    0    0  0.10155701652E+02  0.43880163721E+01 -0.19108266280E+02  0.22079827993E+02  0.51100000000E-03 0. -1.
        -11    1    3    3    0    0 -0.11029155568E+01  0.92766179826E+00 -0.15970277031E+01  0.21511571033E+01  0.51100000000E-03 0.  1.
        -12    1    3    3    0    0  0.62449047045E+01  0.43004556625E+01 -0.20557571774E+02  0.21911332933E+02  0.00000000000E+00 0.  1.
</event>
<event>
 7    1  0.1476909E-008  0.4614232E+02  0.7816164E-02  0.1320468E+00
        -11   -1    0    0    0    0  0.00000000000E+00  0.00000000000E+00  0.45593999997E+02  0.45594000000E+02  0.51100000000E-03 0.  1.
         11   -1    0    0    0    0 -0.00000000000E+00 -0.00000000000E+00 -0.45593999997E+02  0.45594000000E+02  0.51100000000E-03 0. -1.
    9900012    2    1    2    0    0 -0.19452520831E+02  0.40324790124E+02 -0.49622830580E+01  0.46142317428E+02  0.99999969635E+01 0.  0.
        -12    1    1    2    0    0  0.19452520831E+02 -0.40324790124E+02  0.49622830580E+01  0.45045682572E+02  0.00000000000E+00 0.  1.
         11    1    3    3    0    0 -0.12526205795E+02  0.28717602130E+02 -0.69401578603E+01  0.32090065365E+02  0.51100000000E-03 0. -1.
        -11    1    3    3    0    0 -0.41433566867E+01  0.40645253743E+01  0.14321404175E+00  0.58058833673E+01  0.51100000000E-03 0.  1.
         12    1    3    3    0    0 -0.27829583488E+01  0.75426626197E+01  0.18346607606E+01  0.82463686961E+01  0.00000000000E+00 0. -1.
</event>
<event>
 7    1  0.1476909E-008  0.4614231E+02  0.7816164E-02  0.1320468E+00
        -11   -1    0    0    0    0  0.00000000000E+00  0.00000000000E+00  0.45593999997E+02  0.45594000000E+02  0.51100000000E-03 0.  1.
         11   -1    0    0    0    0 -0.00000000000E+00 -0.00000000000E+00 -0.45593999997E+02  0.45594000000E+02  0.51100000000E-03 0. -1.
    9900012    2    1    2    0    0 -0.97273340721E+01 -0.16292460369E+02 -0.40853994589E+02  0.46142310230E+02  0.99999313232E+01 0.  0.
        -12    1    1    2    0    0  0.97273340721E+01  0.16292460369E+02  0.40853994589E+02  0.45045689770E+02  0.00000000000E+00 0.  1.
         11    1    3    3    0    0 -0.22531629845E+01 -0.12625911690E+00 -0.87727368801E+01  0.90583440776E+01  0.51100000000E-03 0. -1.
        -11    1    3    3    0    0 -0.14615172115E+01 -0.16441009081E+00 -0.19638319785E+01  0.24535075990E+01  0.51100000000E-03 0.  1.
         12    1    3    3    0    0 -0.60126538761E+01 -0.16001791161E+02 -0.30117425730E+02  0.34630458553E+02  0.00000000000E+00 0. -1.
</event>
<event>
 7    1  0.1476909E-008  0.4614232E+02  0.7816164E-02  0.1320468E+00
        -11   -1    0    0    0    0  0.00000000000E+00  0.00000000000E+00  0.45593999997E+02  0.45594000000E+02  0.51100000000E-03 0.  1.
         11   -1    0    0    0    0 -0.00000000000E+00 -0.00000000000E+00 -0.45593999997E+02  0.45594000000E+02  0.51100000000E-03 0. -1.
    9900012    2    1    2    0    0 -0.31837308271E+02  0.13596760795E+02 -0.28820603735E+02  0.46142319833E+02  0.10000018897E+02 0.  0.
        -12    1    1    2    0    0  0.31837308271E+02 -0.13596760795E+02  0.28820603735E+02  0.45045680167E+02  0.00000000000E+00 0.  1.
         11    1    3    3    0    0 -0.43990623922E+01  0.25967506093E+01 -0.80419367406E+01  0.95272037062E+01  0.51100000000E-03 0. -1.
        -11    1    3    3    0    0 -0.57048876141E+01 -0.72031836488E-01 -0.31201447470E+01  0.65027866932E+01  0.51100000000E-03 0.  1.
         12    1    3    3    0    0 -0.21733358264E+02  0.11072042022E+02 -0.17658522247E+02  0.30112329434E+02  0.00000000000E+00 0. -1.
</event>
<event>
 7    1  0.1476909E-008  0.4614232E+02  0.7816164E-02  0.1320468E+00
        -11   -1    0    0    0    0  0.00000000000E+00  0.00000000000E+00  0.45593999997E+02  0.45594000000E+02  0.51100000000E-03 0.  1.
         11   -1    0    0    0    0 -0.00000000000E+00 -0.00000000000E+00 -0.45593999997E+02  0.45594000000E+02  0.51100000000E-03 0. -1.
    9900012    2    1    2    0    0  0.36288466773E+02 -0.17197871018E+02 -0.20408180635E+02  0.46142318463E+02  0.10000006399E+02 0.  0.
        -12    1    1    2    0    0 -0.36288466773E+02  0.17197871018E+02  0.20408180635E+02  0.45045681537E+02  0.00000000000E+00 0.  1.
         11    1    3    3    0    0  0.18058213968E+02 -0.85467865955E+01 -0.61363248979E+01  0.20899787950E+02  0.51100000000E-03 0.  1.
        -11    1    3    3    0    0 -0.13773468197E+00 -0.60467943334E+00  0.15334495179E-01  0.62035753206E+00  0.51100000000E-03 0. -1.
         12    1    3    3    0    0  0.18367987487E+02 -0.80464049894E+01 -0.14287190232E+02  0.24622172981E+02  0.00000000000E+00 0. -1.
</event>
<event>
 7    1  0.1476909E-008  0.4614232E+02  0.7816164E-02  0.1320468E+00
        -11   -1    0    0    0    0  0.00000000000E+00  0.00000000000E+00  0.45593999997E+02  0.45594000000E+02  0.51100000000E-03 0. -1.
         11   -1    0    0    0    0 -0.00000000000E+00 -0.00000000000E+00 -0.45593999997E+02  0.45594000000E+02  0.51100000000E-03 0.  1.
    9900012    2    1    2    0    0 -0.41041873102E+02 -0.18549879140E+02  0.76169935018E+00  0.46142317080E+02  0.99999937870E+01 0.  0.
        -12    1    1    2    0    0  0.41041873102E+02  0.18549879140E+02 -0.76169935018E+00  0.45045682920E+02  0.00000000000E+00 0.  1.
         11    1    3    3    0    0 -0.16435217177E+02 -0.85324339451E+01 -0.40782475813E+01  0.18961827345E+02  0.51100000000E-03 0. -1.
        -11    1    3    3    0    0 -0.18369574954E+02 -0.65520888997E+01  0.24533234750E+01  0.19656804147E+02  0.51100000000E-03 0.  1.
         12    1    3    3    0    0 -0.62370809718E+01 -0.34653562949E+01  0.23866234565E+01  0.75236855877E+01  0.00000000000E+00 0. -1.
</event>
<event>
 7    1  0.1476909E-008  0.4614232E+02  0.7816164E-02  0.1320468E+00
        -11   -1    0    0    0    0  0.00000000000E+00  0.00000000000E+00  0.45593999997E+02  0.45594000000E+02  0.51100000000E-03 0.  1.
         11   -1    0    0    0    0 -0.00000000000E+00 -0.00000000000E+00 -0.45593999997E+02  0.45594000000E+02  0.51100000000E-03 0. -1.
    9900012    2    1    2    0    0 -0.22552712636E+02  0.28366748633E+02 -0.26754742204E+02  0.46142317570E+02  0.99999982536E+01 0.  0.
        -12    1    1    2    0    0  0.22552712636E+02 -0.28366748633E+02  0.26754742204E+02  0.45045682430E+02  0.00000000000E+00 0.  1.
         11    1    3    3    0    0 -0.80507900675E+01  0.15525462072E+02 -0.14951757073E+02  0.23008916383E+02  0.51100000000E-03 0. -1.
        -11    1    3    3    0    0 -0.22388756259E+01  0.33894296481E+01 -0.80285362899E+00  0.41406969967E+01  0.51100000000E-03 0.  1.
         12    1    3    3    0    0 -0.12263046942E+02  0.94518569122E+01 -0.11000131502E+02  0.18992704190E+02  0.00000000000E+00 0. -1.
</event>
<event>
 7    1  0.1476909E-008  0.4614232E+02  0.7816164E-02  0.1320468E+00
        -11   -1    0    0    0    0  0.00000000000E+00  0.00000000000E+00  0.45593999997E+02  0.45594000000E+02  0.51100000000E-03 0.  1.
         11   -1    0    0    0    0 -0.00000000000E+00 -0.00000000000E+00 -0.45593999997E+02  0.45594000000E+02  0.51100000000E-03 0. -1.
    9900012    2    1    2    0    0 -0.38970313408E+02 -0.12173284602E+02 -0.19032583983E+02  0.46142318318E+02  0.10000005079E+02 0.  0.
        -12    1    1    2    0    0  0.38970313408E+02  0.12173284602E+02  0.19032583983E+02  0.45045681682E+02  0.00000000000E+00 0.  1.
         11    1    3    3    0    0 -0.17137842641E+01  0.69827853048E+00  0.19721060435E+00  0.18610592934E+01  0.51100000000E-03 0. -1.
        -11    1    3    3    0    0 -0.57162204130E+01 -0.44213843964E+01 -0.31324066428E+01  0.78762800501E+01  0.51100000000E-03 0.  1.
         12    1    3    3    0    0 -0.31540308731E+02 -0.84501787366E+01 -0.16097387945E+02  0.36404978975E+02  0.00000000000E+00 0. -1.
</event>
<event>
 7    1  0.1476909E-008  0.4614232E+02  0.7816164E-02  0.1320468E+00
        -11   -1    0    0    0    0  0.00000000000E+00  0.00000000000E+00  0.45593999997E+02  0.45594000000E+02  0.51100000000E-03 0.  1.
         11   -1    0    0    0    0 -0.00000000000E+00 -0.00000000000E+00 -0.45593999997E+02  0.45594000000E+02  0.51100000000E-03 0. -1.
    9900012    2    1    2    0    0  0.38376007407E+02  0.12765600611E+02 -0.19835195461E+02  0.46142317827E+02  0.10000000602E+02 0.  0.
        -12    1    1    2    0    0 -0.38376007407E+02 -0.12765600611E+02  0.19835195461E+02  0.45045682173E+02  0.00000000000E+00 0.  1.
         11    1    3    3    0    0  0.87116955677E+01  0.51889803113E+01 -0.64313236596E+01  0.12007542655E+02  0.51100000000E-03 0.  1.
        -11    1    3    3    0    0  0.28679445588E+02  0.86216816085E+01 -0.12963627230E+02  0.32632799821E+02  0.51100000000E-03 0. -1.
        -12    1    3    3    0    0  0.98486625158E+00 -0.10450613084E+01 -0.44024457112E+00  0.15019753507E+01  0.00000000000E+00 0.  1.
</event>
<event>
 7    1  0.1476909E-008  0.4614232E+02  0.7816164E-02  0.1320468E+00
        -11   -1    0    0    0    0  0.00000000000E+00  0.00000000000E+00  0.45593999997E+02  0.45594000000E+02  0.51100000000E-03 0.  1.
         11   -1    0    0    0    0 -0.00000000000E+00 -0.00000000000E+00 -0.45593999997E+02  0.45594000000E+02  0.51100000000E-03 0. -1.
    9900012    2    1    2    0    0  0.22347816415E+01  0.77662284328E+01 -0.44314838387E+02  0.46142318139E+02  0.10000003443E+02 0.  0.
        -12    1    1    2    0    0 -0.22347816415E+01 -0.77662284328E+01  0.44314838387E+02  0.45045681861E+02  0.00000000000E+00 0.  1.
         11    1    3    3    0    0 -0.12335647017E+01  0.32409239003E+01 -0.12850732504E+02  0.13310394275E+02  0.51100000000E-03 0. -1.
        -11    1    3    3    0    0  0.45077858821E+01  0.59685154564E+01 -0.23096622139E+02  0.24277505325E+02  0.51100000000E-03 0.  1.
        -12    1    3    3    0    0 -0.10394395389E+01 -0.14432109239E+01 -0.83674837435E+01  0.85544185380E+01  0.00000000000E+00 0.  1.
</event>
<event>
 7    1  0.1476909E-008  0.4614232E+02  0.7816164E-02  0.1320468E+00
        -11   -1    0    0    0    0  0.00000000000E+00  0.00000000000E+00  0.45593999997E+02  0.45594000000E+02  0.51100000000E-03 0.  1.
         11   -1    0    0    0    0 -0.00000000000E+00 -0.00000000000E+00 -0.45593999997E+02  0.45594000000E+02  0.51100000000E-03 0. -1.
    9900012    2    1    2    0    0 -0.30731600308E+02 -0.32917398075E+02  0.10617254585E+01  0.46142316362E+02  0.99999872385E+01 0.  0.
        -12    1    1    2    0    0  0.30731600308E+02  0.32917398075E+02 -0.10617254585E+01  0.45045683638E+02  0.00000000000E+00 0.  1.
         11    1    3    3    0    0 -0.16730714455E+02 -0.16957393817E+02 -0.41427188684E+01  0.24179167296E+02  0.51100000000E-03 0. -1.
        -11    1    3    3    0    0 -0.67031707922E+01 -0.84525570790E+01  0.16917657937E+01  0.10919720308E+02  0.51100000000E-03 0.  1.
         12    1    3    3    0    0 -0.72977150605E+01 -0.75074471788E+01  0.35126785332E+01  0.11043428758E+02  0.00000000000E+00 0. -1.
</event>
<event>
 7    1  0.1476909E-008  0.4614232E+02  0.7816164E-02  0.1320468E+00
        -11   -1    0    0    0    0  0.00000000000E+00  0.00000000000E+00  0.45593999997E+02  0.45594000000E+02  0.51100000000E-03 0. -1.
         11   -1    0    0    0    0 -0.00000000000E+00 -0.00000000000E+00 -0.45593999997E+02  0.45594000000E+02  0.51100000000E-03 0.  1.
    9900012    2    1    2    0    0 -0.69750825395E+01 -0.25921926073E+01  0.44426816058E+02  0.46142320695E+02  0.10000026757E+02 0.  0.
        -12    1    1    2    0    0  0.69750825395E+01  0.25921926073E+01 -0.44426816058E+02  0.45045679305E+02  0.00000000000E+00 0.  1.
         11    1    3    3    0    0 -0.25157269432E+01 -0.40178643726E+01  0.14099302842E+02  0.14874893514E+02  0.51100000000E-03 0. -1.
        -11    1    3    3    0    0 -0.51731012919E+01  0.10796719510E+01  0.14721451564E+02  0.15641221337E+02  0.51100000000E-03 0.  1.
        -12    1    3    3    0    0  0.71374569566E+00  0.34599981436E+00  0.15606061652E+02  0.15626205844E+02  0.00000000000E+00 0.  1.
</event>
<event>
 7    1  0.1476909E-008  0.4614232E+02  0.7816164E-02  0.1320468E+00
        -11   -1    0    0    0    0  0.00000000000E+00  0.00000000000E+00  0.45593999997E+02  0.45594000000E+02  0.51100000000E-03 0. -1.
         11   -1    0    0    0    0 -0.00000000000E+00 -0.00000000000E+00 -0.45593999997E+02  0.45594000000E+02  0.51100000000E-03 0.  1.
    9900012    2    1    2    0    0 -0.30578559007E+02 -0.32184487032E+02  0.76304656557E+01  0.46142317825E+02  0.10000000587E+02 0.  0.
        -12    1    1    2    0    0  0.30578559007E+02  0.32184487032E+02 -0.76304656557E+01  0.45045682175E+02  0.00000000000E+00 0.  1.
         11    1    3    3    0    0 -0.18048779735E+02 -0.22788136713E+02  0.77849593411E+01  0.30094238933E+02  0.51100000000E-03 0. -1.
        -11    1    3    3    0    0 -0.10781846424E+02 -0.74044388023E+01  0.10810402147E+01  0.13124121856E+02  0.51100000000E-03 0.  1.
        -12    1    3    3    0    0 -0.17479328488E+01 -0.19919115159E+01 -0.12355339001E+01  0.29239570362E+01  0.00000000000E+00 0.  1.
</event>
<event>
 7    1  0.1476909E-008  0.4614232E+02  0.7816164E-02  0.1320468E+00
        -11   -1    0    0    0    0  0.00000000000E+00  0.00000000000E+00  0.45593999997E+02  0.45594000000E+02  0.51100000000E-03 0. -1.
         11   -1    0    0    0    0 -0.00000000000E+00 -0.00000000000E+00 -0.45593999997E+02  0.45594000000E+02  0.51100000000E-03 0.  1.
    9900012    2    1    2    0    0  0.35891886295E+02  0.22468175350E+02  0.15364475599E+02  0.46142317456E+02  0.99999972218E+01 0.  0.
        -12    1    1    2    0    0 -0.35891886295E+02 -0.22468175350E+02 -0.15364475599E+02  0.45045682544E+02  0.00000000000E+00 0.  1.
         11    1    3    3    0    0  0.46590767386E+01  0.66661953801E+00  0.60597440653E+00  0.47453748964E+01  0.51100000000E-03 0. -1.
        -11    1    3    3    0    0  0.41148415360E+01  0.23291298779E+01  0.43555613161E+01  0.64286609410E+01  0.51100000000E-03 0.  1.
         12    1    3    3    0    0  0.27117968021E+02  0.19472425934E+02  0.10402939876E+02  0.34968281619E+02  0.00000000000E+00 0. -1.
</event>
<event>
 7    1  0.1476909E-008  0.4614232E+02  0.7816164E-02  0.1320468E+00
        -11   -1    0    0    0    0  0.00000000000E+00  0.00000000000E+00  0.45593999997E+02  0.45594000000E+02  0.51100000000E-03 0.  1.
         11   -1    0    0    0    0 -0.00000000000E+00 -0.00000000000E+00 -0.45593999997E+02  0.45594000000E+02  0.51100000000E-03 0. -1.
    9900012    2    1    2    0    0  0.27019721291E+00 -0.13874591186E+02 -0.42854826764E+02  0.46142318031E+02  0.10000002463E+02 0.  0.
        -12    1    1    2    0    0 -0.27019721291E+00  0.13874591186E+02  0.42854826764E+02  0.45045681969E+02  0.00000000000E+00 0.  1.
         11    1    3    3    0    0  0.28160742355E+01 -0.70840715370E+01 -0.13537452118E+02  0.15536310816E+02  0.51100000000E-03 0. -1.
        -11    1    3    3    0    0 -0.18928477938E+01 -0.69034406080E+01 -0.19603243031E+02  0.20869295690E+02  0.51100000000E-03 0.  1.
        -12    1    3    3    0    0 -0.65302922880E+00  0.11292095934E+00 -0.97141316145E+01  0.97367115260E+01  0.00000000000E+00 0.  1.
</event>
<event>
 7    1  0.1476909E-008  0.4614232E+02  0.7816164E-02  0.1320468E+00
        -11   -1    0    0    0    0  0.00000000000E+00  0.00000000000E+00  0.45593999997E+02  0.45594000000E+02  0.51100000000E-03 0.  1.
         11   -1    0    0    0    0 -0.00000000000E+00 -0.00000000000E+00 -0.45593999997E+02  0.45594000000E+02  0.51100000000E-03 0. -1.
    9900012    2    1    2    0    0 -0.35661896958E+02  0.18201475480E+02 -0.20640951038E+02  0.46142318031E+02  0.10000002461E+02 0.  0.
        -12    1    1    2    0    0  0.35661896958E+02 -0.18201475480E+02  0.20640951038E+02  0.45045681969E+02  0.00000000000E+00 0.  1.
         11    1    3    3    0    0 -0.33705110984E+01  0.34152898649E+01 -0.25764775814E+01  0.54463553790E+01  0.51100000000E-03 0. -1.
        -11    1    3    3    0    0 -0.18943540416E+02  0.12887385174E+02 -0.10119361536E+02  0.25046834097E+02  0.51100000000E-03 0.  1.
        -12    1    3    3    0    0 -0.13347845443E+02  0.18988004406E+01 -0.79451119208E+01  0.15649128555E+02  0.00000000000E+00 0.  1.
</event>
<event>
 7    1  0.1476909E-008  0.4614232E+02  0.7816164E-02  0.1320468E+00
        -11   -1    0    0    0    0  0.00000000000E+00  0.00000000000E+00  0.45593999997E+02  0.45594000000E+02  0.51100000000E-03 0.  1.
         11   -1    0    0    0    0 -0.00000000000E+00 -0.00000000000E+00 -0.45593999997E+02  0.45594000000E+02  0.51100000000E-03 0. -1.
    9900012    2    1    2    0    0 -0.32830995657E+02  0.60790394078E+01 -0.30237134658E+02  0.46142319760E+02  0.10000018226E+02 0.  0.
        -12    1    1    2    0    0  0.32830995657E+02 -0.60790394078E+01  0.30237134658E+02  0.45045680240E+02  0.00000000000E+00 0.  1.
         11    1    3    3    0    0 -0.14739848605E+02 -0.43199601722E+00 -0.15492135740E+02  0.21388221700E+02  0.51100000000E-03 0. -1.
        -11    1    3    3    0    0 -0.74953695768E+01  0.78937828423E+00 -0.36253783190E+01  0.83634353818E+01  0.51100000000E-03 0.  1.
        -12    1    3    3    0    0 -0.10595777476E+02  0.57216571408E+01 -0.11119620599E+02  0.16390662678E+02  0.00000000000E+00 0.  1.
</event>
<event>
 7    1  0.1476909E-008  0.4614232E+02  0.7816164E-02  0.1320468E+00
        -11   -1    0    0    0    0  0.00000000000E+00  0.00000000000E+00  0.45593999997E+02  0.45594000000E+02  0.51100000000E-03 0.  1.
         11   -1    0    0    0    0 -0.00000000000E+00 -0.00000000000E+00 -0.45593999997E+02  0.45594000000E+02  0.51100000000E-03 0. -1.
    9900012    2    1    2    0    0  0.16983325578E+02 -0.32471482987E+02 -0.26196999613E+02  0.46142319366E+02  0.10000014632E+02 0.  0.
        -12    1    1    2    0    0 -0.16983325578E+02  0.32471482987E+02  0.26196999613E+02  0.45045680634E+02  0.00000000000E+00 0.  1.
         11    1    3    3    0    0  0.94276956640E+01 -0.13953423581E+02 -0.15585131537E+02  0.22945060481E+02  0.51100000000E-03 0. -1.
        -11    1    3    3    0    0  0.28633723998E+01 -0.20987104638E+01 -0.19075682344E+01  0.40301741824E+01  0.51100000000E-03 0.  1.
        -12    1    3    3    0    0  0.46922575146E+01 -0.16419348942E+02 -0.87042998417E+01  0.19167084703E+02  0.00000000000E+00 0.  1.
</event>
<event>
 7    1  0.1476909E-008  0.4614232E+02  0.7816164E-02  0.1320468E+00
        -11   -1    0    0    0    0  0.00000000000E+00  0.00000000000E+00  0.45593999997E+02  0.45594000000E+02  0.51100000000E-03 0.  1.
         11   -1    0    0    0    0 -0.00000000000E+00 -0.00000000000E+00 -0.45593999997E+02  0.45594000000E+02  0.51100000000E-03 0. -1.
    9900012    2    1    2    0    0 -0.25439267128E+02  0.13483590346E+02 -0.34643180714E+02  0.46142317736E+02  0.99999997747E+01 0.  0.
        -12    1    1    2    0    0  0.25439267128E+02 -0.13483590346E+02  0.34643180714E+02  0.45045682264E+02  0.00000000000E+00 0.  1.
         11    1    3    3    0    0 -0.92200728952E+01  0.39824002366E+01 -0.71851284054E+01  0.12348899801E+02  0.51100000000E-03 0.  1.
        -11    1    3    3    0    0 -0.15486989652E+02  0.95270716935E+01 -0.23217662442E+02  0.29490198254E+02  0.51100000000E-03 0. -1.
         12    1    3    3    0    0 -0.73220458072E+00 -0.25881584455E-01 -0.42403898660E+01  0.43032196807E+01  0.00000000000E+00 0. -1.
</event>
<event>
 7    1  0.1476909E-008  0.4614232E+02  0.7816164E-02  0.1320468E+00
        -11   -1    0    0    0    0  0.00000000000E+00  0.00000000000E+00  0.45593999997E+02  0.45594000000E+02  0.51100000000E-03 0. -1.
         11   -1    0    0    0    0 -0.00000000000E+00 -0.00000000000E+00 -0.45593999997E+02  0.45594000000E+02  0.51100000000E-03 0.  1.
    9900012    2    1    2    0    0  0.38259016861E+02  0.15088987506E+02 -0.18376168669E+02  0.46142317742E+02  0.99999998260E+01 0.  0.
        -12    1    1    2    0    0 -0.38259016861E+02 -0.15088987506E+02  0.18376168669E+02  0.45045682258E+02  0.00000000000E+00 0.  1.
         11    1    3    3    0    0  0.20147389596E+02  0.73292435788E+01 -0.77463545892E+01  0.22795638369E+02  0.51100000000E-03 0. -1.
        -11    1    3    3    0    0  0.55131535427E+00 -0.35808686560E+00 -0.21059932536E+01  0.22062145563E+01  0.51100000000E-03 0.  1.
        -12    1    3    3    0    0  0.17560311910E+02  0.81178307927E+01 -0.85238208267E+01  0.21140464816E+02  0.00000000000E+00 0.  1.
</event>
<event>
 7    1  0.1476909E-008  0.4614231E+02  0.7816164E-02  0.1320468E+00
        -11   -1    0    0    0    0  0.00000000000E+00  0.00000000000E+00  0.45593999997E+02  0.45594000000E+02  0.51100000000E-03 0.  1.
         11   -1    0    0    0    0 -0.00000000000E+00 -0.00000000000E+00 -0.45593999997E+02  0.45594000000E+02  0.51100000000E-03 0. -1.
    9900012    2    1    2    0    0 -0.10657781083E+02 -0.15343244944E+02 -0.40989151341E+02  0.46142312186E+02  0.99999491606E+01 0.  0.
        -12    1    1    2    0    0  0.10657781083E+02  0.15343244944E+02  0.40989151341E+02  0.45045687814E+02  0.00000000000E+00 0.  1.
         11    1    3    3    0    0 -0.42171538188E+01 -0.10812144079E+02 -0.19014935743E+02  0.22276773274E+02  0.51100000000E-03 0. -1.
        -11    1    3    3    0    0 -0.54571941297E+01 -0.20857584033E+01 -0.19064460801E+02  0.19939534141E+02  0.51100000000E-03 0.  1.
        -12    1    3    3    0    0 -0.98343313487E+00 -0.24453424611E+01 -0.29097547973E+01  0.39260047712E+01  0.00000000000E+00 0.  1.
</event>
<event>
 7    1  0.1476909E-008  0.4614232E+02  0.7816164E-02  0.1320468E+00
        -11   -1    0    0    0    0  0.00000000000E+00  0.00000000000E+00  0.45593999997E+02  0.45594000000E+02  0.51100000000E-03 0.  1.
         11   -1    0    0    0    0 -0.00000000000E+00 -0.00000000000E+00 -0.45593999997E+02  0.45594000000E+02  0.51100000000E-03 0. -1.
    9900012    2    1    2    0    0 -0.74188977275E+01  0.29778544404E+02 -0.32974409902E+02  0.46142318091E+02  0.10000003005E+02 0.  0.
        -12    1    1    2    0    0  0.74188977275E+01 -0.29778544404E+02  0.32974409902E+02  0.45045681909E+02  0.00000000000E+00 0.  1.
         11    1    3    3    0    0  0.80515750738E+00  0.91868305720E+01 -0.60118329592E+01  0.11008554417E+02  0.51100000000E-03 0. -1.
        -11    1    3    3    0    0 -0.25293475190E+01  0.81927101122E+01 -0.13304836758E+02  0.15828353650E+02  0.51100000000E-03 0.  1.
         12    1    3    3    0    0 -0.56947077159E+01  0.12399003720E+02 -0.13657740185E+02  0.19305410023E+02  0.00000000000E+00 0. -1.
</event>
<event>
 7    1  0.1476909E-008  0.4614232E+02  0.7816164E-02  0.1320468E+00
        -11   -1    0    0    0    0  0.00000000000E+00  0.00000000000E+00  0.45593999997E+02  0.45594000000E+02  0.51100000000E-03 0. -1.
         11   -1    0    0    0    0 -0.00000000000E+00 -0.00000000000E+00 -0.45593999997E+02  0.45594000000E+02  0.51100000000E-03 0.  1.
    9900012    2    1    2    0    0  0.44813266549E+02  0.45673473907E+01 -0.15472498143E+00  0.46142318067E+02  0.10000002790E+02 0.  0.
        -12    1    1    2    0    0 -0.44813266549E+02 -0.45673473907E+01  0.15472498143E+00  0.45045681933E+02  0.00000000000E+00 0.  1.
         11    1    3    3    0    0  0.19355206648E+02  0.16546988380E+01 -0.13401249523E+01  0.19471979555E+02  0.51100000000E-03 0. -1.
        -11    1    3    3    0    0  0.45362870147E+01 -0.34637488551E+00 -0.24797070325E+01  0.51813919626E+01  0.51100000000E-03 0.  1.
         12    1    3    3    0    0  0.20921772886E+02  0.32590234382E+01  0.36651070034E+01  0.21488946550E+02  0.00000000000E+00 0. -1.
</event>
<event>
 7    1  0.1476909E-008  0.4614232E+02  0.7816164E-02  0.1320468E+00
        -11   -1    0    0    0    0  0.00000000000E+00  0.00000000000E+00  0.45593999997E+02  0.45594000000E+02  0.51100000000E-03 0.  1.
         11   -1    0    0    0    0 -0.00000000000E+00 -0.00000000000E+00 -0.45593999997E+02  0.45594000000E+02  0.51100000000E-03 0. -1.
    9900012    2    1    2    0    0  0.81879077514E+01  0.34908622449E+02  0.27266451924E+02  0.46142321460E+02  0.10000033731E+02 0.  0.
        -12    1    1    2    0    0 -0.81879077514E+01 -0.34908622449E+02 -0.27266451924E+02  0.45045678540E+02  0.00000000000E+00 0.  1.
         11    1    3    3    0    0 -0.11703684927E+01  0.13413679561E+01  0.28248400712E+01  0.33389747066E+01  0.51100000000E-03 0. -1.
        -11    1    3    3    0    0  0.27956480748E+01  0.83204841866E+01  0.85758313150E+01  0.12271551991E+02  0.51100000000E-03 0.  1.
         12    1    3    3    0    0  0.65626281693E+01  0.25246770306E+02  0.15865780537E+02  0.30531794763E+02  0.00000000000E+00 0. -1.
</event>
<event>
 7    1  0.1476909E-008  0.4614232E+02  0.7816164E-02  0.1320468E+00
        -11   -1    0    0    0    0  0.00000000000E+00  0.00000000000E+00  0.45593999997E+02  0.45594000000E+02  0.51100000000E-03 0.  1.
         11   -1    0    0    0    0 -0.00000000000E+00 -0.00000000000E+00 -0.45593999997E+02  0.45594000000E+02  0.51100000000E-03 0. -1.
    9900012    2    1    2    0    0 -0.26076349153E+01  0.25928104914E+02 -0.36742990520E+02  0.46142315005E+02  0.99999748689E+01 0.  0.
        -12    1    1    2    0    0  0.26076349153E+01 -0.25928104914E+02  0.36742990520E+02  0.45045684995E+02  0.00000000000E+00 0.  1.
         11    1    3    3    0    0  0.34044421355E+01  0.15397581024E+02 -0.20736712467E+02  0.26051621290E+02  0.51100000000E-03 0. -1.
        -11    1    3    3    0    0 -0.52156170240E+01  0.86854400852E+01 -0.13473539609E+02  0.16857514653E+02  0.51100000000E-03 0.  1.
         12    1    3    3    0    0 -0.79646002679E+00  0.18450838047E+01 -0.25327384448E+01  0.32331790625E+01  0.00000000000E+00 0. -1.
</event>
<event>
 7    1  0.1476909E-008  0.4614232E+02  0.7816164E-02  0.1320468E+00
        -11   -1    0    0    0    0  0.00000000000E+00  0.00000000000E+00  0.45593999997E+02  0.45594000000E+02  0.51100000000E-03 0. -1.
         11   -1    0    0    0    0 -0.00000000000E+00 -0.00000000000E+00 -0.45593999997E+02  0.45594000000E+02  0.51100000000E-03 0.  1.
    9900012    2    1    2    0    0 -0.13317169518E+01  0.44008906714E+01  0.44810402882E+02  0.46142317463E+02  0.99999972828E+01 0.  0.
        -12    1    1    2    0    0  0.13317169518E+01 -0.44008906714E+01 -0.44810402882E+02  0.45045682537E+02  0.00000000000E+00 0.  1.
         11    1    3    3    0    0  0.13003972667E+01  0.27583570254E+01  0.26891459166E+02  0.27063816118E+02  0.51100000000E-03 0. -1.
        -11    1    3    3    0    0 -0.33575254122E+01  0.17990927913E+01  0.17936166972E+02  0.18336188199E+02  0.51100000000E-03 0.  1.
        -12    1    3    3    0    0  0.72541119372E+00 -0.15655914540E+00 -0.17223255869E-01  0.74231314586E+00  0.00000000000E+00 0.  1.
</event>
<event>
 7    1  0.1476909E-008  0.4614232E+02  0.7816164E-02  0.1320468E+00
        -11   -1    0    0    0    0  0.00000000000E+00  0.00000000000E+00  0.45593999997E+02  0.45594000000E+02  0.51100000000E-03 0. -1.
         11   -1    0    0    0    0 -0.00000000000E+00 -0.00000000000E+00 -0.45593999997E+02  0.45594000000E+02  0.51100000000E-03 0.  1.
    9900012    2    1    2    0    0 -0.31225495674E+02 -0.28550373951E+02  0.15458271537E+02  0.46142316613E+02  0.99999895351E+01 0.  0.
        -12    1    1    2    0    0  0.31225495674E+02  0.28550373951E+02 -0.15458271537E+02  0.45045683387E+02  0.00000000000E+00 0.  1.
         11    1    3    3    0    0 -0.19097225073E+02 -0.21812996424E+02  0.13747243345E+02  0.32085783742E+02  0.51100000000E-03 0. -1.
        -11    1    3    3    0    0 -0.78255431860E+01 -0.48740996035E+01  0.16589720490E+01  0.93673988717E+01  0.51100000000E-03 0.  1.
         12    1    3    3    0    0 -0.43027274149E+01 -0.18632779241E+01  0.52056143077E-01  0.46891340001E+01  0.00000000000E+00 0. -1.
</event>
<event>
 7    1  0.1476909E-008  0.4614232E+02  0.7816164E-02  0.1320468E+00
        -11   -1    0    0    0    0  0.00000000000E+00  0.00000000000E+00  0.45593999997E+02  0.45594000000E+02  0.51100000000E-03 0. -1.
         11   -1    0    0    0    0 -0.00000000000E+00 -0.00000000000E+00 -0.45593999997E+02  0.45594000000E+02  0.51100000000E-03 0.  1.
    9900012    2    1    2    0    0  0.34628853370E+02  0.14974059104E+02  0.24611654296E+02  0.46142318087E+02  0.10000002975E+02 0.  0.
        -12    1    1    2    0    0 -0.34628853370E+02 -0.14974059104E+02 -0.24611654296E+02  0.45045681913E+02  0.00000000000E+00 0.  1.
         11    1    3    3    0    0  0.14803757732E+01 -0.21615492998E+00 -0.33974335534E+00  0.15341646562E+01  0.51100000000E-03 0. -1.
        -11    1    3    3    0    0  0.22409459321E+02  0.70556566454E+01  0.16383415724E+02  0.28642319543E+02  0.51100000000E-03 0.  1.
         12    1    3    3    0    0  0.10739018276E+02  0.81345573885E+01  0.85679819272E+01  0.15965833888E+02  0.00000000000E+00 0. -1.
</event>
<event>
 7    1  0.1476909E-008  0.4614232E+02  0.7816164E-02  0.1320468E+00
        -11   -1    0    0    0    0  0.00000000000E+00  0.00000000000E+00  0.45593999997E+02  0.45594000000E+02  0.51100000000E-03 0.  1.
         11   -1    0    0    0    0 -0.00000000000E+00 -0.00000000000E+00 -0.45593999997E+02  0.45594000000E+02  0.51100000000E-03 0. -1.
    9900012    2    1    2    0    0 -0.38786625849E+01 -0.17020870084E+02 -0.41525407597E+02  0.46142317433E+02  0.99999970053E+01 0.  0.
        -12    1    1    2    0    0  0.38786625849E+01  0.17020870084E+02  0.41525407597E+02  0.45045682567E+02  0.00000000000E+00 0.  1.
         11    1    3    3    0    0  0.28417593221E+01 -0.43589675610E+01 -0.16441360030E+02  0.17245130157E+02  0.51100000000E-03 0. -1.
        -11    1    3    3    0    0 -0.50410297688E+01 -0.90072280263E+01 -0.17779781887E+02  0.20558764118E+02  0.51100000000E-03 0.  1.
         12    1    3    3    0    0 -0.16793921382E+01 -0.36546744968E+01 -0.73042656796E+01  0.83384231573E+01  0.00000000000E+00 0. -1.
</event>
<event>
 7    1  0.1476909E-008  0.4614232E+02  0.7816164E-02  0.1320468E+00
        -11   -1    0    0    0    0  0.00000000000E+00  0.00000000000E+00  0.45593999997E+02  0.45594000000E+02  0.51100000000E-03 0.  1.
         11   -1    0    0    0    0 -0.00000000000E+00 -0.00000000000E+00 -0.45593999997E+02  0.45594000000E+02  0.51100000000E-03 0. -1.
    9900012    2    1    2    0    0 -0.44187365329E+02  0.70787487878E+01 -0.51460373658E+01  0.46142316081E+02  0.99999846794E+01 0.  0.
        -12    1    1    2    0    0  0.44187365329E+02 -0.70787487878E+01  0.51460373658E+01  0.45045683919E+02  0.00000000000E+00 0.  1.
         11    1    3    3    0    0 -0.10820965267E+02  0.92128402777E+00  0.59708632423E-01  0.10860277112E+02  0.51100000000E-03 0. -1.
        -11    1    3    3    0    0 -0.26253847012E+02  0.72142179193E+01 -0.64599275002E+01  0.27982853440E+02  0.51100000000E-03 0.  1.
        -12    1    3    3    0    0 -0.71125530514E+01 -0.10567531593E+01  0.12541815019E+01  0.72991855291E+01  0.00000000000E+00 0.  1.
</event>
<event>
 7    1  0.1476909E-008  0.4614232E+02  0.7816164E-02  0.1320468E+00
        -11   -1    0    0    0    0  0.00000000000E+00  0.00000000000E+00  0.45593999997E+02  0.45594000000E+02  0.51100000000E-03 0.  1.
         11   -1    0    0    0    0 -0.00000000000E+00 -0.00000000000E+00 -0.45593999997E+02  0.45594000000E+02  0.51100000000E-03 0. -1.
    9900012    2    1    2    0    0  0.32610750305E+02 -0.25012614452E+02 -0.18439673136E+02  0.46142318048E+02  0.10000002616E+02 0.  0.
        -12    1    1    2    0    0 -0.32610750305E+02  0.25012614452E+02  0.18439673136E+02  0.45045681952E+02  0.00000000000E+00 0.  1.
         11    1    3    3    0    0  0.20759607559E+02 -0.15732889995E+02 -0.15037435864E+02  0.30076728732E+02  0.51100000000E-03 0. -1.
        -11    1    3    3    0    0  0.15134345284E+01 -0.31663576541E+00  0.81534410408E+00  0.17480070219E+01  0.51100000000E-03 0.  1.
        -12    1    3    3    0    0  0.10337708218E+02 -0.89630886916E+01 -0.42175813763E+01  0.14317582294E+02  0.00000000000E+00 0.  1.
</event>
<event>
 7    1  0.1476909E-008  0.4614232E+02  0.7816164E-02  0.1320468E+00
        -11   -1    0    0    0    0  0.00000000000E+00  0.00000000000E+00  0.45593999997E+02  0.45594000000E+02  0.51100000000E-03 0. -1.
         11   -1    0    0    0    0 -0.00000000000E+00 -0.00000000000E+00 -0.45593999997E+02  0.45594000000E+02  0.51100000000E-03 0.  1.
    9900012    2    1    2    0    0  0.19607696156E+02 -0.40548694211E+02  0.67459534116E+00  0.46142318413E+02  0.10000005946E+02 0.  0.
        -12    1    1    2    0    0 -0.19607696156E+02  0.40548694211E+02 -0.67459534116E+00  0.45045681587E+02  0.00000000000E+00 0.  1.
         11    1    3    3    0    0  0.80837646819E+01 -0.22747687804E+02 -0.64811373002E+00  0.24150043551E+02  0.51100000000E-03 0. -1.
        -11    1    3    3    0    0  0.98876812340E+01 -0.10311187058E+02  0.89239396301E+00  0.14313741159E+02  0.51100000000E-03 0.  1.
         12    1    3    3    0    0  0.16362502402E+01 -0.74898193494E+01  0.43031510818E+00  0.76785337030E+01  0.00000000000E+00 0. -1.
</event>
<event>
 7    1  0.1476909E-008  0.4614232E+02  0.7816164E-02  0.1320468E+00
        -11   -1    0    0    0    0  0.00000000000E+00  0.00000000000E+00  0.45593999997E+02  0.45594000000E+02  0.51100000000E-03 0.  1.
         11   -1    0    0    0    0 -0.00000000000E+00 -0.00000000000E+00 -0.45593999997E+02  0.45594000000E+02  0.51100000000E-03 0. -1.
    9900012    2    1    2    0    0  0.28683822111E+01 -0.24685192906E+02 -0.37570294460E+02  0.46142318841E+02  0.10000009844E+02 0.  0.
        -12    1    1    2    0    0 -0.28683822111E+01  0.24685192906E+02  0.37570294460E+02  0.45045681159E+02  0.00000000000E+00 0.  1.
         11    1    3    3    0    0  0.23040760314E+00 -0.22106534550E+02 -0.26898141598E+02  0.34817552745E+02  0.51100000000E-03 0. -1.
        -11    1    3    3    0    0  0.17727483575E+01 -0.13398486660E+01 -0.72728986577E+01  0.76047936417E+01  0.51100000000E-03 0.  1.
         12    1    3    3    0    0  0.86522625051E+00 -0.12388096896E+01 -0.33992542043E+01  0.37199724539E+01  0.00000000000E+00 0. -1.
</event>
<event>
 7    1  0.1476909E-008  0.4614232E+02  0.7816164E-02  0.1320468E+00
        -11   -1    0    0    0    0  0.00000000000E+00  0.00000000000E+00  0.45593999997E+02  0.45594000000E+02  0.51100000000E-03 0.  1.
         11   -1    0    0    0    0 -0.00000000000E+00 -0.00000000000E+00 -0.45593999997E+02  0.45594000000E+02  0.51100000000E-03 0. -1.
    9900012    2    1    2    0    0  0.20445267502E+02  0.21686209739E+02 -0.33775920789E+02  0.46142317840E+02  0.10000000724E+02 0.  0.
        -12    1    1    2    0    0 -0.20445267502E+02 -0.21686209739E+02  0.33775920789E+02  0.45045682160E+02  0.00000000000E+00 0.  1.
         11    1    3    3    0    0  0.27812582829E+01  0.25130699432E+01 -0.55417129002E+01  0.66904035981E+01  0.51100000000E-03 0. -1.
        -11    1    3    3    0    0  0.12682867082E+02  0.17507960810E+02 -0.25807836243E+02  0.33666425723E+02  0.51100000000E-03 0.  1.
        -12    1    3    3    0    0  0.49811421374E+01  0.16651789856E+01 -0.24263716458E+01  0.57854885196E+01  0.00000000000E+00 0.  1.
</event>
<event>
 7    1  0.1476909E-008  0.4614232E+02  0.7816164E-02  0.1320468E+00
        -11   -1    0    0    0    0  0.00000000000E+00  0.00000000000E+00  0.45593999997E+02  0.45594000000E+02  0.51100000000E-03 0.  1.
         11   -1    0    0    0    0 -0.00000000000E+00 -0.00000000000E+00 -0.45593999997E+02  0.45594000000E+02  0.51100000000E-03 0. -1.
    9900012    2    1    2    0    0  0.37173830070E+02  0.22468575835E+02 -0.11932414283E+02  0.46142322596E+02  0.10000044090E+02 0.  0.
        -12    1    1    2    0    0 -0.37173830070E+02 -0.22468575835E+02  0.11932414283E+02  0.45045677404E+02  0.00000000000E+00 0.  1.
         11    1    3    3    0    0  0.67960366774E+01  0.44448442327E+00 -0.14215939064E+01  0.69573421950E+01  0.51100000000E-03 0. -1.
        -11    1    3    3    0    0  0.52155598618E+01  0.55569131367E+01 -0.29935445932E+01  0.81879580955E+01  0.51100000000E-03 0.  1.
         12    1    3    3    0    0  0.25162233531E+02  0.16467178275E+02 -0.75172757839E+01  0.30997022306E+02  0.00000000000E+00 0. -1.
</event>
<event>
 7    1  0.1476909E-008  0.4614231E+02  0.7816164E-02  0.1320468E+00
        -11   -1    0    0    0    0  0.00000000000E+00  0.00000000000E+00  0.45593999997E+02  0.45594000000E+02  0.51100000000E-03 0.  1.
         11   -1    0    0    0    0 -0.00000000000E+00 -0.00000000000E+00 -0.45593999997E+02  0.45594000000E+02  0.51100000000E-03 0. -1.
    9900012    2    1    2    0    0 -0.45448958823E+01 -0.29930641618E+02 -0.33355879623E+02  0.46142311064E+02  0.99999389305E+01 0.  0.
        -12    1    1    2    0    0  0.45448958823E+01  0.29930641618E+02  0.33355879623E+02  0.45045688936E+02  0.00000000000E+00 0.  1.
         11    1    3    3    0    0 -0.13642860726E+01 -0.79608659479E+01 -0.75899365580E+01  0.11083492245E+02  0.51100000000E-03 0. -1.
        -11    1    3    3    0    0 -0.24250679085E+01 -0.11686969306E+01 -0.48718742397E+01  0.55661446033E+01  0.51100000000E-03 0.  1.
        -12    1    3    3    0    0 -0.75554190123E+00 -0.20801078740E+02 -0.20894068826E+02  0.29492674216E+02  0.00000000000E+00 0.  1.
</event>
<event>
 7    1  0.1476909E-008  0.4614232E+02  0.7816164E-02  0.1320468E+00
        -11   -1    0    0    0    0  0.00000000000E+00  0.00000000000E+00  0.45593999997E+02  0.45594000000E+02  0.51100000000E-03 0.  1.
         11   -1    0    0    0    0 -0.00000000000E+00 -0.00000000000E+00 -0.45593999997E+02  0.45594000000E+02  0.51100000000E-03 0. -1.
    9900012    2    1    2    0    0 -0.19677542583E+02 -0.33800442779E+01 -0.40379239500E+02  0.46142319141E+02  0.10000012583E+02 0.  0.
        -12    1    1    2    0    0  0.19677542583E+02  0.33800442779E+01  0.40379239500E+02  0.45045680859E+02  0.00000000000E+00 0.  1.
         11    1    3    3    0    0 -0.10157296598E+02  0.63572483236E+00 -0.21980898002E+02  0.24222607157E+02  0.51100000000E-03 0. -1.
        -11    1    3    3    0    0 -0.24199663521E+01 -0.37135435461E+00 -0.76612400133E+00  0.25653630247E+01  0.51100000000E-03 0.  1.
        -12    1    3    3    0    0 -0.71002796324E+01 -0.36444147556E+01 -0.17632217497E+02  0.19354348959E+02  0.00000000000E+00 0.  1.
</event>
<event>
 7    1  0.1476909E-008  0.4614232E+02  0.7816164E-02  0.1320468E+00
        -11   -1    0    0    0    0  0.00000000000E+00  0.00000000000E+00  0.45593999997E+02  0.45594000000E+02  0.51100000000E-03 0.  1.
         11   -1    0    0    0    0 -0.00000000000E+00 -0.00000000000E+00 -0.45593999997E+02  0.45594000000E+02  0.51100000000E-03 0. -1.
    9900012    2    1    2    0    0 -0.18809457573E+02  0.72846734329E+01 -0.40277182440E+02  0.46142316672E+02  0.99999900647E+01 0.  0.
        -12    1    1    2    0    0  0.18809457573E+02 -0.72846734329E+01  0.40277182440E+02  0.45045683328E+02  0.00000000000E+00 0.  1.
         11    1    3    3    0    0 -0.11288188844E+02  0.84354521955E+01 -0.20362365660E+02  0.24762996520E+02  0.51100000000E-03 0. -1.
        -11    1    3    3    0    0 -0.10984138488E+01  0.63975966881E-01 -0.45631507216E+01  0.46939269995E+01  0.51100000000E-03 0.  1.
         12    1    3    3    0    0 -0.64228548794E+01 -0.12147547295E+01 -0.15351666059E+02  0.16685393152E+02  0.00000000000E+00 0. -1.
</event>
<event>
 7    1  0.1476909E-008  0.4614232E+02  0.7816164E-02  0.1320468E+00
        -11   -1    0    0    0    0  0.00000000000E+00  0.00000000000E+00  0.45593999997E+02  0.45594000000E+02  0.51100000000E-03 0. -1.
         11   -1    0    0    0    0 -0.00000000000E+00 -0.00000000000E+00 -0.45593999997E+02  0.45594000000E+02  0.51100000000E-03 0.  1.
    9900012    2    1    2    0    0 -0.32297322754E+02  0.24678269318E+02  0.19415961835E+02  0.46142316438E+02  0.99999879346E+01 0.  0.
        -12    1    1    2    0    0  0.32297322754E+02 -0.24678269318E+02 -0.19415961835E+02  0.45045683562E+02  0.00000000000E+00 0.  1.
         11    1    3    3    0    0 -0.85208500811E+01  0.96872530521E+01  0.37253188047E+01  0.13428542671E+02  0.51100000000E-03 0. -1.
        -11    1    3    3    0    0 -0.19624396181E+01  0.40899352375E+00 -0.23747242709E+00  0.20186228899E+01  0.51100000000E-03 0.  1.
         12    1    3    3    0    0 -0.21814033055E+02  0.14582022742E+02  0.15928115457E+02  0.30695150877E+02  0.00000000000E+00 0. -1.
</event>
<event>
 7    1  0.1476909E-008  0.4614232E+02  0.7816164E-02  0.1320468E+00
        -11   -1    0    0    0    0  0.00000000000E+00  0.00000000000E+00  0.45593999997E+02  0.45594000000E+02  0.51100000000E-03 0.  1.
         11   -1    0    0    0    0 -0.00000000000E+00 -0.00000000000E+00 -0.45593999997E+02  0.45594000000E+02  0.51100000000E-03 0. -1.
    9900012    2    1    2    0    0 -0.25898310254E+02 -0.98808218857E+01 -0.35507188015E+02  0.46142317456E+02  0.99999972168E+01 0.  0.
        -12    1    1    2    0    0  0.25898310254E+02  0.98808218857E+01  0.35507188015E+02  0.45045682544E+02  0.00000000000E+00 0.  1.
         11    1    3    3    0    0 -0.58117580064E+01 -0.22856288334E+01 -0.11453304344E+02  0.13045260095E+02  0.51100000000E-03 0. -1.
        -11    1    3    3    0    0 -0.13358762920E+02 -0.77077053224E+01 -0.13070396837E+02  0.20216343434E+02  0.51100000000E-03 0.  1.
        -12    1    3    3    0    0 -0.67277893275E+01  0.11251227016E+00 -0.10983486833E+02  0.12880713927E+02  0.00000000000E+00 0.  1.
</event>
<event>
 7    1  0.1476909E-008  0.4614232E+02  0.7816164E-02  0.1320468E+00
        -11   -1    0    0    0    0  0.00000000000E+00  0.00000000000E+00  0.45593999997E+02  0.45594000000E+02  0.51100000000E-03 0. -1.
         11   -1    0    0    0    0 -0.00000000000E+00 -0.00000000000E+00 -0.45593999997E+02  0.45594000000E+02  0.51100000000E-03 0.  1.
    9900012    2    1    2    0    0 -0.88368425251E+00 -0.11613337733E+02  0.43513939496E+02  0.46142318280E+02  0.10000004729E+02 0.  0.
        -12    1    1    2    0    0  0.88368425251E+00  0.11613337733E+02 -0.43513939496E+02  0.45045681720E+02  0.00000000000E+00 0.  1.
         11    1    3    3    0    0 -0.33934198580E+01 -0.56248475579E+01  0.30300374357E+02  0.31004304456E+02  0.51100000000E-03 0. -1.
        -11    1    3    3    0    0 -0.86616043133E+00 -0.70890355309E+00  0.19316313881E+01  0.22324825242E+01  0.51100000000E-03 0.  1.
         12    1    3    3    0    0  0.33758960368E+01 -0.52795866218E+01  0.11281933751E+02  0.12905531299E+02  0.00000000000E+00 0. -1.
</event>
<event>
 7    1  0.2130881E-008  0.4614232E+02  0.7816164E-02  0.1320468E+00
        -11   -1    0    0    0    0  0.00000000000E+00  0.00000000000E+00  0.45593999997E+02  0.45594000000E+02  0.51100000000E-03 0.  1.
         11   -1    0    0    0    0 -0.00000000000E+00 -0.00000000000E+00 -0.45593999997E+02  0.45594000000E+02  0.51100000000E-03 0. -1.
    9900012    2    1    2    0    0  0.45018718194E+02 -0.14832738933E+01 -0.47793530585E+00  0.46142317505E+02  0.99999976687E+01 0.  0.
        -12    1    1    2    0    0 -0.45018718194E+02  0.14832738933E+01  0.47793530585E+00  0.45045682495E+02  0.00000000000E+00 0.  1.
         11    1    3    3    0    0  0.14713612964E+02  0.18312563773E+01 -0.58838745009E+00  0.14838804076E+02  0.51100000000E-03 0. -1.
        -11    1    3    3    0    0  0.14555827103E+02 -0.45364351004E+01  0.20684256729E+01  0.15386023888E+02  0.51100000000E-03 0.  1.
        -12    1    3    3    0    0  0.15749278128E+02  0.12219048298E+01 -0.19579735287E+01  0.15917489541E+02  0.00000000000E+00 0.  1.
</event>
<event>
 7    1  0.1476909E-008  0.4614232E+02  0.7816164E-02  0.1320468E+00
        -11   -1    0    0    0    0  0.00000000000E+00  0.00000000000E+00  0.45593999997E+02  0.45594000000E+02  0.51100000000E-03 0.  1.
         11   -1    0    0    0    0 -0.00000000000E+00 -0.00000000000E+00 -0.45593999997E+02  0.45594000000E+02  0.51100000000E-03 0. -1.
    9900012    2    1    2    0    0 -0.20879514239E+02 -0.35960635430E+02  0.17320280212E+02  0.46142317387E+02  0.99999965928E+01 0.  0.
        -12    1    1    2    0    0  0.20879514239E+02  0.35960635430E+02 -0.17320280212E+02  0.45045682613E+02  0.00000000000E+00 0.  1.
         11    1    3    3    0    0 -0.15081829995E+02 -0.31678813419E+02  0.16239584789E+02  0.38661776084E+02  0.51100000000E-03 0. -1.
        -11    1    3    3    0    0 -0.35188902761E+01 -0.21819392729E+01 -0.15771222856E+00  0.41434672889E+01  0.51100000000E-03 0.  1.
         12    1    3    3    0    0 -0.22787939682E+01 -0.20998827383E+01  0.12384076516E+01  0.33370740141E+01  0.00000000000E+00 0. -1.
</event>
<event>
 7    1  0.1476909E-008  0.4614232E+02  0.7816164E-02  0.1320468E+00
        -11   -1    0    0    0    0  0.00000000000E+00  0.00000000000E+00  0.45593999997E+02  0.45594000000E+02  0.51100000000E-03 0.  1.
         11   -1    0    0    0    0 -0.00000000000E+00 -0.00000000000E+00 -0.45593999997E+02  0.45594000000E+02  0.51100000000E-03 0. -1.
    9900012    2    1    2    0    0 -0.21351461064E+02  0.35281106119E+02 -0.18123800735E+02  0.46142317725E+02  0.99999996695E+01 0.  0.
        -12    1    1    2    0    0  0.21351461064E+02 -0.35281106119E+02  0.18123800735E+02  0.45045682275E+02  0.00000000000E+00 0.  1.
         11    1    3    3    0    0 -0.14394590385E+02  0.26383714900E+02 -0.84695735881E+01  0.31225603619E+02  0.51100000000E-03 0. -1.
        -11    1    3    3    0    0 -0.17828460815E+01  0.14580305861E+01 -0.17590273945E+01  0.28980288087E+01  0.51100000000E-03 0.  1.
         12    1    3    3    0    0 -0.51740245968E+01  0.74393606324E+01 -0.78951997529E+01  0.12018685298E+02  0.00000000000E+00 0. -1.
</event>
<event>
 7    1  0.1476909E-008  0.4614232E+02  0.7816164E-02  0.1320468E+00
        -11   -1    0    0    0    0  0.00000000000E+00  0.00000000000E+00  0.45593999997E+02  0.45594000000E+02  0.51100000000E-03 0.  1.
         11   -1    0    0    0    0 -0.00000000000E+00 -0.00000000000E+00 -0.45593999997E+02  0.45594000000E+02  0.51100000000E-03 0. -1.
    9900012    2    1    2    0    0 -0.15837358099E+02 -0.61094827862E+01 -0.41724882610E+02  0.46142317407E+02  0.99999967727E+01 0.  0.
        -12    1    1    2    0    0  0.15837358099E+02  0.61094827862E+01  0.41724882610E+02  0.45045682593E+02  0.00000000000E+00 0.  1.
         11    1    3    3    0    0 -0.10291022219E+02 -0.37763695468E+01 -0.33944230160E+02  0.35670392017E+02  0.51100000000E-03 0. -1.
        -11    1    3    3    0    0 -0.73159638164E+00 -0.20093688294E+01 -0.18627692674E+01  0.28359664953E+01  0.51100000000E-03 0.  1.
        -12    1    3    3    0    0 -0.48147394983E+01 -0.32374441002E+00 -0.59178831827E+01  0.76359588948E+01  0.00000000000E+00 0.  1.
</event>
<event>
 7    1  0.1476909E-008  0.4614232E+02  0.7816164E-02  0.1320468E+00
        -11   -1    0    0    0    0  0.00000000000E+00  0.00000000000E+00  0.45593999997E+02  0.45594000000E+02  0.51100000000E-03 0.  1.
         11   -1    0    0    0    0 -0.00000000000E+00 -0.00000000000E+00 -0.45593999997E+02  0.45594000000E+02  0.51100000000E-03 0. -1.
    9900012    2    1    2    0    0  0.16625893048E+02 -0.15741574092E+02 -0.38792989211E+02  0.46142317782E+02  0.10000000193E+02 0.  0.
        -12    1    1    2    0    0 -0.16625893048E+02  0.15741574092E+02  0.38792989211E+02  0.45045682218E+02  0.00000000000E+00 0.  1.
         11    1    3    3    0    0  0.10305478271E+01 -0.50223063297E+00 -0.70620429553E+01  0.71544891779E+01  0.51100000000E-03 0. -1.
        -11    1    3    3    0    0  0.11191761198E+02 -0.14163171045E+02 -0.26526908194E+02  0.32086255489E+02  0.51100000000E-03 0.  1.
        -12    1    3    3    0    0  0.44035840225E+01 -0.10761724145E+01 -0.52040380622E+01  0.69015731150E+01  0.00000000000E+00 0.  1.
</event>
<event>
 7    1  0.1476909E-008  0.4614232E+02  0.7816164E-02  0.1320468E+00
        -11   -1    0    0    0    0  0.00000000000E+00  0.00000000000E+00  0.45593999997E+02  0.45594000000E+02  0.51100000000E-03 0.  1.
         11   -1    0    0    0    0 -0.00000000000E+00 -0.00000000000E+00 -0.45593999997E+02  0.45594000000E+02  0.51100000000E-03 0. -1.
    9900012    2    1    2    0    0  0.29950965363E+02  0.12196198725E+02 -0.31357711371E+02  0.46142315946E+02  0.99999834439E+01 0.  0.
        -12    1    1    2    0    0 -0.29950965363E+02 -0.12196198725E+02  0.31357711371E+02  0.45045684054E+02  0.00000000000E+00 0.  1.
         11    1    3    3    0    0  0.14443142050E+02  0.59806609804E+01 -0.14525518666E+02  0.21339244382E+02  0.51100000000E-03 0. -1.
        -11    1    3    3    0    0  0.12747652297E+00  0.33220698712E-01  0.67829737780E+00  0.69097139781E+00  0.51100000000E-03 0.  1.
        -12    1    3    3    0    0  0.15380346790E+02  0.61823170454E+01 -0.17510490084E+02  0.24112100166E+02  0.00000000000E+00 0.  1.
</event>
<event>
 7    1  0.1476909E-008  0.4614232E+02  0.7816164E-02  0.1320468E+00
        -11   -1    0    0    0    0  0.00000000000E+00  0.00000000000E+00  0.45593999997E+02  0.45594000000E+02  0.51100000000E-03 0.  1.
         11   -1    0    0    0    0 -0.00000000000E+00 -0.00000000000E+00 -0.45593999997E+02  0.45594000000E+02  0.51100000000E-03 0. -1.
    9900012    2    1    2    0    0 -0.42638385084E+02 -0.65626613404E+01  0.12961984710E+02  0.46142318142E+02  0.10000003473E+02 0.  0.
        -12    1    1    2    0    0  0.42638385084E+02  0.65626613404E+01 -0.12961984710E+02  0.45045681858E+02  0.00000000000E+00 0.  1.
         11    1    3    3    0    0 -0.30705197416E+02 -0.27915676114E+01  0.89993900957E+01  0.32118390689E+02  0.51100000000E-03 0. -1.
        -11    1    3    3    0    0 -0.28125251030E+01  0.17109030457E+00 -0.90505742176E+00  0.29595098488E+01  0.51100000000E-03 0.  1.
         12    1    3    3    0    0 -0.91206625650E+01 -0.39421840336E+01  0.48676520360E+01  0.11064417604E+02  0.00000000000E+00 0. -1.
</event>
<event>
 7    1  0.1476909E-008  0.4614232E+02  0.7816164E-02  0.1320468E+00
        -11   -1    0    0    0    0  0.00000000000E+00  0.00000000000E+00  0.45593999997E+02  0.45594000000E+02  0.51100000000E-03 0. -1.
         11   -1    0    0    0    0 -0.00000000000E+00 -0.00000000000E+00 -0.45593999997E+02  0.45594000000E+02  0.51100000000E-03 0.  1.
    9900012    2    1    2    0    0  0.24957722298E+02 -0.32478173733E+02  0.18745505080E+02  0.46142316166E+02  0.99999854573E+01 0.  0.
        -12    1    1    2    0    0 -0.24957722298E+02  0.32478173733E+02 -0.18745505080E+02  0.45045683834E+02  0.00000000000E+00 0.  1.
         11    1    3    3    0    0  0.11284365819E+00  0.55466025960E+00  0.80544406548E+00  0.98443999234E+00  0.51100000000E-03 0.  1.
        -11    1    3    3    0    0  0.15002937639E+02 -0.21834216076E+02  0.10514698164E+02  0.28502280737E+02  0.51100000000E-03 0. -1.
        -12    1    3    3    0    0  0.98419410005E+01 -0.11198617916E+02  0.74253628504E+01  0.16655595437E+02  0.00000000000E+00 0.  1.
</event>
<event>
 7    1  0.1476909E-008  0.4614232E+02  0.7816164E-02  0.1320468E+00
        -11   -1    0    0    0    0  0.00000000000E+00  0.00000000000E+00  0.45593999997E+02  0.45594000000E+02  0.51100000000E-03 0.  1.
         11   -1    0    0    0    0 -0.00000000000E+00 -0.00000000000E+00 -0.45593999997E+02  0.45594000000E+02  0.51100000000E-03 0. -1.
    9900012    2    1    2    0    0  0.46542026410E+00 -0.31829534235E+02 -0.31871267047E+02  0.46142317313E+02  0.99999959094E+01 0.  0.
        -12    1    1    2    0    0 -0.46542026410E+00  0.31829534235E+02  0.31871267047E+02  0.45045682687E+02  0.00000000000E+00 0.  1.
         11    1    3    3    0    0 -0.19949640437E+01 -0.38659914492E+01 -0.52976567148E+01  0.68549936798E+01  0.51100000000E-03 0. -1.
        -11    1    3    3    0    0 -0.57291399567E+00 -0.13066472345E+02 -0.81890774165E+01  0.15431199538E+02  0.51100000000E-03 0.  1.
        -12    1    3    3    0    0  0.30332983035E+01 -0.14897070441E+02 -0.18384532915E+02  0.23856124095E+02  0.00000000000E+00 0.  1.
</event>
<event>
 7    1  0.1476909E-008  0.4614232E+02  0.7816164E-02  0.1320468E+00
        -11   -1    0    0    0    0  0.00000000000E+00  0.00000000000E+00  0.45593999997E+02  0.45594000000E+02  0.51100000000E-03 0.  1.
         11   -1    0    0    0    0 -0.00000000000E+00 -0.00000000000E+00 -0.45593999997E+02  0.45594000000E+02  0.51100000000E-03 0. -1.
    9900012    2    1    2    0    0 -0.19787473512E+02  0.17652133316E+02 -0.36413891725E+02  0.46142318418E+02  0.10000005992E+02 0.  0.
        -12    1    1    2    0    0  0.19787473512E+02 -0.17652133316E+02  0.36413891725E+02  0.45045681582E+02  0.00000000000E+00 0.  1.
         11    1    3    3    0    0 -0.11387847363E+02  0.51441063277E+01 -0.14432431922E+02  0.19090311389E+02  0.51100000000E-03 0. -1.
        -11    1    3    3    0    0 -0.46726071102E+01  0.10497352779E+02 -0.16918276919E+02  0.20451302324E+02  0.51100000000E-03 0.  1.
        -12    1    3    3    0    0 -0.37270190392E+01  0.20106742095E+01 -0.50631828835E+01  0.66007047053E+01  0.00000000000E+00 0.  1.
</event>
<event>
 7    1  0.1476909E-008  0.4614232E+02  0.7816164E-02  0.1320468E+00
        -11   -1    0    0    0    0  0.00000000000E+00  0.00000000000E+00  0.45593999997E+02  0.45594000000E+02  0.51100000000E-03 0. -1.
         11   -1    0    0    0    0 -0.00000000000E+00 -0.00000000000E+00 -0.45593999997E+02  0.45594000000E+02  0.51100000000E-03 0.  1.
    9900012    2    1    2    0    0  0.24600254657E+02  0.13982342255E+02  0.35049036569E+02  0.46142318869E+02  0.10000010104E+02 0.  0.
        -12    1    1    2    0    0 -0.24600254657E+02 -0.13982342255E+02 -0.35049036569E+02  0.45045681131E+02  0.00000000000E+00 0.  1.
         11    1    3    3    0    0  0.10062001030E+02  0.50213181476E+01  0.11492572400E+02  0.16079077128E+02  0.51100000000E-03 0. -1.
        -11    1    3    3    0    0  0.11436416768E+02  0.45351041548E+01  0.11456133637E+02  0.16810764300E+02  0.51100000000E-03 0.  1.
        -12    1    3    3    0    0  0.31018368587E+01  0.44259199523E+01  0.12100330532E+02  0.13252477440E+02  0.00000000000E+00 0.  1.
</event>
<event>
 7    1  0.1476909E-008  0.4614232E+02  0.7816164E-02  0.1320468E+00
        -11   -1    0    0    0    0  0.00000000000E+00  0.00000000000E+00  0.45593999997E+02  0.45594000000E+02  0.51100000000E-03 0.  1.
         11   -1    0    0    0    0 -0.00000000000E+00 -0.00000000000E+00 -0.45593999997E+02  0.45594000000E+02  0.51100000000E-03 0. -1.
    9900012    2    1    2    0    0  0.30764194603E+02  0.44461736238E+01 -0.32602289757E+02  0.46142318444E+02  0.10000006225E+02 0.  0.
        -12    1    1    2    0    0 -0.30764194603E+02 -0.44461736238E+01  0.32602289757E+02  0.45045681556E+02  0.00000000000E+00 0.  1.
         11    1    3    3    0    0 -0.49941625426E-01 -0.71492020542E+00  0.12860316538E+00  0.72810995141E+00  0.51100000000E-03 0. -1.
        -11    1    3    3    0    0  0.92646553685E+01  0.32537192521E+01 -0.11136578251E+02  0.14847353416E+02  0.51100000000E-03 0.  1.
         12    1    3    3    0    0  0.21549480860E+02  0.19073745771E+01 -0.21594314672E+02  0.30566855076E+02  0.00000000000E+00 0. -1.
</event>
<event>
 7    1  0.1476909E-008  0.4614232E+02  0.7816164E-02  0.1320468E+00
        -11   -1    0    0    0    0  0.00000000000E+00  0.00000000000E+00  0.45593999997E+02  0.45594000000E+02  0.51100000000E-03 0.  1.
         11   -1    0    0    0    0 -0.00000000000E+00 -0.00000000000E+00 -0.45593999997E+02  0.45594000000E+02  0.51100000000E-03 0. -1.
    9900012    2    1    2    0    0  0.12620398504E+02 -0.12407200297E+02 -0.41423427839E+02  0.46142318170E+02  0.10000003731E+02 0.  0.
        -12    1    1    2    0    0 -0.12620398504E+02  0.12407200297E+02  0.41423427839E+02  0.45045681830E+02  0.00000000000E+00 0.  1.
         11    1    3    3    0    0 -0.12396236957E+01 -0.57257767242E+00 -0.70140917421E+01  0.71457676512E+01  0.51100000000E-03 0. -1.
        -11    1    3    3    0    0  0.32660513654E+01 -0.37796559743E+01 -0.81943756001E+01  0.95969100518E+01  0.51100000000E-03 0.  1.
         12    1    3    3    0    0  0.10593970834E+02 -0.80549666504E+01 -0.26214960496E+02  0.29399640467E+02  0.00000000000E+00 0. -1.
</event>
<event>
 7    1  0.1476909E-008  0.4614232E+02  0.7816164E-02  0.1320468E+00
        -11   -1    0    0    0    0  0.00000000000E+00  0.00000000000E+00  0.45593999997E+02  0.45594000000E+02  0.51100000000E-03 0.  1.
         11   -1    0    0    0    0 -0.00000000000E+00 -0.00000000000E+00 -0.45593999997E+02  0.45594000000E+02  0.51100000000E-03 0. -1.
    9900012    2    1    2    0    0  0.23439727359E+02 -0.37352277636E+02  0.91923937186E+01  0.46142316904E+02  0.99999921855E+01 0.  0.
        -12    1    1    2    0    0 -0.23439727359E+02  0.37352277636E+02 -0.91923937186E+01  0.45045683096E+02  0.00000000000E+00 0.  1.
         11    1    3    3    0    0  0.49244820911E+00 -0.47082652084E+01  0.12427524729E-01  0.47339646403E+01  0.51100000000E-03 0. -1.
        -11    1    3    3    0    0  0.26614280321E+00 -0.31041040653E+01  0.10560916662E+01  0.32896236728E+01  0.51100000000E-03 0.  1.
         12    1    3    3    0    0  0.22681136347E+02 -0.29539908363E+02  0.81238745277E+01  0.38118728591E+02  0.00000000000E+00 0. -1.
</event>
<event>
 7    1  0.1476909E-008  0.4614233E+02  0.7816164E-02  0.1320468E+00
        -11   -1    0    0    0    0  0.00000000000E+00  0.00000000000E+00  0.45593999997E+02  0.45594000000E+02  0.51100000000E-03 0.  1.
         11   -1    0    0    0    0 -0.00000000000E+00 -0.00000000000E+00 -0.45593999997E+02  0.45594000000E+02  0.51100000000E-03 0. -1.
    9900012    2    1    2    0    0 -0.22444243374E+02  0.39045986385E+02  0.88267969770E+00  0.46142331653E+02  0.10000126673E+02 0.  0.
        -12    1    1    2    0    0  0.22444243374E+02 -0.39045986385E+02 -0.88267969770E+00  0.45045668347E+02  0.00000000000E+00 0.  1.
         11    1    3    3    0    0 -0.10874019407E+02  0.14640058546E+02 -0.20132860733E+01  0.18347450323E+02  0.51100000000E-03 0. -1.
        -11    1    3    3    0    0 -0.11636642655E+02  0.23066077332E+02  0.38884690536E+01  0.26126147202E+02  0.51100000000E-03 0.  1.
        -12    1    3    3    0    0  0.66418687426E-01  0.13398505066E+01 -0.99250328256E+00  0.16687341274E+01  0.00000000000E+00 0.  1.
</event>
<event>
 7    1  0.1476909E-008  0.4614232E+02  0.7816164E-02  0.1320468E+00
        -11   -1    0    0    0    0  0.00000000000E+00  0.00000000000E+00  0.45593999997E+02  0.45594000000E+02  0.51100000000E-03 0. -1.
         11   -1    0    0    0    0 -0.00000000000E+00 -0.00000000000E+00 -0.45593999997E+02  0.45594000000E+02  0.51100000000E-03 0.  1.
    9900012    2    1    2    0    0 -0.99222076458E+01 -0.32870023472E+02  0.29158615960E+02  0.46142317273E+02  0.99999955517E+01 0.  0.
        -12    1    1    2    0    0  0.99222076458E+01  0.32870023472E+02 -0.29158615960E+02  0.45045682727E+02  0.00000000000E+00 0.  1.
         11    1    3    3    0    0 -0.58444774022E+01 -0.21738516766E+02  0.22282728658E+02  0.31673980236E+02  0.51100000000E-03 0. -1.
        -11    1    3    3    0    0 -0.47571281751E+01 -0.67176703469E+01  0.49478663846E+01  0.96041004464E+01  0.51100000000E-03 0.  1.
         12    1    3    3    0    0  0.67939793147E+00 -0.44138363590E+01  0.19280209177E+01  0.48642365909E+01  0.00000000000E+00 0. -1.
</event>
<event>
 7    1  0.1476909E-008  0.4614232E+02  0.7816164E-02  0.1320468E+00
        -11   -1    0    0    0    0  0.00000000000E+00  0.00000000000E+00  0.45593999997E+02  0.45594000000E+02  0.51100000000E-03 0.  1.
         11   -1    0    0    0    0 -0.00000000000E+00 -0.00000000000E+00 -0.45593999997E+02  0.45594000000E+02  0.51100000000E-03 0. -1.
    9900012    2    1    2    0    0 -0.21023245501E+02  0.13373716018E+00 -0.39838658525E+02  0.46142318186E+02  0.10000003870E+02 0.  0.
        -12    1    1    2    0    0  0.21023245501E+02 -0.13373716018E+00  0.39838658525E+02  0.45045681814E+02  0.00000000000E+00 0.  1.
         11    1    3    3    0    0 -0.15292866711E+02  0.26992667598E+00 -0.21960100431E+02  0.26761738431E+02  0.51100000000E-03 0. -1.
        -11    1    3    3    0    0 -0.23200339312E+01  0.77721921558E+00 -0.21390112870E+01  0.32499225680E+01  0.51100000000E-03 0.  1.
         12    1    3    3    0    0 -0.34103448589E+01 -0.91340873138E+00 -0.15739546807E+02  0.16130657186E+02  0.00000000000E+00 0. -1.
</event>
<event>
 7    1  0.1476909E-008  0.4614232E+02  0.7816164E-02  0.1320468E+00
        -11   -1    0    0    0    0  0.00000000000E+00  0.00000000000E+00  0.45593999997E+02  0.45594000000E+02  0.51100000000E-03 0. -1.
         11   -1    0    0    0    0 -0.00000000000E+00 -0.00000000000E+00 -0.45593999997E+02  0.45594000000E+02  0.51100000000E-03 0.  1.
    9900012    2    1    2    0    0 -0.13236562113E+02  0.33497916612E+02  0.27051738160E+02  0.46142317284E+02  0.99999956456E+01 0.  0.
        -12    1    1    2    0    0  0.13236562113E+02 -0.33497916612E+02 -0.27051738160E+02  0.45045682716E+02  0.00000000000E+00 0.  1.
         11    1    3    3    0    0 -0.51598274750E+01  0.19598770118E+02  0.10708789592E+02  0.22921906214E+02  0.51100000000E-03 0. -1.
        -11    1    3    3    0    0 -0.65432991464E+00 -0.55886324267E-01  0.39355949729E+00  0.76561103536E+00  0.51100000000E-03 0.  1.
         12    1    3    3    0    0 -0.74224047230E+01  0.13955032818E+02  0.15949389071E+02  0.22454800034E+02  0.00000000000E+00 0. -1.
</event>
<event>
 7    1  0.1476909E-008  0.4614232E+02  0.7816164E-02  0.1320468E+00
        -11   -1    0    0    0    0  0.00000000000E+00  0.00000000000E+00  0.45593999997E+02  0.45594000000E+02  0.51100000000E-03 0.  1.
         11   -1    0    0    0    0 -0.00000000000E+00 -0.00000000000E+00 -0.45593999997E+02  0.45594000000E+02  0.51100000000E-03 0. -1.
    9900012    2    1    2    0    0 -0.38527829957E+02 -0.18671630271E+02 -0.14003215546E+02  0.46142317590E+02  0.99999984375E+01 0.  0.
        -12    1    1    2    0    0  0.38527829957E+02  0.18671630271E+02  0.14003215546E+02  0.45045682410E+02  0.00000000000E+00 0.  1.
         11    1    3    3    0    0 -0.54055323866E+01 -0.29536879103E+01 -0.29524393550E+01  0.68308821583E+01  0.51100000000E-03 0. -1.
        -11    1    3    3    0    0 -0.20046142118E+02 -0.63054947402E+01 -0.96949084490E+01  0.23142997382E+02  0.51100000000E-03 0.  1.
        -12    1    3    3    0    0 -0.13076155452E+02 -0.94124476203E+01 -0.13558677424E+01  0.16168438049E+02  0.00000000000E+00 0.  1.
</event>
<event>
 7    1  0.1476909E-008  0.4614232E+02  0.7816164E-02  0.1320468E+00
        -11   -1    0    0    0    0  0.00000000000E+00  0.00000000000E+00  0.45593999997E+02  0.45594000000E+02  0.51100000000E-03 0.  1.
         11   -1    0    0    0    0 -0.00000000000E+00 -0.00000000000E+00 -0.45593999997E+02  0.45594000000E+02  0.51100000000E-03 0. -1.
    9900012    2    1    2    0    0  0.37524850684E+01 -0.42810787187E+02 -0.13500697647E+02  0.46142317846E+02  0.10000000773E+02 0.  0.
        -12    1    1    2    0    0 -0.37524850684E+01  0.42810787187E+02  0.13500697647E+02  0.45045682154E+02  0.00000000000E+00 0.  1.
         11    1    3    3    0    0  0.51294243794E+01 -0.32571085449E+02 -0.86001972980E+01  0.34075651067E+02  0.51100000000E-03 0. -1.
        -11    1    3    3    0    0 -0.36164785494E+00 -0.75836878942E+01 -0.52076571635E+01  0.92066717462E+01  0.51100000000E-03 0.  1.
        -12    1    3    3    0    0 -0.10152914560E+01 -0.26560138440E+01  0.30715681496E+00  0.28599950331E+01  0.00000000000E+00 0.  1.
</event>
<event>
 7    1  0.1591667E-008  0.4614232E+02  0.7816164E-02  0.1320468E+00
        -11   -1    0    0    0    0  0.00000000000E+00  0.00000000000E+00  0.45593999997E+02  0.45594000000E+02  0.51100000000E-03 0. -1.
         11   -1    0    0    0    0 -0.00000000000E+00 -0.00000000000E+00 -0.45593999997E+02  0.45594000000E+02  0.51100000000E-03 0.  1.
    9900012    2    1    2    0    0 -0.23111697808E+02 -0.11544945186E+02  0.36900909839E+02  0.46142317833E+02  0.10000000657E+02 0.  0.
        -12    1    1    2    0    0  0.23111697808E+02  0.11544945186E+02 -0.36900909839E+02  0.45045682167E+02  0.00000000000E+00 0.  1.
         11    1    3    3    0    0 -0.61523047045E+01 -0.20362025004E+01  0.10731961647E+02  0.12536824752E+02  0.51100000000E-03 0. -1.
        -11    1    3    3    0    0 -0.13668103570E+02 -0.10840300198E+02  0.20517635612E+02  0.26931441382E+02  0.51100000000E-03 0.  1.
        -12    1    3    3    0    0 -0.32912895336E+01  0.13315575119E+01  0.56513125803E+01  0.66740516990E+01  0.00000000000E+00 0.  1.
</event>
<event>
 7    1  0.1476909E-008  0.4614232E+02  0.7816164E-02  0.1320468E+00
        -11   -1    0    0    0    0  0.00000000000E+00  0.00000000000E+00  0.45593999997E+02  0.45594000000E+02  0.51100000000E-03 0. -1.
         11   -1    0    0    0    0 -0.00000000000E+00 -0.00000000000E+00 -0.45593999997E+02  0.45594000000E+02  0.51100000000E-03 0.  1.
    9900012    2    1    2    0    0 -0.42718506939E+02 -0.54228693628E+01  0.13222524295E+02  0.46142317677E+02  0.99999992311E+01 0.  0.
        -12    1    1    2    0    0  0.42718506939E+02  0.54228693628E+01 -0.13222524295E+02  0.45045682323E+02  0.00000000000E+00 0.  1.
         11    1    3    3    0    0 -0.41693040518E+01 -0.57877586682E+00  0.19670282344E+01  0.46462111571E+01  0.51100000000E-03 0. -1.
        -11    1    3    3    0    0 -0.42444782141E+01  0.23920380912E+00  0.44519999415E+01  0.61557385838E+01  0.51100000000E-03 0.  1.
        -12    1    3    3    0    0 -0.34304724673E+02 -0.50832973051E+01  0.68034961187E+01  0.35340367936E+02  0.00000000000E+00 0.  1.
</event>
<event>
 7    1  0.1476909E-008  0.4614232E+02  0.7816164E-02  0.1320468E+00
        -11   -1    0    0    0    0  0.00000000000E+00  0.00000000000E+00  0.45593999997E+02  0.45594000000E+02  0.51100000000E-03 0. -1.
         11   -1    0    0    0    0 -0.00000000000E+00 -0.00000000000E+00 -0.45593999997E+02  0.45594000000E+02  0.51100000000E-03 0.  1.
    9900012    2    1    2    0    0 -0.19818138460E+02 -0.22441086956E+00  0.40451260343E+02  0.46142318347E+02  0.10000005343E+02 0.  0.
        -12    1    1    2    0    0  0.19818138460E+02  0.22441086956E+00 -0.40451260343E+02  0.45045681653E+02  0.00000000000E+00 0.  1.
         11    1    3    3    0    0 -0.36157311279E+01  0.21607499301E+01  0.38707933380E+01  0.57206112590E+01  0.51100000000E-03 0.  1.
        -11    1    3    3    0    0 -0.13649072952E+02 -0.34828445185E+01  0.33063371553E+02  0.35939030832E+02  0.51100000000E-03 0. -1.
         12    1    3    3    0    0 -0.25533343802E+01  0.10976837189E+01  0.35170954514E+01  0.44826762562E+01  0.00000000000E+00 0. -1.
</event>
<event>
 7    1  0.1476909E-008  0.4614232E+02  0.7816164E-02  0.1320468E+00
        -11   -1    0    0    0    0  0.00000000000E+00  0.00000000000E+00  0.45593999997E+02  0.45594000000E+02  0.51100000000E-03 0.  1.
         11   -1    0    0    0    0 -0.00000000000E+00 -0.00000000000E+00 -0.45593999997E+02  0.45594000000E+02  0.51100000000E-03 0. -1.
    9900012    2    1    2    0    0 -0.20434790819E+02  0.91641375543E+01 -0.39083904076E+02  0.46142315959E+02  0.99999835638E+01 0.  0.
        -12    1    1    2    0    0  0.20434790819E+02 -0.91641375543E+01  0.39083904076E+02  0.45045684041E+02  0.00000000000E+00 0.  1.
         11    1    3    3    0    0 -0.11628551942E+02  0.58930750057E+01 -0.22422047794E+02  0.25936456598E+02  0.51100000000E-03 0. -1.
        -11    1    3    3    0    0 -0.11435697555E+01 -0.18705921997E+01 -0.35464159405E+01  0.41694044236E+01  0.51100000000E-03 0.  1.
         12    1    3    3    0    0 -0.76626691220E+01  0.51416547483E+01 -0.13115440341E+02  0.16036454937E+02  0.00000000000E+00 0. -1.
</event>
<event>
 7    1  0.1476909E-008  0.4614232E+02  0.7816164E-02  0.1320468E+00
        -11   -1    0    0    0    0  0.00000000000E+00  0.00000000000E+00  0.45593999997E+02  0.45594000000E+02  0.51100000000E-03 0.  1.
         11   -1    0    0    0    0 -0.00000000000E+00 -0.00000000000E+00 -0.45593999997E+02  0.45594000000E+02  0.51100000000E-03 0. -1.
    9900012    2    1    2    0    0  0.42807015099E+02  0.12977477037E+02 -0.53157866173E+01  0.46142322745E+02  0.10000045450E+02 0.  0.
        -12    1    1    2    0    0 -0.42807015099E+02 -0.12977477037E+02  0.53157866173E+01  0.45045677255E+02  0.00000000000E+00 0.  1.
         11    1    3    3    0    0  0.27774603778E+02  0.10209034127E+02 -0.18734265473E+01  0.29650678241E+02  0.51100000000E-03 0. -1.
        -11    1    3    3    0    0  0.34605201018E+01 -0.15005923189E+01 -0.44155556623E+00  0.37976240285E+01  0.51100000000E-03 0.  1.
        -12    1    3    3    0    0  0.11571891219E+02  0.42690352292E+01 -0.30008045038E+01  0.12694020476E+02  0.00000000000E+00 0.  1.
</event>
<event>
 7    1  0.1476909E-008  0.4614232E+02  0.7816164E-02  0.1320468E+00
        -11   -1    0    0    0    0  0.00000000000E+00  0.00000000000E+00  0.45593999997E+02  0.45594000000E+02  0.51100000000E-03 0. -1.
         11   -1    0    0    0    0 -0.00000000000E+00 -0.00000000000E+00 -0.45593999997E+02  0.45594000000E+02  0.51100000000E-03 0.  1.
    9900012    2    1    2    0    0 -0.37783150638E+01  0.33483666111E+02 -0.29894513641E+02  0.46142317557E+02  0.99999981391E+01 0.  0.
        -12    1    1    2    0    0  0.37783150638E+01 -0.33483666111E+02  0.29894513641E+02  0.45045682443E+02  0.00000000000E+00 0.  1.
         11    1    3    3    0    0 -0.16979415714E+01  0.89831424143E+01 -0.42613219141E+01  0.10086561254E+02  0.51100000000E-03 0. -1.
        -11    1    3    3    0    0 -0.32978638211E+01  0.13894498016E+02 -0.11451174906E+02  0.18304709445E+02  0.51100000000E-03 0.  1.
        -12    1    3    3    0    0  0.12174903288E+01  0.10606025681E+02 -0.14182016821E+02  0.17751046858E+02  0.00000000000E+00 0.  1.
</event>
<event>
 7    1  0.1476909E-008  0.4614232E+02  0.7816164E-02  0.1320468E+00
        -11   -1    0    0    0    0  0.00000000000E+00  0.00000000000E+00  0.45593999997E+02  0.45594000000E+02  0.51100000000E-03 0.  1.
         11   -1    0    0    0    0 -0.00000000000E+00 -0.00000000000E+00 -0.45593999997E+02  0.45594000000E+02  0.51100000000E-03 0. -1.
    9900012    2    1    2    0    0 -0.33319515853E+02 -0.13618403002E+01 -0.30283144242E+02  0.46142316845E+02  0.99999916469E+01 0.  0.
        -12    1    1    2    0    0  0.33319515853E+02  0.13618403002E+01  0.30283144242E+02  0.45045683155E+02  0.00000000000E+00 0.  1.
         11    1    3    3    0    0 -0.17857188877E+02 -0.14167015045E+01 -0.18644441226E+02  0.25855394536E+02  0.51100000000E-03 0. -1.
        -11    1    3    3    0    0 -0.37106814472E+01  0.26200609979E+01 -0.25355462121E+01  0.52021986977E+01  0.51100000000E-03 0.  1.
        -12    1    3    3    0    0 -0.11751645529E+02 -0.25651997937E+01 -0.91031568046E+01  0.15084723611E+02  0.00000000000E+00 0.  1.
</event>
<event>
 7    1  0.1476909E-008  0.4614232E+02  0.7816164E-02  0.1320468E+00
        -11   -1    0    0    0    0  0.00000000000E+00  0.00000000000E+00  0.45593999997E+02  0.45594000000E+02  0.51100000000E-03 0. -1.
         11   -1    0    0    0    0 -0.00000000000E+00 -0.00000000000E+00 -0.45593999997E+02  0.45594000000E+02  0.51100000000E-03 0.  1.
    9900012    2    1    2    0    0 -0.41780253351E+02  0.16806964592E+02 -0.10247185894E+01  0.46142315666E+02  0.99999808988E+01 0.  0.
        -12    1    1    2    0    0  0.41780253351E+02 -0.16806964592E+02  0.10247185894E+01  0.45045684334E+02  0.00000000000E+00 0.  1.
         11    1    3    3    0    0 -0.23171483255E+02  0.13525611460E+02 -0.35948742105E+01  0.27069963474E+02  0.51100000000E-03 0.  1.
        -11    1    3    3    0    0 -0.95860726579E+01  0.17035614618E+01  0.11691256209E+01  0.98062105645E+01  0.51100000000E-03 0. -1.
        -12    1    3    3    0    0 -0.90226974380E+01  0.15777916706E+01  0.14010300002E+01  0.92661416283E+01  0.00000000000E+00 0.  1.
</event>
<event>
 7    1  0.1476909E-008  0.4614231E+02  0.7816164E-02  0.1320468E+00
        -11   -1    0    0    0    0  0.00000000000E+00  0.00000000000E+00  0.45593999997E+02  0.45594000000E+02  0.51100000000E-03 0.  1.
         11   -1    0    0    0    0 -0.00000000000E+00 -0.00000000000E+00 -0.45593999997E+02  0.45594000000E+02  0.51100000000E-03 0. -1.
    9900012    2    1    2    0    0 -0.39825661860E+02  0.14424164862E+02 -0.15328860537E+02  0.46142313859E+02  0.99999644185E+01 0.  0.
        -12    1    1    2    0    0  0.39825661860E+02 -0.14424164862E+02  0.15328860537E+02  0.45045686141E+02  0.00000000000E+00 0.  1.
         11    1    3    3    0    0 -0.54699812715E+01 -0.77873967212E+00 -0.18060169274E+01  0.58128158401E+01  0.51100000000E-03 0. -1.
        -11    1    3    3    0    0 -0.70194372956E+01  0.40194672081E+01 -0.66302685605E+00  0.81159239435E+01  0.51100000000E-03 0.  1.
         12    1    3    3    0    0 -0.27336243293E+02  0.11183437326E+02 -0.12859816754E+02  0.32213574076E+02  0.00000000000E+00 0. -1.
</event>
<event>
 7    1  0.1476909E-008  0.4614232E+02  0.7816164E-02  0.1320468E+00
        -11   -1    0    0    0    0  0.00000000000E+00  0.00000000000E+00  0.45593999997E+02  0.45594000000E+02  0.51100000000E-03 0.  1.
         11   -1    0    0    0    0 -0.00000000000E+00 -0.00000000000E+00 -0.45593999997E+02  0.45594000000E+02  0.51100000000E-03 0. -1.
    9900012    2    1    2    0    0  0.25452235432E+02 -0.34709649265E+02 -0.13286739969E+02  0.46142317637E+02  0.99999988651E+01 0.  0.
        -12    1    1    2    0    0 -0.25452235432E+02  0.34709649265E+02  0.13286739969E+02  0.45045682363E+02  0.00000000000E+00 0.  1.
         11    1    3    3    0    0  0.20174823239E+02 -0.25836356043E+02 -0.12949542185E+02  0.35245303650E+02  0.51100000000E-03 0. -1.
        -11    1    3    3    0    0  0.55423220095E+00 -0.29574825082E+01  0.10772352729E+01  0.31959837629E+01  0.51100000000E-03 0.  1.
         12    1    3    3    0    0  0.47231799913E+01 -0.59158107143E+01 -0.14144330571E+01  0.77010302239E+01  0.00000000000E+00 0. -1.
</event>
<event>
 7    1  0.1476909E-008  0.4614232E+02  0.7816164E-02  0.1320468E+00
        -11   -1    0    0    0    0  0.00000000000E+00  0.00000000000E+00  0.45593999997E+02  0.45594000000E+02  0.51100000000E-03 0.  1.
         11   -1    0    0    0    0 -0.00000000000E+00 -0.00000000000E+00 -0.45593999997E+02  0.45594000000E+02  0.51100000000E-03 0. -1.
    9900012    2    1    2    0    0 -0.64665588615E+01  0.39757437219E+02 -0.20165398438E+02  0.46142317722E+02  0.99999996396E+01 0.  0.
        -12    1    1    2    0    0  0.64665588615E+01 -0.39757437219E+02  0.20165398438E+02  0.45045682278E+02  0.00000000000E+00 0.  1.
         11    1    3    3    0    0 -0.27982244787E+01  0.34615451225E+02 -0.15448197737E+02  0.38009292776E+02  0.51100000000E-03 0. -1.
        -11    1    3    3    0    0 -0.31382597575E+00  0.11430052186E+00  0.15645360713E+00  0.36882156208E+00  0.51100000000E-03 0.  1.
         12    1    3    3    0    0 -0.33545084071E+01  0.50276854720E+01 -0.48736543082E+01  0.77642033831E+01  0.00000000000E+00 0. -1.
</event>
<event>
 7    1  0.1476909E-008  0.4614232E+02  0.7816164E-02  0.1320468E+00
        -11   -1    0    0    0    0  0.00000000000E+00  0.00000000000E+00  0.45593999997E+02  0.45594000000E+02  0.51100000000E-03 0.  1.
         11   -1    0    0    0    0 -0.00000000000E+00 -0.00000000000E+00 -0.45593999997E+02  0.45594000000E+02  0.51100000000E-03 0. -1.
    9900012    2    1    2    0    0  0.89301927779E+01 -0.81918246550E+01 -0.43385009266E+02  0.46142319150E+02  0.10000012666E+02 0.  0.
        -12    1    1    2    0    0 -0.89301927779E+01  0.81918246550E+01  0.43385009266E+02  0.45045680850E+02  0.00000000000E+00 0.  1.
         11    1    3    3    0    0  0.67711435081E+01 -0.97045055057E+01 -0.29282428735E+02  0.31583008792E+02  0.51100000000E-03 0. -1.
        -11    1    3    3    0    0  0.25436298432E+01  0.10307576548E+01 -0.87245740587E+01  0.91460760378E+01  0.51100000000E-03 0.  1.
         12    1    3    3    0    0 -0.38458057343E+00  0.48192319581E+00 -0.53780064725E+01  0.54132343199E+01  0.00000000000E+00 0. -1.
</event>
<event>
 7    1  0.1476909E-008  0.4614232E+02  0.7816164E-02  0.1320468E+00
        -11   -1    0    0    0    0  0.00000000000E+00  0.00000000000E+00  0.45593999997E+02  0.45594000000E+02  0.51100000000E-03 0. -1.
         11   -1    0    0    0    0 -0.00000000000E+00 -0.00000000000E+00 -0.45593999997E+02  0.45594000000E+02  0.51100000000E-03 0.  1.
    9900012    2    1    2    0    0 -0.42183634014E+02 -0.10579703337E+02  0.11735601809E+02  0.46142318175E+02  0.10000003771E+02 0.  0.
        -12    1    1    2    0    0  0.42183634014E+02  0.10579703337E+02 -0.11735601809E+02  0.45045681825E+02  0.00000000000E+00 0.  1.
         11    1    3    3    0    0 -0.40904327201E+02 -0.92661542896E+01  0.97797687166E+01  0.43065873676E+02  0.51100000000E-03 0. -1.
        -11    1    3    3    0    0 -0.48974988861E-01  0.31397808377E+00  0.39892707446E+00  0.51002339013E+00  0.51100000000E-03 0.  1.
         12    1    3    3    0    0 -0.12303318244E+01 -0.16275271309E+01  0.15569060175E+01  0.25664211087E+01  0.00000000000E+00 0. -1.
</event>
<event>
 7    1  0.1476909E-008  0.4614232E+02  0.7816164E-02  0.1320468E+00
        -11   -1    0    0    0    0  0.00000000000E+00  0.00000000000E+00  0.45593999997E+02  0.45594000000E+02  0.51100000000E-03 0.  1.
         11   -1    0    0    0    0 -0.00000000000E+00 -0.00000000000E+00 -0.45593999997E+02  0.45594000000E+02  0.51100000000E-03 0. -1.
    9900012    2    1    2    0    0  0.16489507186E+02 -0.22310056926E+02 -0.35489023760E+02  0.46142319910E+02  0.10000019597E+02 0.  0.
        -12    1    1    2    0    0 -0.16489507186E+02  0.22310056926E+02  0.35489023760E+02  0.45045680090E+02  0.00000000000E+00 0.  1.
         11    1    3    3    0    0  0.10357747604E+01 -0.19871153621E+01 -0.38445402848E+01  0.44499378736E+01  0.51100000000E-03 0. -1.
        -11    1    3    3    0    0  0.10087738095E+02 -0.11374837137E+02 -0.11702694379E+02  0.19185995824E+02  0.51100000000E-03 0.  1.
        -12    1    3    3    0    0  0.53659943315E+01 -0.89481044272E+01 -0.19941789096E+02  0.22506386213E+02  0.00000000000E+00 0.  1.
</event>
<event>
 7    1  0.1476909E-008  0.4614232E+02  0.7816164E-02  0.1320468E+00
        -11   -1    0    0    0    0  0.00000000000E+00  0.00000000000E+00  0.45593999997E+02  0.45594000000E+02  0.51100000000E-03 0.  1.
         11   -1    0    0    0    0 -0.00000000000E+00 -0.00000000000E+00 -0.45593999997E+02  0.45594000000E+02  0.51100000000E-03 0. -1.
    9900012    2    1    2    0    0 -0.80523044979E+01  0.91256258964E+01 -0.43370459579E+02  0.46142318522E+02  0.10000006942E+02 0.  0.
        -12    1    1    2    0    0  0.80523044979E+01 -0.91256258964E+01  0.43370459579E+02  0.45045681478E+02  0.00000000000E+00 0.  1.
         11    1    3    3    0    0 -0.11305119676E+01  0.37186322198E+01 -0.19341926726E+02  0.19728568438E+02  0.51100000000E-03 0. -1.
        -11    1    3    3    0    0 -0.38635729920E+01 -0.49055384575E+00 -0.12670393457E+02  0.13255440768E+02  0.51100000000E-03 0.  1.
        -12    1    3    3    0    0 -0.30582195384E+01  0.58975475224E+01 -0.11358139396E+02  0.13158309316E+02  0.00000000000E+00 0.  1.
</event>
<event>
 7    1  0.1476909E-008  0.4614232E+02  0.7816164E-02  0.1320468E+00
        -11   -1    0    0    0    0  0.00000000000E+00  0.00000000000E+00  0.45593999997E+02  0.45594000000E+02  0.51100000000E-03 0.  1.
         11   -1    0    0    0    0 -0.00000000000E+00 -0.00000000000E+00 -0.45593999997E+02  0.45594000000E+02  0.51100000000E-03 0. -1.
    9900012    2    1    2    0    0 -0.34828382084E+02 -0.20341374665E+02 -0.20058061614E+02  0.46142316993E+02  0.99999929948E+01 0.  0.
        -12    1    1    2    0    0  0.34828382084E+02  0.20341374665E+02  0.20058061614E+02  0.45045683007E+02  0.00000000000E+00 0.  1.
         11    1    3    3    0    0 -0.49944156941E+01 -0.22194490915E+01 -0.48283656148E+01  0.72926851822E+01  0.51100000000E-03 0. -1.
        -11    1    3    3    0    0 -0.16678034101E+02 -0.97066253546E+01 -0.12510343750E+02  0.22997480259E+02  0.51100000000E-03 0.  1.
        -12    1    3    3    0    0 -0.13155932289E+02 -0.84153002185E+01 -0.27193522491E+01  0.15852151552E+02  0.00000000000E+00 0.  1.
</event>
<event>
 7    1  0.1476909E-008  0.4614232E+02  0.7816164E-02  0.1320468E+00
        -11   -1    0    0    0    0  0.00000000000E+00  0.00000000000E+00  0.45593999997E+02  0.45594000000E+02  0.51100000000E-03 0. -1.
         11   -1    0    0    0    0 -0.00000000000E+00 -0.00000000000E+00 -0.45593999997E+02  0.45594000000E+02  0.51100000000E-03 0.  1.
    9900012    2    1    2    0    0  0.30348946798E+02 -0.31692492975E+02 -0.10180408461E+02  0.46142318752E+02  0.10000009032E+02 0.  0.
        -12    1    1    2    0    0 -0.30348946798E+02  0.31692492975E+02  0.10180408461E+02  0.45045681248E+02  0.00000000000E+00 0.  1.
         11    1    3    3    0    0  0.13734671620E+02 -0.10405842626E+02 -0.48695524226E+01  0.17906292367E+02  0.51100000000E-03 0. -1.
        -11    1    3    3    0    0  0.37435605090E+00 -0.38252880183E+01 -0.12839957846E+01  0.40523593513E+01  0.51100000000E-03 0.  1.
         12    1    3    3    0    0  0.16239919127E+02 -0.17461362331E+02 -0.40268602540E+01  0.24183667033E+02  0.00000000000E+00 0. -1.
</event>
<event>
 7    1  0.1476909E-008  0.4614232E+02  0.7816164E-02  0.1320468E+00
        -11   -1    0    0    0    0  0.00000000000E+00  0.00000000000E+00  0.45593999997E+02  0.45594000000E+02  0.51100000000E-03 0.  1.
         11   -1    0    0    0    0 -0.00000000000E+00 -0.00000000000E+00 -0.45593999997E+02  0.45594000000E+02  0.51100000000E-03 0. -1.
    9900012    2    1    2    0    0  0.72680655078E+01  0.39626944048E+02 -0.20149292439E+02  0.46142318114E+02  0.10000003216E+02 0.  0.
        -12    1    1    2    0    0 -0.72680655078E+01 -0.39626944048E+02  0.20149292439E+02  0.45045681886E+02  0.00000000000E+00 0.  1.
         11    1    3    3    0    0  0.20505348831E+01  0.92905070564E+01 -0.22284004069E+01  0.97715906232E+01  0.51100000000E-03 0. -1.
        -11    1    3    3    0    0 -0.66559101593E+00  0.13525991196E+02 -0.53020719185E+01  0.14543294542E+02  0.51100000000E-03 0.  1.
        -12    1    3    3    0    0  0.58831216406E+01  0.16810445795E+02 -0.12618820113E+02  0.21827432949E+02  0.00000000000E+00 0.  1.
</event>
<event>
 7    1  0.1476909E-008  0.4614232E+02  0.7816164E-02  0.1320468E+00
        -11   -1    0    0    0    0  0.00000000000E+00  0.00000000000E+00  0.45593999997E+02  0.45594000000E+02  0.51100000000E-03 0.  1.
         11   -1    0    0    0    0 -0.00000000000E+00 -0.00000000000E+00 -0.45593999997E+02  0.45594000000E+02  0.51100000000E-03 0. -1.
    9900012    2    1    2    0    0  0.94085673652E+01 -0.19223164483E+02 -0.39636627133E+02  0.46142318708E+02  0.10000008631E+02 0.  0.
        -12    1    1    2    0    0 -0.94085673652E+01  0.19223164483E+02  0.39636627133E+02  0.45045681292E+02  0.00000000000E+00 0.  1.
         11    1    3    3    0    0  0.47919170418E+01 -0.12816977635E+02 -0.27409739664E+02  0.30635456800E+02  0.51100000000E-03 0.  1.
        -11    1    3    3    0    0  0.50452710397E+01 -0.68421135050E+01 -0.12231374930E+02  0.14895496300E+02  0.51100000000E-03 0. -1.
        -12    1    3    3    0    0 -0.42862071627E+00  0.43592665750E+00  0.44874606024E-02  0.61136560783E+00  0.00000000000E+00 0.  1.
</event>
<event>
 7    1  0.1476909E-008  0.4614232E+02  0.7816164E-02  0.1320468E+00
        -11   -1    0    0    0    0  0.00000000000E+00  0.00000000000E+00  0.45593999997E+02  0.45594000000E+02  0.51100000000E-03 0.  1.
         11   -1    0    0    0    0 -0.00000000000E+00 -0.00000000000E+00 -0.45593999997E+02  0.45594000000E+02  0.51100000000E-03 0. -1.
    9900012    2    1    2    0    0  0.43878123011E+02 -0.31560649939E+01 -0.96882885871E+01  0.46142319175E+02  0.10000012896E+02 0.  0.
        -12    1    1    2    0    0 -0.43878123011E+02  0.31560649939E+01  0.96882885871E+01  0.45045680825E+02  0.00000000000E+00 0.  1.
         11    1    3    3    0    0  0.19806131275E+02 -0.11778451481E+01 -0.19376426457E+01  0.19935511394E+02  0.51100000000E-03 0. -1.
        -11    1    3    3    0    0  0.10302725554E+02 -0.37473786186E+01 -0.50226432386E+01  0.12058853416E+02  0.51100000000E-03 0.  1.
        -12    1    3    3    0    0  0.13769266183E+02  0.17691587729E+01 -0.27280027028E+01  0.14147954365E+02  0.00000000000E+00 0.  1.
</event>
<event>
 7    1  0.1476909E-008  0.4614232E+02  0.7816164E-02  0.1320468E+00
        -11   -1    0    0    0    0  0.00000000000E+00  0.00000000000E+00  0.45593999997E+02  0.45594000000E+02  0.51100000000E-03 0.  1.
         11   -1    0    0    0    0 -0.00000000000E+00 -0.00000000000E+00 -0.45593999997E+02  0.45594000000E+02  0.51100000000E-03 0. -1.
    9900012    2    1    2    0    0 -0.18903021247E+02  0.34885485594E+02 -0.21325855608E+02  0.46142318356E+02  0.10000005420E+02 0.  0.
        -12    1    1    2    0    0  0.18903021247E+02 -0.34885485594E+02  0.21325855608E+02  0.45045681644E+02  0.00000000000E+00 0.  1.
         11    1    3    3    0    0 -0.15285014133E+02  0.23503462752E+02 -0.18450171466E+02  0.33562676380E+02  0.51100000000E-03 0. -1.
        -11    1    3    3    0    0 -0.33736563476E+01  0.90043393025E+01 -0.12674793104E+01  0.96987724733E+01  0.51100000000E-03 0.  1.
        -12    1    3    3    0    0 -0.24435076714E+00  0.23776835388E+01 -0.16082048320E+01  0.28808695024E+01  0.00000000000E+00 0.  1.
</event>
<event>
 7    1  0.1476909E-008  0.4614232E+02  0.7816164E-02  0.1320468E+00
        -11   -1    0    0    0    0  0.00000000000E+00  0.00000000000E+00  0.45593999997E+02  0.45594000000E+02  0.51100000000E-03 0.  1.
         11   -1    0    0    0    0 -0.00000000000E+00 -0.00000000000E+00 -0.45593999997E+02  0.45594000000E+02  0.51100000000E-03 0. -1.
    9900012    2    1    2    0    0 -0.33606166758E+02 -0.27164296011E+02  0.12721637923E+02  0.46142317706E+02  0.99999994945E+01 0.  0.
        -12    1    1    2    0    0  0.33606166758E+02  0.27164296011E+02 -0.12721637923E+02  0.45045682294E+02  0.00000000000E+00 0.  1.
         11    1    3    3    0    0 -0.27739159318E+02 -0.26453316898E+02  0.11456561947E+02  0.40006146359E+02  0.51100000000E-03 0. -1.
        -11    1    3    3    0    0 -0.26314164406E+01  0.55171545499E-01  0.94183939971E+00  0.27954352254E+01  0.51100000000E-03 0.  1.
         12    1    3    3    0    0 -0.32355910000E+01 -0.76615065757E+00  0.32323657588E+00  0.33407361214E+01  0.00000000000E+00 0. -1.
</event>
<event>
 7    1  0.1476909E-008  0.4614232E+02  0.7816164E-02  0.1320468E+00
        -11   -1    0    0    0    0  0.00000000000E+00  0.00000000000E+00  0.45593999997E+02  0.45594000000E+02  0.51100000000E-03 0.  1.
         11   -1    0    0    0    0 -0.00000000000E+00 -0.00000000000E+00 -0.45593999997E+02  0.45594000000E+02  0.51100000000E-03 0. -1.
    9900012    2    1    2    0    0  0.95252706367E+01 -0.23195884168E+02 -0.37421032773E+02  0.46142317445E+02  0.99999971140E+01 0.  0.
        -12    1    1    2    0    0 -0.95252706367E+01  0.23195884168E+02  0.37421032773E+02  0.45045682555E+02  0.00000000000E+00 0.  1.
         11    1    3    3    0    0  0.62126572362E+01 -0.13155409708E+02 -0.17191207629E+02  0.22521090883E+02  0.51100000000E-03 0. -1.
        -11    1    3    3    0    0 -0.15916130574E+01 -0.13053204641E+01 -0.48235828263E+01  0.52444299196E+01  0.51100000000E-03 0.  1.
         12    1    3    3    0    0  0.49042264580E+01 -0.87351539964E+01 -0.15406242317E+02  0.18376796642E+02  0.00000000000E+00 0. -1.
</event>
<event>
 7    1  0.1476909E-008  0.4614232E+02  0.7816164E-02  0.1320468E+00
        -11   -1    0    0    0    0  0.00000000000E+00  0.00000000000E+00  0.45593999997E+02  0.45594000000E+02  0.51100000000E-03 0.  1.
         11   -1    0    0    0    0 -0.00000000000E+00 -0.00000000000E+00 -0.45593999997E+02  0.45594000000E+02  0.51100000000E-03 0. -1.
    9900012    2    1    2    0    0  0.14133437687E+02  0.48962118545E+01 -0.42489842100E+02  0.46142316155E+02  0.99999853548E+01 0.  0.
        -12    1    1    2    0    0 -0.14133437687E+02 -0.48962118545E+01  0.42489842100E+02  0.45045683845E+02  0.00000000000E+00 0.  1.
         11    1    3    3    0    0  0.96091852044E+01  0.76725187233E+00 -0.14439848707E+02  0.17361864724E+02  0.51100000000E-03 0. -1.
        -11    1    3    3    0    0  0.35316654592E+01  0.20910895866E+01 -0.20035752368E+02  0.20451813851E+02  0.51100000000E-03 0.  1.
         12    1    3    3    0    0  0.99258702315E+00  0.20378703956E+01 -0.80142410242E+01  0.83286375801E+01  0.00000000000E+00 0. -1.
</event>
<event>
 7    1  0.1476909E-008  0.4614232E+02  0.7816164E-02  0.1320468E+00
        -11   -1    0    0    0    0  0.00000000000E+00  0.00000000000E+00  0.45593999997E+02  0.45594000000E+02  0.51100000000E-03 0. -1.
         11   -1    0    0    0    0 -0.00000000000E+00 -0.00000000000E+00 -0.45593999997E+02  0.45594000000E+02  0.51100000000E-03 0.  1.
    9900012    2    1    2    0    0 -0.34145856283E+02 -0.21739306827E+01  0.29299285369E+02  0.46142316532E+02  0.99999887937E+01 0.  0.
        -12    1    1    2    0    0  0.34145856283E+02  0.21739306827E+01 -0.29299285369E+02  0.45045683468E+02  0.00000000000E+00 0.  1.
         11    1    3    3    0    0 -0.27965710825E+02  0.76419243304E-01  0.27239937130E+02  0.39039736129E+02  0.51100000000E-03 0. -1.
        -11    1    3    3    0    0 -0.61832385047E+01 -0.20066680616E+01  0.17969997226E+01  0.67445061628E+01  0.51100000000E-03 0.  1.
         12    1    3    3    0    0  0.30930465556E-02 -0.24368186443E+00  0.26234851625E+00  0.35807424086E+00  0.00000000000E+00 0. -1.
</event>
<event>
 7    1  0.1476909E-008  0.4614232E+02  0.7816164E-02  0.1320468E+00
        -11   -1    0    0    0    0  0.00000000000E+00  0.00000000000E+00  0.45593999997E+02  0.45594000000E+02  0.51100000000E-03 0. -1.
         11   -1    0    0    0    0 -0.00000000000E+00 -0.00000000000E+00 -0.45593999997E+02  0.45594000000E+02  0.51100000000E-03 0.  1.
    9900012    2    1    2    0    0  0.38998235641E+02 -0.12696640434E+02  0.18629178365E+02  0.46142319320E+02  0.10000014212E+02 0.  0.
        -12    1    1    2    0    0 -0.38998235641E+02  0.12696640434E+02 -0.18629178365E+02  0.45045680680E+02  0.00000000000E+00 0.  1.
         11    1    3    3    0    0  0.44372679967E+00  0.29429769608E+00  0.20880418255E+01  0.21548604439E+01  0.51100000000E-03 0.  1.
        -11    1    3    3    0    0  0.36234484586E+02 -0.12279322915E+02  0.16157885754E+02  0.41530674408E+02  0.51100000000E-03 0. -1.
        -12    1    3    3    0    0  0.23200242549E+01 -0.71161521581E+00  0.38325078600E+00  0.24567844683E+01  0.00000000000E+00 0.  1.
</event>
<event>
 7    1  0.1476909E-008  0.4614232E+02  0.7816164E-02  0.1320468E+00
        -11   -1    0    0    0    0  0.00000000000E+00  0.00000000000E+00  0.45593999997E+02  0.45594000000E+02  0.51100000000E-03 0.  1.
         11   -1    0    0    0    0 -0.00000000000E+00 -0.00000000000E+00 -0.45593999997E+02  0.45594000000E+02  0.51100000000E-03 0. -1.
    9900012    2    1    2    0    0 -0.22750440529E+02  0.37352421784E+02 -0.10785513255E+02  0.46142320368E+02  0.10000023768E+02 0.  0.
        -12    1    1    2    0    0  0.22750440529E+02 -0.37352421784E+02  0.10785513255E+02  0.45045679632E+02  0.00000000000E+00 0.  1.
         11    1    3    3    0    0 -0.11880936797E+01  0.55948532879E+01 -0.32431043876E+01  0.65750799413E+01  0.51100000000E-03 0. -1.
        -11    1    3    3    0    0 -0.90788677515E+01  0.11202719398E+02 -0.19423587313E+00  0.14420973941E+02  0.51100000000E-03 0.  1.
        -12    1    3    3    0    0 -0.12483479098E+02  0.20554849097E+02 -0.73481729943E+01  0.25146266486E+02  0.00000000000E+00 0.  1.
</event>
<event>
 7    1  0.1476909E-008  0.4614232E+02  0.7816164E-02  0.1320468E+00
        -11   -1    0    0    0    0  0.00000000000E+00  0.00000000000E+00  0.45593999997E+02  0.45594000000E+02  0.51100000000E-03 0.  1.
         11   -1    0    0    0    0 -0.00000000000E+00 -0.00000000000E+00 -0.45593999997E+02  0.45594000000E+02  0.51100000000E-03 0. -1.
    9900012    2    1    2    0    0 -0.26948330962E+01 -0.44932634463E+02  0.17057853370E+01  0.46142317978E+02  0.10000001982E+02 0.  0.
        -12    1    1    2    0    0  0.26948330962E+01  0.44932634463E+02 -0.17057853370E+01  0.45045682022E+02  0.00000000000E+00 0.  1.
         11    1    3    3    0    0 -0.19838445819E+01 -0.98537094859E+01 -0.14436663971E+01  0.10154575465E+02  0.51100000000E-03 0. -1.
        -11    1    3    3    0    0  0.37896888265E+00 -0.32469191718E+02  0.46227439839E+01  0.32798807759E+02  0.51100000000E-03 0.  1.
        -12    1    3    3    0    0 -0.10899573969E+01 -0.26097332589E+01 -0.14732922498E+01  0.31889347537E+01  0.00000000000E+00 0.  1.
</event>
<event>
 7    1  0.1476909E-008  0.4614232E+02  0.7816164E-02  0.1320468E+00
        -11   -1    0    0    0    0  0.00000000000E+00  0.00000000000E+00  0.45593999997E+02  0.45594000000E+02  0.51100000000E-03 0.  1.
         11   -1    0    0    0    0 -0.00000000000E+00 -0.00000000000E+00 -0.45593999997E+02  0.45594000000E+02  0.51100000000E-03 0. -1.
    9900012    2    1    2    0    0 -0.38800569799E+02  0.21250256769E+02  0.84885725392E+01  0.46142317707E+02  0.99999995072E+01 0.  0.
        -12    1    1    2    0    0  0.38800569799E+02 -0.21250256769E+02 -0.84885725392E+01  0.45045682293E+02  0.00000000000E+00 0.  1.
         11    1    3    3    0    0 -0.18644583004E+02  0.61638721487E+01  0.54311067043E+01  0.20374266012E+02  0.51100000000E-03 0. -1.
        -11    1    3    3    0    0 -0.10168795721E+02  0.79618055981E+01  0.38441174413E+01  0.13474865267E+02  0.51100000000E-03 0.  1.
         12    1    3    3    0    0 -0.99871910750E+01  0.71245790217E+01 -0.78665160636E+00  0.12293186428E+02  0.00000000000E+00 0. -1.
</event>
<event>
 7    1  0.1476909E-008  0.4614232E+02  0.7816164E-02  0.1320468E+00
        -11   -1    0    0    0    0  0.00000000000E+00  0.00000000000E+00  0.45593999997E+02  0.45594000000E+02  0.51100000000E-03 0.  1.
         11   -1    0    0    0    0 -0.00000000000E+00 -0.00000000000E+00 -0.45593999997E+02  0.45594000000E+02  0.51100000000E-03 0. -1.
    9900012    2    1    2    0    0 -0.35860441886E+02  0.11502399212E+02 -0.24715115253E+02  0.46142318722E+02  0.10000008760E+02 0.  0.
        -12    1    1    2    0    0  0.35860441886E+02 -0.11502399212E+02  0.24715115253E+02  0.45045681278E+02  0.00000000000E+00 0.  1.
         11    1    3    3    0    0 -0.27881156126E+02  0.55517168215E+01 -0.16598335648E+02  0.32919373827E+02  0.51100000000E-03 0. -1.
        -11    1    3    3    0    0 -0.17482961367E+00  0.13565208075E+01 -0.83702595881E+00  0.16035357220E+01  0.51100000000E-03 0.  1.
         12    1    3    3    0    0 -0.78044561455E+01  0.45941615833E+01 -0.72797536458E+01  0.11619409173E+02  0.00000000000E+00 0. -1.
</event>
<event>
 7    1  0.1476909E-008  0.4614232E+02  0.7816164E-02  0.1320468E+00
        -11   -1    0    0    0    0  0.00000000000E+00  0.00000000000E+00  0.45593999997E+02  0.45594000000E+02  0.51100000000E-03 0.  1.
         11   -1    0    0    0    0 -0.00000000000E+00 -0.00000000000E+00 -0.45593999997E+02  0.45594000000E+02  0.51100000000E-03 0. -1.
    9900012    2    1    2    0    0  0.41572982027E+02  0.16770371769E+02 -0.44221331021E+01  0.46142318020E+02  0.10000002360E+02 0.  0.
        -12    1    1    2    0    0 -0.41572982027E+02 -0.16770371769E+02  0.44221331021E+01  0.45045681980E+02  0.00000000000E+00 0.  1.
         11    1    3    3    0    0  0.28006057153E+02  0.11675400349E+02  0.91479101069E+00  0.30356071114E+02  0.51100000000E-03 0. -1.
        -11    1    3    3    0    0  0.12294357224E+02  0.37982312189E+01 -0.54311918548E+01  0.13966947597E+02  0.51100000000E-03 0.  1.
        -12    1    3    3    0    0  0.12725676493E+01  0.12967402010E+01  0.94267742030E-01  0.18192993097E+01  0.00000000000E+00 0.  1.
</event>
<event>
 7    1  0.1476909E-008  0.4614232E+02  0.7816164E-02  0.1320468E+00
        -11   -1    0    0    0    0  0.00000000000E+00  0.00000000000E+00  0.45593999997E+02  0.45594000000E+02  0.51100000000E-03 0.  1.
         11   -1    0    0    0    0 -0.00000000000E+00 -0.00000000000E+00 -0.45593999997E+02  0.45594000000E+02  0.51100000000E-03 0. -1.
    9900012    2    1    2    0    0  0.32600150925E+02  0.29581999502E+02 -0.95524416477E+01  0.46142315675E+02  0.99999809767E+01 0.  0.
        -12    1    1    2    0    0 -0.32600150925E+02 -0.29581999502E+02  0.95524416477E+01  0.45045684325E+02  0.00000000000E+00 0.  1.
         11    1    3    3    0    0  0.12218794879E+02  0.11420323263E+02  0.39150698666E+00  0.16729495202E+02  0.51100000000E-03 0. -1.
        -11    1    3    3    0    0  0.74859813017E+01  0.82357900276E+01 -0.61008900344E+01  0.12692084655E+02  0.51100000000E-03 0.  1.
        -12    1    3    3    0    0  0.12895374745E+02  0.99258862115E+01 -0.38430585999E+01  0.16720735818E+02  0.00000000000E+00 0.  1.
</event>
<event>
 7    1  0.1476909E-008  0.4614232E+02  0.7816164E-02  0.1320468E+00
        -11   -1    0    0    0    0  0.00000000000E+00  0.00000000000E+00  0.45593999997E+02  0.45594000000E+02  0.51100000000E-03 0.  1.
         11   -1    0    0    0    0 -0.00000000000E+00 -0.00000000000E+00 -0.45593999997E+02  0.45594000000E+02  0.51100000000E-03 0. -1.
    9900012    2    1    2    0    0  0.25297469158E+02  0.37256252143E+02 -0.10598196210E+01  0.46142317774E+02  0.10000000122E+02 0.  0.
        -12    1    1    2    0    0 -0.25297469158E+02 -0.37256252143E+02  0.10598196210E+01  0.45045682226E+02  0.00000000000E+00 0.  1.
         11    1    3    3    0    0  0.15538225244E+02  0.24709018504E+02 -0.86797139113E+00  0.29201462527E+02  0.51100000000E-03 0. -1.
        -11    1    3    3    0    0  0.73588353376E+01  0.81760786232E+01 -0.27464844683E+01  0.11337720069E+02  0.51100000000E-03 0.  1.
        -12    1    3    3    0    0  0.24004085772E+01  0.43711550157E+01  0.25546362384E+01  0.56031351777E+01  0.00000000000E+00 0.  1.
</event>
<event>
 7    1  0.1476909E-008  0.4614232E+02  0.7816164E-02  0.1320468E+00
        -11   -1    0    0    0    0  0.00000000000E+00  0.00000000000E+00  0.45593999997E+02  0.45594000000E+02  0.51100000000E-03 0.  1.
         11   -1    0    0    0    0 -0.00000000000E+00 -0.00000000000E+00 -0.45593999997E+02  0.45594000000E+02  0.51100000000E-03 0. -1.
    9900012    2    1    2    0    0  0.27499830148E+02 -0.30093602864E+02 -0.19163711784E+02  0.46142318289E+02  0.10000004812E+02 0.  0.
        -12    1    1    2    0    0 -0.27499830148E+02  0.30093602864E+02  0.19163711784E+02  0.45045681711E+02  0.00000000000E+00 0.  1.
         11    1    3    3    0    0  0.70888603431E+01 -0.11448254417E+02 -0.43444671584E+01  0.14148811446E+02  0.51100000000E-03 0.  1.
        -11    1    3    3    0    0  0.78500358957E+01 -0.39683047737E+01 -0.66126682964E+01  0.11004448582E+02  0.51100000000E-03 0. -1.
        -12    1    3    3    0    0  0.12560933909E+02 -0.14677043673E+02 -0.82065763293E+01  0.20989058261E+02  0.00000000000E+00 0.  1.
</event>
<event>
 7    1  0.1476909E-008  0.4614232E+02  0.7816164E-02  0.1320468E+00
        -11   -1    0    0    0    0  0.00000000000E+00  0.00000000000E+00  0.45593999997E+02  0.45594000000E+02  0.51100000000E-03 0.  1.
         11   -1    0    0    0    0 -0.00000000000E+00 -0.00000000000E+00 -0.45593999997E+02  0.45594000000E+02  0.51100000000E-03 0. -1.
    9900012    2    1    2    0    0 -0.21296519759E+02 -0.26907982807E+02 -0.29181020418E+02  0.46142320460E+02  0.10000024610E+02 0.  0.
        -12    1    1    2    0    0  0.21296519759E+02  0.26907982807E+02  0.29181020418E+02  0.45045679540E+02  0.00000000000E+00 0.  1.
         11    1    3    3    0    0 -0.12707194066E+02 -0.19484238030E+02 -0.18688884961E+02  0.29839281726E+02  0.51100000000E-03 0. -1.
        -11    1    3    3    0    0 -0.76873616423E+01 -0.36602723121E+01 -0.62579265771E+01  0.10566681964E+02  0.51100000000E-03 0.  1.
         12    1    3    3    0    0 -0.90196405115E+00 -0.37634724649E+01 -0.42342088807E+01  0.57363567697E+01  0.00000000000E+00 0. -1.
</event>
<event>
 7    1  0.1476909E-008  0.4614232E+02  0.7816164E-02  0.1320468E+00
        -11   -1    0    0    0    0  0.00000000000E+00  0.00000000000E+00  0.45593999997E+02  0.45594000000E+02  0.51100000000E-03 0.  1.
         11   -1    0    0    0    0 -0.00000000000E+00 -0.00000000000E+00 -0.45593999997E+02  0.45594000000E+02  0.51100000000E-03 0. -1.
    9900012    2    1    2    0    0 -0.20146855406E+02 -0.35641039198E+02 -0.18786537147E+02  0.46142318344E+02  0.10000005316E+02 0.  0.
        -12    1    1    2    0    0  0.20146855406E+02  0.35641039198E+02  0.18786537147E+02  0.45045681656E+02  0.00000000000E+00 0.  1.
         11    1    3    3    0    0 -0.59600420667E+01 -0.11704008859E+02 -0.10926677758E+02  0.17085028882E+02  0.51100000000E-03 0. -1.
        -11    1    3    3    0    0 -0.26689825860E+01 -0.36186217818E+01 -0.29200315458E+00  0.45059025452E+01  0.51100000000E-03 0.  1.
         12    1    3    3    0    0 -0.11517830753E+02 -0.20318408558E+02 -0.75678562345E+01  0.24551386917E+02  0.00000000000E+00 0. -1.
</event>
<event>
 7    1  0.1476909E-008  0.4614232E+02  0.7816164E-02  0.1320468E+00
        -11   -1    0    0    0    0  0.00000000000E+00  0.00000000000E+00  0.45593999997E+02  0.45594000000E+02  0.51100000000E-03 0.  1.
         11   -1    0    0    0    0 -0.00000000000E+00 -0.00000000000E+00 -0.45593999997E+02  0.45594000000E+02  0.51100000000E-03 0. -1.
    9900012    2    1    2    0    0 -0.23093543373E+02  0.22520079680E+02 -0.31442769206E+02  0.46142317969E+02  0.10000001897E+02 0.  0.
        -12    1    1    2    0    0  0.23093543373E+02 -0.22520079680E+02  0.31442769206E+02  0.45045682031E+02  0.00000000000E+00 0.  1.
         11    1    3    3    0    0 -0.16205447989E+02  0.15086952006E+02 -0.22283960798E+02  0.31413493510E+02  0.51100000000E-03 0. -1.
        -11    1    3    3    0    0 -0.72972633018E+01  0.58291018538E+01 -0.91479653736E+01  0.13073398596E+02  0.51100000000E-03 0.  1.
        -12    1    3    3    0    0  0.40916791849E+00  0.16040258204E+01 -0.10843034028E-01  0.16554258635E+01  0.00000000000E+00 0.  1.
</event>
<event>
 7    1  0.1476909E-008  0.4614232E+02  0.7816164E-02  0.1320468E+00
        -11   -1    0    0    0    0  0.00000000000E+00  0.00000000000E+00  0.45593999997E+02  0.45594000000E+02  0.51100000000E-03 0. -1.
         11   -1    0    0    0    0 -0.00000000000E+00 -0.00000000000E+00 -0.45593999997E+02  0.45594000000E+02  0.51100000000E-03 0.  1.
    9900012    2    1    2    0    0 -0.37886730367E+02  0.17478885760E+02  0.16976385113E+02  0.46142318333E+02  0.10000005219E+02 0.  0.
        -12    1    1    2    0    0  0.37886730367E+02 -0.17478885760E+02 -0.16976385113E+02  0.45045681667E+02  0.00000000000E+00 0.  1.
         11    1    3    3    0    0 -0.16672665881E+02  0.11085183412E+02  0.80761386777E+01  0.21588957712E+02  0.51100000000E-03 0. -1.
        -11    1    3    3    0    0 -0.71919265715E+01  0.16649424165E+01  0.59095671614E+01  0.94561527777E+01  0.51100000000E-03 0.  1.
        -12    1    3    3    0    0 -0.14022137914E+02  0.47287599314E+01  0.29906792736E+01  0.15097207844E+02  0.00000000000E+00 0.  1.
</event>
<event>
 7    1  0.1476909E-008  0.4614232E+02  0.7816164E-02  0.1320468E+00
        -11   -1    0    0    0    0  0.00000000000E+00  0.00000000000E+00  0.45593999997E+02  0.45594000000E+02  0.51100000000E-03 0.  1.
         11   -1    0    0    0    0 -0.00000000000E+00 -0.00000000000E+00 -0.45593999997E+02  0.45594000000E+02  0.51100000000E-03 0. -1.
    9900012    2    1    2    0    0  0.39783489034E+02  0.21034333878E+02  0.19860177276E+01  0.46142317989E+02  0.10000002083E+02 0.  0.
        -12    1    1    2    0    0 -0.39783489034E+02 -0.21034333878E+02 -0.19860177276E+01  0.45045682011E+02  0.00000000000E+00 0.  1.
         11    1    3    3    0    0  0.14650474982E+02  0.81888674667E+01  0.30237356038E+01  0.17053942208E+02  0.51100000000E-03 0. -1.
        -11    1    3    3    0    0  0.15198691400E+01 -0.88088972373E+00 -0.93474024811E-01  0.17591778087E+01  0.51100000000E-03 0.  1.
        -12    1    3    3    0    0  0.23613144912E+02  0.13726356135E+02 -0.94424385145E+00  0.27329197972E+02  0.00000000000E+00 0.  1.
</event>
<event>
 7    1  0.1476909E-008  0.4614232E+02  0.7816164E-02  0.1320468E+00
        -11   -1    0    0    0    0  0.00000000000E+00  0.00000000000E+00  0.45593999997E+02  0.45594000000E+02  0.51100000000E-03 0.  1.
         11   -1    0    0    0    0 -0.00000000000E+00 -0.00000000000E+00 -0.45593999997E+02  0.45594000000E+02  0.51100000000E-03 0. -1.
    9900012    2    1    2    0    0  0.70720562957E+01  0.20500435507E+02 -0.39482042227E+02  0.46142317691E+02  0.99999993636E+01 0.  0.
        -12    1    1    2    0    0 -0.70720562957E+01 -0.20500435507E+02  0.39482042227E+02  0.45045682309E+02  0.00000000000E+00 0.  1.
         11    1    3    3    0    0  0.55799609085E+01  0.15751483806E+02 -0.28762244931E+02  0.33264274223E+02  0.51100000000E-03 0. -1.
        -11    1    3    3    0    0 -0.52456038910E+00 -0.15314034366E+00 -0.51875195211E+01  0.52162222546E+01  0.51100000000E-03 0.  1.
         12    1    3    3    0    0  0.20166557763E+01  0.49020920449E+01 -0.55322777751E+01  0.76618212141E+01  0.00000000000E+00 0. -1.
</event>
<event>
 7    1  0.1476909E-008  0.4614232E+02  0.7816164E-02  0.1320468E+00
        -11   -1    0    0    0    0  0.00000000000E+00  0.00000000000E+00  0.45593999997E+02  0.45594000000E+02  0.51100000000E-03 0.  1.
         11   -1    0    0    0    0 -0.00000000000E+00 -0.00000000000E+00 -0.45593999997E+02  0.45594000000E+02  0.51100000000E-03 0. -1.
    9900012    2    1    2    0    0 -0.18856114144E+02 -0.81789215795E+01 -0.40083232827E+02  0.46142319267E+02  0.10000013735E+02 0.  0.
        -12    1    1    2    0    0  0.18856114144E+02  0.81789215795E+01  0.40083232827E+02  0.45045680733E+02  0.00000000000E+00 0.  1.
         11    1    3    3    0    0 -0.33363956878E+01 -0.25531837718E+01 -0.11810439198E+02  0.12535420132E+02  0.51100000000E-03 0. -1.
        -11    1    3    3    0    0 -0.15163408271E+02 -0.60519372874E+01 -0.28621754355E+02  0.32950868243E+02  0.51100000000E-03 0.  1.
        -12    1    3    3    0    0 -0.35631018442E+00  0.42619947965E+00  0.34896072620E+00  0.65603089287E+00  0.00000000000E+00 0.  1.
</event>
<event>
 7    1  0.1476909E-008  0.4614232E+02  0.7816164E-02  0.1320468E+00
        -11   -1    0    0    0    0  0.00000000000E+00  0.00000000000E+00  0.45593999997E+02  0.45594000000E+02  0.51100000000E-03 0.  1.
         11   -1    0    0    0    0 -0.00000000000E+00 -0.00000000000E+00 -0.45593999997E+02  0.45594000000E+02  0.51100000000E-03 0. -1.
    9900012    2    1    2    0    0  0.16660500192E-01  0.45036931335E+02  0.88772413754E+00  0.46142317457E+02  0.99999972224E+01 0.  0.
        -12    1    1    2    0    0 -0.16660500192E-01 -0.45036931335E+02 -0.88772413754E+00  0.45045682543E+02  0.00000000000E+00 0.  1.
         11    1    3    3    0    0  0.12903902606E+01  0.17473720060E+01  0.74281345731E+00  0.22956890133E+01  0.51100000000E-03 0. -1.
        -11    1    3    3    0    0 -0.39913580088E+01  0.19931586065E+02  0.34561043148E+00  0.20330236316E+02  0.51100000000E-03 0.  1.
         12    1    3    3    0    0  0.27176282484E+01  0.23357973264E+02 -0.20069975125E+00  0.23516392127E+02  0.00000000000E+00 0. -1.
</event>
<event>
 7    1  0.1476909E-008  0.4614232E+02  0.7816164E-02  0.1320468E+00
        -11   -1    0    0    0    0  0.00000000000E+00  0.00000000000E+00  0.45593999997E+02  0.45594000000E+02  0.51100000000E-03 0.  1.
         11   -1    0    0    0    0 -0.00000000000E+00 -0.00000000000E+00 -0.45593999997E+02  0.45594000000E+02  0.51100000000E-03 0. -1.
    9900012    2    1    2    0    0 -0.10907071703E+02  0.17756457904E+02 -0.39935666608E+02  0.46142317878E+02  0.10000001066E+02 0.  0.
        -12    1    1    2    0    0  0.10907071703E+02 -0.17756457904E+02  0.39935666608E+02  0.45045682122E+02  0.00000000000E+00 0.  1.
         11    1    3    3    0    0 -0.32480430420E+01  0.48292162022E-01 -0.47505784909E+01  0.57550075582E+01  0.51100000000E-03 0. -1.
        -11    1    3    3    0    0 -0.43576853191E+01  0.74837448982E+01 -0.11653724906E+02  0.14519130948E+02  0.51100000000E-03 0.  1.
         12    1    3    3    0    0 -0.33013433421E+01  0.10224420844E+02 -0.23531363211E+02  0.25868179372E+02  0.00000000000E+00 0. -1.
</event>
<event>
 7    1  0.1476909E-008  0.4614232E+02  0.7816164E-02  0.1320468E+00
        -11   -1    0    0    0    0  0.00000000000E+00  0.00000000000E+00  0.45593999997E+02  0.45594000000E+02  0.51100000000E-03 0.  1.
         11   -1    0    0    0    0 -0.00000000000E+00 -0.00000000000E+00 -0.45593999997E+02  0.45594000000E+02  0.51100000000E-03 0. -1.
    9900012    2    1    2    0    0  0.27796489160E+02  0.15824978686E+02 -0.31718116749E+02  0.46142315521E+02  0.99999795751E+01 0.  0.
        -12    1    1    2    0    0 -0.27796489160E+02 -0.15824978686E+02  0.31718116749E+02  0.45045684479E+02  0.00000000000E+00 0.  1.
         11    1    3    3    0    0  0.92276120324E+01  0.46834111398E+01 -0.93909657423E+01  0.13974025961E+02  0.51100000000E-03 0. -1.
        -11    1    3    3    0    0  0.53153148551E+01  0.73751267981E+01 -0.11411973243E+02  0.14590346153E+02  0.51100000000E-03 0.  1.
        -12    1    3    3    0    0  0.13253562272E+02  0.37664407484E+01 -0.10915177764E+02  0.17577943408E+02  0.00000000000E+00 0.  1.
</event>
<event>
 7    1  0.1476909E-008  0.4614232E+02  0.7816164E-02  0.1320468E+00
        -11   -1    0    0    0    0  0.00000000000E+00  0.00000000000E+00  0.45593999997E+02  0.45594000000E+02  0.51100000000E-03 0. -1.
         11   -1    0    0    0    0 -0.00000000000E+00 -0.00000000000E+00 -0.45593999997E+02  0.45594000000E+02  0.51100000000E-03 0.  1.
    9900012    2    1    2    0    0 -0.40700435163E+02  0.55367932126E+01  0.18491403492E+02  0.46142317580E+02  0.99999983523E+01 0.  0.
        -12    1    1    2    0    0  0.40700435163E+02 -0.55367932126E+01 -0.18491403492E+02  0.45045682420E+02  0.00000000000E+00 0.  1.
         11    1    3    3    0    0 -0.20669352479E+02 -0.55596339927E+00  0.92838701432E+01  0.22665424600E+02  0.51100000000E-03 0. -1.
        -11    1    3    3    0    0 -0.15424243726E+02  0.62196580410E+01  0.88885015945E+01  0.18857277150E+02  0.51100000000E-03 0.  1.
         12    1    3    3    0    0 -0.46068389585E+01 -0.12690142913E+00  0.31903175467E+00  0.46196158306E+01  0.00000000000E+00 0. -1.
</event>
<event>
 7    1  0.1476909E-008  0.4614231E+02  0.7816164E-02  0.1320468E+00
        -11   -1    0    0    0    0  0.00000000000E+00  0.00000000000E+00  0.45593999997E+02  0.45594000000E+02  0.51100000000E-03 0. -1.
         11   -1    0    0    0    0 -0.00000000000E+00 -0.00000000000E+00 -0.45593999997E+02  0.45594000000E+02  0.51100000000E-03 0.  1.
    9900012    2    1    2    0    0  0.36109518488E+02 -0.26814934637E+02  0.24850987289E+01  0.46142314738E+02  0.99999724324E+01 0.  0.
        -12    1    1    2    0    0 -0.36109518488E+02  0.26814934637E+02 -0.24850987289E+01  0.45045685262E+02  0.00000000000E+00 0.  1.
         11    1    3    3    0    0  0.30264414969E+02 -0.22712415453E+02  0.36755078213E+01  0.38017074942E+02  0.51100000000E-03 0. -1.
        -11    1    3    3    0    0  0.78610025739E+00 -0.10891338678E+00 -0.14735671575E+01  0.16736834137E+01  0.51100000000E-03 0.  1.
        -12    1    3    3    0    0  0.50590032617E+01 -0.39936057974E+01  0.28315806511E+00  0.64515563825E+01  0.00000000000E+00 0.  1.
</event>
<event>
 7    1  0.1476909E-008  0.4614232E+02  0.7816164E-02  0.1320468E+00
        -11   -1    0    0    0    0  0.00000000000E+00  0.00000000000E+00  0.45593999997E+02  0.45594000000E+02  0.51100000000E-03 0.  1.
         11   -1    0    0    0    0 -0.00000000000E+00 -0.00000000000E+00 -0.45593999997E+02  0.45594000000E+02  0.51100000000E-03 0. -1.
    9900012    2    1    2    0    0 -0.10908594552E+01  0.44046217268E+01 -0.44816545856E+02  0.46142318194E+02  0.10000003949E+02 0.  0.
        -12    1    1    2    0    0  0.10908594552E+01 -0.44046217268E+01  0.44816545856E+02  0.45045681806E+02  0.00000000000E+00 0.  1.
         11    1    3    3    0    0  0.88539583233E-01 -0.19517410002E+01 -0.39011660590E+01  0.43630527238E+01  0.51100000000E-03 0. -1.
        -11    1    3    3    0    0  0.14618956569E+00  0.69358460177E+01 -0.35651504915E+02  0.36320202840E+02  0.51100000000E-03 0.  1.
        -12    1    3    3    0    0 -0.13255886042E+01 -0.57948329065E+00 -0.52638748814E+01  0.54590626300E+01  0.00000000000E+00 0.  1.
</event>
<event>
 7    1  0.1476909E-008  0.4614231E+02  0.7816164E-02  0.1320468E+00
        -11   -1    0    0    0    0  0.00000000000E+00  0.00000000000E+00  0.45593999997E+02  0.45594000000E+02  0.51100000000E-03 0. -1.
         11   -1    0    0    0    0 -0.00000000000E+00 -0.00000000000E+00 -0.45593999997E+02  0.45594000000E+02  0.51100000000E-03 0.  1.
    9900012    2    1    2    0    0  0.14635505103E+02  0.40996858437E+02  0.11583333880E+02  0.46142311692E+02  0.99999446596E+01 0.  0.
        -12    1    1    2    0    0 -0.14635505103E+02 -0.40996858437E+02 -0.11583333880E+02  0.45045688308E+02  0.00000000000E+00 0.  1.
         11    1    3    3    0    0  0.80990439419E+01  0.14244079120E+02  0.35680263102E+01  0.16769588986E+02  0.51100000000E-03 0. -1.
        -11    1    3    3    0    0  0.17483608277E+01  0.40895075221E+01  0.37548394165E+01  0.58206233912E+01  0.51100000000E-03 0.  1.
         12    1    3    3    0    0  0.47881003334E+01  0.22663271795E+02  0.42604681535E+01  0.23552099315E+02  0.00000000000E+00 0. -1.
</event>
<event>
 7    1  0.1476909E-008  0.4614232E+02  0.7816164E-02  0.1320468E+00
        -11   -1    0    0    0    0  0.00000000000E+00  0.00000000000E+00  0.45593999997E+02  0.45594000000E+02  0.51100000000E-03 0. -1.
         11   -1    0    0    0    0 -0.00000000000E+00 -0.00000000000E+00 -0.45593999997E+02  0.45594000000E+02  0.51100000000E-03 0.  1.
    9900012    2    1    2    0    0  0.38174912394E+02  0.12021605084E+01  0.23881883855E+02  0.46142317602E+02  0.99999985529E+01 0.  0.
        -12    1    1    2    0    0 -0.38174912394E+02 -0.12021605084E+01 -0.23881883855E+02  0.45045682398E+02  0.00000000000E+00 0.  1.
         11    1    3    3    0    0  0.31496749282E+02  0.92761838057E+00  0.18756247608E+02  0.36670185652E+02  0.51100000000E-03 0. -1.
        -11    1    3    3    0    0  0.12008237260E+01 -0.64543260628E+00 -0.60514607058E+00  0.14915639101E+01  0.51100000000E-03 0.  1.
         12    1    3    3    0    0  0.54773393862E+01  0.91997473409E+00  0.57307823181E+01  0.79805680400E+01  0.00000000000E+00 0. -1.
</event>
<event>
 7    1  0.1476909E-008  0.4614232E+02  0.7816164E-02  0.1320468E+00
        -11   -1    0    0    0    0  0.00000000000E+00  0.00000000000E+00  0.45593999997E+02  0.45594000000E+02  0.51100000000E-03 0. -1.
         11   -1    0    0    0    0 -0.00000000000E+00 -0.00000000000E+00 -0.45593999997E+02  0.45594000000E+02  0.51100000000E-03 0.  1.
    9900012    2    1    2    0    0 -0.13948665453E+02 -0.35499801064E+02  0.23964816127E+02  0.46142317016E+02  0.99999932016E+01 0.  0.
        -12    1    1    2    0    0  0.13948665453E+02  0.35499801064E+02 -0.23964816127E+02  0.45045682984E+02  0.00000000000E+00 0.  1.
         11    1    3    3    0    0 -0.48003393500E+01 -0.84614048340E+01  0.92371316992E+01  0.13415037530E+02  0.51100000000E-03 0. -1.
        -11    1    3    3    0    0 -0.81809808525E+01 -0.20690745454E+02  0.13946252838E+02  0.26258967299E+02  0.51100000000E-03 0.  1.
        -12    1    3    3    0    0 -0.96734525075E+00 -0.63476507763E+01  0.78143159046E+00  0.64683121865E+01  0.00000000000E+00 0.  1.
</event>
<event>
 7    1  0.1476909E-008  0.4614232E+02  0.7816164E-02  0.1320468E+00
        -11   -1    0    0    0    0  0.00000000000E+00  0.00000000000E+00  0.45593999997E+02  0.45594000000E+02  0.51100000000E-03 0. -1.
         11   -1    0    0    0    0 -0.00000000000E+00 -0.00000000000E+00 -0.45593999997E+02  0.45594000000E+02  0.51100000000E-03 0.  1.
    9900012    2    1    2    0    0  0.23020771242E+02  0.37407834594E+02  0.99905654870E+01  0.46142318782E+02  0.10000009313E+02 0.  0.
        -12    1    1    2    0    0 -0.23020771242E+02 -0.37407834594E+02 -0.99905654870E+01  0.45045681218E+02  0.00000000000E+00 0.  1.
         11    1    3    3    0    0  0.70075534386E+01  0.19132747746E+02  0.42255950719E+01  0.20809216599E+02  0.51100000000E-03 0. -1.
        -11    1    3    3    0    0  0.11521214318E+02  0.11772505120E+02  0.20464498410E+01  0.16598741319E+02  0.51100000000E-03 0.  1.
        -12    1    3    3    0    0  0.44920034858E+01  0.65025817280E+01  0.37185205741E+01  0.87343608642E+01  0.00000000000E+00 0.  1.
</event>
<event>
 7    1  0.1476909E-008  0.4614232E+02  0.7816164E-02  0.1320468E+00
        -11   -1    0    0    0    0  0.00000000000E+00  0.00000000000E+00  0.45593999997E+02  0.45594000000E+02  0.51100000000E-03 0. -1.
         11   -1    0    0    0    0 -0.00000000000E+00 -0.00000000000E+00 -0.45593999997E+02  0.45594000000E+02  0.51100000000E-03 0.  1.
    9900012    2    1    2    0    0  0.29934194872E+02  0.20563883396E+02  0.26649281851E+02  0.46142317120E+02  0.99999941529E+01 0.  0.
        -12    1    1    2    0    0 -0.29934194872E+02 -0.20563883396E+02 -0.26649281851E+02  0.45045682880E+02  0.00000000000E+00 0.  1.
         11    1    3    3    0    0 -0.19647005348E+00 -0.15401504767E+00 -0.35104595159E+00  0.43076053449E+00  0.51100000000E-03 0.  1.
        -11    1    3    3    0    0  0.12171048186E+02  0.77228812863E+01  0.78278734203E+01  0.16402832434E+02  0.51100000000E-03 0. -1.
         12    1    3    3    0    0  0.17959616739E+02  0.12995017157E+02  0.19172454382E+02  0.29308724152E+02  0.00000000000E+00 0. -1.
</event>
<event>
 7    1  0.1476909E-008  0.4614232E+02  0.7816164E-02  0.1320468E+00
        -11   -1    0    0    0    0  0.00000000000E+00  0.00000000000E+00  0.45593999997E+02  0.45594000000E+02  0.51100000000E-03 0.  1.
         11   -1    0    0    0    0 -0.00000000000E+00 -0.00000000000E+00 -0.45593999997E+02  0.45594000000E+02  0.51100000000E-03 0. -1.
    9900012    2    1    2    0    0 -0.60220652072E+01  0.29961319818E+02 -0.33093314379E+02  0.46142318618E+02  0.10000007812E+02 0.  0.
        -12    1    1    2    0    0  0.60220652072E+01 -0.29961319818E+02  0.33093314379E+02  0.45045681382E+02  0.00000000000E+00 0.  1.
         11    1    3    3    0    0 -0.25950854516E+01  0.17071871433E+02 -0.12934608893E+02  0.21575156319E+02  0.51100000000E-03 0. -1.
        -11    1    3    3    0    0 -0.10285842168E+01  0.11547995820E+00 -0.17361891637E+01  0.20213050698E+01  0.51100000000E-03 0.  1.
         12    1    3    3    0    0 -0.23983955387E+01  0.12773968427E+02 -0.18422516323E+02  0.22545857229E+02  0.00000000000E+00 0. -1.
</event>
<event>
 7    1  0.1476909E-008  0.4614232E+02  0.7816164E-02  0.1320468E+00
        -11   -1    0    0    0    0  0.00000000000E+00  0.00000000000E+00  0.45593999997E+02  0.45594000000E+02  0.51100000000E-03 0.  1.
         11   -1    0    0    0    0 -0.00000000000E+00 -0.00000000000E+00 -0.45593999997E+02  0.45594000000E+02  0.51100000000E-03 0. -1.
    9900012    2    1    2    0    0 -0.38733474210E+02 -0.22704640774E+02  0.36511122137E+01  0.46142319214E+02  0.10000013250E+02 0.  0.
        -12    1    1    2    0    0  0.38733474210E+02  0.22704640774E+02 -0.36511122137E+01  0.45045680786E+02  0.00000000000E+00 0.  1.
         11    1    3    3    0    0 -0.40692040486E+01 -0.56888886561E+01  0.44840794102E+00  0.70087763321E+01  0.51100000000E-03 0. -1.
        -11    1    3    3    0    0 -0.28099933875E+02 -0.11570897545E+02  0.35640574778E+01  0.30597294975E+02  0.51100000000E-03 0.  1.
        -12    1    3    3    0    0 -0.65643362863E+01 -0.54448545728E+01 -0.36135320502E+00  0.85362479074E+01  0.00000000000E+00 0.  1.
</event>
<event>
 7    1  0.1476909E-008  0.4614232E+02  0.7816164E-02  0.1320468E+00
        -11   -1    0    0    0    0  0.00000000000E+00  0.00000000000E+00  0.45593999997E+02  0.45594000000E+02  0.51100000000E-03 0.  1.
         11   -1    0    0    0    0 -0.00000000000E+00 -0.00000000000E+00 -0.45593999997E+02  0.45594000000E+02  0.51100000000E-03 0. -1.
    9900012    2    1    2    0    0  0.16414126814E+02 -0.27452212470E+02 -0.31718542570E+02  0.46142317950E+02  0.10000001724E+02 0.  0.
        -12    1    1    2    0    0 -0.16414126814E+02  0.27452212470E+02  0.31718542570E+02  0.45045682050E+02  0.00000000000E+00 0.  1.
         11    1    3    3    0    0  0.11977475897E+02 -0.24988713981E+02 -0.23838020938E+02  0.36553344550E+02  0.51100000000E-03 0. -1.
        -11    1    3    3    0    0  0.39065778255E+01 -0.24261251002E+01 -0.77955151057E+01  0.90508281020E+01  0.51100000000E-03 0.  1.
         12    1    3    3    0    0  0.53007309137E+00 -0.37373389511E-01 -0.85006525493E-01  0.53814529805E+00  0.00000000000E+00 0. -1.
</event>
<event>
 7    1  0.1476909E-008  0.4614232E+02  0.7816164E-02  0.1320468E+00
        -11   -1    0    0    0    0  0.00000000000E+00  0.00000000000E+00  0.45593999997E+02  0.45594000000E+02  0.51100000000E-03 0.  1.
         11   -1    0    0    0    0 -0.00000000000E+00 -0.00000000000E+00 -0.45593999997E+02  0.45594000000E+02  0.51100000000E-03 0. -1.
    9900012    2    1    2    0    0  0.34017576486E+02 -0.21910449225E+02 -0.19795206301E+02  0.46142317768E+02  0.10000000064E+02 0.  0.
        -12    1    1    2    0    0 -0.34017576486E+02  0.21910449225E+02  0.19795206301E+02  0.45045682232E+02  0.00000000000E+00 0.  1.
         11    1    3    3    0    0  0.19172182331E+02 -0.10004221601E+02 -0.12257105362E+02  0.24857466831E+02  0.51100000000E-03 0. -1.
        -11    1    3    3    0    0  0.11391293857E+02 -0.72615892159E+01 -0.27801446122E+01  0.13792079539E+02  0.51100000000E-03 0.  1.
         12    1    3    3    0    0  0.34541002983E+01 -0.46446384083E+01 -0.47579563266E+01  0.74927713978E+01  0.00000000000E+00 0. -1.
</event>
<event>
 7    1  0.1476909E-008  0.4614232E+02  0.7816164E-02  0.1320468E+00
        -11   -1    0    0    0    0  0.00000000000E+00  0.00000000000E+00  0.45593999997E+02  0.45594000000E+02  0.51100000000E-03 0.  1.
         11   -1    0    0    0    0 -0.00000000000E+00 -0.00000000000E+00 -0.45593999997E+02  0.45594000000E+02  0.51100000000E-03 0. -1.
    9900012    2    1    2    0    0  0.43693270751E+02  0.10842068510E+02 -0.15687746101E+01  0.46142318606E+02  0.10000007702E+02 0.  0.
        -12    1    1    2    0    0 -0.43693270751E+02 -0.10842068510E+02  0.15687746101E+01  0.45045681394E+02  0.00000000000E+00 0.  1.
         11    1    3    3    0    0  0.26579931744E+02  0.34285219293E+01  0.20075216145E+01  0.26875224230E+02  0.51100000000E-03 0. -1.
        -11    1    3    3    0    0  0.90309812288E+01  0.48094036494E+01 -0.33720780958E+01  0.10773109874E+02  0.51100000000E-03 0.  1.
        -12    1    3    3    0    0  0.80823577785E+01  0.26041429309E+01 -0.20421812884E+00  0.84939845013E+01  0.00000000000E+00 0.  1.
</event>
<event>
 7    1  0.1476909E-008  0.4614232E+02  0.7816164E-02  0.1320468E+00
        -11   -1    0    0    0    0  0.00000000000E+00  0.00000000000E+00  0.45593999997E+02  0.45594000000E+02  0.51100000000E-03 0. -1.
         11   -1    0    0    0    0 -0.00000000000E+00 -0.00000000000E+00 -0.45593999997E+02  0.45594000000E+02  0.51100000000E-03 0.  1.
    9900012    2    1    2    0    0 -0.29965513630E+02 -0.32980477944E+02 -0.65931457094E+01  0.46142317600E+02  0.99999985312E+01 0.  0.
        -12    1    1    2    0    0  0.29965513630E+02  0.32980477944E+02  0.65931457094E+01  0.45045682400E+02  0.00000000000E+00 0.  1.
         11    1    3    3    0    0 -0.89155251787E+00 -0.16152444579E+00  0.51359770360E+00  0.10415079937E+01  0.51100000000E-03 0. -1.
        -11    1    3    3    0    0 -0.19451201002E+02 -0.20350460674E+02 -0.81764351547E+01  0.29314579345E+02  0.51100000000E-03 0.  1.
        -12    1    3    3    0    0 -0.96227601107E+01 -0.12468492824E+02  0.10696917418E+01  0.15786230262E+02  0.00000000000E+00 0.  1.
</event>
<event>
 7    1  0.1476909E-008  0.4614232E+02  0.7816164E-02  0.1320468E+00
        -11   -1    0    0    0    0  0.00000000000E+00  0.00000000000E+00  0.45593999997E+02  0.45594000000E+02  0.51100000000E-03 0.  1.
         11   -1    0    0    0    0 -0.00000000000E+00 -0.00000000000E+00 -0.45593999997E+02  0.45594000000E+02  0.51100000000E-03 0. -1.
    9900012    2    1    2    0    0  0.48210263604E+01 -0.18740542681E+02 -0.40677551674E+02  0.46142318239E+02  0.10000004354E+02 0.  0.
        -12    1    1    2    0    0 -0.48210263604E+01  0.18740542681E+02  0.40677551674E+02  0.45045681761E+02  0.00000000000E+00 0.  1.
         11    1    3    3    0    0  0.34400947902E+01 -0.15544288190E+02 -0.24295884698E+02  0.29047360654E+02  0.51100000000E-03 0. -1.
        -11    1    3    3    0    0  0.74145150979E+00 -0.26599136364E+01 -0.15886091777E+02  0.16124292328E+02  0.51100000000E-03 0.  1.
        -12    1    3    3    0    0  0.63948006039E+00 -0.53634085480E+00 -0.49557520009E+00  0.97066525595E+00  0.00000000000E+00 0.  1.
</event>
<event>
 7    1  0.1476909E-008  0.4614232E+02  0.7816164E-02  0.1320468E+00
        -11   -1    0    0    0    0  0.00000000000E+00  0.00000000000E+00  0.45593999997E+02  0.45594000000E+02  0.51100000000E-03 0.  1.
         11   -1    0    0    0    0 -0.00000000000E+00 -0.00000000000E+00 -0.45593999997E+02  0.45594000000E+02  0.51100000000E-03 0. -1.
    9900012    2    1    2    0    0  0.22884408485E+02  0.24286300335E+02 -0.30258765872E+02  0.46142318212E+02  0.10000004108E+02 0.  0.
        -12    1    1    2    0    0 -0.22884408485E+02 -0.24286300335E+02  0.30258765872E+02  0.45045681788E+02  0.00000000000E+00 0.  1.
         11    1    3    3    0    0  0.11225155656E+02  0.66110328332E+01 -0.94409511872E+01  0.16088549786E+02  0.51100000000E-03 0.  1.
        -11    1    3    3    0    0  0.54928561698E+01  0.50208850932E+01 -0.55256081930E+01  0.92689320952E+01  0.51100000000E-03 0. -1.
         12    1    3    3    0    0  0.61663966586E+01  0.12654382409E+02 -0.15292206492E+02  0.20784836331E+02  0.00000000000E+00 0. -1.
</event>
<event>
 7    1  0.1476909E-008  0.4614232E+02  0.7816164E-02  0.1320468E+00
        -11   -1    0    0    0    0  0.00000000000E+00  0.00000000000E+00  0.45593999997E+02  0.45594000000E+02  0.51100000000E-03 0. -1.
         11   -1    0    0    0    0 -0.00000000000E+00 -0.00000000000E+00 -0.45593999997E+02  0.45594000000E+02  0.51100000000E-03 0.  1.
    9900012    2    1    2    0    0 -0.33410853724E+01 -0.16055512710E+02  0.41954393730E+02  0.46142317708E+02  0.99999995173E+01 0.  0.
        -12    1    1    2    0    0  0.33410853724E+01  0.16055512710E+02 -0.41954393730E+02  0.45045682292E+02  0.00000000000E+00 0.  1.
         11    1    3    3    0    0 -0.33727728048E+01 -0.65407100040E+01  0.10583140628E+02  0.12890281206E+02  0.51100000000E-03 0.  1.
        -11    1    3    3    0    0  0.14998707639E+01 -0.66062493375E+01  0.13705223774E+02  0.15288077105E+02  0.51100000000E-03 0. -1.
         12    1    3    3    0    0 -0.14681833316E+01 -0.29085533684E+01  0.17666029328E+02  0.17963959397E+02  0.00000000000E+00 0. -1.
</event>
<event>
 7    1  0.1476909E-008  0.4614232E+02  0.7816164E-02  0.1320468E+00
        -11   -1    0    0    0    0  0.00000000000E+00  0.00000000000E+00  0.45593999997E+02  0.45594000000E+02  0.51100000000E-03 0.  1.
         11   -1    0    0    0    0 -0.00000000000E+00 -0.00000000000E+00 -0.45593999997E+02  0.45594000000E+02  0.51100000000E-03 0. -1.
    9900012    2    1    2    0    0 -0.18179705213E+02 -0.28044302502E+02 -0.30201472744E+02  0.46142317184E+02  0.99999947404E+01 0.  0.
        -12    1    1    2    0    0  0.18179705213E+02  0.28044302502E+02  0.30201472744E+02  0.45045682816E+02  0.00000000000E+00 0.  1.
         11    1    3    3    0    0 -0.15453792224E+02 -0.17613754516E+02 -0.19379595052E+02  0.30407774448E+02  0.51100000000E-03 0. -1.
        -11    1    3    3    0    0 -0.14588290415E+01 -0.99544285004E+01 -0.97198020373E+01  0.13989045030E+02  0.51100000000E-03 0.  1.
         12    1    3    3    0    0 -0.12670839477E+01 -0.47611948536E+00 -0.11020756544E+01  0.17454977064E+01  0.00000000000E+00 0. -1.
</event>
<event>
 7    1  0.1476909E-008  0.4614232E+02  0.7816164E-02  0.1320468E+00
        -11   -1    0    0    0    0  0.00000000000E+00  0.00000000000E+00  0.45593999997E+02  0.45594000000E+02  0.51100000000E-03 0. -1.
         11   -1    0    0    0    0 -0.00000000000E+00 -0.00000000000E+00 -0.45593999997E+02  0.45594000000E+02  0.51100000000E-03 0.  1.
    9900012    2    1    2    0    0 -0.13102048262E+02  0.22182268864E+02  0.36951276112E+02  0.46142317334E+02  0.99999961014E+01 0.  0.
        -12    1    1    2    0    0  0.13102048262E+02 -0.22182268864E+02 -0.36951276112E+02  0.45045682666E+02  0.00000000000E+00 0.  1.
         11    1    3    3    0    0 -0.38962708206E+01  0.22341573752E+01  0.61512847215E+01  0.76164748717E+01  0.51100000000E-03 0. -1.
        -11    1    3    3    0    0 -0.10097908666E+01  0.10396474624E+02  0.12100798831E+02  0.15985483878E+02  0.51100000000E-03 0.  1.
        -12    1    3    3    0    0 -0.81959865749E+01  0.95516368642E+01  0.18699192559E+02  0.22540358584E+02  0.00000000000E+00 0.  1.
</event>
<event>
 7    1  0.1476909E-008  0.4614232E+02  0.7816164E-02  0.1320468E+00
        -11   -1    0    0    0    0  0.00000000000E+00  0.00000000000E+00  0.45593999997E+02  0.45594000000E+02  0.51100000000E-03 0.  1.
         11   -1    0    0    0    0 -0.00000000000E+00 -0.00000000000E+00 -0.45593999997E+02  0.45594000000E+02  0.51100000000E-03 0. -1.
    9900012    2    1    2    0    0 -0.28009387988E+01 -0.27921166146E+02 -0.35237433247E+02  0.46142317866E+02  0.10000000958E+02 0.  0.
        -12    1    1    2    0    0  0.28009387988E+01  0.27921166146E+02  0.35237433247E+02  0.45045682134E+02  0.00000000000E+00 0.  1.
         11    1    3    3    0    0  0.13644176487E+01 -0.12211345509E+02 -0.20101798409E+02  0.23559730351E+02  0.51100000000E-03 0. -1.
        -11    1    3    3    0    0 -0.63273768090E+00 -0.10155505630E+02 -0.93564977463E+01  0.13823122003E+02  0.51100000000E-03 0.  1.
        -12    1    3    3    0    0 -0.35326187665E+01 -0.55543150071E+01 -0.57791370907E+01  0.87594655123E+01  0.00000000000E+00 0.  1.
</event>
<event>
 7    1  0.1476909E-008  0.4614232E+02  0.7816164E-02  0.1320468E+00
        -11   -1    0    0    0    0  0.00000000000E+00  0.00000000000E+00  0.45593999997E+02  0.45594000000E+02  0.51100000000E-03 0. -1.
         11   -1    0    0    0    0 -0.00000000000E+00 -0.00000000000E+00 -0.45593999997E+02  0.45594000000E+02  0.51100000000E-03 0.  1.
    9900012    2    1    2    0    0  0.43661753192E+02  0.10464509399E+02 -0.36412750625E+01  0.46142317267E+02  0.99999954948E+01 0.  0.
        -12    1    1    2    0    0 -0.43661753192E+02 -0.10464509399E+02  0.36412750625E+01  0.45045682733E+02  0.00000000000E+00 0.  1.
         11    1    3    3    0    0  0.14312958545E+02  0.63685620843E+01 -0.11018031439E+01  0.15704564170E+02  0.51100000000E-03 0. -1.
        -11    1    3    3    0    0  0.58592221170E+01  0.45635735928E+00 -0.31341371010E+01  0.66604475439E+01  0.51100000000E-03 0.  1.
         12    1    3    3    0    0  0.23489572530E+02  0.36395899558E+01  0.59466518239E+00  0.23777305553E+02  0.00000000000E+00 0. -1.
</event>
<event>
 7    1  0.1476909E-008  0.4614232E+02  0.7816164E-02  0.1320468E+00
        -11   -1    0    0    0    0  0.00000000000E+00  0.00000000000E+00  0.45593999997E+02  0.45594000000E+02  0.51100000000E-03 0.  1.
         11   -1    0    0    0    0 -0.00000000000E+00 -0.00000000000E+00 -0.45593999997E+02  0.45594000000E+02  0.51100000000E-03 0. -1.
    9900012    2    1    2    0    0 -0.35284781098E+02  0.58007051371E+01 -0.27394334499E+02  0.46142317411E+02  0.99999968116E+01 0.  0.
        -12    1    1    2    0    0  0.35284781098E+02 -0.58007051371E+01  0.27394334499E+02  0.45045682589E+02  0.00000000000E+00 0.  1.
         11    1    3    3    0    0 -0.35138767487E+01  0.23525338341E+01 -0.40885451143E+01  0.58820019261E+01  0.51100000000E-03 0. -1.
        -11    1    3    3    0    0 -0.10725021838E+02  0.13553340784E+01 -0.12446423774E+02  0.16485644935E+02  0.51100000000E-03 0.  1.
         12    1    3    3    0    0 -0.21045882511E+02  0.20928372246E+01 -0.10859365611E+02  0.23774670550E+02  0.00000000000E+00 0. -1.
</event>
<event>
 7    1  0.1476909E-008  0.4614232E+02  0.7816164E-02  0.1320468E+00
        -11   -1    0    0    0    0  0.00000000000E+00  0.00000000000E+00  0.45593999997E+02  0.45594000000E+02  0.51100000000E-03 0. -1.
         11   -1    0    0    0    0 -0.00000000000E+00 -0.00000000000E+00 -0.45593999997E+02  0.45594000000E+02  0.51100000000E-03 0.  1.
    9900012    2    1    2    0    0  0.40190925739E+02  0.16076558617E+02  0.12463838696E+02  0.46142317368E+02  0.99999964195E+01 0.  0.
        -12    1    1    2    0    0 -0.40190925739E+02 -0.16076558617E+02 -0.12463838696E+02  0.45045682632E+02  0.00000000000E+00 0.  1.
         11    1    3    3    0    0  0.20830120955E+02  0.98216238440E+01  0.60504834179E+01  0.23811060115E+02  0.51100000000E-03 0. -1.
        -11    1    3    3    0    0 -0.34861054527E+00  0.73104038170E+00 -0.17425669622E+00  0.82844131310E+00  0.51100000000E-03 0.  1.
        -12    1    3    3    0    0  0.19709415329E+02  0.55238943918E+01  0.65876119741E+01  0.21502815941E+02  0.00000000000E+00 0.  1.
</event>
<event>
 7    1  0.1476909E-008  0.4614232E+02  0.7816164E-02  0.1320468E+00
        -11   -1    0    0    0    0  0.00000000000E+00  0.00000000000E+00  0.45593999997E+02  0.45594000000E+02  0.51100000000E-03 0.  1.
         11   -1    0    0    0    0 -0.00000000000E+00 -0.00000000000E+00 -0.45593999997E+02  0.45594000000E+02  0.51100000000E-03 0. -1.
    9900012    2    1    2    0    0 -0.23937411152E+02  0.14537935523E+02 -0.35281189566E+02  0.46142316976E+02  0.99999928388E+01 0.  0.
        -12    1    1    2    0    0  0.23937411152E+02 -0.14537935523E+02  0.35281189566E+02  0.45045683024E+02  0.00000000000E+00 0.  1.
         11    1    3    3    0    0 -0.57538983207E+01  0.43394137484E+01 -0.79637184095E+01  0.10740515292E+02  0.51100000000E-03 0. -1.
        -11    1    3    3    0    0 -0.18198677452E+02  0.10287229939E+02 -0.27871674617E+02  0.34840338791E+02  0.51100000000E-03 0.  1.
        -12    1    3    3    0    0  0.15164620097E-01 -0.88708164499E-01  0.55420346122E+00  0.56146289333E+00  0.00000000000E+00 0.  1.
</event>
<event>
 7    1  0.1476909E-008  0.4614232E+02  0.7816164E-02  0.1320468E+00
        -11   -1    0    0    0    0  0.00000000000E+00  0.00000000000E+00  0.45593999997E+02  0.45594000000E+02  0.51100000000E-03 0. -1.
         11   -1    0    0    0    0 -0.00000000000E+00 -0.00000000000E+00 -0.45593999997E+02  0.45594000000E+02  0.51100000000E-03 0.  1.
    9900012    2    1    2    0    0 -0.30594387240E+02  0.31474217440E+02  0.10122777741E+02  0.46142317374E+02  0.99999964739E+01 0.  0.
        -12    1    1    2    0    0  0.30594387240E+02 -0.31474217440E+02 -0.10122777741E+02  0.45045682626E+02  0.00000000000E+00 0.  1.
         11    1    3    3    0    0 -0.71947673401E+01  0.31330262768E+01 -0.70663162176E-01  0.78476445048E+01  0.51100000000E-03 0. -1.
        -11    1    3    3    0    0 -0.29586098512E+01  0.54020423291E+01  0.11441436382E+01  0.62645429604E+01  0.51100000000E-03 0.  1.
         12    1    3    3    0    0 -0.20441010049E+02  0.22939148834E+02  0.90492972646E+01  0.32030129909E+02  0.00000000000E+00 0. -1.
</event>
<event>
 7    1  0.1476909E-008  0.4614232E+02  0.7816164E-02  0.1320468E+00
        -11   -1    0    0    0    0  0.00000000000E+00  0.00000000000E+00  0.45593999997E+02  0.45594000000E+02  0.51100000000E-03 0.  1.
         11   -1    0    0    0    0 -0.00000000000E+00 -0.00000000000E+00 -0.45593999997E+02  0.45594000000E+02  0.51100000000E-03 0. -1.
    9900012    2    1    2    0    0  0.13027365429E+02  0.16418650864E+01 -0.43089505232E+02  0.46142318385E+02  0.10000005694E+02 0.  0.
        -12    1    1    2    0    0 -0.13027365429E+02 -0.16418650864E+01  0.43089505232E+02  0.45045681615E+02  0.00000000000E+00 0.  1.
         11    1    3    3    0    0  0.95973372441E+01 -0.34246566752E+01 -0.23581294210E+02  0.25688802861E+02  0.51100000000E-03 0. -1.
        -11    1    3    3    0    0  0.32245213636E+01  0.44545339633E+01 -0.17315357747E+02  0.18167609227E+02  0.51100000000E-03 0.  1.
         12    1    3    3    0    0  0.20550682155E+00  0.61198779828E+00 -0.21928532751E+01  0.22859062984E+01  0.00000000000E+00 0. -1.
</event>
<event>
 7    1  0.1476909E-008  0.4614232E+02  0.7816164E-02  0.1320468E+00
        -11   -1    0    0    0    0  0.00000000000E+00  0.00000000000E+00  0.45593999997E+02  0.45594000000E+02  0.51100000000E-03 0. -1.
         11   -1    0    0    0    0 -0.00000000000E+00 -0.00000000000E+00 -0.45593999997E+02  0.45594000000E+02  0.51100000000E-03 0.  1.
    9900012    2    1    2    0    0  0.50660805699E+01  0.44387608795E+02 -0.57609466394E+01  0.46142317709E+02  0.99999995225E+01 0.  0.
        -12    1    1    2    0    0 -0.50660805699E+01 -0.44387608795E+02  0.57609466394E+01  0.45045682291E+02  0.00000000000E+00 0.  1.
         11    1    3    3    0    0 -0.17475178160E+01  0.58883326533E+01 -0.16368889665E+01  0.63565466806E+01  0.51100000000E-03 0. -1.
        -11    1    3    3    0    0  0.29523091656E+01  0.82508929340E+01 -0.30302779052E+01  0.92723216111E+01  0.51100000000E-03 0.  1.
         12    1    3    3    0    0  0.38612892204E+01  0.30248383208E+02 -0.10937797678E+01  0.30513449417E+02  0.00000000000E+00 0. -1.
</event>
<event>
 7    1  0.1476909E-008  0.4614232E+02  0.7816164E-02  0.1320468E+00
        -11   -1    0    0    0    0  0.00000000000E+00  0.00000000000E+00  0.45593999997E+02  0.45594000000E+02  0.51100000000E-03 0. -1.
         11   -1    0    0    0    0 -0.00000000000E+00 -0.00000000000E+00 -0.45593999997E+02  0.45594000000E+02  0.51100000000E-03 0.  1.
    9900012    2    1    2    0    0  0.29991425672E+02 -0.29442433271E+02  0.16210214295E+02  0.46142317208E+02  0.99999949531E+01 0.  0.
        -12    1    1    2    0    0 -0.29991425672E+02  0.29442433271E+02 -0.16210214295E+02  0.45045682792E+02  0.00000000000E+00 0.  1.
         11    1    3    3    0    0  0.13795756390E+02 -0.11760630317E+02  0.28197006906E+01  0.18346281151E+02  0.51100000000E-03 0. -1.
        -11    1    3    3    0    0  0.10875478336E+02 -0.10649960048E+02  0.10594643945E+02  0.18545731548E+02  0.51100000000E-03 0.  1.
        -12    1    3    3    0    0  0.53201909450E+01 -0.70318429064E+01  0.27958696601E+01  0.92503045089E+01  0.00000000000E+00 0.  1.
</event>
<event>
 7    1  0.1476909E-008  0.4614232E+02  0.7816164E-02  0.1320468E+00
        -11   -1    0    0    0    0  0.00000000000E+00  0.00000000000E+00  0.45593999997E+02  0.45594000000E+02  0.51100000000E-03 0.  1.
         11   -1    0    0    0    0 -0.00000000000E+00 -0.00000000000E+00 -0.45593999997E+02  0.45594000000E+02  0.51100000000E-03 0. -1.
    9900012    2    1    2    0    0 -0.68535946433E+01 -0.26404284925E+02 -0.35846275342E+02  0.46142317879E+02  0.10000001071E+02 0.  0.
        -12    1    1    2    0    0  0.68535946433E+01  0.26404284925E+02  0.35846275342E+02  0.45045682121E+02  0.00000000000E+00 0.  1.
         11    1    3    3    0    0  0.13459613510E+01 -0.56586453202E+01 -0.63228752496E+01  0.85913113378E+01  0.51100000000E-03 0.  1.
        -11    1    3    3    0    0 -0.47642542705E+01 -0.15938526458E+02 -0.17446883870E+02  0.24106607008E+02  0.51100000000E-03 0. -1.
         12    1    3    3    0    0 -0.34353017238E+01 -0.48071131460E+01 -0.12076516222E+02  0.13444399532E+02  0.00000000000E+00 0. -1.
</event>
<event>
 7    1  0.1476909E-008  0.4614232E+02  0.7816164E-02  0.1320468E+00
        -11   -1    0    0    0    0  0.00000000000E+00  0.00000000000E+00  0.45593999997E+02  0.45594000000E+02  0.51100000000E-03 0.  1.
         11   -1    0    0    0    0 -0.00000000000E+00 -0.00000000000E+00 -0.45593999997E+02  0.45594000000E+02  0.51100000000E-03 0. -1.
    9900012    2    1    2    0    0  0.11047152450E+02  0.21029681037E+02 -0.38273050582E+02  0.46142318047E+02  0.10000002604E+02 0.  0.
        -12    1    1    2    0    0 -0.11047152450E+02 -0.21029681037E+02  0.38273050582E+02  0.45045681953E+02  0.00000000000E+00 0.  1.
         11    1    3    3    0    0  0.38221219519E+01  0.70797127170E+01 -0.18114611215E+02  0.19820950736E+02  0.51100000000E-03 0. -1.
        -11    1    3    3    0    0  0.42560378111E+01  0.13168546754E+02 -0.16921655685E+02  0.21860167264E+02  0.51100000000E-03 0.  1.
        -12    1    3    3    0    0  0.29689926872E+01  0.78142156601E+00 -0.32367836828E+01  0.44612000459E+01  0.00000000000E+00 0.  1.
</event>
<event>
 7    1  0.1476909E-008  0.4614231E+02  0.7816164E-02  0.1320468E+00
        -11   -1    0    0    0    0  0.00000000000E+00  0.00000000000E+00  0.45593999997E+02  0.45594000000E+02  0.51100000000E-03 0. -1.
         11   -1    0    0    0    0 -0.00000000000E+00 -0.00000000000E+00 -0.45593999997E+02  0.45594000000E+02  0.51100000000E-03 0.  1.
    9900012    2    1    2    0    0  0.43711544288E+02 -0.10820568840E+02 -0.11532753958E+01  0.46142313656E+02  0.99999625664E+01 0.  0.
        -12    1    1    2    0    0 -0.43711544288E+02  0.10820568840E+02  0.11532753958E+01  0.45045686344E+02  0.00000000000E+00 0.  1.
         11    1    3    3    0    0  0.12799397416E+02 -0.47530314687E+01 -0.37438118955E+01  0.14157401249E+02  0.51100000000E-03 0. -1.
        -11    1    3    3    0    0  0.11571867489E+02 -0.39430346120E+01  0.27365729552E+01  0.12527748039E+02  0.51100000000E-03 0.  1.
         12    1    3    3    0    0  0.19340279384E+02 -0.21245027595E+01 -0.14603645545E+00  0.19457164369E+02  0.00000000000E+00 0. -1.
</event>
<event>
 7    1  0.1476909E-008  0.4614232E+02  0.7816164E-02  0.1320468E+00
        -11   -1    0    0    0    0  0.00000000000E+00  0.00000000000E+00  0.45593999997E+02  0.45594000000E+02  0.51100000000E-03 0.  1.
         11   -1    0    0    0    0 -0.00000000000E+00 -0.00000000000E+00 -0.45593999997E+02  0.45594000000E+02  0.51100000000E-03 0. -1.
    9900012    2    1    2    0    0  0.37696629190E+02 -0.23963274767E+02 -0.58171437752E+01  0.46142317059E+02  0.99999936016E+01 0.  0.
        -12    1    1    2    0    0 -0.37696629190E+02  0.23963274767E+02  0.58171437752E+01  0.45045682941E+02  0.00000000000E+00 0.  1.
         11    1    3    3    0    0  0.29564557272E+02 -0.21153538704E+02 -0.65961571520E+01  0.36946509116E+02  0.51100000000E-03 0. -1.
        -11    1    3    3    0    0  0.21361220569E+01  0.43606221343E+00 -0.55205292878E+00  0.22489843026E+01  0.51100000000E-03 0.  1.
         12    1    3    3    0    0  0.59959498614E+01 -0.32457982766E+01  0.13310663056E+01  0.69468236412E+01  0.00000000000E+00 0. -1.
</event>
<event>
 7    1  0.1476909E-008  0.4614232E+02  0.7816164E-02  0.1320468E+00
        -11   -1    0    0    0    0  0.00000000000E+00  0.00000000000E+00  0.45593999997E+02  0.45594000000E+02  0.51100000000E-03 0. -1.
         11   -1    0    0    0    0 -0.00000000000E+00 -0.00000000000E+00 -0.45593999997E+02  0.45594000000E+02  0.51100000000E-03 0.  1.
    9900012    2    1    2    0    0 -0.32007124033E+02 -0.52427058503E+01  0.31259743369E+02  0.46142317532E+02  0.99999979153E+01 0.  0.
        -12    1    1    2    0    0  0.32007124033E+02  0.52427058503E+01 -0.31259743369E+02  0.45045682468E+02  0.00000000000E+00 0.  1.
         11    1    3    3    0    0 -0.94197550390E+01 -0.48844439570E+01  0.67552867263E+01  0.12578691378E+02  0.51100000000E-03 0. -1.
        -11    1    3    3    0    0 -0.21878614445E+02 -0.10764453955E+01  0.23103788543E+02  0.31837360914E+02  0.51100000000E-03 0.  1.
         12    1    3    3    0    0 -0.70875454899E+00  0.71818350214E+00  0.14006681001E+01  0.17262652404E+01  0.00000000000E+00 0. -1.
</event>
<event>
 7    1  0.1476909E-008  0.4614232E+02  0.7816164E-02  0.1320468E+00
        -11   -1    0    0    0    0  0.00000000000E+00  0.00000000000E+00  0.45593999997E+02  0.45594000000E+02  0.51100000000E-03 0.  1.
         11   -1    0    0    0    0 -0.00000000000E+00 -0.00000000000E+00 -0.45593999997E+02  0.45594000000E+02  0.51100000000E-03 0. -1.
    9900012    2    1    2    0    0 -0.19130528478E+02 -0.17994996651E+02 -0.36596672703E+02  0.46142317885E+02  0.10000001129E+02 0.  0.
        -12    1    1    2    0    0  0.19130528478E+02  0.17994996651E+02  0.36596672703E+02  0.45045682115E+02  0.00000000000E+00 0.  1.
         11    1    3    3    0    0 -0.70932306907E+01 -0.94205027861E+01 -0.14412035342E+02  0.18621669027E+02  0.51100000000E-03 0. -1.
        -11    1    3    3    0    0 -0.34916808440E+01 -0.22725500446E+01 -0.18039041713E+01  0.45398666657E+01  0.51100000000E-03 0.  1.
         12    1    3    3    0    0 -0.85456169430E+01 -0.63019438206E+01 -0.20380733189E+02  0.22980782192E+02  0.00000000000E+00 0. -1.
</event>
<event>
 7    1  0.1476909E-008  0.4614233E+02  0.7816164E-02  0.1320468E+00
        -11   -1    0    0    0    0  0.00000000000E+00  0.00000000000E+00  0.45593999997E+02  0.45594000000E+02  0.51100000000E-03 0.  1.
         11   -1    0    0    0    0 -0.00000000000E+00 -0.00000000000E+00 -0.45593999997E+02  0.45594000000E+02  0.51100000000E-03 0. -1.
    9900012    2    1    2    0    0 -0.11834116347E+02 -0.42649094232E+02 -0.83737968389E+01  0.46142334037E+02  0.10000148420E+02 0.  0.
        -12    1    1    2    0    0  0.11834116347E+02  0.42649094232E+02  0.83737968389E+01  0.45045665963E+02  0.00000000000E+00 0.  1.
         11    1    3    3    0    0 -0.30200217044E+01 -0.93875636030E+01 -0.21829793864E+01  0.10100112908E+02  0.51100000000E-03 0.  1.
        -11    1    3    3    0    0 -0.91399232685E+01 -0.26276364541E+02 -0.77455774864E+01  0.28878703255E+02  0.51100000000E-03 0. -1.
        -12    1    3    3    0    0  0.32582862608E+00 -0.69851660878E+01  0.15547600339E+01  0.71635178740E+01  0.00000000000E+00 0.  1.
</event>
<event>
 7    1  0.1476909E-008  0.4614232E+02  0.7816164E-02  0.1320468E+00
        -11   -1    0    0    0    0  0.00000000000E+00  0.00000000000E+00  0.45593999997E+02  0.45594000000E+02  0.51100000000E-03 0. -1.
         11   -1    0    0    0    0 -0.00000000000E+00 -0.00000000000E+00 -0.45593999997E+02  0.45594000000E+02  0.51100000000E-03 0.  1.
    9900012    2    1    2    0    0  0.30723060023E+02 -0.32705673978E+02  0.39428266699E+01  0.46142318634E+02  0.10000007964E+02 0.  0.
        -12    1    1    2    0    0 -0.30723060023E+02  0.32705673978E+02 -0.39428266699E+01  0.45045681366E+02  0.00000000000E+00 0.  1.
         11    1    3    3    0    0  0.46880805184E+01 -0.67052168261E+01  0.29243821867E+01  0.86885006225E+01  0.51100000000E-03 0. -1.
        -11    1    3    3    0    0  0.46993841793E+01 -0.89597376476E+01  0.77742464474E+00  0.10147191716E+02  0.51100000000E-03 0.  1.
         12    1    3    3    0    0  0.21335595325E+02 -0.17040719505E+02  0.24101983844E+00  0.27306626296E+02  0.00000000000E+00 0. -1.
</event>
<event>
 7    1  0.1476909E-008  0.4614232E+02  0.7816164E-02  0.1320468E+00
        -11   -1    0    0    0    0  0.00000000000E+00  0.00000000000E+00  0.45593999997E+02  0.45594000000E+02  0.51100000000E-03 0.  1.
         11   -1    0    0    0    0 -0.00000000000E+00 -0.00000000000E+00 -0.45593999997E+02  0.45594000000E+02  0.51100000000E-03 0. -1.
    9900012    2    1    2    0    0 -0.33404628649E+02 -0.16152183904E+02 -0.25541168744E+02  0.46142316956E+02  0.99999926617E+01 0.  0.
        -12    1    1    2    0    0  0.33404628649E+02  0.16152183904E+02  0.25541168744E+02  0.45045683044E+02  0.00000000000E+00 0.  1.
         11    1    3    3    0    0 -0.10309907468E+02 -0.61456357847E+01 -0.11759512736E+02  0.16803248830E+02  0.51100000000E-03 0.  1.
        -11    1    3    3    0    0 -0.23459574879E+02 -0.96676803380E+01 -0.13695570375E+02  0.28833736226E+02  0.51100000000E-03 0. -1.
        -12    1    3    3    0    0  0.36485369689E+00 -0.33886778110E+00 -0.86085632622E-01  0.50533190019E+00  0.00000000000E+00 0.  1.
</event>
<event>
 7    1  0.1476909E-008  0.4614232E+02  0.7816164E-02  0.1320468E+00
        -11   -1    0    0    0    0  0.00000000000E+00  0.00000000000E+00  0.45593999997E+02  0.45594000000E+02  0.51100000000E-03 0.  1.
         11   -1    0    0    0    0 -0.00000000000E+00 -0.00000000000E+00 -0.45593999997E+02  0.45594000000E+02  0.51100000000E-03 0. -1.
    9900012    2    1    2    0    0  0.22339343939E+02  0.11839990902E+02 -0.37281117309E+02  0.46142318964E+02  0.10000010970E+02 0.  0.
        -12    1    1    2    0    0 -0.22339343939E+02 -0.11839990902E+02  0.37281117309E+02  0.45045681036E+02  0.00000000000E+00 0.  1.
         11    1    3    3    0    0  0.91730165021E+01  0.94071206172E+01 -0.17822617408E+02  0.22142354021E+02  0.51100000000E-03 0. -1.
        -11    1    3    3    0    0  0.38919302480E+01 -0.11188623807E+01 -0.67456220084E+01  0.78678072310E+01  0.51100000000E-03 0.  1.
        -12    1    3    3    0    0  0.92743971891E+01  0.35517326654E+01 -0.12712877892E+02  0.16132157712E+02  0.00000000000E+00 0.  1.
</event>
<event>
 7    1  0.1476909E-008  0.4614232E+02  0.7816164E-02  0.1320468E+00
        -11   -1    0    0    0    0  0.00000000000E+00  0.00000000000E+00  0.45593999997E+02  0.45594000000E+02  0.51100000000E-03 0.  1.
         11   -1    0    0    0    0 -0.00000000000E+00 -0.00000000000E+00 -0.45593999997E+02  0.45594000000E+02  0.51100000000E-03 0. -1.
    9900012    2    1    2    0    0 -0.32080346047E+02  0.43356160472E+01 -0.31323588776E+02  0.46142318932E+02  0.10000010680E+02 0.  0.
        -12    1    1    2    0    0  0.32080346047E+02 -0.43356160472E+01  0.31323588776E+02  0.45045681068E+02  0.00000000000E+00 0.  1.
         11    1    3    3    0    0 -0.22932648079E+02  0.35890863709E+01 -0.20560652815E+02  0.31008520334E+02  0.51100000000E-03 0. -1.
        -11    1    3    3    0    0 -0.74513147619E+01 -0.58142433032E+00 -0.10604489680E+02  0.12973640490E+02  0.51100000000E-03 0.  1.
         12    1    3    3    0    0 -0.16963832067E+01  0.13279540066E+01 -0.15844628155E+00  0.21601581080E+01  0.00000000000E+00 0. -1.
</event>
<event>
 7    1  0.1476909E-008  0.4614232E+02  0.7816164E-02  0.1320468E+00
        -11   -1    0    0    0    0  0.00000000000E+00  0.00000000000E+00  0.45593999997E+02  0.45594000000E+02  0.51100000000E-03 0. -1.
         11   -1    0    0    0    0 -0.00000000000E+00 -0.00000000000E+00 -0.45593999997E+02  0.45594000000E+02  0.51100000000E-03 0.  1.
    9900012    2    1    2    0    0  0.21356997378E+02 -0.73532359759E+01  0.38973351378E+02  0.46142317255E+02  0.99999953862E+01 0.  0.
        -12    1    1    2    0    0 -0.21356997378E+02  0.73532359759E+01 -0.38973351378E+02  0.45045682745E+02  0.00000000000E+00 0.  1.
         11    1    3    3    0    0  0.14025941778E+02 -0.44809472335E+01  0.19268872161E+02  0.24250677629E+02  0.51100000000E-03 0. -1.
        -11    1    3    3    0    0 -0.64669402364E+00  0.23376775196E+00  0.45581001396E+00  0.82499912244E+00  0.51100000000E-03 0.  1.
         12    1    3    3    0    0  0.79777496233E+01 -0.31060564944E+01  0.19248669204E+02  0.21066640504E+02  0.00000000000E+00 0. -1.
</event>
<event>
 7    1  0.1476909E-008  0.4614231E+02  0.7816164E-02  0.1320468E+00
        -11   -1    0    0    0    0  0.00000000000E+00  0.00000000000E+00  0.45593999997E+02  0.45594000000E+02  0.51100000000E-03 0.  1.
         11   -1    0    0    0    0 -0.00000000000E+00 -0.00000000000E+00 -0.45593999997E+02  0.45594000000E+02  0.51100000000E-03 0. -1.
    9900012    2    1    2    0    0  0.33851324453E+02 -0.70795430380E+01 -0.28863153740E+02  0.46142314961E+02  0.99999744623E+01 0.  0.
        -12    1    1    2    0    0 -0.33851324453E+02  0.70795430380E+01  0.28863153740E+02  0.45045685039E+02  0.00000000000E+00 0.  1.
         11    1    3    3    0    0  0.26386644263E+02 -0.60103746196E+01 -0.22047815130E+02  0.34906815249E+02  0.51100000000E-03 0. -1.
        -11    1    3    3    0    0  0.23251705202E+01 -0.23513165313E+01 -0.41479794346E+01  0.53047941553E+01  0.51100000000E-03 0.  1.
        -12    1    3    3    0    0  0.51395096696E+01  0.12821481129E+01 -0.26673591753E+01  0.59307055564E+01  0.00000000000E+00 0.  1.
</event>
<event>
 7    1  0.1476909E-008  0.4614232E+02  0.7816164E-02  0.1320468E+00
        -11   -1    0    0    0    0  0.00000000000E+00  0.00000000000E+00  0.45593999997E+02  0.45594000000E+02  0.51100000000E-03 0.  1.
         11   -1    0    0    0    0 -0.00000000000E+00 -0.00000000000E+00 -0.45593999997E+02  0.45594000000E+02  0.51100000000E-03 0. -1.
    9900012    2    1    2    0    0 -0.12605100248E+02  0.13839492750E+02 -0.40971861404E+02  0.46142317202E+02  0.99999948996E+01 0.  0.
        -12    1    1    2    0    0  0.12605100248E+02 -0.13839492750E+02  0.40971861404E+02  0.45045682798E+02  0.00000000000E+00 0.  1.
         11    1    3    3    0    0 -0.90785430878E+01  0.58495928486E+01 -0.26054211167E+02  0.28203893364E+02  0.51100000000E-03 0. -1.
        -11    1    3    3    0    0 -0.83802660074E+00  0.33959698252E+01 -0.10347870224E+02  0.10923063585E+02  0.51100000000E-03 0.  1.
         12    1    3    3    0    0 -0.26885305596E+01  0.45939300765E+01 -0.45697800133E+01  0.70153602536E+01  0.00000000000E+00 0. -1.
</event>
<event>
 7    1  0.1476909E-008  0.4614232E+02  0.7816164E-02  0.1320468E+00
        -11   -1    0    0    0    0  0.00000000000E+00  0.00000000000E+00  0.45593999997E+02  0.45594000000E+02  0.51100000000E-03 0.  1.
         11   -1    0    0    0    0 -0.00000000000E+00 -0.00000000000E+00 -0.45593999997E+02  0.45594000000E+02  0.51100000000E-03 0. -1.
    9900012    2    1    2    0    0 -0.35727835589E+02 -0.91310846614E+01 -0.25870031063E+02  0.46142318185E+02  0.10000003861E+02 0.  0.
        -12    1    1    2    0    0  0.35727835589E+02  0.91310846614E+01  0.25870031063E+02  0.45045681815E+02  0.00000000000E+00 0.  1.
         11    1    3    3    0    0 -0.21068708562E+02 -0.19877959015E+01 -0.12470118071E+02  0.24563095448E+02  0.51100000000E-03 0. -1.
        -11    1    3    3    0    0 -0.57163109741E+01 -0.51902500287E+01 -0.68725988046E+01  0.10336707460E+02  0.51100000000E-03 0.  1.
        -12    1    3    3    0    0 -0.89428160529E+01 -0.19530387311E+01 -0.65273141883E+01  0.11242515277E+02  0.00000000000E+00 0.  1.
</event>
<event>
 7    1  0.1476909E-008  0.4614232E+02  0.7816164E-02  0.1320468E+00
        -11   -1    0    0    0    0  0.00000000000E+00  0.00000000000E+00  0.45593999997E+02  0.45594000000E+02  0.51100000000E-03 0. -1.
         11   -1    0    0    0    0 -0.00000000000E+00 -0.00000000000E+00 -0.45593999997E+02  0.45594000000E+02  0.51100000000E-03 0.  1.
    9900012    2    1    2    0    0 -0.19388044642E+02  0.38147885471E+02  0.14069676583E+02  0.46142320517E+02  0.10000025129E+02 0.  0.
        -12    1    1    2    0    0  0.19388044642E+02 -0.38147885471E+02 -0.14069676583E+02  0.45045679483E+02  0.00000000000E+00 0.  1.
         11    1    3    3    0    0 -0.12043675287E+02  0.16106267988E+02  0.85055980934E+01  0.21835914959E+02  0.51100000000E-03 0. -1.
        -11    1    3    3    0    0 -0.35381263267E+01  0.15473775398E+02  0.52130553989E+01  0.16707244232E+02  0.51100000000E-03 0.  1.
         12    1    3    3    0    0 -0.38062430285E+01  0.65678420849E+01  0.35102309097E+00  0.75991613257E+01  0.00000000000E+00 0. -1.
</event>
<event>
 7    1  0.1476909E-008  0.4614232E+02  0.7816164E-02  0.1320468E+00
        -11   -1    0    0    0    0  0.00000000000E+00  0.00000000000E+00  0.45593999997E+02  0.45594000000E+02  0.51100000000E-03 0.  1.
         11   -1    0    0    0    0 -0.00000000000E+00 -0.00000000000E+00 -0.45593999997E+02  0.45594000000E+02  0.51100000000E-03 0. -1.
    9900012    2    1    2    0    0  0.41374831936E+00  0.22241176003E+02 -0.39169792227E+02  0.46142315181E+02  0.99999764746E+01 0.  0.
        -12    1    1    2    0    0 -0.41374831936E+00 -0.22241176003E+02  0.39169792227E+02  0.45045684819E+02  0.00000000000E+00 0.  1.
         11    1    3    3    0    0 -0.24549197690E+01  0.16588483077E+02 -0.23928230429E+02  0.29219250736E+02  0.51100000000E-03 0. -1.
        -11    1    3    3    0    0  0.35294404854E+01  0.54863867130E+01 -0.14582076929E+02  0.15974803822E+02  0.51100000000E-03 0.  1.
        -12    1    3    3    0    0 -0.66077239703E+00  0.16630621239E+00 -0.65948486935E+00  0.94826062338E+00  0.00000000000E+00 0.  1.
</event>
<event>
 7    1  0.1476909E-008  0.4614232E+02  0.7816164E-02  0.1320468E+00
        -11   -1    0    0    0    0  0.00000000000E+00  0.00000000000E+00  0.45593999997E+02  0.45594000000E+02  0.51100000000E-03 0.  1.
         11   -1    0    0    0    0 -0.00000000000E+00 -0.00000000000E+00 -0.45593999997E+02  0.45594000000E+02  0.51100000000E-03 0. -1.
    9900012    2    1    2    0    0  0.20868490466E+02  0.33797161860E+02 -0.21245506368E+02  0.46142316689E+02  0.99999902266E+01 0.  0.
        -12    1    1    2    0    0 -0.20868490466E+02 -0.33797161860E+02  0.21245506368E+02  0.45045683311E+02  0.00000000000E+00 0.  1.
         11    1    3    3    0    0  0.58179347341E+01  0.11033422790E+02 -0.52347450252E+01  0.13527281278E+02  0.51100000000E-03 0. -1.
        -11    1    3    3    0    0  0.23147275500E+01  0.73162123443E+01 -0.79012799028E+01  0.11014315733E+02  0.51100000000E-03 0.  1.
         12    1    3    3    0    0  0.12735828182E+02  0.15447526726E+02 -0.81094814397E+01  0.21600719679E+02  0.00000000000E+00 0. -1.
</event>
<event>
 7    1  0.1476909E-008  0.4614232E+02  0.7816164E-02  0.1320468E+00
        -11   -1    0    0    0    0  0.00000000000E+00  0.00000000000E+00  0.45593999997E+02  0.45594000000E+02  0.51100000000E-03 0.  1.
         11   -1    0    0    0    0 -0.00000000000E+00 -0.00000000000E+00 -0.45593999997E+02  0.45594000000E+02  0.51100000000E-03 0. -1.
    9900012    2    1    2    0    0  0.15643790397E+02  0.42236825964E+02 -0.66008977884E+00  0.46142319141E+02  0.10000012586E+02 0.  0.
        -12    1    1    2    0    0 -0.15643790397E+02 -0.42236825964E+02  0.66008977884E+00  0.45045680859E+02  0.00000000000E+00 0.  1.
         11    1    3    3    0    0  0.28341811073E+00  0.10626640255E+02 -0.10324401742E+01  0.10680437346E+02  0.51100000000E-03 0. -1.
        -11    1    3    3    0    0  0.15130417233E+02  0.27897833452E+02  0.17517175769E+00  0.31737191469E+02  0.51100000000E-03 0.  1.
         12    1    3    3    0    0  0.22995505372E+00  0.37123522570E+01  0.19717863765E+00  0.37246903257E+01  0.00000000000E+00 0. -1.
</event>
<event>
 7    1  0.1476909E-008  0.4614232E+02  0.7816164E-02  0.1320468E+00
        -11   -1    0    0    0    0  0.00000000000E+00  0.00000000000E+00  0.45593999997E+02  0.45594000000E+02  0.51100000000E-03 0.  1.
         11   -1    0    0    0    0 -0.00000000000E+00 -0.00000000000E+00 -0.45593999997E+02  0.45594000000E+02  0.51100000000E-03 0. -1.
    9900012    2    1    2    0    0  0.38049615143E+02  0.24039692430E+02 -0.18529525002E+01  0.46142318102E+02  0.10000003109E+02 0.  0.
        -12    1    1    2    0    0 -0.38049615143E+02 -0.24039692430E+02  0.18529525002E+01  0.45045681898E+02  0.00000000000E+00 0.  1.
         11    1    3    3    0    0  0.10579176010E+02  0.96588259253E+01 -0.13927221538E+01  0.14392760630E+02  0.51100000000E-03 0. -1.
        -11    1    3    3    0    0  0.83579500745E+01  0.80477772489E+01 -0.53473683263E+00  0.11614989963E+02  0.51100000000E-03 0.  1.
         12    1    3    3    0    0  0.19112489059E+02  0.63330892559E+01  0.74506486241E-01  0.20134567509E+02  0.00000000000E+00 0. -1.
</event>
<event>
 7    1  0.1476909E-008  0.4614232E+02  0.7816164E-02  0.1320468E+00
        -11   -1    0    0    0    0  0.00000000000E+00  0.00000000000E+00  0.45593999997E+02  0.45594000000E+02  0.51100000000E-03 0.  1.
         11   -1    0    0    0    0 -0.00000000000E+00 -0.00000000000E+00 -0.45593999997E+02  0.45594000000E+02  0.51100000000E-03 0. -1.
    9900012    2    1    2    0    0  0.40210359565E+02  0.97609991136E+01 -0.17803466043E+02  0.46142317374E+02  0.99999964712E+01 0.  0.
        -12    1    1    2    0    0 -0.40210359565E+02 -0.97609991136E+01  0.17803466043E+02  0.45045682626E+02  0.00000000000E+00 0.  1.
         11    1    3    3    0    0  0.35463652985E+02  0.10319095593E+02 -0.16451107488E+02  0.40432577889E+02  0.51100000000E-03 0. -1.
        -11    1    3    3    0    0  0.15675493267E+01 -0.72443628672E+00  0.76258485067E+00  0.18877379958E+01  0.51100000000E-03 0.  1.
        -12    1    3    3    0    0  0.31791572538E+01  0.16633980772E+00 -0.21149434061E+01  0.38220014896E+01  0.00000000000E+00 0.  1.
</event>
<event>
 7    1  0.1476909E-008  0.4614232E+02  0.7816164E-02  0.1320468E+00
        -11   -1    0    0    0    0  0.00000000000E+00  0.00000000000E+00  0.45593999997E+02  0.45594000000E+02  0.51100000000E-03 0. -1.
         11   -1    0    0    0    0 -0.00000000000E+00 -0.00000000000E+00 -0.45593999997E+02  0.45594000000E+02  0.51100000000E-03 0.  1.
    9900012    2    1    2    0    0  0.11890205693E+02 -0.22985210435E+02  0.36870267508E+02  0.46142317452E+02  0.99999971788E+01 0.  0.
        -12    1    1    2    0    0 -0.11890205693E+02  0.22985210435E+02 -0.36870267508E+02  0.45045682548E+02  0.00000000000E+00 0.  1.
         11    1    3    3    0    0  0.18454688600E+01  0.24126769335E+00  0.35404825856E+01  0.39998728246E+01  0.51100000000E-03 0. -1.
        -11    1    3    3    0    0  0.75616538046E+01 -0.20680789140E+02  0.26606805139E+02  0.34536874897E+02  0.51100000000E-03 0.  1.
        -12    1    3    3    0    0  0.24830830280E+01 -0.25456889883E+01  0.67229797833E+01  0.76055697299E+01  0.00000000000E+00 0.  1.
</event>
<event>
 7    1  0.1476909E-008  0.4614232E+02  0.7816164E-02  0.1320468E+00
        -11   -1    0    0    0    0  0.00000000000E+00  0.00000000000E+00  0.45593999997E+02  0.45594000000E+02  0.51100000000E-03 0. -1.
         11   -1    0    0    0    0 -0.00000000000E+00 -0.00000000000E+00 -0.45593999997E+02  0.45594000000E+02  0.51100000000E-03 0.  1.
    9900012    2    1    2    0    0  0.33976229596E+02  0.10062837332E+02  0.27811304285E+02  0.46142317423E+02  0.99999969209E+01 0.  0.
        -12    1    1    2    0    0 -0.33976229596E+02 -0.10062837332E+02 -0.27811304285E+02  0.45045682577E+02  0.00000000000E+00 0.  1.
         11    1    3    3    0    0  0.13375298557E+02  0.40676117295E+01  0.81245808287E+01  0.16169504958E+02  0.51100000000E-03 0. -1.
        -11    1    3    3    0    0  0.12374564628E+02  0.14652374768E+00  0.92227641788E+01  0.15434075881E+02  0.51100000000E-03 0.  1.
         12    1    3    3    0    0  0.82263664113E+01  0.58487018550E+01  0.10463959278E+02  0.14538736585E+02  0.00000000000E+00 0. -1.
</event>
<event>
 7    1  0.1476909E-008  0.4614232E+02  0.7816164E-02  0.1320468E+00
        -11   -1    0    0    0    0  0.00000000000E+00  0.00000000000E+00  0.45593999997E+02  0.45594000000E+02  0.51100000000E-03 0. -1.
         11   -1    0    0    0    0 -0.00000000000E+00 -0.00000000000E+00 -0.45593999997E+02  0.45594000000E+02  0.51100000000E-03 0.  1.
    9900012    2    1    2    0    0  0.42157644113E+02 -0.11664632679E+02  0.10760245909E+02  0.46142317580E+02  0.99999983445E+01 0.  0.
        -12    1    1    2    0    0 -0.42157644113E+02  0.11664632679E+02 -0.10760245909E+02  0.45045682420E+02  0.00000000000E+00 0.  1.
         11    1    3    3    0    0  0.78120498336E+00 -0.66878608223E+00 -0.66790309833E+00  0.12262344228E+01  0.51100000000E-03 0.  1.
        -11    1    3    3    0    0  0.27203302450E+02 -0.10639309342E+02  0.66739716915E+01  0.29962584433E+02  0.51100000000E-03 0. -1.
         12    1    3    3    0    0  0.14173136679E+02 -0.35653725521E+00  0.47541773159E+01  0.14953498724E+02  0.00000000000E+00 0. -1.
</event>
<event>
 7    1  0.1476909E-008  0.4614232E+02  0.7816164E-02  0.1320468E+00
        -11   -1    0    0    0    0  0.00000000000E+00  0.00000000000E+00  0.45593999997E+02  0.45594000000E+02  0.51100000000E-03 0.  1.
         11   -1    0    0    0    0 -0.00000000000E+00 -0.00000000000E+00 -0.45593999997E+02  0.45594000000E+02  0.51100000000E-03 0. -1.
    9900012    2    1    2    0    0 -0.57122653259E+01 -0.43610834074E+02 -0.97251549596E+01  0.46142318046E+02  0.10000002594E+02 0.  0.
        -12    1    1    2    0    0  0.57122653259E+01  0.43610834074E+02  0.97251549596E+01  0.45045681954E+02  0.00000000000E+00 0.  1.
         11    1    3    3    0    0 -0.66489657031E+01 -0.21572893023E+02 -0.78180231188E+01  0.23889745584E+02  0.51100000000E-03 0. -1.
        -11    1    3    3    0    0  0.10682070343E+01 -0.21938937572E+02 -0.17661081603E+01  0.22035815990E+02  0.51100000000E-03 0.  1.
        -12    1    3    3    0    0 -0.13150665708E+00 -0.99003478762E-01 -0.14102368044E+00  0.21675647189E+00  0.00000000000E+00 0.  1.
</event>
<event>
 7    1  0.1476909E-008  0.4614231E+02  0.7816164E-02  0.1320468E+00
        -11   -1    0    0    0    0  0.00000000000E+00  0.00000000000E+00  0.45593999997E+02  0.45594000000E+02  0.51100000000E-03 0.  1.
         11   -1    0    0    0    0 -0.00000000000E+00 -0.00000000000E+00 -0.45593999997E+02  0.45594000000E+02  0.51100000000E-03 0. -1.
    9900012    2    1    2    0    0 -0.83547852977E+01  0.43260791789E+02 -0.93709842656E+01  0.46142313306E+02  0.99999593787E+01 0.  0.
        -12    1    1    2    0    0  0.83547852977E+01 -0.43260791789E+02  0.93709842656E+01  0.45045686694E+02  0.00000000000E+00 0.  1.
         11    1    3    3    0    0 -0.11943596649E+01  0.10435961258E+02 -0.48535303007E+01  0.11571194365E+02  0.51100000000E-03 0. -1.
        -11    1    3    3    0    0 -0.69461763118E+01  0.15945236527E+02 -0.24381712559E+01  0.17562591284E+02  0.51100000000E-03 0.  1.
        -12    1    3    3    0    0 -0.21424932089E+00  0.16879594004E+02 -0.20792827090E+01  0.17008527658E+02  0.00000000000E+00 0.  1.
</event>
<event>
 7    1  0.1476909E-008  0.4614232E+02  0.7816164E-02  0.1320468E+00
        -11   -1    0    0    0    0  0.00000000000E+00  0.00000000000E+00  0.45593999997E+02  0.45594000000E+02  0.51100000000E-03 0.  1.
         11   -1    0    0    0    0 -0.00000000000E+00 -0.00000000000E+00 -0.45593999997E+02  0.45594000000E+02  0.51100000000E-03 0. -1.
    9900012    2    1    2    0    0 -0.47858728149E+01 -0.14161638588E+01 -0.44768332035E+02  0.46142315946E+02  0.99999834502E+01 0.  0.
        -12    1    1    2    0    0  0.47858728149E+01  0.14161638588E+01  0.44768332035E+02  0.45045684054E+02  0.00000000000E+00 0.  1.
         11    1    3    3    0    0 -0.34445172760E+01 -0.93725033032E+00 -0.35833492171E+02  0.36010863623E+02  0.51100000000E-03 0. -1.
        -11    1    3    3    0    0  0.48549830365E+00  0.30788945249E+00  0.32498996785E+00  0.66039628870E+00  0.51100000000E-03 0.  1.
        -12    1    3    3    0    0 -0.18268538425E+01 -0.78680298097E+00 -0.92598298318E+01  0.94710560344E+01  0.00000000000E+00 0.  1.
</event>
<event>
 7    1  0.1476909E-008  0.4614232E+02  0.7816164E-02  0.1320468E+00
        -11   -1    0    0    0    0  0.00000000000E+00  0.00000000000E+00  0.45593999997E+02  0.45594000000E+02  0.51100000000E-03 0.  1.
         11   -1    0    0    0    0 -0.00000000000E+00 -0.00000000000E+00 -0.45593999997E+02  0.45594000000E+02  0.51100000000E-03 0. -1.
    9900012    2    1    2    0    0  0.15358735664E+01  0.35134130509E+02 -0.28148664955E+02  0.46142319042E+02  0.10000011683E+02 0.  0.
        -12    1    1    2    0    0 -0.15358735664E+01 -0.35134130509E+02  0.28148664955E+02  0.45045680958E+02  0.00000000000E+00 0.  1.
         11    1    3    3    0    0 -0.26605169587E+00  0.33539748793E+02 -0.28052850747E+02  0.43725827240E+02  0.51100000000E-03 0. -1.
        -11    1    3    3    0    0  0.14305558361E+01  0.12596219267E+01 -0.15821135080E+00  0.19126339145E+01  0.51100000000E-03 0.  1.
         12    1    3    3    0    0  0.37136942625E+00  0.33475978916E+00  0.62397142857E-01  0.50385788734E+00  0.00000000000E+00 0. -1.
</event>
<event>
 7    1  0.1476909E-008  0.4614232E+02  0.7816164E-02  0.1320468E+00
        -11   -1    0    0    0    0  0.00000000000E+00  0.00000000000E+00  0.45593999997E+02  0.45594000000E+02  0.51100000000E-03 0.  1.
         11   -1    0    0    0    0 -0.00000000000E+00 -0.00000000000E+00 -0.45593999997E+02  0.45594000000E+02  0.51100000000E-03 0. -1.
    9900012    2    1    2    0    0 -0.37081925642E+01  0.29245567447E+02 -0.34059647622E+02  0.46142317593E+02  0.99999984677E+01 0.  0.
        -12    1    1    2    0    0  0.37081925642E+01 -0.29245567447E+02  0.34059647622E+02  0.45045682407E+02  0.00000000000E+00 0.  1.
         11    1    3    3    0    0 -0.40134432132E+01  0.16631795686E+02 -0.21488600656E+02  0.27467877832E+02  0.51100000000E-03 0. -1.
        -11    1    3    3    0    0  0.11969740148E+01  0.42679491413E+00 -0.20090456723E+00  0.12865704788E+01  0.51100000000E-03 0.  1.
        -12    1    3    3    0    0 -0.89172336576E+00  0.12186976846E+02 -0.12370142398E+02  0.17387869282E+02  0.00000000000E+00 0.  1.
</event>
<event>
 7    1  0.1476909E-008  0.4614232E+02  0.7816164E-02  0.1320468E+00
        -11   -1    0    0    0    0  0.00000000000E+00  0.00000000000E+00  0.45593999997E+02  0.45594000000E+02  0.51100000000E-03 0.  1.
         11   -1    0    0    0    0 -0.00000000000E+00 -0.00000000000E+00 -0.45593999997E+02  0.45594000000E+02  0.51100000000E-03 0. -1.
    9900012    2    1    2    0    0 -0.41456838600E+02  0.19295373236E+00 -0.17618364391E+02  0.46142318057E+02  0.10000002700E+02 0.  0.
        -12    1    1    2    0    0  0.41456838600E+02 -0.19295373236E+00  0.17618364391E+02  0.45045681943E+02  0.00000000000E+00 0.  1.
         11    1    3    3    0    0 -0.49108351191E+01 -0.27264659956E+01 -0.25541581431E+01  0.61703843052E+01  0.51100000000E-03 0. -1.
        -11    1    3    3    0    0 -0.83259139147E+00  0.82480654283E+00 -0.96845539346E+00  0.15203356105E+01  0.51100000000E-03 0.  1.
         12    1    3    3    0    0 -0.35713412090E+02  0.20946131851E+01 -0.14095750855E+02  0.38451598142E+02  0.00000000000E+00 0. -1.
</event>
<event>
 7    1  0.1476909E-008  0.4614232E+02  0.7816164E-02  0.1320468E+00
        -11   -1    0    0    0    0  0.00000000000E+00  0.00000000000E+00  0.45593999997E+02  0.45594000000E+02  0.51100000000E-03 0.  1.
         11   -1    0    0    0    0 -0.00000000000E+00 -0.00000000000E+00 -0.45593999997E+02  0.45594000000E+02  0.51100000000E-03 0. -1.
    9900012    2    1    2    0    0 -0.39870353718E+02  0.20084444257E+02  0.60069504136E+01  0.46142318076E+02  0.10000002873E+02 0.  0.
        -12    1    1    2    0    0  0.39870353718E+02 -0.20084444257E+02 -0.60069504136E+01  0.45045681924E+02  0.00000000000E+00 0.  1.
         11    1    3    3    0    0 -0.22923383158E+02  0.13372178923E+02  0.62835590573E+01  0.27272326253E+02  0.51100000000E-03 0. -1.
        -11    1    3    3    0    0 -0.28522240610E+01 -0.55976116592E+00 -0.75337740670E+00  0.30026808747E+01  0.51100000000E-03 0.  1.
        -12    1    3    3    0    0 -0.14094746499E+02  0.72720265000E+01  0.47676876300E+00  0.15867310948E+02  0.00000000000E+00 0.  1.
</event>
<event>
 7    1  0.1476909E-008  0.4614232E+02  0.7816164E-02  0.1320468E+00
        -11   -1    0    0    0    0  0.00000000000E+00  0.00000000000E+00  0.45593999997E+02  0.45594000000E+02  0.51100000000E-03 0.  1.
         11   -1    0    0    0    0 -0.00000000000E+00 -0.00000000000E+00 -0.45593999997E+02  0.45594000000E+02  0.51100000000E-03 0. -1.
    9900012    2    1    2    0    0  0.13172835106E+01  0.40461827790E+02 -0.19753952715E+02  0.46142318833E+02  0.10000009776E+02 0.  0.
        -12    1    1    2    0    0 -0.13172835106E+01 -0.40461827790E+02  0.19753952715E+02  0.45045681167E+02  0.00000000000E+00 0.  1.
         11    1    3    3    0    0  0.76644533197E+00  0.25671608304E+02 -0.14328500211E+02  0.29409604382E+02  0.51100000000E-03 0. -1.
        -11    1    3    3    0    0  0.30513999128E+01  0.80755755891E+01 -0.24449369966E+01  0.89723842819E+01  0.51100000000E-03 0.  1.
         12    1    3    3    0    0 -0.25005617342E+01  0.67146438968E+01 -0.29805155073E+01  0.77603301694E+01  0.00000000000E+00 0. -1.
</event>
<event>
 7    1  0.1476909E-008  0.4614232E+02  0.7816164E-02  0.1320468E+00
        -11   -1    0    0    0    0  0.00000000000E+00  0.00000000000E+00  0.45593999997E+02  0.45594000000E+02  0.51100000000E-03 0. -1.
         11   -1    0    0    0    0 -0.00000000000E+00 -0.00000000000E+00 -0.45593999997E+02  0.45594000000E+02  0.51100000000E-03 0.  1.
    9900012    2    1    2    0    0  0.44611295684E+02  0.60776752449E+01  0.14168935652E+01  0.46142318450E+02  0.10000006278E+02 0.  0.
        -12    1    1    2    0    0 -0.44611295684E+02 -0.60776752449E+01 -0.14168935652E+01  0.45045681550E+02  0.00000000000E+00 0.  1.
         11    1    3    3    0    0  0.19250264524E+02  0.35430038536E+01 -0.38192645308E+00  0.19577319240E+02  0.51100000000E-03 0. -1.
        -11    1    3    3    0    0  0.12221885920E+02  0.46095204291E+01 -0.47119025901E+00  0.13070738103E+02  0.51100000000E-03 0.  1.
        -12    1    3    3    0    0  0.13139145239E+02 -0.20748490378E+01  0.22700102772E+01  0.13494261106E+02  0.00000000000E+00 0.  1.
</event>
<event>
 7    1  0.1476909E-008  0.4614232E+02  0.7816164E-02  0.1320468E+00
        -11   -1    0    0    0    0  0.00000000000E+00  0.00000000000E+00  0.45593999997E+02  0.45594000000E+02  0.51100000000E-03 0.  1.
         11   -1    0    0    0    0 -0.00000000000E+00 -0.00000000000E+00 -0.45593999997E+02  0.45594000000E+02  0.51100000000E-03 0. -1.
    9900012    2    1    2    0    0 -0.31759404026E+02  0.23899621355E+02 -0.21195796557E+02  0.46142318335E+02  0.10000005230E+02 0.  0.
        -12    1    1    2    0    0  0.31759404026E+02 -0.23899621355E+02  0.21195796557E+02  0.45045681665E+02  0.00000000000E+00 0.  1.
         11    1    3    3    0    0 -0.21719415431E+02  0.17794047511E+02 -0.16287984716E+02  0.32460122918E+02  0.51100000000E-03 0. -1.
        -11    1    3    3    0    0 -0.24508413648E+01  0.25215723647E+00  0.72122766259E+00  0.25671728165E+01  0.51100000000E-03 0.  1.
        -12    1    3    3    0    0 -0.75891472300E+01  0.58534166077E+01 -0.56290395038E+01  0.11115022600E+02  0.00000000000E+00 0.  1.
</event>
<event>
 7    1  0.1476909E-008  0.4614232E+02  0.7816164E-02  0.1320468E+00
        -11   -1    0    0    0    0  0.00000000000E+00  0.00000000000E+00  0.45593999997E+02  0.45594000000E+02  0.51100000000E-03 0. -1.
         11   -1    0    0    0    0 -0.00000000000E+00 -0.00000000000E+00 -0.45593999997E+02  0.45594000000E+02  0.51100000000E-03 0.  1.
    9900012    2    1    2    0    0 -0.11820211606E+00  0.22804108755E+02  0.38846777917E+02  0.46142317606E+02  0.99999985819E+01 0.  0.
        -12    1    1    2    0    0  0.11820211606E+00 -0.22804108755E+02 -0.38846777917E+02  0.45045682394E+02  0.00000000000E+00 0.  1.
         11    1    3    3    0    0 -0.13866392614E+01  0.82277288161E+01  0.74689621625E+01  0.11198378720E+02  0.51100000000E-03 0.  1.
        -11    1    3    3    0    0 -0.12878430087E+01  0.10412001461E+02  0.21201753144E+02  0.23655499375E+02  0.51100000000E-03 0. -1.
        -12    1    3    3    0    0  0.25562801540E+01  0.41643784784E+01  0.10176062610E+02  0.11288439510E+02  0.00000000000E+00 0.  1.
</event>
<event>
 7    1  0.1476909E-008  0.4614232E+02  0.7816164E-02  0.1320468E+00
        -11   -1    0    0    0    0  0.00000000000E+00  0.00000000000E+00  0.45593999997E+02  0.45594000000E+02  0.51100000000E-03 0. -1.
         11   -1    0    0    0    0 -0.00000000000E+00 -0.00000000000E+00 -0.45593999997E+02  0.45594000000E+02  0.51100000000E-03 0.  1.
    9900012    2    1    2    0    0 -0.18190496470E+02  0.39905755746E+02  0.10283481809E+02  0.46142317614E+02  0.99999986583E+01 0.  0.
        -12    1    1    2    0    0  0.18190496470E+02 -0.39905755746E+02 -0.10283481809E+02  0.45045682386E+02  0.00000000000E+00 0.  1.
         11    1    3    3    0    0 -0.16367652221E+01  0.13261807117E+02  0.13377765567E+01  0.13429228376E+02  0.51100000000E-03 0. -1.
        -11    1    3    3    0    0 -0.86201065661E-01  0.10394210887E+00  0.26176016312E+00  0.29453901242E+00  0.51100000000E-03 0.  1.
         12    1    3    3    0    0 -0.16467530182E+02  0.26540006520E+02  0.86839450889E+01  0.32418550225E+02  0.00000000000E+00 0. -1.
</event>
<event>
 7    1  0.1476909E-008  0.4614232E+02  0.7816164E-02  0.1320468E+00
        -11   -1    0    0    0    0  0.00000000000E+00  0.00000000000E+00  0.45593999997E+02  0.45594000000E+02  0.51100000000E-03 0.  1.
         11   -1    0    0    0    0 -0.00000000000E+00 -0.00000000000E+00 -0.45593999997E+02  0.45594000000E+02  0.51100000000E-03 0. -1.
    9900012    2    1    2    0    0 -0.32719162891E+02  0.30123598632E+02 -0.71511276792E+01  0.46142318277E+02  0.10000004705E+02 0.  0.
        -12    1    1    2    0    0  0.32719162891E+02 -0.30123598632E+02  0.71511276792E+01  0.45045681723E+02  0.00000000000E+00 0.  1.
         11    1    3    3    0    0 -0.12358247789E+02  0.14869751928E+02 -0.25102423735E+01  0.19497105628E+02  0.51100000000E-03 0. -1.
        -11    1    3    3    0    0 -0.13418820350E+02  0.71709962337E+01 -0.49088730332E+01  0.15987024779E+02  0.51100000000E-03 0.  1.
        -12    1    3    3    0    0 -0.69420947517E+01  0.80828504701E+01  0.26798772757E+00  0.10658187871E+02  0.00000000000E+00 0.  1.
</event>
<event>
 7    1  0.1476909E-008  0.4614233E+02  0.7816164E-02  0.1320468E+00
        -11   -1    0    0    0    0  0.00000000000E+00  0.00000000000E+00  0.45593999997E+02  0.45594000000E+02  0.51100000000E-03 0.  1.
         11   -1    0    0    0    0 -0.00000000000E+00 -0.00000000000E+00 -0.45593999997E+02  0.45594000000E+02  0.51100000000E-03 0. -1.
    9900012    2    1    2    0    0 -0.79712458001E+01  0.42139903449E+02 -0.13776803033E+02  0.46142328465E+02  0.10000097603E+02 0.  0.
        -12    1    1    2    0    0  0.79712458001E+01 -0.42139903449E+02  0.13776803033E+02  0.45045671535E+02  0.00000000000E+00 0.  1.
         11    1    3    3    0    0 -0.61314036867E+01  0.22801381149E+02 -0.98388603374E+01  0.25579293706E+02  0.51100000000E-03 0. -1.
        -11    1    3    3    0    0 -0.32331533941E+01  0.88291072751E+01 -0.32154175675E+01  0.99370683071E+01  0.51100000000E-03 0.  1.
         12    1    3    3    0    0  0.13933112806E+01  0.10509415024E+02 -0.72252512822E+00  0.10625966452E+02  0.00000000000E+00 0. -1.
</event>
<event>
 7    1  0.1476909E-008  0.4614232E+02  0.7816164E-02  0.1320468E+00
        -11   -1    0    0    0    0  0.00000000000E+00  0.00000000000E+00  0.45593999997E+02  0.45594000000E+02  0.51100000000E-03 0. -1.
         11   -1    0    0    0    0 -0.00000000000E+00 -0.00000000000E+00 -0.45593999997E+02  0.45594000000E+02  0.51100000000E-03 0.  1.
    9900012    2    1    2    0    0 -0.82905957710E+01 -0.44276122105E+02 -0.67793023986E-01  0.46142316935E+02  0.99999924698E+01 0.  0.
        -12    1    1    2    0    0  0.82905957710E+01  0.44276122105E+02  0.67793023986E-01  0.45045683065E+02  0.00000000000E+00 0.  1.
         11    1    3    3    0    0 -0.91440262233E+01 -0.34422355014E+02  0.28068007754E+01  0.35726598931E+02  0.51100000000E-03 0. -1.
        -11    1    3    3    0    0  0.78163875379E+00 -0.98624645043E+01 -0.27447178391E+01  0.10267065867E+02  0.51100000000E-03 0.  1.
         12    1    3    3    0    0  0.71791698500E-01  0.86974138115E-02 -0.12987596027E+00  0.14865213768E+00  0.00000000000E+00 0. -1.
</event>
<event>
 7    1  0.1476909E-008  0.4614232E+02  0.7816164E-02  0.1320468E+00
        -11   -1    0    0    0    0  0.00000000000E+00  0.00000000000E+00  0.45593999997E+02  0.45594000000E+02  0.51100000000E-03 0.  1.
         11   -1    0    0    0    0 -0.00000000000E+00 -0.00000000000E+00 -0.45593999997E+02  0.45594000000E+02  0.51100000000E-03 0. -1.
    9900012    2    1    2    0    0  0.16245113706E+02 -0.41320888838E+02 -0.76022313925E+01  0.46142317678E+02  0.99999992452E+01 0.  0.
        -12    1    1    2    0    0 -0.16245113706E+02  0.41320888838E+02  0.76022313925E+01  0.45045682322E+02  0.00000000000E+00 0.  1.
         11    1    3    3    0    0  0.58483900581E+01 -0.12670310943E+02 -0.20981691993E+01  0.14111795063E+02  0.51100000000E-03 0. -1.
        -11    1    3    3    0    0  0.89449554843E+01 -0.14322098264E+02 -0.89699225447E+00  0.16909740467E+02  0.51100000000E-03 0.  1.
        -12    1    3    3    0    0  0.14517681633E+01 -0.14328479631E+02 -0.46070699388E+01  0.15120782148E+02  0.00000000000E+00 0.  1.
</event>
<event>
 7    1  0.1476909E-008  0.4614232E+02  0.7816164E-02  0.1320468E+00
        -11   -1    0    0    0    0  0.00000000000E+00  0.00000000000E+00  0.45593999997E+02  0.45594000000E+02  0.51100000000E-03 0.  1.
         11   -1    0    0    0    0 -0.00000000000E+00 -0.00000000000E+00 -0.45593999997E+02  0.45594000000E+02  0.51100000000E-03 0. -1.
    9900012    2    1    2    0    0  0.29239450466E+01 -0.32878533482E+02 -0.30652340972E+02  0.46142318458E+02  0.10000006354E+02 0.  0.
        -12    1    1    2    0    0 -0.29239450466E+01  0.32878533482E+02  0.30652340972E+02  0.45045681542E+02  0.00000000000E+00 0.  1.
         11    1    3    3    0    0  0.52035557958E+01 -0.18984024105E+02 -0.21672050881E+02  0.29277089230E+02  0.51100000000E-03 0.  1.
        -11    1    3    3    0    0 -0.20767837354E+01 -0.13437938332E+02 -0.90870178677E+01  0.16354360620E+02  0.51100000000E-03 0. -1.
         12    1    3    3    0    0 -0.20282701382E+00 -0.45657104447E+00  0.10672777655E+00  0.51086860783E+00  0.00000000000E+00 0. -1.
</event>
<event>
 7    1  0.1476909E-008  0.4614232E+02  0.7816164E-02  0.1320468E+00
        -11   -1    0    0    0    0  0.00000000000E+00  0.00000000000E+00  0.45593999997E+02  0.45594000000E+02  0.51100000000E-03 0.  1.
         11   -1    0    0    0    0 -0.00000000000E+00 -0.00000000000E+00 -0.45593999997E+02  0.45594000000E+02  0.51100000000E-03 0. -1.
    9900012    2    1    2    0    0  0.19297258907E+02 -0.55783269772E+01 -0.40318871955E+02  0.46142319087E+02  0.10000012088E+02 0.  0.
        -12    1    1    2    0    0 -0.19297258907E+02  0.55783269772E+01  0.40318871955E+02  0.45045680913E+02  0.00000000000E+00 0.  1.
         11    1    3    3    0    0  0.26219926430E+00 -0.17376462257E+01 -0.20154241333E+01  0.26739666337E+01  0.51100000000E-03 0. -1.
        -11    1    3    3    0    0  0.13978934989E+02 -0.25580078702E+01 -0.20702461755E+02  0.25110674038E+02  0.51100000000E-03 0.  1.
         12    1    3    3    0    0  0.50561246531E+01 -0.12826728813E+01 -0.17600986067E+02  0.18357678415E+02  0.00000000000E+00 0. -1.
</event>
<event>
 7    1  0.1476909E-008  0.4614232E+02  0.7816164E-02  0.1320468E+00
        -11   -1    0    0    0    0  0.00000000000E+00  0.00000000000E+00  0.45593999997E+02  0.45594000000E+02  0.51100000000E-03 0.  1.
         11   -1    0    0    0    0 -0.00000000000E+00 -0.00000000000E+00 -0.45593999997E+02  0.45594000000E+02  0.51100000000E-03 0. -1.
    9900012    2    1    2    0    0  0.31110362336E+02 -0.31623334328E+02 -0.78245370253E+01  0.46142319870E+02  0.10000019233E+02 0.  0.
        -12    1    1    2    0    0 -0.31110362336E+02  0.31623334328E+02  0.78245370253E+01  0.45045680130E+02  0.00000000000E+00 0.  1.
         11    1    3    3    0    0  0.77236172009E+01 -0.10005806837E+02 -0.46526875983E+01  0.13469147534E+02  0.51100000000E-03 0. -1.
        -11    1    3    3    0    0  0.15784230135E+02 -0.15124481933E+02  0.89676316702E+00  0.21879123820E+02  0.51100000000E-03 0.  1.
        -12    1    3    3    0    0  0.76025150002E+01 -0.64930455573E+01 -0.40686125941E+01  0.10794048517E+02  0.00000000000E+00 0.  1.
</event>
<event>
 7    1  0.1476909E-008  0.4614232E+02  0.7816164E-02  0.1320468E+00
        -11   -1    0    0    0    0  0.00000000000E+00  0.00000000000E+00  0.45593999997E+02  0.45594000000E+02  0.51100000000E-03 0.  1.
         11   -1    0    0    0    0 -0.00000000000E+00 -0.00000000000E+00 -0.45593999997E+02  0.45594000000E+02  0.51100000000E-03 0. -1.
    9900012    2    1    2    0    0  0.10677926335E+02  0.34333711406E+02  0.27134694056E+02  0.46142317951E+02  0.10000001734E+02 0.  0.
        -12    1    1    2    0    0 -0.10677926335E+02 -0.34333711406E+02 -0.27134694056E+02  0.45045682049E+02  0.00000000000E+00 0.  1.
         11    1    3    3    0    0  0.86094173636E+01  0.18624579785E+02  0.18094721764E+02  0.27357192755E+02  0.51100000000E-03 0. -1.
        -11    1    3    3    0    0  0.90040695378E-01  0.20201071278E+01  0.31694941519E+01  0.37596055079E+01  0.51100000000E-03 0.  1.
         12    1    3    3    0    0  0.19784682764E+01  0.13689024493E+02  0.58704781409E+01  0.15025519688E+02  0.00000000000E+00 0. -1.
</event>
<event>
 7    1  0.1476909E-008  0.4614232E+02  0.7816164E-02  0.1320468E+00
        -11   -1    0    0    0    0  0.00000000000E+00  0.00000000000E+00  0.45593999997E+02  0.45594000000E+02  0.51100000000E-03 0.  1.
         11   -1    0    0    0    0 -0.00000000000E+00 -0.00000000000E+00 -0.45593999997E+02  0.45594000000E+02  0.51100000000E-03 0. -1.
    9900012    2    1    2    0    0  0.54930527578E+01 -0.17775879510E+02 -0.41023870477E+02  0.46142317967E+02  0.10000001877E+02 0.  0.
        -12    1    1    2    0    0 -0.54930527578E+01  0.17775879510E+02  0.41023870477E+02  0.45045682033E+02  0.00000000000E+00 0.  1.
         11    1    3    3    0    0 -0.17507799436E+01 -0.44806201231E+01 -0.12187717177E+02  0.13102733965E+02  0.51100000000E-03 0. -1.
        -11    1    3    3    0    0  0.23325189871E+01 -0.62639994513E+00 -0.30287960954E+01  0.38738388925E+01  0.51100000000E-03 0.  1.
         12    1    3    3    0    0  0.49113137144E+01 -0.12668859441E+02 -0.25807357204E+02  0.29165745110E+02  0.00000000000E+00 0. -1.
</event>
<event>
 7    1  0.1476909E-008  0.4614232E+02  0.7816164E-02  0.1320468E+00
        -11   -1    0    0    0    0  0.00000000000E+00  0.00000000000E+00  0.45593999997E+02  0.45594000000E+02  0.51100000000E-03 0.  1.
         11   -1    0    0    0    0 -0.00000000000E+00 -0.00000000000E+00 -0.45593999997E+02  0.45594000000E+02  0.51100000000E-03 0. -1.
    9900012    2    1    2    0    0  0.26674120737E+02  0.32239609284E+02  0.16679692825E+02  0.46142320111E+02  0.10000021430E+02 0.  0.
        -12    1    1    2    0    0 -0.26674120737E+02 -0.32239609284E+02 -0.16679692825E+02  0.45045679889E+02  0.00000000000E+00 0.  1.
         11    1    3    3    0    0  0.98494003777E+01  0.77531754514E+01  0.76921967347E+01  0.14706879623E+02  0.51100000000E-03 0. -1.
        -11    1    3    3    0    0  0.18948667978E+01  0.63577150472E+01  0.17660723033E+01  0.68651345540E+01  0.51100000000E-03 0.  1.
         12    1    3    3    0    0  0.14929853562E+02  0.18128718786E+02  0.72214237871E+01  0.24570305934E+02  0.00000000000E+00 0. -1.
</event>
<event>
 7    1  0.1476909E-008  0.4614232E+02  0.7816164E-02  0.1320468E+00
        -11   -1    0    0    0    0  0.00000000000E+00  0.00000000000E+00  0.45593999997E+02  0.45594000000E+02  0.51100000000E-03 0. -1.
         11   -1    0    0    0    0 -0.00000000000E+00 -0.00000000000E+00 -0.45593999997E+02  0.45594000000E+02  0.51100000000E-03 0.  1.
    9900012    2    1    2    0    0  0.36834596102E+02 -0.46208140796E+01  0.25514193475E+02  0.46142318060E+02  0.10000002724E+02 0.  0.
        -12    1    1    2    0    0 -0.36834596102E+02  0.46208140796E+01 -0.25514193475E+02  0.45045681940E+02  0.00000000000E+00 0.  1.
         11    1    3    3    0    0  0.15792978642E+02 -0.46605927889E+01  0.84826696504E+01  0.18522823332E+02  0.51100000000E-03 0. -1.
        -11    1    3    3    0    0  0.14305873062E+02  0.79905539313E+00  0.14496778471E+02  0.20382666162E+02  0.51100000000E-03 0.  1.
        -12    1    3    3    0    0  0.67357443980E+01 -0.75927668388E+00  0.25347453538E+01  0.72368285655E+01  0.00000000000E+00 0.  1.
</event>
<event>
 7    1  0.1476909E-008  0.4614232E+02  0.7816164E-02  0.1320468E+00
        -11   -1    0    0    0    0  0.00000000000E+00  0.00000000000E+00  0.45593999997E+02  0.45594000000E+02  0.51100000000E-03 0.  1.
         11   -1    0    0    0    0 -0.00000000000E+00 -0.00000000000E+00 -0.45593999997E+02  0.45594000000E+02  0.51100000000E-03 0. -1.
    9900012    2    1    2    0    0  0.20047761091E+02 -0.34691554069E+02 -0.20583899169E+02  0.46142317038E+02  0.99999934101E+01 0.  0.
        -12    1    1    2    0    0 -0.20047761091E+02  0.34691554069E+02  0.20583899169E+02  0.45045682962E+02  0.00000000000E+00 0.  1.
         11    1    3    3    0    0  0.11418566725E+02 -0.15599202666E+02 -0.96102450844E+01  0.21588784142E+02  0.51100000000E-03 0. -1.
        -11    1    3    3    0    0  0.62410051138E+01 -0.18455626313E+02 -0.94889255262E+01  0.21670256005E+02  0.51100000000E-03 0.  1.
        -12    1    3    3    0    0  0.23881892519E+01 -0.63672509067E+00 -0.14847285581E+01  0.28832768919E+01  0.00000000000E+00 0.  1.
</event>
<event>
 7    1  0.1476909E-008  0.4614232E+02  0.7816164E-02  0.1320468E+00
        -11   -1    0    0    0    0  0.00000000000E+00  0.00000000000E+00  0.45593999997E+02  0.45594000000E+02  0.51100000000E-03 0.  1.
         11   -1    0    0    0    0 -0.00000000000E+00 -0.00000000000E+00 -0.45593999997E+02  0.45594000000E+02  0.51100000000E-03 0. -1.
    9900012    2    1    2    0    0  0.15764627836E+02 -0.33904330126E+01 -0.42060610010E+02  0.46142318285E+02  0.10000004774E+02 0.  0.
        -12    1    1    2    0    0 -0.15764627836E+02  0.33904330126E+01  0.42060610010E+02  0.45045681715E+02  0.00000000000E+00 0.  1.
         11    1    3    3    0    0  0.15090928122E+02 -0.10618349454E+01 -0.37396186112E+02  0.40340281866E+02  0.51100000000E-03 0. -1.
        -11    1    3    3    0    0  0.10384894949E+01 -0.13075346168E+01 -0.92556203239E+00  0.19091287390E+01  0.51100000000E-03 0.  1.
         12    1    3    3    0    0 -0.36478978153E+00 -0.10210634504E+01 -0.37388618654E+01  0.38929076797E+01  0.00000000000E+00 0. -1.
</event>
<event>
 7    1  0.1476909E-008  0.4614232E+02  0.7816164E-02  0.1320468E+00
        -11   -1    0    0    0    0  0.00000000000E+00  0.00000000000E+00  0.45593999997E+02  0.45594000000E+02  0.51100000000E-03 0.  1.
         11   -1    0    0    0    0 -0.00000000000E+00 -0.00000000000E+00 -0.45593999997E+02  0.45594000000E+02  0.51100000000E-03 0. -1.
    9900012    2    1    2    0    0 -0.33591409716E+02 -0.67198046718E+01 -0.29250209677E+02  0.46142319323E+02  0.10000014238E+02 0.  0.
        -12    1    1    2    0    0  0.33591409716E+02  0.67198046718E+01  0.29250209677E+02  0.45045680677E+02  0.00000000000E+00 0.  1.
         11    1    3    3    0    0 -0.53336184175E+01 -0.14613079646E+01 -0.25563480148E+01  0.60924397268E+01  0.51100000000E-03 0. -1.
        -11    1    3    3    0    0 -0.86337084079E+01 -0.42705060971E+01 -0.12642266960E+02  0.15893553955E+02  0.51100000000E-03 0.  1.
        -12    1    3    3    0    0 -0.19624082891E+02 -0.98799061015E+00 -0.14051594703E+02  0.24156325640E+02  0.00000000000E+00 0.  1.
</event>
<event>
 7    1  0.1476909E-008  0.4614232E+02  0.7816164E-02  0.1320468E+00
        -11   -1    0    0    0    0  0.00000000000E+00  0.00000000000E+00  0.45593999997E+02  0.45594000000E+02  0.51100000000E-03 0. -1.
         11   -1    0    0    0    0 -0.00000000000E+00 -0.00000000000E+00 -0.45593999997E+02  0.45594000000E+02  0.51100000000E-03 0.  1.
    9900012    2    1    2    0    0 -0.24106992869E+02 -0.37361942442E+02  0.72146812827E+01  0.46142317918E+02  0.10000001429E+02 0.  0.
        -12    1    1    2    0    0  0.24106992869E+02  0.37361942442E+02 -0.72146812827E+01  0.45045682082E+02  0.00000000000E+00 0.  1.
         11    1    3    3    0    0 -0.27294340977E+01 -0.22963410771E+01 -0.93100674402E-01  0.35681452931E+01  0.51100000000E-03 0. -1.
        -11    1    3    3    0    0 -0.10700614340E+02 -0.14153739832E+02 -0.72494394896E+00  0.17758295033E+02  0.51100000000E-03 0.  1.
        -12    1    3    3    0    0 -0.10676944431E+02 -0.20911861534E+02  0.80327259061E+01  0.24815877592E+02  0.00000000000E+00 0.  1.
</event>
<event>
 7    1  0.1476909E-008  0.4614232E+02  0.7816164E-02  0.1320468E+00
        -11   -1    0    0    0    0  0.00000000000E+00  0.00000000000E+00  0.45593999997E+02  0.45594000000E+02  0.51100000000E-03 0.  1.
         11   -1    0    0    0    0 -0.00000000000E+00 -0.00000000000E+00 -0.45593999997E+02  0.45594000000E+02  0.51100000000E-03 0. -1.
    9900012    2    1    2    0    0  0.32288051367E+02  0.26934471134E+02 -0.16159501799E+02  0.46142317690E+02  0.99999993525E+01 0.  0.
        -12    1    1    2    0    0 -0.32288051367E+02 -0.26934471134E+02  0.16159501799E+02  0.45045682310E+02  0.00000000000E+00 0.  1.
         11    1    3    3    0    0  0.40360762323E+01  0.18936273655E+01 -0.32332145891E+01  0.55072146129E+01  0.51100000000E-03 0. -1.
        -11    1    3    3    0    0  0.15847194354E+01  0.42645654238E+01 -0.33772207620E+00  0.45620072781E+01  0.51100000000E-03 0.  1.
        -12    1    3    3    0    0  0.26667255700E+02  0.20776278345E+02 -0.12588565134E+02  0.36073095799E+02  0.00000000000E+00 0.  1.
</event>
<event>
 7    1  0.1476909E-008  0.4614232E+02  0.7816164E-02  0.1320468E+00
        -11   -1    0    0    0    0  0.00000000000E+00  0.00000000000E+00  0.45593999997E+02  0.45594000000E+02  0.51100000000E-03 0.  1.
         11   -1    0    0    0    0 -0.00000000000E+00 -0.00000000000E+00 -0.45593999997E+02  0.45594000000E+02  0.51100000000E-03 0. -1.
    9900012    2    1    2    0    0 -0.93537963991E+01  0.25646222550E+02 -0.35831428235E+02  0.46142317771E+02  0.10000000087E+02 0.  0.
        -12    1    1    2    0    0  0.93537963991E+01 -0.25646222550E+02  0.35831428235E+02  0.45045682229E+02  0.00000000000E+00 0.  1.
         11    1    3    3    0    0 -0.41934533952E+01  0.27718095276E+01 -0.85354091079E+01  0.99056139808E+01  0.51100000000E-03 0. -1.
        -11    1    3    3    0    0  0.11782678924E+00  0.11871395896E-01  0.10774373855E+00  0.16010326861E+00  0.51100000000E-03 0.  1.
         12    1    3    3    0    0 -0.52781697931E+01  0.22862541627E+02 -0.27403762865E+02  0.36076600521E+02  0.00000000000E+00 0. -1.
</event>
<event>
 7    1  0.1476909E-008  0.4614232E+02  0.7816164E-02  0.1320468E+00
        -11   -1    0    0    0    0  0.00000000000E+00  0.00000000000E+00  0.45593999997E+02  0.45594000000E+02  0.51100000000E-03 0. -1.
         11   -1    0    0    0    0 -0.00000000000E+00 -0.00000000000E+00 -0.45593999997E+02  0.45594000000E+02  0.51100000000E-03 0.  1.
    9900012    2    1    2    0    0  0.41802117465E+02  0.15803284849E+02 -0.56526681156E+01  0.46142317705E+02  0.99999994883E+01 0.  0.
        -12    1    1    2    0    0 -0.41802117465E+02 -0.15803284849E+02  0.56526681156E+01  0.45045682295E+02  0.00000000000E+00 0.  1.
         11    1    3    3    0    0  0.37496203047E+02  0.15713616958E+02 -0.36357879040E+01  0.40817912181E+02  0.51100000000E-03 0. -1.
        -11    1    3    3    0    0  0.17645061718E-01 -0.34321323874E+00 -0.76115356144E+00  0.83514171293E+00  0.51100000000E-03 0.  1.
         12    1    3    3    0    0  0.42882693563E+01  0.43288112902E+00 -0.12557266502E+01  0.44892638109E+01  0.00000000000E+00 0. -1.
</event>
<event>
 7    1  0.1476909E-008  0.4614232E+02  0.7816164E-02  0.1320468E+00
        -11   -1    0    0    0    0  0.00000000000E+00  0.00000000000E+00  0.45593999997E+02  0.45594000000E+02  0.51100000000E-03 0. -1.
         11   -1    0    0    0    0 -0.00000000000E+00 -0.00000000000E+00 -0.45593999997E+02  0.45594000000E+02  0.51100000000E-03 0.  1.
    9900012    2    1    2    0    0 -0.14296358250E+02 -0.42598037077E+02  0.31835424084E+01  0.46142316919E+02  0.99999923173E+01 0.  0.
        -12    1    1    2    0    0  0.14296358250E+02  0.42598037077E+02 -0.31835424084E+01  0.45045683081E+02  0.00000000000E+00 0.  1.
         11    1    3    3    0    0 -0.72460708466E+01 -0.22321480761E+02  0.72138950677E+00  0.23479234425E+02  0.51100000000E-03 0. -1.
        -11    1    3    3    0    0 -0.29112276249E+01 -0.53212448888E+01  0.36854551225E+01  0.70974272220E+01  0.51100000000E-03 0.  1.
        -12    1    3    3    0    0 -0.41390597782E+01 -0.14955311427E+02 -0.12233022208E+01  0.15565655272E+02  0.00000000000E+00 0.  1.
</event>
<event>
 7    1  0.1476909E-008  0.4614232E+02  0.7816164E-02  0.1320468E+00
        -11   -1    0    0    0    0  0.00000000000E+00  0.00000000000E+00  0.45593999997E+02  0.45594000000E+02  0.51100000000E-03 0.  1.
         11   -1    0    0    0    0 -0.00000000000E+00 -0.00000000000E+00 -0.45593999997E+02  0.45594000000E+02  0.51100000000E-03 0. -1.
    9900012    2    1    2    0    0 -0.27025651663E+02 -0.76256074006E+00 -0.36029795515E+02  0.46142317504E+02  0.99999976581E+01 0.  0.
        -12    1    1    2    0    0  0.27025651663E+02  0.76256074006E+00  0.36029795515E+02  0.45045682496E+02  0.00000000000E+00 0.  1.
         11    1    3    3    0    0 -0.16215565511E+02 -0.35836215359E+01 -0.16234235659E+02  0.23223637007E+02  0.51100000000E-03 0. -1.
        -11    1    3    3    0    0 -0.76207735866E+01  0.31236251396E+01 -0.12747520104E+02  0.15176708903E+02  0.51100000000E-03 0.  1.
         12    1    3    3    0    0 -0.31893125657E+01 -0.30256434377E+00 -0.70480397513E+01  0.77419715939E+01  0.00000000000E+00 0. -1.
</event>
<event>
 7    1  0.1476909E-008  0.4614231E+02  0.7816164E-02  0.1320468E+00
        -11   -1    0    0    0    0  0.00000000000E+00  0.00000000000E+00  0.45593999997E+02  0.45594000000E+02  0.51100000000E-03 0.  1.
         11   -1    0    0    0    0 -0.00000000000E+00 -0.00000000000E+00 -0.45593999997E+02  0.45594000000E+02  0.51100000000E-03 0. -1.
    9900012    2    1    2    0    0  0.36470031046E+02 -0.83452383774E+01 -0.25088005202E+02  0.46142310161E+02  0.99999306924E+01 0.  0.
        -12    1    1    2    0    0 -0.36470031046E+02  0.83452383774E+01  0.25088005202E+02  0.45045689839E+02  0.00000000000E+00 0.  1.
         11    1    3    3    0    0  0.19648911886E+02 -0.36515264648E+01 -0.12447550491E+02  0.23544742456E+02  0.51100000000E-03 0. -1.
        -11    1    3    3    0    0  0.54199124738E+01 -0.30750852720E+01 -0.80989773546E+01  0.10218856839E+02  0.51100000000E-03 0.  1.
        -12    1    3    3    0    0  0.11401206686E+02 -0.16186266406E+01 -0.45414773565E+01  0.12378710865E+02  0.00000000000E+00 0.  1.
</event>
<event>
 7    1  0.1476909E-008  0.4614232E+02  0.7816164E-02  0.1320468E+00
        -11   -1    0    0    0    0  0.00000000000E+00  0.00000000000E+00  0.45593999997E+02  0.45594000000E+02  0.51100000000E-03 0.  1.
         11   -1    0    0    0    0 -0.00000000000E+00 -0.00000000000E+00 -0.45593999997E+02  0.45594000000E+02  0.51100000000E-03 0. -1.
    9900012    2    1    2    0    0  0.17815595303E+02 -0.21782863879E+02 -0.35174209600E+02  0.46142316347E+02  0.99999871070E+01 0.  0.
        -12    1    1    2    0    0 -0.17815595303E+02  0.21782863879E+02  0.35174209600E+02  0.45045683653E+02  0.00000000000E+00 0.  1.
         11    1    3    3    0    0  0.15900065846E+02 -0.17932083091E+02 -0.28778071235E+02  0.37450621920E+02  0.51100000000E-03 0. -1.
        -11    1    3    3    0    0  0.37053610366E+00 -0.29269543552E+00  0.55669343095E+00  0.72998319109E+00  0.51100000000E-03 0.  1.
        -12    1    3    3    0    0  0.15449933540E+01 -0.35580853525E+01 -0.69528317953E+01  0.79617112365E+01  0.00000000000E+00 0.  1.
</event>
<event>
 7    1  0.1476909E-008  0.4614232E+02  0.7816164E-02  0.1320468E+00
        -11   -1    0    0    0    0  0.00000000000E+00  0.00000000000E+00  0.45593999997E+02  0.45594000000E+02  0.51100000000E-03 0.  1.
         11   -1    0    0    0    0 -0.00000000000E+00 -0.00000000000E+00 -0.45593999997E+02  0.45594000000E+02  0.51100000000E-03 0. -1.
    9900012    2    1    2    0    0  0.66471635982E+01 -0.39097476534E+02 -0.21361549404E+02  0.46142320427E+02  0.10000024309E+02 0.  0.
        -12    1    1    2    0    0 -0.66471635982E+01  0.39097476534E+02  0.21361549404E+02  0.45045679573E+02  0.00000000000E+00 0.  1.
         11    1    3    3    0    0  0.11070041152E+01 -0.17313663236E+00 -0.41328401553E+00  0.11942522109E+01  0.51100000000E-03 0. -1.
        -11    1    3    3    0    0  0.10719931537E+01 -0.72186441278E+01 -0.66814393178E+01  0.98944238834E+01  0.51100000000E-03 0.  1.
         12    1    3    3    0    0  0.44681663292E+01 -0.31705695774E+02 -0.14266826071E+02  0.35053644333E+02  0.00000000000E+00 0. -1.
</event>
<event>
 7    1  0.1476909E-008  0.4614232E+02  0.7816164E-02  0.1320468E+00
        -11   -1    0    0    0    0  0.00000000000E+00  0.00000000000E+00  0.45593999997E+02  0.45594000000E+02  0.51100000000E-03 0.  1.
         11   -1    0    0    0    0 -0.00000000000E+00 -0.00000000000E+00 -0.45593999997E+02  0.45594000000E+02  0.51100000000E-03 0. -1.
    9900012    2    1    2    0    0  0.28984728345E+02  0.33451670803E+02  0.83656872159E+01  0.46142317861E+02  0.10000000911E+02 0.  0.
        -12    1    1    2    0    0 -0.28984728345E+02 -0.33451670803E+02 -0.83656872159E+01  0.45045682139E+02  0.00000000000E+00 0.  1.
         11    1    3    3    0    0  0.11746408785E+02  0.13221515729E+02  0.10909096299E+01  0.17719387168E+02  0.51100000000E-03 0. -1.
        -11    1    3    3    0    0  0.14545942561E+02  0.13660675608E+02  0.75046255765E+01  0.21319425611E+02  0.51100000000E-03 0.  1.
        -12    1    3    3    0    0  0.26923769992E+01  0.65694794659E+01 -0.22984799057E+00  0.71035050825E+01  0.00000000000E+00 0.  1.
</event>
<event>
 7    1  0.1476909E-008  0.4614232E+02  0.7816164E-02  0.1320468E+00
        -11   -1    0    0    0    0  0.00000000000E+00  0.00000000000E+00  0.45593999997E+02  0.45594000000E+02  0.51100000000E-03 0.  1.
         11   -1    0    0    0    0 -0.00000000000E+00 -0.00000000000E+00 -0.45593999997E+02  0.45594000000E+02  0.51100000000E-03 0. -1.
    9900012    2    1    2    0    0  0.88752646256E+01 -0.19844395638E+02 -0.39453049046E+02  0.46142318304E+02  0.10000004954E+02 0.  0.
        -12    1    1    2    0    0 -0.88752646256E+01  0.19844395638E+02  0.39453049046E+02  0.45045681696E+02  0.00000000000E+00 0.  1.
         11    1    3    3    0    0  0.29327621784E+01 -0.99590861822E+01 -0.18288878390E+02  0.21030158454E+02  0.51100000000E-03 0. -1.
        -11    1    3    3    0    0  0.13371712517E+01 -0.15807118236E+01 -0.11035973277E+02  0.11228507615E+02  0.51100000000E-03 0.  1.
         12    1    3    3    0    0  0.46053311955E+01 -0.83045976320E+01 -0.10128197379E+02  0.13883652236E+02  0.00000000000E+00 0. -1.
</event>
<event>
 7    1  0.1476909E-008  0.4614232E+02  0.7816164E-02  0.1320468E+00
        -11   -1    0    0    0    0  0.00000000000E+00  0.00000000000E+00  0.45593999997E+02  0.45594000000E+02  0.51100000000E-03 0.  1.
         11   -1    0    0    0    0 -0.00000000000E+00 -0.00000000000E+00 -0.45593999997E+02  0.45594000000E+02  0.51100000000E-03 0. -1.
    9900012    2    1    2    0    0  0.10406193986E+02 -0.22227743452E+02 -0.37772369535E+02  0.46142319269E+02  0.10000013749E+02 0.  0.
        -12    1    1    2    0    0 -0.10406193986E+02  0.22227743452E+02  0.37772369535E+02  0.45045680731E+02  0.00000000000E+00 0.  1.
         11    1    3    3    0    0  0.52592818122E+01 -0.75584674177E+01 -0.16870797873E+02  0.19220153382E+02  0.51100000000E-03 0. -1.
        -11    1    3    3    0    0  0.19841129290E+01 -0.13236128873E+02 -0.17768616467E+02  0.22245348796E+02  0.51100000000E-03 0.  1.
        -12    1    3    3    0    0  0.31627992447E+01 -0.14331471614E+01 -0.31329551958E+01  0.46768170915E+01  0.00000000000E+00 0.  1.
</event>
<event>
 7    1  0.1476909E-008  0.4614232E+02  0.7816164E-02  0.1320468E+00
        -11   -1    0    0    0    0  0.00000000000E+00  0.00000000000E+00  0.45593999997E+02  0.45594000000E+02  0.51100000000E-03 0. -1.
         11   -1    0    0    0    0 -0.00000000000E+00 -0.00000000000E+00 -0.45593999997E+02  0.45594000000E+02  0.51100000000E-03 0.  1.
    9900012    2    1    2    0    0  0.21982161467E+02 -0.23020578873E+02  0.31873986705E+02  0.46142317600E+02  0.99999985286E+01 0.  0.
        -12    1    1    2    0    0 -0.21982161467E+02  0.23020578873E+02 -0.31873986705E+02  0.45045682400E+02  0.00000000000E+00 0.  1.
         11    1    3    3    0    0  0.12602826114E+02 -0.85105028891E+01  0.13246076365E+02  0.20167261212E+02  0.51100000000E-03 0.  1.
        -11    1    3    3    0    0  0.23745425345E+01 -0.74952185572E+01  0.58367023843E+01  0.97920298433E+01  0.51100000000E-03 0. -1.
         12    1    3    3    0    0  0.70047928191E+01 -0.70148574263E+01  0.12791207956E+02  0.16183026544E+02  0.00000000000E+00 0. -1.
</event>
<event>
 7    1  0.1476909E-008  0.4614232E+02  0.7816164E-02  0.1320468E+00
        -11   -1    0    0    0    0  0.00000000000E+00  0.00000000000E+00  0.45593999997E+02  0.45594000000E+02  0.51100000000E-03 0.  1.
         11   -1    0    0    0    0 -0.00000000000E+00 -0.00000000000E+00 -0.45593999997E+02  0.45594000000E+02  0.51100000000E-03 0. -1.
    9900012    2    1    2    0    0 -0.89623354921E+01  0.40273616713E+02 -0.18078321338E+02  0.46142319153E+02  0.10000012690E+02 0.  0.
        -12    1    1    2    0    0  0.89623354921E+01 -0.40273616713E+02  0.18078321338E+02  0.45045680847E+02  0.00000000000E+00 0.  1.
         11    1    3    3    0    0 -0.59956479641E+01  0.18520738667E+02 -0.63305678550E+01  0.20470506708E+02  0.51100000000E-03 0. -1.
        -11    1    3    3    0    0  0.16582585087E+01  0.77183701129E+01 -0.55373072615E+01  0.96428642244E+01  0.51100000000E-03 0.  1.
         12    1    3    3    0    0 -0.46249460367E+01  0.14034507933E+02 -0.62104462218E+01  0.16028948220E+02  0.00000000000E+00 0. -1.
</event>
<event>
 7    1  0.1476909E-008  0.4614232E+02  0.7816164E-02  0.1320468E+00
        -11   -1    0    0    0    0  0.00000000000E+00  0.00000000000E+00  0.45593999997E+02  0.45594000000E+02  0.51100000000E-03 0. -1.
         11   -1    0    0    0    0 -0.00000000000E+00 -0.00000000000E+00 -0.45593999997E+02  0.45594000000E+02  0.51100000000E-03 0.  1.
    9900012    2    1    2    0    0  0.30958557303E+00 -0.45027356356E+02 -0.12469385699E+01  0.46142317417E+02  0.99999968594E+01 0.  0.
        -12    1    1    2    0    0 -0.30958557303E+00  0.45027356356E+02  0.12469385699E+01  0.45045682583E+02  0.00000000000E+00 0.  1.
         11    1    3    3    0    0  0.16431155522E+01 -0.22831008327E+02  0.28921788410E+01  0.23072049511E+02  0.51100000000E-03 0. -1.
        -11    1    3    3    0    0 -0.87373303770E+00 -0.14599122362E+01 -0.12874786098E+01  0.21336247539E+01  0.51100000000E-03 0.  1.
         12    1    3    3    0    0 -0.45979694146E+00 -0.20736435792E+02 -0.28516388010E+01  0.20936643151E+02  0.00000000000E+00 0. -1.
</event>
<event>
 7    1  0.1476909E-008  0.4614232E+02  0.7816164E-02  0.1320468E+00
        -11   -1    0    0    0    0  0.00000000000E+00  0.00000000000E+00  0.45593999997E+02  0.45594000000E+02  0.51100000000E-03 0.  1.
         11   -1    0    0    0    0 -0.00000000000E+00 -0.00000000000E+00 -0.45593999997E+02  0.45594000000E+02  0.51100000000E-03 0. -1.
    9900012    2    1    2    0    0  0.26666937457E+02 -0.30894097753E+02 -0.19066794581E+02  0.46142317799E+02  0.10000000346E+02 0.  0.
        -12    1    1    2    0    0 -0.26666937457E+02  0.30894097753E+02  0.19066794581E+02  0.45045682201E+02  0.00000000000E+00 0.  1.
         11    1    3    3    0    0  0.11585079976E+02 -0.18653906901E+02 -0.13563395499E+02  0.25809843441E+02  0.51100000000E-03 0. -1.
        -11    1    3    3    0    0  0.10367996135E+02 -0.97444753081E+01 -0.43082759806E+01  0.14866451664E+02  0.51100000000E-03 0.  1.
         12    1    3    3    0    0  0.47138613455E+01 -0.24957155445E+01 -0.11951231020E+01  0.54660226941E+01  0.00000000000E+00 0. -1.
</event>
<event>
 7    1  0.1476909E-008  0.4614232E+02  0.7816164E-02  0.1320468E+00
        -11   -1    0    0    0    0  0.00000000000E+00  0.00000000000E+00  0.45593999997E+02  0.45594000000E+02  0.51100000000E-03 0. -1.
         11   -1    0    0    0    0 -0.00000000000E+00 -0.00000000000E+00 -0.45593999997E+02  0.45594000000E+02  0.51100000000E-03 0.  1.
    9900012    2    1    2    0    0 -0.19869552803E+01  0.81314439706E+01  0.44261100585E+02  0.46142318771E+02  0.10000009213E+02 0.  0.
        -12    1    1    2    0    0  0.19869552803E+01 -0.81314439706E+01 -0.44261100585E+02  0.45045681229E+02  0.00000000000E+00 0.  1.
         11    1    3    3    0    0  0.15750905344E+00  0.63767908253E+01  0.33002200246E+02  0.33612995875E+02  0.51100000000E-03 0. -1.
        -11    1    3    3    0    0 -0.28091126710E+01 -0.44107198045E+00  0.39374700878E+01  0.48568847469E+01  0.51100000000E-03 0.  1.
        -12    1    3    3    0    0  0.66464833732E+00  0.21957251257E+01  0.73214302515E+01  0.76724381501E+01  0.00000000000E+00 0.  1.
</event>
<event>
 7    1  0.1476909E-008  0.4614232E+02  0.7816164E-02  0.1320468E+00
        -11   -1    0    0    0    0  0.00000000000E+00  0.00000000000E+00  0.45593999997E+02  0.45594000000E+02  0.51100000000E-03 0.  1.
         11   -1    0    0    0    0 -0.00000000000E+00 -0.00000000000E+00 -0.45593999997E+02  0.45594000000E+02  0.51100000000E-03 0. -1.
    9900012    2    1    2    0    0  0.29316990754E+02 -0.29064525408E+02 -0.18024447352E+02  0.46142320003E+02  0.10000020447E+02 0.  0.
        -12    1    1    2    0    0 -0.29316990754E+02  0.29064525408E+02  0.18024447352E+02  0.45045679997E+02  0.00000000000E+00 0.  1.
         11    1    3    3    0    0  0.11141152324E+02 -0.71620935244E+01 -0.48592124594E+01  0.14107898665E+02  0.51100000000E-03 0. -1.
        -11    1    3    3    0    0  0.50117703775E+01 -0.27548562427E+01 -0.43374834907E+01  0.71778017894E+01  0.51100000000E-03 0.  1.
        -12    1    3    3    0    0  0.13164068052E+02 -0.19147575641E+02 -0.88277514018E+01  0.24856619549E+02  0.00000000000E+00 0.  1.
</event>
<event>
 7    1  0.1476909E-008  0.4614232E+02  0.7816164E-02  0.1320468E+00
        -11   -1    0    0    0    0  0.00000000000E+00  0.00000000000E+00  0.45593999997E+02  0.45594000000E+02  0.51100000000E-03 0.  1.
         11   -1    0    0    0    0 -0.00000000000E+00 -0.00000000000E+00 -0.45593999997E+02  0.45594000000E+02  0.51100000000E-03 0. -1.
    9900012    2    1    2    0    0  0.24149220394E+02 -0.27663418422E+01 -0.37924609527E+02  0.46142317625E+02  0.99999987630E+01 0.  0.
        -12    1    1    2    0    0 -0.24149220394E+02  0.27663418422E+01  0.37924609527E+02  0.45045682375E+02  0.00000000000E+00 0.  1.
         11    1    3    3    0    0  0.13884496161E+02  0.27620045586E+01 -0.23238177684E+02  0.27210674471E+02  0.51100000000E-03 0. -1.
        -11    1    3    3    0    0  0.62543274233E+01 -0.47673689673E+01 -0.97310218150E+01  0.12511482894E+02  0.51100000000E-03 0.  1.
         12    1    3    3    0    0  0.40103968090E+01 -0.76097743345E+00 -0.49554100284E+01  0.64201602604E+01  0.00000000000E+00 0. -1.
</event>
<event>
 7    1  0.1476909E-008  0.4614232E+02  0.7816164E-02  0.1320468E+00
        -11   -1    0    0    0    0  0.00000000000E+00  0.00000000000E+00  0.45593999997E+02  0.45594000000E+02  0.51100000000E-03 0.  1.
         11   -1    0    0    0    0 -0.00000000000E+00 -0.00000000000E+00 -0.45593999997E+02  0.45594000000E+02  0.51100000000E-03 0. -1.
    9900012    2    1    2    0    0  0.28226379225E+02 -0.17044793438E+02 -0.30689737346E+02  0.46142318232E+02  0.10000004296E+02 0.  0.
        -12    1    1    2    0    0 -0.28226379225E+02  0.17044793438E+02  0.30689737346E+02  0.45045681768E+02  0.00000000000E+00 0.  1.
         11    1    3    3    0    0  0.69135917793E+01 -0.54186548729E+01 -0.87355773140E+01  0.12388296218E+02  0.51100000000E-03 0. -1.
        -11    1    3    3    0    0  0.36352986123E+01  0.50286695595E+00 -0.59891504589E+01  0.70241152223E+01  0.51100000000E-03 0.  1.
        -12    1    3    3    0    0  0.17677488834E+02 -0.12129005522E+02 -0.15965009574E+02  0.26729906792E+02  0.00000000000E+00 0.  1.
</event>
<event>
 7    1  0.1476909E-008  0.4614232E+02  0.7816164E-02  0.1320468E+00
        -11   -1    0    0    0    0  0.00000000000E+00  0.00000000000E+00  0.45593999997E+02  0.45594000000E+02  0.51100000000E-03 0.  1.
         11   -1    0    0    0    0 -0.00000000000E+00 -0.00000000000E+00 -0.45593999997E+02  0.45594000000E+02  0.51100000000E-03 0. -1.
    9900012    2    1    2    0    0 -0.13054398561E+02 -0.40017537003E+02 -0.16040355307E+02  0.46142316656E+02  0.99999899236E+01 0.  0.
        -12    1    1    2    0    0  0.13054398561E+02  0.40017537003E+02  0.16040355307E+02  0.45045683344E+02  0.00000000000E+00 0.  1.
         11    1    3    3    0    0 -0.24419905026E+01 -0.92212743034E+01 -0.18768595778E+01  0.97220275421E+01  0.51100000000E-03 0. -1.
        -11    1    3    3    0    0 -0.27140883302E+01 -0.19367471301E+02 -0.96872674483E+01  0.21824490164E+02  0.51100000000E-03 0.  1.
        -12    1    3    3    0    0 -0.78983197286E+01 -0.11428791399E+02 -0.44762282806E+01  0.14595798950E+02  0.00000000000E+00 0.  1.
</event>
<event>
 7    1  0.1476909E-008  0.4614232E+02  0.7816164E-02  0.1320468E+00
        -11   -1    0    0    0    0  0.00000000000E+00  0.00000000000E+00  0.45593999997E+02  0.45594000000E+02  0.51100000000E-03 0. -1.
         11   -1    0    0    0    0 -0.00000000000E+00 -0.00000000000E+00 -0.45593999997E+02  0.45594000000E+02  0.51100000000E-03 0.  1.
    9900012    2    1    2    0    0  0.44028144843E+02  0.21581459686E+01 -0.92724510356E+01  0.46142317848E+02  0.10000000795E+02 0.  0.
        -12    1    1    2    0    0 -0.44028144843E+02 -0.21581459686E+01  0.92724510356E+01  0.45045682152E+02  0.00000000000E+00 0.  1.
         11    1    3    3    0    0  0.16015122547E+02  0.38845358709E+00  0.40991791152E+00  0.16025076578E+02  0.51100000000E-03 0. -1.
        -11    1    3    3    0    0  0.26913470190E+02  0.62311235557E+00 -0.93150826462E+01  0.28486732203E+02  0.51100000000E-03 0.  1.
        -12    1    3    3    0    0  0.10995521062E+01  0.11465800259E+01 -0.36728630092E+00  0.16305090668E+01  0.00000000000E+00 0.  1.
</event>
<event>
 7    1  0.1476909E-008  0.4614232E+02  0.7816164E-02  0.1320468E+00
        -11   -1    0    0    0    0  0.00000000000E+00  0.00000000000E+00  0.45593999997E+02  0.45594000000E+02  0.51100000000E-03 0.  1.
         11   -1    0    0    0    0 -0.00000000000E+00 -0.00000000000E+00 -0.45593999997E+02  0.45594000000E+02  0.51100000000E-03 0. -1.
    9900012    2    1    2    0    0  0.15217915305E+02 -0.36055290727E+02 -0.22305707478E+02  0.46142317391E+02  0.99999966250E+01 0.  0.
        -12    1    1    2    0    0 -0.15217915305E+02  0.36055290727E+02  0.22305707478E+02  0.45045682609E+02  0.00000000000E+00 0.  1.
         11    1    3    3    0    0  0.74899054832E+01 -0.86862867105E+01 -0.57794059853E+01  0.12843356055E+02  0.51100000000E-03 0.  1.
        -11    1    3    3    0    0  0.53853087110E+01 -0.22752511724E+02 -0.15411363968E+02  0.28003365499E+02  0.51100000000E-03 0. -1.
         12    1    3    3    0    0  0.23427011104E+01 -0.46164922924E+01 -0.11149375248E+01  0.52955958364E+01  0.00000000000E+00 0. -1.
</event>
<event>
 7    1  0.1476909E-008  0.4614232E+02  0.7816164E-02  0.1320468E+00
        -11   -1    0    0    0    0  0.00000000000E+00  0.00000000000E+00  0.45593999997E+02  0.45594000000E+02  0.51100000000E-03 0.  1.
         11   -1    0    0    0    0 -0.00000000000E+00 -0.00000000000E+00 -0.45593999997E+02  0.45594000000E+02  0.51100000000E-03 0. -1.
    9900012    2    1    2    0    0  0.39585905175E+01  0.94843935068E+01 -0.43857603131E+02  0.46142317505E+02  0.99999976628E+01 0.  0.
        -12    1    1    2    0    0 -0.39585905175E+01 -0.94843935068E+01  0.43857603131E+02  0.45045682495E+02  0.00000000000E+00 0.  1.
         11    1    3    3    0    0  0.65085551404E+01  0.33118621844E+01 -0.23802834384E+02  0.24897884371E+02  0.51100000000E-03 0. -1.
        -11    1    3    3    0    0 -0.24618302057E+01  0.62755841963E+01 -0.19986249084E+02  0.21092503827E+02  0.51100000000E-03 0.  1.
         12    1    3    3    0    0 -0.88134417124E-01 -0.10305287396E+00 -0.68519662279E-01  0.15192930735E+00  0.00000000000E+00 0. -1.
</event>
<event>
 7    1  0.1476909E-008  0.4614232E+02  0.7816164E-02  0.1320468E+00
        -11   -1    0    0    0    0  0.00000000000E+00  0.00000000000E+00  0.45593999997E+02  0.45594000000E+02  0.51100000000E-03 0.  1.
         11   -1    0    0    0    0 -0.00000000000E+00 -0.00000000000E+00 -0.45593999997E+02  0.45594000000E+02  0.51100000000E-03 0. -1.
    9900012    2    1    2    0    0 -0.17437382476E+02  0.32473176855E+02 -0.25894860959E+02  0.46142319333E+02  0.10000014334E+02 0.  0.
        -12    1    1    2    0    0  0.17437382476E+02 -0.32473176855E+02  0.25894860959E+02  0.45045680667E+02  0.00000000000E+00 0.  1.
         11    1    3    3    0    0 -0.61333575097E+01  0.10336086057E+02 -0.11663949797E+02  0.16748148389E+02  0.51100000000E-03 0. -1.
        -11    1    3    3    0    0 -0.11894137763E+02  0.20194591884E+02 -0.11840940673E+02  0.26258330692E+02  0.51100000000E-03 0.  1.
        -12    1    3    3    0    0  0.59011279687E+00  0.19424989143E+01 -0.23899704896E+01  0.31358402520E+01  0.00000000000E+00 0.  1.
</event>
<event>
 7    1  0.1476909E-008  0.4614232E+02  0.7816164E-02  0.1320468E+00
        -11   -1    0    0    0    0  0.00000000000E+00  0.00000000000E+00  0.45593999997E+02  0.45594000000E+02  0.51100000000E-03 0.  1.
         11   -1    0    0    0    0 -0.00000000000E+00 -0.00000000000E+00 -0.45593999997E+02  0.45594000000E+02  0.51100000000E-03 0. -1.
    9900012    2    1    2    0    0 -0.22433843121E+02 -0.38452203554E+02 -0.68748979142E+01  0.46142317669E+02  0.99999991603E+01 0.  0.
        -12    1    1    2    0    0  0.22433843121E+02  0.38452203554E+02  0.68748979142E+01  0.45045682331E+02  0.00000000000E+00 0.  1.
         11    1    3    3    0    0 -0.13809967831E+02 -0.28064871684E+02 -0.30992996252E+01  0.31431797476E+02  0.51100000000E-03 0. -1.
        -11    1    3    3    0    0 -0.63110687235E+01 -0.58306858282E+01 -0.42362748952E+01  0.95797970181E+01  0.51100000000E-03 0.  1.
        -12    1    3    3    0    0 -0.23128065664E+01 -0.45566460421E+01  0.46067660619E+00  0.51307231753E+01  0.00000000000E+00 0.  1.
</event>
<event>
 7    1  0.1476909E-008  0.4614232E+02  0.7816164E-02  0.1320468E+00
        -11   -1    0    0    0    0  0.00000000000E+00  0.00000000000E+00  0.45593999997E+02  0.45594000000E+02  0.51100000000E-03 0. -1.
         11   -1    0    0    0    0 -0.00000000000E+00 -0.00000000000E+00 -0.45593999997E+02  0.45594000000E+02  0.51100000000E-03 0.  1.
    9900012    2    1    2    0    0 -0.43820863883E+02  0.98253084274E+01 -0.35083507970E+01  0.46142319603E+02  0.10000016795E+02 0.  0.
        -12    1    1    2    0    0  0.43820863883E+02 -0.98253084274E+01  0.35083507970E+01  0.45045680397E+02  0.00000000000E+00 0.  1.
         11    1    3    3    0    0 -0.95064843507E+01  0.36182361889E+01  0.73471133919E+00  0.10198268424E+02  0.51100000000E-03 0. -1.
        -11    1    3    3    0    0 -0.27503887771E+02  0.35257165125E+01 -0.61018813537E+01  0.28392384116E+02  0.51100000000E-03 0.  1.
        -12    1    3    3    0    0 -0.68104917608E+01  0.26813557260E+01  0.18588192175E+01  0.75516670634E+01  0.00000000000E+00 0.  1.
</event>
<event>
 7    1  0.1476909E-008  0.4614232E+02  0.7816164E-02  0.1320468E+00
        -11   -1    0    0    0    0  0.00000000000E+00  0.00000000000E+00  0.45593999997E+02  0.45594000000E+02  0.51100000000E-03 0.  1.
         11   -1    0    0    0    0 -0.00000000000E+00 -0.00000000000E+00 -0.45593999997E+02  0.45594000000E+02  0.51100000000E-03 0. -1.
    9900012    2    1    2    0    0  0.59666466936E+01 -0.64650817029E+01 -0.44178221101E+02  0.46142319033E+02  0.10000011594E+02 0.  0.
        -12    1    1    2    0    0 -0.59666466936E+01  0.64650817029E+01  0.44178221101E+02  0.45045680967E+02  0.00000000000E+00 0.  1.
         11    1    3    3    0    0  0.10401728706E+01 -0.57765264757E+01 -0.18618298931E+02  0.19521559187E+02  0.51100000000E-03 0. -1.
        -11    1    3    3    0    0  0.47247321532E+01  0.15647874745E+01 -0.20175972465E+02  0.20780796879E+02  0.51100000000E-03 0.  1.
        -12    1    3    3    0    0  0.20174166974E+00 -0.22533427017E+01 -0.53839497045E+01  0.58399629668E+01  0.00000000000E+00 0.  1.
</event>
<event>
 7    1  0.1476909E-008  0.4614232E+02  0.7816164E-02  0.1320468E+00
        -11   -1    0    0    0    0  0.00000000000E+00  0.00000000000E+00  0.45593999997E+02  0.45594000000E+02  0.51100000000E-03 0.  1.
         11   -1    0    0    0    0 -0.00000000000E+00 -0.00000000000E+00 -0.45593999997E+02  0.45594000000E+02  0.51100000000E-03 0. -1.
    9900012    2    1    2    0    0 -0.37098198438E+02  0.20414801092E+02 -0.15364664234E+02  0.46142319430E+02  0.10000015219E+02 0.  0.
        -12    1    1    2    0    0  0.37098198438E+02 -0.20414801092E+02  0.15364664234E+02  0.45045680570E+02  0.00000000000E+00 0.  1.
         11    1    3    3    0    0 -0.16103942842E+02  0.59726204511E+01 -0.71499957884E+01  0.18604612604E+02  0.51100000000E-03 0.  1.
        -11    1    3    3    0    0 -0.16120177823E+02  0.11010879729E+02 -0.32715454216E+01  0.19794004525E+02  0.51100000000E-03 0. -1.
         12    1    3    3    0    0 -0.48740777734E+01  0.34313009122E+01 -0.49431230242E+01  0.77437023008E+01  0.00000000000E+00 0. -1.
</event>
<event>
 7    1  0.1476909E-008  0.4614232E+02  0.7816164E-02  0.1320468E+00
        -11   -1    0    0    0    0  0.00000000000E+00  0.00000000000E+00  0.45593999997E+02  0.45594000000E+02  0.51100000000E-03 0.  1.
         11   -1    0    0    0    0 -0.00000000000E+00 -0.00000000000E+00 -0.45593999997E+02  0.45594000000E+02  0.51100000000E-03 0. -1.
    9900012    2    1    2    0    0 -0.24435594239E+02  0.39029846549E+01 -0.37640163549E+02  0.46142317998E+02  0.10000002159E+02 0.  0.
        -12    1    1    2    0    0  0.24435594239E+02 -0.39029846549E+01  0.37640163549E+02  0.45045682002E+02  0.00000000000E+00 0.  1.
         11    1    3    3    0    0 -0.45075585592E+01  0.11295648465E+01 -0.14500728666E+02  0.15227118342E+02  0.51100000000E-03 0. -1.
        -11    1    3    3    0    0 -0.14426282174E+02  0.33844582335E+01 -0.15116802119E+02  0.21168133632E+02  0.51100000000E-03 0.  1.
        -12    1    3    3    0    0 -0.55017535061E+01 -0.61103842504E+00 -0.80226327643E+01  0.97470660236E+01  0.00000000000E+00 0.  1.
</event>
<event>
 7    1  0.1476909E-008  0.4614232E+02  0.7816164E-02  0.1320468E+00
        -11   -1    0    0    0    0  0.00000000000E+00  0.00000000000E+00  0.45593999997E+02  0.45594000000E+02  0.51100000000E-03 0. -1.
         11   -1    0    0    0    0 -0.00000000000E+00 -0.00000000000E+00 -0.45593999997E+02  0.45594000000E+02  0.51100000000E-03 0.  1.
    9900012    2    1    2    0    0 -0.11345128907E+02  0.22213332552E+02  0.37509590875E+02  0.46142317626E+02  0.99999987669E+01 0.  0.
        -12    1    1    2    0    0  0.11345128907E+02 -0.22213332552E+02 -0.37509590875E+02  0.45045682374E+02  0.00000000000E+00 0.  1.
         11    1    3    3    0    0  0.12261108342E+01  0.24211856030E+01  0.26040436082E+01  0.37611874290E+01  0.51100000000E-03 0. -1.
        -11    1    3    3    0    0 -0.89254596599E+01  0.13407878632E+02  0.19355855538E+02  0.25181028244E+02  0.51100000000E-03 0.  1.
        -12    1    3    3    0    0 -0.36457800811E+01  0.63842683164E+01  0.15549691728E+02  0.17200101953E+02  0.00000000000E+00 0.  1.
</event>
<event>
 7    1  0.1476909E-008  0.4614232E+02  0.7816164E-02  0.1320468E+00
        -11   -1    0    0    0    0  0.00000000000E+00  0.00000000000E+00  0.45593999997E+02  0.45594000000E+02  0.51100000000E-03 0.  1.
         11   -1    0    0    0    0 -0.00000000000E+00 -0.00000000000E+00 -0.45593999997E+02  0.45594000000E+02  0.51100000000E-03 0. -1.
    9900012    2    1    2    0    0 -0.41290790368E+02 -0.69853463803E+01  0.16594849611E+02  0.46142318000E+02  0.10000002178E+02 0.  0.
        -12    1    1    2    0    0  0.41290790368E+02  0.69853463803E+01 -0.16594849611E+02  0.45045682000E+02  0.00000000000E+00 0.  1.
         11    1    3    3    0    0 -0.21549214607E+02 -0.96872977844E+00  0.65988519392E+01  0.22557746668E+02  0.51100000000E-03 0. -1.
        -11    1    3    3    0    0 -0.19953873517E+02 -0.61997495411E+01  0.93718423194E+01  0.22900336055E+02  0.51100000000E-03 0.  1.
        -12    1    3    3    0    0  0.21229775632E+00  0.18313293918E+00  0.62415535211E+00  0.68423527702E+00  0.00000000000E+00 0.  1.
</event>
<event>
 7    1  0.1476909E-008  0.4614232E+02  0.7816164E-02  0.1320468E+00
        -11   -1    0    0    0    0  0.00000000000E+00  0.00000000000E+00  0.45593999997E+02  0.45594000000E+02  0.51100000000E-03 0. -1.
         11   -1    0    0    0    0 -0.00000000000E+00 -0.00000000000E+00 -0.45593999997E+02  0.45594000000E+02  0.51100000000E-03 0.  1.
    9900012    2    1    2    0    0 -0.11809265140E+02 -0.18359264839E+02  0.39402945602E+02  0.46142317957E+02  0.10000001787E+02 0.  0.
        -12    1    1    2    0    0  0.11809265140E+02  0.18359264839E+02 -0.39402945602E+02  0.45045682043E+02  0.00000000000E+00 0.  1.
         11    1    3    3    0    0 -0.10331012232E+02 -0.17421201513E+02  0.28723541936E+02  0.35146407178E+02  0.51100000000E-03 0. -1.
        -11    1    3    3    0    0 -0.18505182843E+01 -0.11617174044E+01  0.89122729021E+01  0.91761982210E+01  0.51100000000E-03 0.  1.
         12    1    3    3    0    0  0.37226537624E+00  0.22365407829E+00  0.17671307642E+01  0.18197125583E+01  0.00000000000E+00 0. -1.
</event>
<event>
 7    1  0.1476909E-008  0.4614232E+02  0.7816164E-02  0.1320468E+00
        -11   -1    0    0    0    0  0.00000000000E+00  0.00000000000E+00  0.45593999997E+02  0.45594000000E+02  0.51100000000E-03 0.  1.
         11   -1    0    0    0    0 -0.00000000000E+00 -0.00000000000E+00 -0.45593999997E+02  0.45594000000E+02  0.51100000000E-03 0. -1.
    9900012    2    1    2    0    0 -0.33876252182E+02  0.62840699174E+01 -0.29017640454E+02  0.46142318141E+02  0.10000003462E+02 0.  0.
        -12    1    1    2    0    0  0.33876252182E+02 -0.62840699174E+01  0.29017640454E+02  0.45045681859E+02  0.00000000000E+00 0.  1.
         11    1    3    3    0    0 -0.11687044796E+02  0.56797349926E+01 -0.12927591361E+02  0.18329457829E+02  0.51100000000E-03 0. -1.
        -11    1    3    3    0    0 -0.20609224215E+02  0.65089233660E+00 -0.13094940371E+02  0.24426240955E+02  0.51100000000E-03 0.  1.
        -12    1    3    3    0    0 -0.15799831712E+01 -0.46557411808E-01 -0.29951087221E+01  0.33866193573E+01  0.00000000000E+00 0.  1.
</event>
<event>
 7    1  0.1476909E-008  0.4614232E+02  0.7816164E-02  0.1320468E+00
        -11   -1    0    0    0    0  0.00000000000E+00  0.00000000000E+00  0.45593999997E+02  0.45594000000E+02  0.51100000000E-03 0. -1.
         11   -1    0    0    0    0 -0.00000000000E+00 -0.00000000000E+00 -0.45593999997E+02  0.45594000000E+02  0.51100000000E-03 0.  1.
    9900012    2    1    2    0    0  0.17640875771E+02  0.41155267716E+02  0.49149690992E+01  0.46142317854E+02  0.10000000848E+02 0.  0.
        -12    1    1    2    0    0 -0.17640875771E+02 -0.41155267716E+02 -0.49149690992E+01  0.45045682146E+02  0.00000000000E+00 0.  1.
         11    1    3    3    0    0  0.51558613784E+01  0.94289564688E+01  0.54046654693E+01  0.12029070444E+02  0.51100000000E-03 0. -1.
        -11    1    3    3    0    0  0.35929184533E+01  0.86529922128E+01 -0.55497385545E+00  0.93856983485E+01  0.51100000000E-03 0.  1.
         12    1    3    3    0    0  0.88920959389E+01  0.23073319035E+02  0.65277485343E-01  0.24727549062E+02  0.00000000000E+00 0. -1.
</event>
<event>
 7    1  0.1476909E-008  0.4614232E+02  0.7816164E-02  0.1320468E+00
        -11   -1    0    0    0    0  0.00000000000E+00  0.00000000000E+00  0.45593999997E+02  0.45594000000E+02  0.51100000000E-03 0.  1.
         11   -1    0    0    0    0 -0.00000000000E+00 -0.00000000000E+00 -0.45593999997E+02  0.45594000000E+02  0.51100000000E-03 0. -1.
    9900012    2    1    2    0    0 -0.25204575968E+02  0.21916091389E+02 -0.30224623067E+02  0.46142317065E+02  0.99999936539E+01 0.  0.
        -12    1    1    2    0    0  0.25204575968E+02 -0.21916091389E+02  0.30224623067E+02  0.45045682935E+02  0.00000000000E+00 0.  1.
         11    1    3    3    0    0 -0.31131448642E+00  0.42559007405E+01 -0.41206494327E+01  0.59320620218E+01  0.51100000000E-03 0. -1.
        -11    1    3    3    0    0 -0.19710655773E+02  0.14376510846E+02 -0.21781985941E+02  0.32705487719E+02  0.51100000000E-03 0.  1.
         12    1    3    3    0    0 -0.51826057083E+01  0.32836798020E+01 -0.43219876935E+01  0.75047673243E+01  0.00000000000E+00 0. -1.
</event>
<event>
 7    1  0.1476909E-008  0.4614232E+02  0.7816164E-02  0.1320468E+00
        -11   -1    0    0    0    0  0.00000000000E+00  0.00000000000E+00  0.45593999997E+02  0.45594000000E+02  0.51100000000E-03 0.  1.
         11   -1    0    0    0    0 -0.00000000000E+00 -0.00000000000E+00 -0.45593999997E+02  0.45594000000E+02  0.51100000000E-03 0. -1.
    9900012    2    1    2    0    0  0.69539202685E+00  0.37385096179E+02 -0.25119404666E+02  0.46142317885E+02  0.10000001134E+02 0.  0.
        -12    1    1    2    0    0 -0.69539202685E+00 -0.37385096179E+02  0.25119404666E+02  0.45045682115E+02  0.00000000000E+00 0.  1.
         11    1    3    3    0    0 -0.32639405334E+01  0.13606163425E+02 -0.91674606263E+01  0.16727920539E+02  0.51100000000E-03 0.  1.
        -11    1    3    3    0    0  0.25249542792E+01  0.20398316697E+02 -0.15438597701E+02  0.25706361419E+02  0.51100000000E-03 0. -1.
         12    1    3    3    0    0  0.14343782811E+01  0.33806160562E+01 -0.51334633922E+00  0.37080359271E+01  0.00000000000E+00 0. -1.
</event>
<event>
 7    1  0.1476909E-008  0.4614232E+02  0.7816164E-02  0.1320468E+00
        -11   -1    0    0    0    0  0.00000000000E+00  0.00000000000E+00  0.45593999997E+02  0.45594000000E+02  0.51100000000E-03 0.  1.
         11   -1    0    0    0    0 -0.00000000000E+00 -0.00000000000E+00 -0.45593999997E+02  0.45594000000E+02  0.51100000000E-03 0. -1.
    9900012    2    1    2    0    0  0.40941974823E+02 -0.13233025428E+02 -0.13332485265E+02  0.46142318434E+02  0.10000006135E+02 0.  0.
        -12    1    1    2    0    0 -0.40941974823E+02  0.13233025428E+02  0.13332485265E+02  0.45045681566E+02  0.00000000000E+00 0.  1.
         11    1    3    3    0    0  0.97953877289E+01 -0.11927617495E+01 -0.47698943053E+01  0.10960118307E+02  0.51100000000E-03 0. -1.
        -11    1    3    3    0    0  0.19593731018E+02 -0.11051277204E+02 -0.63888896449E+01  0.23385100689E+02  0.51100000000E-03 0.  1.
        -12    1    3    3    0    0  0.11552856076E+02 -0.98898647474E+00 -0.21737013144E+01  0.11797099439E+02  0.00000000000E+00 0.  1.
</event>
<event>
 7    1  0.1476909E-008  0.4614232E+02  0.7816164E-02  0.1320468E+00
        -11   -1    0    0    0    0  0.00000000000E+00  0.00000000000E+00  0.45593999997E+02  0.45594000000E+02  0.51100000000E-03 0.  1.
         11   -1    0    0    0    0 -0.00000000000E+00 -0.00000000000E+00 -0.45593999997E+02  0.45594000000E+02  0.51100000000E-03 0. -1.
    9900012    2    1    2    0    0 -0.28428506413E+02 -0.20749840202E+02 -0.28113652577E+02  0.46142319780E+02  0.10000018410E+02 0.  0.
        -12    1    1    2    0    0  0.28428506413E+02  0.20749840202E+02  0.28113652577E+02  0.45045680220E+02  0.00000000000E+00 0.  1.
         11    1    3    3    0    0 -0.20066017760E+02 -0.16499345753E+02 -0.20978161618E+02  0.33390968002E+02  0.51100000000E-03 0. -1.
        -11    1    3    3    0    0 -0.66593377279E+01 -0.48594578417E+01 -0.40742464797E+01  0.91956834508E+01  0.51100000000E-03 0.  1.
         12    1    3    3    0    0 -0.17031509252E+01  0.60896339285E+00 -0.30612444795E+01  0.35556683269E+01  0.00000000000E+00 0. -1.
</event>
<event>
 7    1  0.1476909E-008  0.4614232E+02  0.7816164E-02  0.1320468E+00
        -11   -1    0    0    0    0  0.00000000000E+00  0.00000000000E+00  0.45593999997E+02  0.45594000000E+02  0.51100000000E-03 0.  1.
         11   -1    0    0    0    0 -0.00000000000E+00 -0.00000000000E+00 -0.45593999997E+02  0.45594000000E+02  0.51100000000E-03 0. -1.
    9900012    2    1    2    0    0 -0.35039678172E+02 -0.37032299933E+01 -0.28064577717E+02  0.46142317840E+02  0.10000000718E+02 0.  0.
        -12    1    1    2    0    0  0.35039678172E+02  0.37032299933E+01  0.28064577717E+02  0.45045682160E+02  0.00000000000E+00 0.  1.
         11    1    3    3    0    0 -0.55777890509E+01 -0.37888184983E+01 -0.80296365216E+01  0.10485320178E+02  0.51100000000E-03 0. -1.
        -11    1    3    3    0    0 -0.54181802266E+01  0.45595687414E+00 -0.33013727678E+01  0.63611033675E+01  0.51100000000E-03 0.  1.
         12    1    3    3    0    0 -0.24043708895E+02 -0.37036836918E+00 -0.16733568428E+02  0.29295894294E+02  0.00000000000E+00 0. -1.
</event>
<event>
 7    1  0.1476909E-008  0.4614232E+02  0.7816164E-02  0.1320468E+00
        -11   -1    0    0    0    0  0.00000000000E+00  0.00000000000E+00  0.45593999997E+02  0.45594000000E+02  0.51100000000E-03 0. -1.
         11   -1    0    0    0    0 -0.00000000000E+00 -0.00000000000E+00 -0.45593999997E+02  0.45594000000E+02  0.51100000000E-03 0.  1.
    9900012    2    1    2    0    0  0.36790391454E+02  0.90127668167E+01  0.24379306933E+02  0.46142317903E+02  0.10000001294E+02 0.  0.
        -12    1    1    2    0    0 -0.36790391454E+02 -0.90127668167E+01 -0.24379306933E+02  0.45045682097E+02  0.00000000000E+00 0.  1.
         11    1    3    3    0    0  0.25162534066E+02  0.91762590751E+01  0.16440498281E+02  0.31426848955E+02  0.51100000000E-03 0. -1.
        -11    1    3    3    0    0  0.61063623000E+01 -0.11220746020E+01  0.63717725563E+01  0.88964148802E+01  0.51100000000E-03 0.  1.
        -12    1    3    3    0    0  0.55214950885E+01  0.95858234358E+00  0.15670360954E+01  0.58190540679E+01  0.00000000000E+00 0.  1.
</event>
<event>
 7    1  0.1476909E-008  0.4614232E+02  0.7816164E-02  0.1320468E+00
        -11   -1    0    0    0    0  0.00000000000E+00  0.00000000000E+00  0.45593999997E+02  0.45594000000E+02  0.51100000000E-03 0.  1.
         11   -1    0    0    0    0 -0.00000000000E+00 -0.00000000000E+00 -0.45593999997E+02  0.45594000000E+02  0.51100000000E-03 0. -1.
    9900012    2    1    2    0    0 -0.84936888150E+01 -0.79362181438E+01 -0.43519962077E+02  0.46142318661E+02  0.10000008203E+02 0.  0.
        -12    1    1    2    0    0  0.84936888150E+01  0.79362181438E+01  0.43519962077E+02  0.45045681339E+02  0.00000000000E+00 0.  1.
         11    1    3    3    0    0 -0.68686346691E+01 -0.29558550210E+01 -0.33310763619E+02  0.34139745082E+02  0.51100000000E-03 0. -1.
        -11    1    3    3    0    0  0.34737864488E+00 -0.64618408993E-01  0.13732116453E+00  0.37908419256E+00  0.51100000000E-03 0.  1.
         12    1    3    3    0    0 -0.19724327908E+01 -0.49157447138E+01 -0.10346519623E+02  0.11623489387E+02  0.00000000000E+00 0. -1.
</event>
<event>
 7    1  0.1476909E-008  0.4614232E+02  0.7816164E-02  0.1320468E+00
        -11   -1    0    0    0    0  0.00000000000E+00  0.00000000000E+00  0.45593999997E+02  0.45594000000E+02  0.51100000000E-03 0.  1.
         11   -1    0    0    0    0 -0.00000000000E+00 -0.00000000000E+00 -0.45593999997E+02  0.45594000000E+02  0.51100000000E-03 0. -1.
    9900012    2    1    2    0    0 -0.19036718169E+01 -0.44298492350E+02 -0.79456289594E+01  0.46142318626E+02  0.10000007885E+02 0.  0.
        -12    1    1    2    0    0  0.19036718169E+01  0.44298492350E+02  0.79456289594E+01  0.45045681374E+02  0.00000000000E+00 0.  1.
         11    1    3    3    0    0  0.16201246981E+01 -0.23344143964E+02 -0.66703419660E+01  0.24332433575E+02  0.51100000000E-03 0. -1.
        -11    1    3    3    0    0 -0.33519229223E+01 -0.16495489287E+02 -0.28616399423E+01  0.17074118938E+02  0.51100000000E-03 0.  1.
         12    1    3    3    0    0 -0.17187359273E+00 -0.44588590994E+01  0.15863529489E+01  0.47357661132E+01  0.00000000000E+00 0. -1.
</event>
<event>
 7    1  0.1476909E-008  0.4614232E+02  0.7816164E-02  0.1320468E+00
        -11   -1    0    0    0    0  0.00000000000E+00  0.00000000000E+00  0.45593999997E+02  0.45594000000E+02  0.51100000000E-03 0.  1.
         11   -1    0    0    0    0 -0.00000000000E+00 -0.00000000000E+00 -0.45593999997E+02  0.45594000000E+02  0.51100000000E-03 0. -1.
    9900012    2    1    2    0    0  0.33387482522E+02 -0.26423895406E+02 -0.14702634511E+02  0.46142315421E+02  0.99999786643E+01 0.  0.
        -12    1    1    2    0    0 -0.33387482522E+02  0.26423895406E+02  0.14702634511E+02  0.45045684579E+02  0.00000000000E+00 0.  1.
         11    1    3    3    0    0  0.24893399091E+02 -0.21860377293E+02 -0.97164489359E+01  0.34524872105E+02  0.51100000000E-03 0. -1.
        -11    1    3    3    0    0  0.53019393728E+01 -0.24587784065E+01 -0.51510113243E+01  0.77903190107E+01  0.51100000000E-03 0.  1.
        -12    1    3    3    0    0  0.31921440580E+01 -0.21047397071E+01  0.16482574940E+00  0.38271243054E+01  0.00000000000E+00 0.  1.
</event>
<event>
 7    1  0.1476909E-008  0.4614232E+02  0.7816164E-02  0.1320468E+00
        -11   -1    0    0    0    0  0.00000000000E+00  0.00000000000E+00  0.45593999997E+02  0.45594000000E+02  0.51100000000E-03 0.  1.
         11   -1    0    0    0    0 -0.00000000000E+00 -0.00000000000E+00 -0.45593999997E+02  0.45594000000E+02  0.51100000000E-03 0. -1.
    9900012    2    1    2    0    0  0.11449533300E+02 -0.40010896360E+02 -0.17238032656E+02  0.46142318629E+02  0.10000007917E+02 0.  0.
        -12    1    1    2    0    0 -0.11449533300E+02  0.40010896360E+02  0.17238032656E+02  0.45045681371E+02  0.00000000000E+00 0.  1.
         11    1    3    3    0    0  0.11305378066E+02 -0.29039047628E+02 -0.11137380732E+02  0.33092583916E+02  0.51100000000E-03 0. -1.
        -11    1    3    3    0    0 -0.14614286450E+01 -0.52982626280E+01 -0.19207774021E+01  0.58220912609E+01  0.51100000000E-03 0.  1.
         12    1    3    3    0    0  0.16055838785E+01 -0.56735861035E+01 -0.41798745216E+01  0.72276434528E+01  0.00000000000E+00 0. -1.
</event>
<event>
 7    1  0.1476909E-008  0.4614232E+02  0.7816164E-02  0.1320468E+00
        -11   -1    0    0    0    0  0.00000000000E+00  0.00000000000E+00  0.45593999997E+02  0.45594000000E+02  0.51100000000E-03 0.  1.
         11   -1    0    0    0    0 -0.00000000000E+00 -0.00000000000E+00 -0.45593999997E+02  0.45594000000E+02  0.51100000000E-03 0. -1.
    9900012    2    1    2    0    0 -0.42901583577E+02 -0.12631323064E+02 -0.53867702639E+01  0.46142317747E+02  0.99999998709E+01 0.  0.
        -12    1    1    2    0    0  0.42901583577E+02  0.12631323064E+02  0.53867702639E+01  0.45045682253E+02  0.00000000000E+00 0.  1.
         11    1    3    3    0    0 -0.16726172203E+02 -0.52753875312E+01 -0.44218358365E+01  0.18087210471E+02  0.51100000000E-03 0. -1.
        -11    1    3    3    0    0 -0.12419132196E+02 -0.51113459569E+01 -0.35226967215E+01  0.13884167042E+02  0.51100000000E-03 0.  1.
        -12    1    3    3    0    0 -0.13756279178E+02 -0.22445895762E+01  0.25577622941E+01  0.14170940235E+02  0.00000000000E+00 0.  1.
</event>
<event>
 7    1  0.1476909E-008  0.4614232E+02  0.7816164E-02  0.1320468E+00
        -11   -1    0    0    0    0  0.00000000000E+00  0.00000000000E+00  0.45593999997E+02  0.45594000000E+02  0.51100000000E-03 0.  1.
         11   -1    0    0    0    0 -0.00000000000E+00 -0.00000000000E+00 -0.45593999997E+02  0.45594000000E+02  0.51100000000E-03 0. -1.
    9900012    2    1    2    0    0 -0.24323498962E+02  0.13078001142E+02 -0.35587170258E+02  0.46142318713E+02  0.10000008683E+02 0.  0.
        -12    1    1    2    0    0  0.24323498962E+02 -0.13078001142E+02  0.35587170258E+02  0.45045681287E+02  0.00000000000E+00 0.  1.
         11    1    3    3    0    0 -0.15586195736E+02  0.45962738766E+01 -0.15389256583E+02  0.22380447929E+02  0.51100000000E-03 0. -1.
        -11    1    3    3    0    0 -0.48416669583E+01  0.65894420496E+01 -0.13627756471E+02  0.15892710032E+02  0.51100000000E-03 0.  1.
         12    1    3    3    0    0 -0.38956362680E+01  0.18922852159E+01 -0.65701572028E+01  0.78691607520E+01  0.00000000000E+00 0. -1.
</event>
<event>
 7    1  0.1476909E-008  0.4614232E+02  0.7816164E-02  0.1320468E+00
        -11   -1    0    0    0    0  0.00000000000E+00  0.00000000000E+00  0.45593999997E+02  0.45594000000E+02  0.51100000000E-03 0.  1.
         11   -1    0    0    0    0 -0.00000000000E+00 -0.00000000000E+00 -0.45593999997E+02  0.45594000000E+02  0.51100000000E-03 0. -1.
    9900012    2    1    2    0    0  0.34247527349E+02 -0.26697922157E+02 -0.11976700629E+02  0.46142317244E+02  0.99999952801E+01 0.  0.
        -12    1    1    2    0    0 -0.34247527349E+02  0.26697922157E+02  0.11976700629E+02  0.45045682756E+02  0.00000000000E+00 0.  1.
         11    1    3    3    0    0  0.11859534623E+02 -0.42220753498E+01 -0.30290145378E+01  0.12947950072E+02  0.51100000000E-03 0. -1.
        -11    1    3    3    0    0  0.79871636898E+01 -0.76035261314E+01 -0.12106294984E+01  0.11093872970E+02  0.51100000000E-03 0.  1.
        -12    1    3    3    0    0  0.14400829037E+02 -0.14872320676E+02 -0.77370565930E+01  0.22100494202E+02  0.00000000000E+00 0.  1.
</event>
<event>
 7    1  0.1476909E-008  0.4614232E+02  0.7816164E-02  0.1320468E+00
        -11   -1    0    0    0    0  0.00000000000E+00  0.00000000000E+00  0.45593999997E+02  0.45594000000E+02  0.51100000000E-03 0.  1.
         11   -1    0    0    0    0 -0.00000000000E+00 -0.00000000000E+00 -0.45593999997E+02  0.45594000000E+02  0.51100000000E-03 0. -1.
    9900012    2    1    2    0    0  0.18018540793E+02 -0.40989871619E+02 -0.49270786275E+01  0.46142317727E+02  0.99999996909E+01 0.  0.
        -12    1    1    2    0    0 -0.18018540793E+02  0.40989871619E+02  0.49270786275E+01  0.45045682273E+02  0.00000000000E+00 0.  1.
         11    1    3    3    0    0  0.94450797063E+01 -0.25826339214E+02 -0.60690134098E+01  0.28161005875E+02  0.51100000000E-03 0. -1.
        -11    1    3    3    0    0  0.25875274650E+01 -0.29240059307E+01 -0.13482736603E+01  0.41307325245E+01  0.51100000000E-03 0.  1.
         12    1    3    3    0    0  0.59859336216E+01 -0.12239526474E+02  0.24902084426E+01  0.13850579328E+02  0.00000000000E+00 0. -1.
</event>
<event>
 7    1  0.1476909E-008  0.4614232E+02  0.7816164E-02  0.1320468E+00
        -11   -1    0    0    0    0  0.00000000000E+00  0.00000000000E+00  0.45593999997E+02  0.45594000000E+02  0.51100000000E-03 0.  1.
         11   -1    0    0    0    0 -0.00000000000E+00 -0.00000000000E+00 -0.45593999997E+02  0.45594000000E+02  0.51100000000E-03 0. -1.
    9900012    2    1    2    0    0 -0.17488948327E+02 -0.23280719686E+02 -0.34369439159E+02  0.46142316847E+02  0.99999916600E+01 0.  0.
        -12    1    1    2    0    0  0.17488948327E+02  0.23280719686E+02  0.34369439159E+02  0.45045683153E+02  0.00000000000E+00 0.  1.
         11    1    3    3    0    0 -0.10107722263E+02 -0.96043033123E+01 -0.19770800230E+02  0.24192834341E+02  0.51100000000E-03 0.  1.
        -11    1    3    3    0    0 -0.64688918937E+01 -0.12218991495E+02 -0.14758241313E+02  0.20222660616E+02  0.51100000000E-03 0. -1.
        -12    1    3    3    0    0 -0.91233417057E+00 -0.14574248790E+01  0.15960238437E+00  0.17268218895E+01  0.00000000000E+00 0.  1.
</event>
<event>
 7    1  0.1476909E-008  0.4614232E+02  0.7816164E-02  0.1320468E+00
        -11   -1    0    0    0    0  0.00000000000E+00  0.00000000000E+00  0.45593999997E+02  0.45594000000E+02  0.51100000000E-03 0. -1.
         11   -1    0    0    0    0 -0.00000000000E+00 -0.00000000000E+00 -0.45593999997E+02  0.45594000000E+02  0.51100000000E-03 0.  1.
    9900012    2    1    2    0    0 -0.65320812322E+01 -0.34583745253E+02  0.28114229566E+02  0.46142318464E+02  0.10000006410E+02 0.  0.
        -12    1    1    2    0    0  0.65320812322E+01  0.34583745253E+02 -0.28114229566E+02  0.45045681536E+02  0.00000000000E+00 0.  1.
         11    1    3    3    0    0 -0.22777971346E+01 -0.43439549723E+01  0.76379722557E+01  0.90772751984E+01  0.51100000000E-03 0. -1.
        -11    1    3    3    0    0 -0.19059039281E+01 -0.19769514807E+02  0.10756301943E+02  0.22586815120E+02  0.51100000000E-03 0.  1.
         12    1    3    3    0    0 -0.23483801695E+01 -0.10470275473E+02  0.97199553670E+01  0.14478228146E+02  0.00000000000E+00 0. -1.
</event>
<event>
 7    1  0.1476909E-008  0.4614232E+02  0.7816164E-02  0.1320468E+00
        -11   -1    0    0    0    0  0.00000000000E+00  0.00000000000E+00  0.45593999997E+02  0.45594000000E+02  0.51100000000E-03 0.  1.
         11   -1    0    0    0    0 -0.00000000000E+00 -0.00000000000E+00 -0.45593999997E+02  0.45594000000E+02  0.51100000000E-03 0. -1.
    9900012    2    1    2    0    0  0.19516287192E+02  0.38843391422E+02 -0.11807582894E+02  0.46142317225E+02  0.99999951111E+01 0.  0.
        -12    1    1    2    0    0 -0.19516287192E+02 -0.38843391422E+02  0.11807582894E+02  0.45045682775E+02  0.00000000000E+00 0.  1.
         11    1    3    3    0    0  0.17530691611E+01  0.29474816979E+01 -0.33257365929E+01  0.47771774082E+01  0.51100000000E-03 0. -1.
        -11    1    3    3    0    0  0.16074809208E+01  0.64120022718E+01  0.29940059438E+00  0.66172055296E+01  0.51100000000E-03 0.  1.
        -12    1    3    3    0    0  0.16155737110E+02  0.29483907452E+02 -0.87812468952E+01  0.34747934287E+02  0.00000000000E+00 0.  1.
</event>
<event>
 7    1  0.1476909E-008  0.4614232E+02  0.7816164E-02  0.1320468E+00
        -11   -1    0    0    0    0  0.00000000000E+00  0.00000000000E+00  0.45593999997E+02  0.45594000000E+02  0.51100000000E-03 0.  1.
         11   -1    0    0    0    0 -0.00000000000E+00 -0.00000000000E+00 -0.45593999997E+02  0.45594000000E+02  0.51100000000E-03 0. -1.
    9900012    2    1    2    0    0  0.19549990206E+02  0.29432534511E+02 -0.27939886787E+02  0.46142317871E+02  0.10000001004E+02 0.  0.
        -12    1    1    2    0    0 -0.19549990206E+02 -0.29432534511E+02  0.27939886787E+02  0.45045682129E+02  0.00000000000E+00 0.  1.
         11    1    3    3    0    0  0.12725689763E+02  0.25398524841E+02 -0.19547681323E+02  0.34483910587E+02  0.51100000000E-03 0. -1.
        -11    1    3    3    0    0  0.75165752644E+00  0.71845164858E-01 -0.35685067214E+00  0.83516071992E+00  0.51100000000E-03 0.  1.
         12    1    3    3    0    0  0.60726429166E+01  0.39621645058E+01 -0.80353547917E+01  0.10823246564E+02  0.00000000000E+00 0. -1.
</event>
<event>
 7    1  0.1476909E-008  0.4614232E+02  0.7816164E-02  0.1320468E+00
        -11   -1    0    0    0    0  0.00000000000E+00  0.00000000000E+00  0.45593999997E+02  0.45594000000E+02  0.51100000000E-03 0.  1.
         11   -1    0    0    0    0 -0.00000000000E+00 -0.00000000000E+00 -0.45593999997E+02  0.45594000000E+02  0.51100000000E-03 0. -1.
    9900012    2    1    2    0    0 -0.13292696749E+02  0.18216733040E+02 -0.38994465959E+02  0.46142317356E+02  0.99999963019E+01 0.  0.
        -12    1    1    2    0    0  0.13292696749E+02 -0.18216733040E+02  0.38994465959E+02  0.45045682644E+02  0.00000000000E+00 0.  1.
         11    1    3    3    0    0 -0.52196778692E+01  0.57069898777E+01 -0.19616957550E+02  0.21086483687E+02  0.51100000000E-03 0. -1.
        -11    1    3    3    0    0 -0.11155883839E+01  0.47148325117E+01 -0.32305290518E+01  0.58232723851E+01  0.51100000000E-03 0.  1.
        -12    1    3    3    0    0 -0.69574304959E+01  0.77949106502E+01 -0.16146979357E+02  0.19232561283E+02  0.00000000000E+00 0.  1.
</event>
<event>
 7    1  0.1476909E-008  0.4614232E+02  0.7816164E-02  0.1320468E+00
        -11   -1    0    0    0    0  0.00000000000E+00  0.00000000000E+00  0.45593999997E+02  0.45594000000E+02  0.51100000000E-03 0.  1.
         11   -1    0    0    0    0 -0.00000000000E+00 -0.00000000000E+00 -0.45593999997E+02  0.45594000000E+02  0.51100000000E-03 0. -1.
    9900012    2    1    2    0    0  0.85774964875E+01  0.19513177166E+02 -0.39683446587E+02  0.46142318052E+02  0.10000002655E+02 0.  0.
        -12    1    1    2    0    0 -0.85774964875E+01 -0.19513177166E+02  0.39683446587E+02  0.45045681948E+02  0.00000000000E+00 0.  1.
         11    1    3    3    0    0  0.66325791051E+00  0.65113427983E+00 -0.72852904318E+01  0.73443409400E+01  0.51100000000E-03 0. -1.
        -11    1    3    3    0    0  0.16924155513E+01  0.70172699125E+01 -0.68140925648E+01  0.99266411825E+01  0.51100000000E-03 0.  1.
         12    1    3    3    0    0  0.62218230257E+01  0.11844772973E+02 -0.25584063591E+02  0.28871335930E+02  0.00000000000E+00 0. -1.
</event>
<event>
 7    1  0.1476909E-008  0.4614232E+02  0.7816164E-02  0.1320468E+00
        -11   -1    0    0    0    0  0.00000000000E+00  0.00000000000E+00  0.45593999997E+02  0.45594000000E+02  0.51100000000E-03 0.  1.
         11   -1    0    0    0    0 -0.00000000000E+00 -0.00000000000E+00 -0.45593999997E+02  0.45594000000E+02  0.51100000000E-03 0. -1.
    9900012    2    1    2    0    0  0.11186737128E+02  0.28003621664E+02 -0.33462928410E+02  0.46142317725E+02  0.99999996669E+01 0.  0.
        -12    1    1    2    0    0 -0.11186737128E+02 -0.28003621664E+02  0.33462928410E+02  0.45045682275E+02  0.00000000000E+00 0.  1.
         11    1    3    3    0    0  0.19724099113E+01  0.11481115272E+01 -0.33466181701E+01  0.40507301039E+01  0.51100000000E-03 0. -1.
        -11    1    3    3    0    0 -0.54328713062E+00  0.80834984017E+01 -0.65191377755E+01  0.10398906910E+02  0.51100000000E-03 0.  1.
         12    1    3    3    0    0  0.97576143473E+01  0.18772011735E+02 -0.23597172465E+02  0.31692680711E+02  0.00000000000E+00 0. -1.
</event>
<event>
 7    1  0.1476909E-008  0.4614232E+02  0.7816164E-02  0.1320468E+00
        -11   -1    0    0    0    0  0.00000000000E+00  0.00000000000E+00  0.45593999997E+02  0.45594000000E+02  0.51100000000E-03 0.  1.
         11   -1    0    0    0    0 -0.00000000000E+00 -0.00000000000E+00 -0.45593999997E+02  0.45594000000E+02  0.51100000000E-03 0. -1.
    9900012    2    1    2    0    0  0.16190302536E+02 -0.34688386397E+01 -0.41892179913E+02  0.46142317903E+02  0.10000001294E+02 0.  0.
        -12    1    1    2    0    0 -0.16190302536E+02  0.34688386397E+01  0.41892179913E+02  0.45045682097E+02  0.00000000000E+00 0.  1.
         11    1    3    3    0    0  0.46502619497E+01  0.15244309136E-01 -0.75455235550E+01  0.88634132573E+01  0.51100000000E-03 0. -1.
        -11    1    3    3    0    0  0.45646034044E+01 -0.41628763604E+01 -0.23997994184E+02  0.24780413010E+02  0.51100000000E-03 0.  1.
        -12    1    3    3    0    0  0.69754371814E+01  0.67879341159E+00 -0.10348662174E+02  0.12498491636E+02  0.00000000000E+00 0.  1.
</event>
<event>
 7    1  0.1476909E-008  0.4614232E+02  0.7816164E-02  0.1320468E+00
        -11   -1    0    0    0    0  0.00000000000E+00  0.00000000000E+00  0.45593999997E+02  0.45594000000E+02  0.51100000000E-03 0. -1.
         11   -1    0    0    0    0 -0.00000000000E+00 -0.00000000000E+00 -0.45593999997E+02  0.45594000000E+02  0.51100000000E-03 0.  1.
    9900012    2    1    2    0    0  0.17189699500E+02 -0.40474297101E+02  0.97703049088E+01  0.46142319267E+02  0.10000013731E+02 0.  0.
        -12    1    1    2    0    0 -0.17189699500E+02  0.40474297101E+02 -0.97703049088E+01  0.45045680733E+02  0.00000000000E+00 0.  1.
         11    1    3    3    0    0  0.13058945319E+02 -0.32163933956E+02  0.59166979439E+01  0.35214514268E+02  0.51100000000E-03 0. -1.
        -11    1    3    3    0    0  0.16783659410E+00  0.48864203928E+00  0.47898562103E+00  0.70453364089E+00  0.51100000000E-03 0.  1.
         12    1    3    3    0    0  0.39629175870E+01 -0.87990051844E+01  0.33746213439E+01  0.10223271358E+02  0.00000000000E+00 0. -1.
</event>
<event>
 7    1  0.1476909E-008  0.4614232E+02  0.7816164E-02  0.1320468E+00
        -11   -1    0    0    0    0  0.00000000000E+00  0.00000000000E+00  0.45593999997E+02  0.45594000000E+02  0.51100000000E-03 0.  1.
         11   -1    0    0    0    0 -0.00000000000E+00 -0.00000000000E+00 -0.45593999997E+02  0.45594000000E+02  0.51100000000E-03 0. -1.
    9900012    2    1    2    0    0  0.11120019708E+02  0.22850407009E+02 -0.37192974867E+02  0.46142319650E+02  0.10000017222E+02 0.  0.
        -12    1    1    2    0    0 -0.11120019708E+02 -0.22850407009E+02  0.37192974867E+02  0.45045680350E+02  0.00000000000E+00 0.  1.
         11    1    3    3    0    0  0.35360246020E+01  0.10713385517E+02 -0.13772901203E+02  0.17803732952E+02  0.51100000000E-03 0. -1.
        -11    1    3    3    0    0  0.65088813247E+01  0.57077505365E+01 -0.17539007681E+02  0.19559160079E+02  0.51100000000E-03 0.  1.
        -12    1    3    3    0    0  0.10751137808E+01  0.64292709556E+01 -0.58810659827E+01  0.87794266189E+01  0.00000000000E+00 0.  1.
</event>
<event>
 7    1  0.1476909E-008  0.4614232E+02  0.7816164E-02  0.1320468E+00
        -11   -1    0    0    0    0  0.00000000000E+00  0.00000000000E+00  0.45593999997E+02  0.45594000000E+02  0.51100000000E-03 0.  1.
         11   -1    0    0    0    0 -0.00000000000E+00 -0.00000000000E+00 -0.45593999997E+02  0.45594000000E+02  0.51100000000E-03 0. -1.
    9900012    2    1    2    0    0  0.25789617238E+01 -0.31903443892E+02 -0.31695941804E+02  0.46142317603E+02  0.99999985597E+01 0.  0.
        -12    1    1    2    0    0 -0.25789617238E+01  0.31903443892E+02  0.31695941804E+02  0.45045682397E+02  0.00000000000E+00 0.  1.
         11    1    3    3    0    0 -0.16199903440E+01 -0.76376353142E+01 -0.49704385105E+01  0.92554363028E+01  0.51100000000E-03 0. -1.
        -11    1    3    3    0    0  0.97452963969E+00 -0.31046105262E+01 -0.72530918771E+01  0.79495695844E+01  0.51100000000E-03 0.  1.
        -12    1    3    3    0    0  0.32244224281E+01 -0.21161198051E+02 -0.19472411417E+02  0.28937311716E+02  0.00000000000E+00 0.  1.
</event>
<event>
 7    1  0.1476909E-008  0.4614232E+02  0.7816164E-02  0.1320468E+00
        -11   -1    0    0    0    0  0.00000000000E+00  0.00000000000E+00  0.45593999997E+02  0.45594000000E+02  0.51100000000E-03 0.  1.
         11   -1    0    0    0    0 -0.00000000000E+00 -0.00000000000E+00 -0.45593999997E+02  0.45594000000E+02  0.51100000000E-03 0. -1.
    9900012    2    1    2    0    0  0.34290732037E+02 -0.59767861678E+00 -0.29204486258E+02  0.46142317177E+02  0.99999946712E+01 0.  0.
        -12    1    1    2    0    0 -0.34290732037E+02  0.59767861678E+00  0.29204486258E+02  0.45045682823E+02  0.00000000000E+00 0.  1.
         11    1    3    3    0    0  0.12770030053E+02 -0.37018131484E+01 -0.87272908268E+01  0.15904172206E+02  0.51100000000E-03 0.  1.
        -11    1    3    3    0    0  0.15815189227E+02  0.43579433138E+01 -0.14880863120E+02  0.22148407791E+02  0.51100000000E-03 0. -1.
         12    1    3    3    0    0  0.57055127578E+01 -0.12538087822E+01 -0.55963323114E+01  0.80897371794E+01  0.00000000000E+00 0. -1.
</event>
<event>
 7    1  0.1476909E-008  0.4614232E+02  0.7816164E-02  0.1320468E+00
        -11   -1    0    0    0    0  0.00000000000E+00  0.00000000000E+00  0.45593999997E+02  0.45594000000E+02  0.51100000000E-03 0. -1.
         11   -1    0    0    0    0 -0.00000000000E+00 -0.00000000000E+00 -0.45593999997E+02  0.45594000000E+02  0.51100000000E-03 0.  1.
    9900012    2    1    2    0    0 -0.70524140757E+01 -0.16742663355E+02  0.41219657050E+02  0.46142318211E+02  0.10000004100E+02 0.  0.
        -12    1    1    2    0    0  0.70524140757E+01  0.16742663355E+02 -0.41219657050E+02  0.45045681789E+02  0.00000000000E+00 0.  1.
         11    1    3    3    0    0 -0.13979285514E+01 -0.77494455690E+01  0.21443054832E+02  0.22843220256E+02  0.51100000000E-03 0. -1.
        -11    1    3    3    0    0  0.10960235167E+01 -0.42272669854E-01  0.20448767549E+01  0.23204688603E+01  0.51100000000E-03 0.  1.
        -12    1    3    3    0    0 -0.67505090410E+01 -0.89509451161E+01  0.17731725463E+02  0.20978629094E+02  0.00000000000E+00 0.  1.
</event>
<event>
 7    1  0.1476909E-008  0.4614232E+02  0.7816164E-02  0.1320468E+00
        -11   -1    0    0    0    0  0.00000000000E+00  0.00000000000E+00  0.45593999997E+02  0.45594000000E+02  0.51100000000E-03 0.  1.
         11   -1    0    0    0    0 -0.00000000000E+00 -0.00000000000E+00 -0.45593999997E+02  0.45594000000E+02  0.51100000000E-03 0. -1.
    9900012    2    1    2    0    0 -0.11157145182E+02  0.15046450646E+02 -0.40966278505E+02  0.46142317186E+02  0.99999947530E+01 0.  0.
        -12    1    1    2    0    0  0.11157145182E+02 -0.15046450646E+02  0.40966278505E+02  0.45045682814E+02  0.00000000000E+00 0.  1.
         11    1    3    3    0    0 -0.46951659287E+01  0.20503740833E+00 -0.10092086404E+02  0.11132692023E+02  0.51100000000E-03 0. -1.
        -11    1    3    3    0    0 -0.58893367259E+01  0.13554338158E+02 -0.25690408556E+02  0.29637838350E+02  0.51100000000E-03 0.  1.
         12    1    3    3    0    0 -0.57264252696E+00  0.12870750790E+01 -0.51837835452E+01  0.53717868131E+01  0.00000000000E+00 0. -1.
</event>
<event>
 7    1  0.1476909E-008  0.4614232E+02  0.7816164E-02  0.1320468E+00
        -11   -1    0    0    0    0  0.00000000000E+00  0.00000000000E+00  0.45593999997E+02  0.45594000000E+02  0.51100000000E-03 0.  1.
         11   -1    0    0    0    0 -0.00000000000E+00 -0.00000000000E+00 -0.45593999997E+02  0.45594000000E+02  0.51100000000E-03 0. -1.
    9900012    2    1    2    0    0  0.19361686437E+02 -0.13055936409E+02 -0.38519878627E+02  0.46142318446E+02  0.10000006245E+02 0.  0.
        -12    1    1    2    0    0 -0.19361686437E+02  0.13055936409E+02  0.38519878627E+02  0.45045681554E+02  0.00000000000E+00 0.  1.
         11    1    3    3    0    0  0.96414723818E+01 -0.64851464986E+01 -0.12675143869E+02  0.17195184999E+02  0.51100000000E-03 0. -1.
        -11    1    3    3    0    0 -0.35095376132E+00 -0.52528078338E+00 -0.87304276371E-01  0.63773877235E+00  0.51100000000E-03 0.  1.
         12    1    3    3    0    0  0.10071167817E+02 -0.60455091271E+01 -0.25757430482E+02  0.28309394674E+02  0.00000000000E+00 0. -1.
</event>
<event>
 7    1  0.1476909E-008  0.4614232E+02  0.7816164E-02  0.1320468E+00
        -11   -1    0    0    0    0  0.00000000000E+00  0.00000000000E+00  0.45593999997E+02  0.45594000000E+02  0.51100000000E-03 0.  1.
         11   -1    0    0    0    0 -0.00000000000E+00 -0.00000000000E+00 -0.45593999997E+02  0.45594000000E+02  0.51100000000E-03 0. -1.
    9900012    2    1    2    0    0  0.20536329964E+02 -0.37440036273E+02 -0.14339327856E+02  0.46142317766E+02  0.10000000047E+02 0.  0.
        -12    1    1    2    0    0 -0.20536329964E+02  0.37440036273E+02  0.14339327856E+02  0.45045682234E+02  0.00000000000E+00 0.  1.
         11    1    3    3    0    0  0.28368202459E+01 -0.27942701434E+01  0.10029196605E+01  0.41062565492E+01  0.51100000000E-03 0.  1.
        -11    1    3    3    0    0  0.14689128288E+02 -0.28941507426E+02 -0.14440819067E+02  0.35523493599E+02  0.51100000000E-03 0. -1.
        -12    1    3    3    0    0  0.30103814309E+01 -0.57042587042E+01 -0.90142844915E+00  0.65125676176E+01  0.00000000000E+00 0.  1.
</event>
<event>
 7    1  0.1476909E-008  0.4614232E+02  0.7816164E-02  0.1320468E+00
        -11   -1    0    0    0    0  0.00000000000E+00  0.00000000000E+00  0.45593999997E+02  0.45594000000E+02  0.51100000000E-03 0. -1.
         11   -1    0    0    0    0 -0.00000000000E+00 -0.00000000000E+00 -0.45593999997E+02  0.45594000000E+02  0.51100000000E-03 0.  1.
    9900012    2    1    2    0    0  0.44527128887E+02  0.32525313428E+01 -0.59890971898E+01  0.46142318162E+02  0.10000003659E+02 0.  0.
        -12    1    1    2    0    0 -0.44527128887E+02 -0.32525313428E+01  0.59890971898E+01  0.45045681838E+02  0.00000000000E+00 0.  1.
         11    1    3    3    0    0  0.12142815679E+02  0.45844834993E+00  0.51250815877E+00  0.12162270034E+02  0.51100000000E-03 0. -1.
        -11    1    3    3    0    0  0.20585898577E+02  0.48500989336E+01 -0.60393268393E+01  0.21994911884E+02  0.51100000000E-03 0.  1.
        -12    1    3    3    0    0  0.11798414631E+02 -0.20560159408E+01 -0.46227850935E+00  0.11985136244E+02  0.00000000000E+00 0.  1.
</event>
<event>
 7    1  0.1476909E-008  0.4614232E+02  0.7816164E-02  0.1320468E+00
        -11   -1    0    0    0    0  0.00000000000E+00  0.00000000000E+00  0.45593999997E+02  0.45594000000E+02  0.51100000000E-03 0.  1.
         11   -1    0    0    0    0 -0.00000000000E+00 -0.00000000000E+00 -0.45593999997E+02  0.45594000000E+02  0.51100000000E-03 0. -1.
    9900012    2    1    2    0    0 -0.72812145154E+00  0.40114664042E+02 -0.20479186973E+02  0.46142317286E+02  0.99999956685E+01 0.  0.
        -12    1    1    2    0    0  0.72812145154E+00 -0.40114664042E+02  0.20479186973E+02  0.45045682714E+02  0.00000000000E+00 0.  1.
         11    1    3    3    0    0  0.18191005803E+01  0.14021808749E+02 -0.63951002856E+01  0.15518297440E+02  0.51100000000E-03 0. -1.
        -11    1    3    3    0    0 -0.36345578927E+01  0.19781115120E+02 -0.75727291282E+01  0.21490666652E+02  0.51100000000E-03 0.  1.
         12    1    3    3    0    0  0.10873358608E+01  0.63117401736E+01 -0.65113575593E+01  0.91333531936E+01  0.00000000000E+00 0. -1.
</event>
<event>
 7    1  0.1476909E-008  0.4614232E+02  0.7816164E-02  0.1320468E+00
        -11   -1    0    0    0    0  0.00000000000E+00  0.00000000000E+00  0.45593999997E+02  0.45594000000E+02  0.51100000000E-03 0.  1.
         11   -1    0    0    0    0 -0.00000000000E+00 -0.00000000000E+00 -0.45593999997E+02  0.45594000000E+02  0.51100000000E-03 0. -1.
    9900012    2    1    2    0    0 -0.43053482920E+02  0.86155629990E+01 -0.10063945690E+02  0.46142319628E+02  0.10000017022E+02 0.  0.
        -12    1    1    2    0    0  0.43053482920E+02 -0.86155629990E+01  0.10063945690E+02  0.45045680372E+02  0.00000000000E+00 0.  1.
         11    1    3    3    0    0 -0.25229015138E+02  0.69195445075E+01 -0.28879028165E+01  0.26319636851E+02  0.51100000000E-03 0. -1.
        -11    1    3    3    0    0 -0.40922069827E+01  0.56606203335E+00 -0.38527155615E+01  0.56488938452E+01  0.51100000000E-03 0.  1.
         12    1    3    3    0    0 -0.13732260799E+02  0.11299564582E+01 -0.33233273123E+01  0.14173788931E+02  0.00000000000E+00 0. -1.
</event>
<event>
 7    1  0.1476909E-008  0.4614232E+02  0.7816164E-02  0.1320468E+00
        -11   -1    0    0    0    0  0.00000000000E+00  0.00000000000E+00  0.45593999997E+02  0.45594000000E+02  0.51100000000E-03 0.  1.
         11   -1    0    0    0    0 -0.00000000000E+00 -0.00000000000E+00 -0.45593999997E+02  0.45594000000E+02  0.51100000000E-03 0. -1.
    9900012    2    1    2    0    0 -0.31481343021E+02 -0.32214379497E+02  0.52178543401E+00  0.46142318022E+02  0.10000002382E+02 0.  0.
        -12    1    1    2    0    0  0.31481343021E+02  0.32214379497E+02 -0.52178543401E+00  0.45045681978E+02  0.00000000000E+00 0.  1.
         11    1    3    3    0    0 -0.99938385665E+00 -0.40308857864E+01  0.16400420925E+01  0.44650360180E+01  0.51100000000E-03 0. -1.
        -11    1    3    3    0    0 -0.11886445756E+02 -0.10069251021E+02 -0.19774986397E+01  0.15703117842E+02  0.51100000000E-03 0.  1.
         12    1    3    3    0    0 -0.18595513408E+02 -0.18114242690E+02  0.85924198112E+00  0.25974164162E+02  0.00000000000E+00 0. -1.
</event>
<event>
 7    1  0.1476909E-008  0.4614232E+02  0.7816164E-02  0.1320468E+00
        -11   -1    0    0    0    0  0.00000000000E+00  0.00000000000E+00  0.45593999997E+02  0.45594000000E+02  0.51100000000E-03 0. -1.
         11   -1    0    0    0    0 -0.00000000000E+00 -0.00000000000E+00 -0.45593999997E+02  0.45594000000E+02  0.51100000000E-03 0.  1.
    9900012    2    1    2    0    0  0.12679821942E+02  0.35364256110E+02  0.24853669963E+02  0.46142318683E+02  0.10000008408E+02 0.  0.
        -12    1    1    2    0    0 -0.12679821942E+02 -0.35364256110E+02 -0.24853669963E+02  0.45045681317E+02  0.00000000000E+00 0.  1.
         11    1    3    3    0    0  0.87734488225E+01  0.19413231893E+02  0.14884896308E+02  0.25988595867E+02  0.51100000000E-03 0. -1.
        -11    1    3    3    0    0  0.72323514197E+00  0.97975665603E+01  0.28707041668E+01  0.10235053603E+02  0.51100000000E-03 0.  1.
        -12    1    3    3    0    0  0.31831379778E+01  0.61534576565E+01  0.70980694882E+01  0.99186692140E+01  0.00000000000E+00 0.  1.
</event>
<event>
 7    1  0.1476909E-008  0.4614232E+02  0.7816164E-02  0.1320468E+00
        -11   -1    0    0    0    0  0.00000000000E+00  0.00000000000E+00  0.45593999997E+02  0.45594000000E+02  0.51100000000E-03 0.  1.
         11   -1    0    0    0    0 -0.00000000000E+00 -0.00000000000E+00 -0.45593999997E+02  0.45594000000E+02  0.51100000000E-03 0. -1.
    9900012    2    1    2    0    0 -0.12243250753E+01  0.43392611163E+02  0.12028960611E+02  0.46142316868E+02  0.99999918556E+01 0.  0.
        -12    1    1    2    0    0  0.12243250753E+01 -0.43392611163E+02 -0.12028960611E+02  0.45045683132E+02  0.00000000000E+00 0.  1.
         11    1    3    3    0    0 -0.69127601216E+00  0.18766489248E+02  0.97622618043E+01  0.21165082967E+02  0.51100000000E-03 0. -1.
        -11    1    3    3    0    0  0.67862373410E+00  0.14977983830E+02  0.32455407706E-02  0.14993349879E+02  0.51100000000E-03 0.  1.
         12    1    3    3    0    0 -0.12116727972E+01  0.96481380851E+01  0.22634532656E+01  0.99838840219E+01  0.00000000000E+00 0. -1.
</event>
<event>
 7    1  0.1476909E-008  0.4614232E+02  0.7816164E-02  0.1320468E+00
        -11   -1    0    0    0    0  0.00000000000E+00  0.00000000000E+00  0.45593999997E+02  0.45594000000E+02  0.51100000000E-03 0.  1.
         11   -1    0    0    0    0 -0.00000000000E+00 -0.00000000000E+00 -0.45593999997E+02  0.45594000000E+02  0.51100000000E-03 0. -1.
    9900012    2    1    2    0    0 -0.85963405415E+01 -0.15435887652E+02 -0.41436093110E+02  0.46142317515E+02  0.99999977583E+01 0.  0.
        -12    1    1    2    0    0  0.85963405415E+01  0.15435887652E+02  0.41436093110E+02  0.45045682485E+02  0.00000000000E+00 0.  1.
         11    1    3    3    0    0 -0.99702790000E+01 -0.15413633841E+02 -0.35308301153E+02  0.39795259794E+02  0.51100000000E-03 0. -1.
        -11    1    3    3    0    0  0.31519255573E+00 -0.19334361442E+00 -0.33347139412E+01  0.33551520728E+01  0.51100000000E-03 0.  1.
         12    1    3    3    0    0  0.10587459028E+01  0.17108980305E+00 -0.27930780156E+01  0.29919056484E+01  0.00000000000E+00 0. -1.
</event>
<event>
 7    1  0.1476909E-008  0.4614232E+02  0.7816164E-02  0.1320468E+00
        -11   -1    0    0    0    0  0.00000000000E+00  0.00000000000E+00  0.45593999997E+02  0.45594000000E+02  0.51100000000E-03 0.  1.
         11   -1    0    0    0    0 -0.00000000000E+00 -0.00000000000E+00 -0.45593999997E+02  0.45594000000E+02  0.51100000000E-03 0. -1.
    9900012    2    1    2    0    0  0.31091208989E+02  0.31449281193E+02 -0.85669675828E+01  0.46142317660E+02  0.99999990745E+01 0.  0.
        -12    1    1    2    0    0 -0.31091208989E+02 -0.31449281193E+02  0.85669675828E+01  0.45045682340E+02  0.00000000000E+00 0.  1.
         11    1    3    3    0    0  0.15568134465E+02  0.11787669838E+02 -0.60077247858E+01  0.20430583160E+02  0.51100000000E-03 0. -1.
        -11    1    3    3    0    0  0.84907018926E+01  0.14702253708E+02 -0.18042290915E+01  0.17073474327E+02  0.51100000000E-03 0.  1.
        -12    1    3    3    0    0  0.70323726322E+01  0.49593576473E+01 -0.75501370551E+00  0.86382601725E+01  0.00000000000E+00 0.  1.
</event>
<event>
 7    1  0.1476909E-008  0.4614232E+02  0.7816164E-02  0.1320468E+00
        -11   -1    0    0    0    0  0.00000000000E+00  0.00000000000E+00  0.45593999997E+02  0.45594000000E+02  0.51100000000E-03 0.  1.
         11   -1    0    0    0    0 -0.00000000000E+00 -0.00000000000E+00 -0.45593999997E+02  0.45594000000E+02  0.51100000000E-03 0. -1.
    9900012    2    1    2    0    0 -0.82538046725E+01 -0.21591965800E+02 -0.38662324172E+02  0.46142316643E+02  0.99999898035E+01 0.  0.
        -12    1    1    2    0    0  0.82538046725E+01  0.21591965800E+02  0.38662324172E+02  0.45045683357E+02  0.00000000000E+00 0.  1.
         11    1    3    3    0    0 -0.43574386662E+01 -0.74729229283E+01 -0.19600843639E+02  0.21424866871E+02  0.51100000000E-03 0. -1.
        -11    1    3    3    0    0  0.60508438415E+00 -0.69645714735E+01 -0.63016891595E+01  0.94118366669E+01  0.51100000000E-03 0.  1.
        -12    1    3    3    0    0 -0.45014503905E+01 -0.71544713986E+01 -0.12759791374E+02  0.15305613105E+02  0.00000000000E+00 0.  1.
</event>
<event>
 7    1  0.1476909E-008  0.4614232E+02  0.7816164E-02  0.1320468E+00
        -11   -1    0    0    0    0  0.00000000000E+00  0.00000000000E+00  0.45593999997E+02  0.45594000000E+02  0.51100000000E-03 0. -1.
         11   -1    0    0    0    0 -0.00000000000E+00 -0.00000000000E+00 -0.45593999997E+02  0.45594000000E+02  0.51100000000E-03 0.  1.
    9900012    2    1    2    0    0 -0.17229217083E+01 -0.44847934791E+02 -0.38480860327E+01  0.46142317851E+02  0.10000000816E+02 0.  0.
        -12    1    1    2    0    0  0.17229217083E+01  0.44847934791E+02  0.38480860327E+01  0.45045682149E+02  0.00000000000E+00 0.  1.
         11    1    3    3    0    0 -0.20235912190E+01 -0.18442275858E+02 -0.12980893441E+01  0.18598319721E+02  0.51100000000E-03 0. -1.
        -11    1    3    3    0    0  0.14209860453E+00 -0.10785376631E+02 -0.47182981251E+01  0.11773142255E+02  0.51100000000E-03 0.  1.
        -12    1    3    3    0    0  0.15857090617E+00 -0.15620282301E+02  0.21683014365E+01  0.15770855874E+02  0.00000000000E+00 0.  1.
</event>
<event>
 7    1  0.1476909E-008  0.4614232E+02  0.7816164E-02  0.1320468E+00
        -11   -1    0    0    0    0  0.00000000000E+00  0.00000000000E+00  0.45593999997E+02  0.45594000000E+02  0.51100000000E-03 0.  1.
         11   -1    0    0    0    0 -0.00000000000E+00 -0.00000000000E+00 -0.45593999997E+02  0.45594000000E+02  0.51100000000E-03 0. -1.
    9900012    2    1    2    0    0 -0.27560157981E+02 -0.21253977092E+02 -0.28597545402E+02  0.46142318152E+02  0.10000003563E+02 0.  0.
        -12    1    1    2    0    0  0.27560157981E+02  0.21253977092E+02  0.28597545402E+02  0.45045681848E+02  0.00000000000E+00 0.  1.
         11    1    3    3    0    0 -0.15943388682E+02 -0.17861216194E+02 -0.18101863153E+02  0.30014865258E+02  0.51100000000E-03 0. -1.
        -11    1    3    3    0    0 -0.78539381892E+01 -0.30575408957E+01 -0.78292415914E+01  0.11503474500E+02  0.51100000000E-03 0.  1.
         12    1    3    3    0    0 -0.37628311095E+01 -0.33522000257E+00 -0.26664406577E+01  0.46239783942E+01  0.00000000000E+00 0. -1.
</event>
<event>
 7    1  0.1476909E-008  0.4614232E+02  0.7816164E-02  0.1320468E+00
        -11   -1    0    0    0    0  0.00000000000E+00  0.00000000000E+00  0.45593999997E+02  0.45594000000E+02  0.51100000000E-03 0. -1.
         11   -1    0    0    0    0 -0.00000000000E+00 -0.00000000000E+00 -0.45593999997E+02  0.45594000000E+02  0.51100000000E-03 0.  1.
    9900012    2    1    2    0    0 -0.19672182133E+02 -0.38251251697E+02  0.13377605992E+02  0.46142319315E+02  0.10000014174E+02 0.  0.
        -12    1    1    2    0    0  0.19672182133E+02  0.38251251697E+02 -0.13377605992E+02  0.45045680685E+02  0.00000000000E+00 0.  1.
         11    1    3    3    0    0 -0.11971038745E+02 -0.18575095563E+02  0.93089851251E+01  0.23979098151E+02  0.51100000000E-03 0. -1.
        -11    1    3    3    0    0  0.17921333866E+00 -0.17583586819E+00 -0.57222695873E+00  0.62488369055E+00  0.51100000000E-03 0.  1.
        -12    1    3    3    0    0 -0.78803567267E+01 -0.19500320266E+02  0.46408478261E+01  0.21538337474E+02  0.00000000000E+00 0.  1.
</event>
<event>
 7    1  0.1476909E-008  0.4614232E+02  0.7816164E-02  0.1320468E+00
        -11   -1    0    0    0    0  0.00000000000E+00  0.00000000000E+00  0.45593999997E+02  0.45594000000E+02  0.51100000000E-03 0.  1.
         11   -1    0    0    0    0 -0.00000000000E+00 -0.00000000000E+00 -0.45593999997E+02  0.45594000000E+02  0.51100000000E-03 0. -1.
    9900012    2    1    2    0    0 -0.15132792975E+02 -0.34509914025E+01 -0.42287146386E+02  0.46142317472E+02  0.99999973666E+01 0.  0.
        -12    1    1    2    0    0  0.15132792975E+02  0.34509914025E+01  0.42287146386E+02  0.45045682528E+02  0.00000000000E+00 0.  1.
         11    1    3    3    0    0 -0.20929691967E+01  0.25748429898E+01 -0.63128676406E+01  0.71318044414E+01  0.51100000000E-03 0. -1.
        -11    1    3    3    0    0 -0.78279149312E+01 -0.30299985064E+01 -0.14967825747E+02  0.17160796921E+02  0.51100000000E-03 0.  1.
         12    1    3    3    0    0 -0.52119088469E+01 -0.29958358858E+01 -0.21006452999E+02  0.21849716110E+02  0.00000000000E+00 0. -1.
</event>
<event>
 7    1  0.1476909E-008  0.4614232E+02  0.7816164E-02  0.1320468E+00
        -11   -1    0    0    0    0  0.00000000000E+00  0.00000000000E+00  0.45593999997E+02  0.45594000000E+02  0.51100000000E-03 0.  1.
         11   -1    0    0    0    0 -0.00000000000E+00 -0.00000000000E+00 -0.45593999997E+02  0.45594000000E+02  0.51100000000E-03 0. -1.
    9900012    2    1    2    0    0 -0.32150901629E+02 -0.25808272684E+02 -0.18148449296E+02  0.46142316230E+02  0.99999860367E+01 0.  0.
        -12    1    1    2    0    0  0.32150901629E+02  0.25808272684E+02  0.18148449296E+02  0.45045683770E+02  0.00000000000E+00 0.  1.
         11    1    3    3    0    0 -0.16913109265E+02 -0.12847043192E+02 -0.66943390411E+01  0.22269125696E+02  0.51100000000E-03 0. -1.
        -11    1    3    3    0    0 -0.12086084005E+01 -0.40574410443E+01 -0.14353181107E+01  0.44703132366E+01  0.51100000000E-03 0.  1.
        -12    1    3    3    0    0 -0.14029183964E+02 -0.89037884469E+01 -0.10018792144E+02  0.19402877298E+02  0.00000000000E+00 0.  1.
</event>
<event>
 7    1  0.1476909E-008  0.4614232E+02  0.7816164E-02  0.1320468E+00
        -11   -1    0    0    0    0  0.00000000000E+00  0.00000000000E+00  0.45593999997E+02  0.45594000000E+02  0.51100000000E-03 0. -1.
         11   -1    0    0    0    0 -0.00000000000E+00 -0.00000000000E+00 -0.45593999997E+02  0.45594000000E+02  0.51100000000E-03 0.  1.
    9900012    2    1    2    0    0 -0.38234456380E+02  0.15031149271E+02  0.18474428035E+02  0.46142316585E+02  0.99999892750E+01 0.  0.
        -12    1    1    2    0    0  0.38234456380E+02 -0.15031149271E+02 -0.18474428035E+02  0.45045683415E+02  0.00000000000E+00 0.  1.
         11    1    3    3    0    0 -0.86070507614E+01  0.22221114054E+01  0.83313285747E+01  0.12183190797E+02  0.51100000000E-03 0. -1.
        -11    1    3    3    0    0 -0.14976693310E+02  0.71761981258E+01  0.38452870101E+01  0.17046565475E+02  0.51100000000E-03 0.  1.
        -12    1    3    3    0    0 -0.14650712309E+02  0.56328397402E+01  0.62978124502E+01  0.16912560313E+02  0.00000000000E+00 0.  1.
</event>
<event>
 7    1  0.1476909E-008  0.4614232E+02  0.7816164E-02  0.1320468E+00
        -11   -1    0    0    0    0  0.00000000000E+00  0.00000000000E+00  0.45593999997E+02  0.45594000000E+02  0.51100000000E-03 0.  1.
         11   -1    0    0    0    0 -0.00000000000E+00 -0.00000000000E+00 -0.45593999997E+02  0.45594000000E+02  0.51100000000E-03 0. -1.
    9900012    2    1    2    0    0 -0.15175212355E+02  0.38284958910E+02 -0.18250699869E+02  0.46142321024E+02  0.10000029751E+02 0.  0.
        -12    1    1    2    0    0  0.15175212355E+02 -0.38284958910E+02  0.18250699869E+02  0.45045678976E+02  0.00000000000E+00 0.  1.
         11    1    3    3    0    0 -0.12650722728E+01  0.10460193457E+02 -0.13481212585E+01  0.10622310775E+02  0.51100000000E-03 0. -1.
        -11    1    3    3    0    0 -0.12745279268E+02  0.23352663144E+02 -0.14004898933E+02  0.30065365688E+02  0.51100000000E-03 0.  1.
         12    1    3    3    0    0 -0.11648608138E+01  0.44721023089E+01 -0.28976796777E+01  0.54546445614E+01  0.00000000000E+00 0. -1.
</event>
<event>
 7    1  0.1476909E-008  0.4614232E+02  0.7816164E-02  0.1320468E+00
        -11   -1    0    0    0    0  0.00000000000E+00  0.00000000000E+00  0.45593999997E+02  0.45594000000E+02  0.51100000000E-03 0.  1.
         11   -1    0    0    0    0 -0.00000000000E+00 -0.00000000000E+00 -0.45593999997E+02  0.45594000000E+02  0.51100000000E-03 0. -1.
    9900012    2    1    2    0    0  0.14023330796E+02  0.29367906200E+02 -0.31144593774E+02  0.46142318270E+02  0.10000004638E+02 0.  0.
        -12    1    1    2    0    0 -0.14023330796E+02 -0.29367906200E+02  0.31144593774E+02  0.45045681730E+02  0.00000000000E+00 0.  1.
         11    1    3    3    0    0  0.65338753756E+01  0.14510944525E+02 -0.10663729282E+02  0.19156569653E+02  0.51100000000E-03 0. -1.
        -11    1    3    3    0    0  0.68378267874E+01  0.76692852965E+01 -0.13277945256E+02  0.16789212090E+02  0.51100000000E-03 0.  1.
         12    1    3    3    0    0  0.65162863288E+00  0.71876763787E+01 -0.72029192367E+01  0.10196536526E+02  0.00000000000E+00 0. -1.
</event>
<event>
 7    1  0.1476909E-008  0.4614232E+02  0.7816164E-02  0.1320468E+00
        -11   -1    0    0    0    0  0.00000000000E+00  0.00000000000E+00  0.45593999997E+02  0.45594000000E+02  0.51100000000E-03 0. -1.
         11   -1    0    0    0    0 -0.00000000000E+00 -0.00000000000E+00 -0.45593999997E+02  0.45594000000E+02  0.51100000000E-03 0.  1.
    9900012    2    1    2    0    0  0.27248987753E+01 -0.28608948017E+02  0.34687411289E+02  0.46142317832E+02  0.10000000651E+02 0.  0.
        -12    1    1    2    0    0 -0.27248987753E+01  0.28608948017E+02 -0.34687411289E+02  0.45045682168E+02  0.00000000000E+00 0.  1.
         11    1    3    3    0    0 -0.11858509766E+00 -0.10522869138E+02  0.15154796552E+02  0.18450276316E+02  0.51100000000E-03 0. -1.
        -11    1    3    3    0    0  0.21778337166E+01 -0.73290833958E+01  0.13021761853E+02  0.15100486917E+02  0.51100000000E-03 0.  1.
        -12    1    3    3    0    0  0.66565015642E+00 -0.10756995483E+02  0.65108528842E+01  0.12591554600E+02  0.00000000000E+00 0.  1.
</event>
<event>
 7    1  0.1476909E-008  0.4614232E+02  0.7816164E-02  0.1320468E+00
        -11   -1    0    0    0    0  0.00000000000E+00  0.00000000000E+00  0.45593999997E+02  0.45594000000E+02  0.51100000000E-03 0. -1.
         11   -1    0    0    0    0 -0.00000000000E+00 -0.00000000000E+00 -0.45593999997E+02  0.45594000000E+02  0.51100000000E-03 0.  1.
    9900012    2    1    2    0    0  0.47159563741E+00  0.43013482424E+02 -0.13369045661E+02  0.46142318137E+02  0.10000003426E+02 0.  0.
        -12    1    1    2    0    0 -0.47159563741E+00 -0.43013482424E+02  0.13369045661E+02  0.45045681863E+02  0.00000000000E+00 0.  1.
         11    1    3    3    0    0  0.15320869662E+01  0.15217869839E+02 -0.10368535097E+01  0.15329902751E+02  0.51100000000E-03 0. -1.
        -11    1    3    3    0    0 -0.28678967919E+01  0.17057029942E+02 -0.84624444947E+01  0.19255650328E+02  0.51100000000E-03 0.  1.
        -12    1    3    3    0    0  0.18074054630E+01  0.10738582643E+02 -0.38697476562E+01  0.11556765058E+02  0.00000000000E+00 0.  1.
</event>
<event>
 7    1  0.1476909E-008  0.4614232E+02  0.7816164E-02  0.1320468E+00
        -11   -1    0    0    0    0  0.00000000000E+00  0.00000000000E+00  0.45593999997E+02  0.45594000000E+02  0.51100000000E-03 0.  1.
         11   -1    0    0    0    0 -0.00000000000E+00 -0.00000000000E+00 -0.45593999997E+02  0.45594000000E+02  0.51100000000E-03 0. -1.
    9900012    2    1    2    0    0 -0.40357502468E+02 -0.19403770004E+02 -0.48866473232E+01  0.46142316324E+02  0.99999868916E+01 0.  0.
        -12    1    1    2    0    0  0.40357502468E+02  0.19403770004E+02  0.48866473232E+01  0.45045683676E+02  0.00000000000E+00 0.  1.
         11    1    3    3    0    0 -0.67127867719E-01 -0.15065568251E+01 -0.40685381018E+00  0.15619698787E+01  0.51100000000E-03 0. -1.
        -11    1    3    3    0    0 -0.27785574188E+02 -0.14225170603E+02 -0.17470963517E+01  0.31264132125E+02  0.51100000000E-03 0.  1.
         12    1    3    3    0    0 -0.12504800412E+02 -0.36720425767E+01 -0.27326971613E+01  0.13316214320E+02  0.00000000000E+00 0. -1.
</event>
<event>
 7    1  0.1476909E-008  0.4614232E+02  0.7816164E-02  0.1320468E+00
        -11   -1    0    0    0    0  0.00000000000E+00  0.00000000000E+00  0.45593999997E+02  0.45594000000E+02  0.51100000000E-03 0.  1.
         11   -1    0    0    0    0 -0.00000000000E+00 -0.00000000000E+00 -0.45593999997E+02  0.45594000000E+02  0.51100000000E-03 0. -1.
    9900012    2    1    2    0    0  0.16102592324E+02 -0.17413012973E+02 -0.38296302918E+02  0.46142319657E+02  0.10000017289E+02 0.  0.
        -12    1    1    2    0    0 -0.16102592324E+02  0.17413012973E+02  0.38296302918E+02  0.45045680343E+02  0.00000000000E+00 0.  1.
         11    1    3    3    0    0  0.46915779026E+01 -0.96688117025E+01 -0.16030125518E+02  0.19299268052E+02  0.51100000000E-03 0. -1.
        -11    1    3    3    0    0  0.50928826634E+01 -0.17121150369E+01 -0.13208397043E+02  0.14259401966E+02  0.51100000000E-03 0.  1.
         12    1    3    3    0    0  0.63181317577E+01 -0.60320862340E+01 -0.90577803572E+01  0.12583649639E+02  0.00000000000E+00 0. -1.
</event>
<event>
 7    1  0.1476909E-008  0.4614232E+02  0.7816164E-02  0.1320468E+00
        -11   -1    0    0    0    0  0.00000000000E+00  0.00000000000E+00  0.45593999997E+02  0.45594000000E+02  0.51100000000E-03 0. -1.
         11   -1    0    0    0    0 -0.00000000000E+00 -0.00000000000E+00 -0.45593999997E+02  0.45594000000E+02  0.51100000000E-03 0.  1.
    9900012    2    1    2    0    0  0.15787231048E+02 -0.12413140914E+02  0.40321095480E+02  0.46142317940E+02  0.10000001633E+02 0.  0.
        -12    1    1    2    0    0 -0.15787231048E+02  0.12413140914E+02 -0.40321095480E+02  0.45045682060E+02  0.00000000000E+00 0.  1.
         11    1    3    3    0    0  0.81985417898E+01 -0.80892612456E+01  0.30767795275E+02  0.32852845559E+02  0.51100000000E-03 0. -1.
        -11    1    3    3    0    0  0.31780118756E+00  0.26854869481E+00 -0.25244367271E-01  0.41683754090E+00  0.51100000000E-03 0.  1.
         12    1    3    3    0    0  0.72708880707E+01 -0.45924283631E+01  0.95785445727E+01  0.12872634841E+02  0.00000000000E+00 0. -1.
</event>
<event>
 7    1  0.1476909E-008  0.4614232E+02  0.7816164E-02  0.1320468E+00
        -11   -1    0    0    0    0  0.00000000000E+00  0.00000000000E+00  0.45593999997E+02  0.45594000000E+02  0.51100000000E-03 0.  1.
         11   -1    0    0    0    0 -0.00000000000E+00 -0.00000000000E+00 -0.45593999997E+02  0.45594000000E+02  0.51100000000E-03 0. -1.
    9900012    2    1    2    0    0 -0.38843393292E+02 -0.19428792698E+01 -0.22727285888E+02  0.46142317564E+02  0.99999982045E+01 0.  0.
        -12    1    1    2    0    0  0.38843393292E+02  0.19428792698E+01  0.22727285888E+02  0.45045682436E+02  0.00000000000E+00 0.  1.
         11    1    3    3    0    0 -0.39109763130E+02 -0.11078480473E+01 -0.22280610569E+02  0.45024732170E+02  0.51100000000E-03 0. -1.
        -11    1    3    3    0    0  0.13872507186E+00 -0.87122130793E+00 -0.43715334448E+00  0.98456818995E+00  0.51100000000E-03 0.  1.
         12    1    3    3    0    0  0.12764476631E+00  0.36190085490E-01 -0.95219741719E-02  0.13301720432E+00  0.00000000000E+00 0. -1.
</event>
<event>
 7    1  0.1476909E-008  0.4614232E+02  0.7816164E-02  0.1320468E+00
        -11   -1    0    0    0    0  0.00000000000E+00  0.00000000000E+00  0.45593999997E+02  0.45594000000E+02  0.51100000000E-03 0. -1.
         11   -1    0    0    0    0 -0.00000000000E+00 -0.00000000000E+00 -0.45593999997E+02  0.45594000000E+02  0.51100000000E-03 0.  1.
    9900012    2    1    2    0    0 -0.78891532799E+01 -0.44219790026E+02 -0.33889242021E+01  0.46142319001E+02  0.10000011305E+02 0.  0.
        -12    1    1    2    0    0  0.78891532799E+01  0.44219790026E+02  0.33889242021E+01  0.45045680999E+02  0.00000000000E+00 0.  1.
         11    1    3    3    0    0 -0.67006843396E+01 -0.37059271853E+02 -0.28157615695E+00  0.37661227891E+02  0.51100000000E-03 0. -1.
        -11    1    3    3    0    0 -0.19805619218E+01 -0.60817285571E+01 -0.31755055010E+01  0.71410001552E+01  0.51100000000E-03 0.  1.
         12    1    3    3    0    0  0.79209298150E+00 -0.10787896163E+01  0.68157455901E-01  0.13400909545E+01  0.00000000000E+00 0. -1.
</event>
<event>
 7    1  0.1476909E-008  0.4614232E+02  0.7816164E-02  0.1320468E+00
        -11   -1    0    0    0    0  0.00000000000E+00  0.00000000000E+00  0.45593999997E+02  0.45594000000E+02  0.51100000000E-03 0.  1.
         11   -1    0    0    0    0 -0.00000000000E+00 -0.00000000000E+00 -0.45593999997E+02  0.45594000000E+02  0.51100000000E-03 0. -1.
    9900012    2    1    2    0    0  0.52667465741E+01 -0.31489099642E+01 -0.44625763313E+02  0.46142323130E+02  0.10000048954E+02 0.  0.
        -12    1    1    2    0    0 -0.52667465741E+01  0.31489099642E+01  0.44625763313E+02  0.45045676870E+02  0.00000000000E+00 0.  1.
         11    1    3    3    0    0  0.59500884712E+01 -0.44952998457E+01 -0.29018153130E+02  0.29961049462E+02  0.51100000000E-03 0. -1.
        -11    1    3    3    0    0 -0.66088513769E+00 -0.13438201242E+01 -0.41462650000E+01  0.44084164280E+01  0.51100000000E-03 0.  1.
         12    1    3    3    0    0 -0.22456759361E-01  0.26902100057E+01 -0.11461345183E+02  0.11772857239E+02  0.00000000000E+00 0. -1.
</event>
<event>
 7    1  0.1476909E-008  0.4614232E+02  0.7816164E-02  0.1320468E+00
        -11   -1    0    0    0    0  0.00000000000E+00  0.00000000000E+00  0.45593999997E+02  0.45594000000E+02  0.51100000000E-03 0.  1.
         11   -1    0    0    0    0 -0.00000000000E+00 -0.00000000000E+00 -0.45593999997E+02  0.45594000000E+02  0.51100000000E-03 0. -1.
    9900012    2    1    2    0    0 -0.25979058245E+02  0.24192472779E+02 -0.27729520372E+02  0.46142317560E+02  0.99999981672E+01 0.  0.
        -12    1    1    2    0    0  0.25979058245E+02 -0.24192472779E+02  0.27729520372E+02  0.45045682440E+02  0.00000000000E+00 0.  1.
         11    1    3    3    0    0 -0.90101864785E+01  0.11972616004E+02 -0.93727719652E+01  0.17674157658E+02  0.51100000000E-03 0.  1.
        -11    1    3    3    0    0 -0.15938964770E+02  0.12893050527E+02 -0.16960532350E+02  0.26607160835E+02  0.51100000000E-03 0. -1.
        -12    1    3    3    0    0 -0.10299069958E+01 -0.67319375291E+00 -0.13962160569E+01  0.18609990667E+01  0.00000000000E+00 0.  1.
</event>
<event>
 7    1  0.1476909E-008  0.4614233E+02  0.7816164E-02  0.1320468E+00
        -11   -1    0    0    0    0  0.00000000000E+00  0.00000000000E+00  0.45593999997E+02  0.45594000000E+02  0.51100000000E-03 0.  1.
         11   -1    0    0    0    0 -0.00000000000E+00 -0.00000000000E+00 -0.45593999997E+02  0.45594000000E+02  0.51100000000E-03 0. -1.
    9900012    2    1    2    0    0  0.39667280847E+02  0.19188178382E+02  0.93505838333E+01  0.46142325652E+02  0.10000071960E+02 0.  0.
        -12    1    1    2    0    0 -0.39667280847E+02 -0.19188178382E+02 -0.93505838333E+01  0.45045674348E+02  0.00000000000E+00 0.  1.
         11    1    3    3    0    0  0.25520637626E+02  0.91755386508E+01  0.26811462074E+01  0.27252192565E+02  0.51100000000E-03 0. -1.
        -11    1    3    3    0    0  0.13623389950E+02  0.89249119637E+01  0.54496767906E+01  0.17174102150E+02  0.51100000000E-03 0.  1.
         12    1    3    3    0    0  0.52325327113E+00  0.10877277672E+01  0.12197608352E+01  0.17160309369E+01  0.00000000000E+00 0. -1.
</event>
<event>
 7    1  0.1476909E-008  0.4614232E+02  0.7816164E-02  0.1320468E+00
        -11   -1    0    0    0    0  0.00000000000E+00  0.00000000000E+00  0.45593999997E+02  0.45594000000E+02  0.51100000000E-03 0.  1.
         11   -1    0    0    0    0 -0.00000000000E+00 -0.00000000000E+00 -0.45593999997E+02  0.45594000000E+02  0.51100000000E-03 0. -1.
    9900012    2    1    2    0    0 -0.26700047369E+02 -0.13741790236E+02 -0.33576542812E+02  0.46142317015E+02  0.99999931932E+01 0.  0.
        -12    1    1    2    0    0  0.26700047369E+02  0.13741790236E+02  0.33576542812E+02  0.45045682985E+02  0.00000000000E+00 0.  1.
         11    1    3    3    0    0 -0.98920688681E+01 -0.39423603434E+01 -0.12793141867E+02  0.16645110713E+02  0.51100000000E-03 0. -1.
        -11    1    3    3    0    0 -0.68763221367E+01 -0.26742868223E+00 -0.93084779833E+01  0.11575970234E+02  0.51100000000E-03 0.  1.
         12    1    3    3    0    0 -0.99316563643E+01 -0.95320012099E+01 -0.11474922962E+02  0.17921236068E+02  0.00000000000E+00 0. -1.
</event>
<event>
 7    1  0.1476909E-008  0.4614232E+02  0.7816164E-02  0.1320468E+00
        -11   -1    0    0    0    0  0.00000000000E+00  0.00000000000E+00  0.45593999997E+02  0.45594000000E+02  0.51100000000E-03 0.  1.
         11   -1    0    0    0    0 -0.00000000000E+00 -0.00000000000E+00 -0.45593999997E+02  0.45594000000E+02  0.51100000000E-03 0. -1.
    9900012    2    1    2    0    0 -0.28695374514E+02 -0.29776958198E+02 -0.17861176468E+02  0.46142318933E+02  0.10000010682E+02 0.  0.
        -12    1    1    2    0    0  0.28695374514E+02  0.29776958198E+02  0.17861176468E+02  0.45045681067E+02  0.00000000000E+00 0.  1.
         11    1    3    3    0    0 -0.73877890701E+01 -0.12740530922E+02 -0.29119905893E+01  0.15012669482E+02  0.51100000000E-03 0. -1.
        -11    1    3    3    0    0 -0.16837062854E+02 -0.14038431462E+02 -0.12094926333E+02  0.25037002351E+02  0.51100000000E-03 0.  1.
         12    1    3    3    0    0 -0.44705225897E+01 -0.29979958136E+01 -0.28542595459E+01  0.60926470994E+01  0.00000000000E+00 0. -1.
</event>
<event>
 7    1  0.1476909E-008  0.4614232E+02  0.7816164E-02  0.1320468E+00
        -11   -1    0    0    0    0  0.00000000000E+00  0.00000000000E+00  0.45593999997E+02  0.45594000000E+02  0.51100000000E-03 0. -1.
         11   -1    0    0    0    0 -0.00000000000E+00 -0.00000000000E+00 -0.45593999997E+02  0.45594000000E+02  0.51100000000E-03 0.  1.
    9900012    2    1    2    0    0  0.10525910478E+01  0.18961716255E+02  0.40846773044E+02  0.46142317640E+02  0.99999988916E+01 0.  0.
        -12    1    1    2    0    0 -0.10525910478E+01 -0.18961716255E+02 -0.40846773044E+02  0.45045682360E+02  0.00000000000E+00 0.  1.
         11    1    3    3    0    0 -0.68771772915E+00  0.63928805242E+01  0.19809868475E+02  0.20827212159E+02  0.51100000000E-03 0. -1.
        -11    1    3    3    0    0 -0.11593226547E+01  0.42674644283E+00  0.40516520151E+01  0.42358028586E+01  0.51100000000E-03 0.  1.
        -12    1    3    3    0    0  0.28996314316E+01  0.12142089288E+02  0.16985252554E+02  0.21079302622E+02  0.00000000000E+00 0.  1.
</event>
<event>
 7    1  0.1476909E-008  0.4614232E+02  0.7816164E-02  0.1320468E+00
        -11   -1    0    0    0    0  0.00000000000E+00  0.00000000000E+00  0.45593999997E+02  0.45594000000E+02  0.51100000000E-03 0. -1.
         11   -1    0    0    0    0 -0.00000000000E+00 -0.00000000000E+00 -0.45593999997E+02  0.45594000000E+02  0.51100000000E-03 0.  1.
    9900012    2    1    2    0    0  0.21015437973E+02  0.35327456592E+02  0.18423779836E+02  0.46142317789E+02  0.10000000253E+02 0.  0.
        -12    1    1    2    0    0 -0.21015437973E+02 -0.35327456592E+02 -0.18423779836E+02  0.45045682211E+02  0.00000000000E+00 0.  1.
         11    1    3    3    0    0  0.10062391385E+02  0.19984351056E+02  0.76755331920E+01  0.23654594005E+02  0.51100000000E-03 0. -1.
        -11    1    3    3    0    0  0.64695549109E+01  0.97076461584E+01  0.32916929548E+01  0.12121418129E+02  0.51100000000E-03 0.  1.
         12    1    3    3    0    0  0.44834916771E+01  0.56354593772E+01  0.74565536891E+01  0.10366305655E+02  0.00000000000E+00 0. -1.
</event>
<event>
 7    1  0.1476909E-008  0.4614232E+02  0.7816164E-02  0.1320468E+00
        -11   -1    0    0    0    0  0.00000000000E+00  0.00000000000E+00  0.45593999997E+02  0.45594000000E+02  0.51100000000E-03 0.  1.
         11   -1    0    0    0    0 -0.00000000000E+00 -0.00000000000E+00 -0.45593999997E+02  0.45594000000E+02  0.51100000000E-03 0. -1.
    9900012    2    1    2    0    0 -0.93242536886E+01 -0.10670333880E+02 -0.42758809256E+02  0.46142317621E+02  0.99999987249E+01 0.  0.
        -12    1    1    2    0    0  0.93242536886E+01  0.10670333880E+02  0.42758809256E+02  0.45045682379E+02  0.00000000000E+00 0.  1.
         11    1    3    3    0    0 -0.25507917365E+01  0.16453788835E+00 -0.11238970322E+02  0.11525973510E+02  0.51100000000E-03 0. -1.
        -11    1    3    3    0    0 -0.45993223022E+01 -0.23811408588E+01 -0.80117536147E+01  0.95400101506E+01  0.51100000000E-03 0.  1.
         12    1    3    3    0    0 -0.21741396500E+01 -0.84537309100E+01 -0.23508085320E+02  0.25076333961E+02  0.00000000000E+00 0. -1.
</event>
<event>
 7    1  0.1476909E-008  0.4614232E+02  0.7816164E-02  0.1320468E+00
        -11   -1    0    0    0    0  0.00000000000E+00  0.00000000000E+00  0.45593999997E+02  0.45594000000E+02  0.51100000000E-03 0.  1.
         11   -1    0    0    0    0 -0.00000000000E+00 -0.00000000000E+00 -0.45593999997E+02  0.45594000000E+02  0.51100000000E-03 0. -1.
    9900012    2    1    2    0    0 -0.18234055706E+02 -0.32614086746E+02 -0.25158577150E+02  0.46142318232E+02  0.10000004291E+02 0.  0.
        -12    1    1    2    0    0  0.18234055706E+02  0.32614086746E+02  0.25158577150E+02  0.45045681768E+02  0.00000000000E+00 0.  1.
         11    1    3    3    0    0 -0.12421007854E+02 -0.13127457199E+02 -0.12361045214E+02  0.21895364981E+02  0.51100000000E-03 0. -1.
        -11    1    3    3    0    0 -0.59826998553E+01 -0.19402340905E+02 -0.12875510853E+02  0.24042094546E+02  0.51100000000E-03 0.  1.
         12    1    3    3    0    0  0.16965200353E+00 -0.84288641507E-01  0.77978916694E-01  0.20485870457E+00  0.00000000000E+00 0. -1.
</event>
<event>
 7    1  0.1476909E-008  0.4614232E+02  0.7816164E-02  0.1320468E+00
        -11   -1    0    0    0    0  0.00000000000E+00  0.00000000000E+00  0.45593999997E+02  0.45594000000E+02  0.51100000000E-03 0. -1.
         11   -1    0    0    0    0 -0.00000000000E+00 -0.00000000000E+00 -0.45593999997E+02  0.45594000000E+02  0.51100000000E-03 0.  1.
    9900012    2    1    2    0    0  0.14316311941E+02  0.41465426489E+02 -0.10235970228E+02  0.46142317987E+02  0.10000002064E+02 0.  0.
        -12    1    1    2    0    0 -0.14316311941E+02 -0.41465426489E+02  0.10235970228E+02  0.45045682013E+02  0.00000000000E+00 0.  1.
         11    1    3    3    0    0  0.10725231245E+02  0.26773350714E+02 -0.20642355604E+01  0.28915462342E+02  0.51100000000E-03 0.  1.
        -11    1    3    3    0    0  0.14281590909E+01  0.65454202261E+01 -0.30234559599E+01  0.73500646615E+01  0.51100000000E-03 0. -1.
        -12    1    3    3    0    0  0.21629216046E+01  0.81466555480E+01 -0.51482787078E+01  0.98767909838E+01  0.00000000000E+00 0.  1.
</event>
<event>
 7    1  0.1476909E-008  0.4614232E+02  0.7816164E-02  0.1320468E+00
        -11   -1    0    0    0    0  0.00000000000E+00  0.00000000000E+00  0.45593999997E+02  0.45594000000E+02  0.51100000000E-03 0.  1.
         11   -1    0    0    0    0 -0.00000000000E+00 -0.00000000000E+00 -0.45593999997E+02  0.45594000000E+02  0.51100000000E-03 0. -1.
    9900012    2    1    2    0    0  0.26129333080E+02  0.31990438340E+02  0.17971736528E+02  0.46142317563E+02  0.99999981924E+01 0.  0.
        -12    1    1    2    0    0 -0.26129333080E+02 -0.31990438340E+02 -0.17971736528E+02  0.45045682437E+02  0.00000000000E+00 0.  1.
         11    1    3    3    0    0  0.17136613795E+02  0.22796035176E+02  0.14171540087E+02  0.31845805074E+02  0.51100000000E-03 0. -1.
        -11    1    3    3    0    0  0.85569049754E+01  0.63103005131E+01  0.18605244572E+01  0.10793612317E+02  0.51100000000E-03 0.  1.
         12    1    3    3    0    0  0.43581430966E+00  0.28841026507E+01  0.19396719840E+01  0.35029001723E+01  0.00000000000E+00 0. -1.
</event>
<event>
 7    1  0.1476909E-008  0.4614232E+02  0.7816164E-02  0.1320468E+00
        -11   -1    0    0    0    0  0.00000000000E+00  0.00000000000E+00  0.45593999997E+02  0.45594000000E+02  0.51100000000E-03 0.  1.
         11   -1    0    0    0    0 -0.00000000000E+00 -0.00000000000E+00 -0.45593999997E+02  0.45594000000E+02  0.51100000000E-03 0. -1.
    9900012    2    1    2    0    0 -0.19426741689E+02  0.17067848856E+02 -0.36883652108E+02  0.46142317076E+02  0.99999937532E+01 0.  0.
        -12    1    1    2    0    0  0.19426741689E+02 -0.17067848856E+02  0.36883652108E+02  0.45045682924E+02  0.00000000000E+00 0.  1.
         11    1    3    3    0    0 -0.12154818536E+02  0.10225653552E+02 -0.25133525471E+02  0.29732098935E+02  0.51100000000E-03 0. -1.
        -11    1    3    3    0    0 -0.45779120233E+01  0.55724701073E+01 -0.43230011430E+01  0.84082126955E+01  0.51100000000E-03 0.  1.
        -12    1    3    3    0    0 -0.26940111300E+01  0.12697251967E+01 -0.74271254944E+01  0.80020054457E+01  0.00000000000E+00 0.  1.
</event>
<event>
 7    1  0.1476909E-008  0.4614232E+02  0.7816164E-02  0.1320468E+00
        -11   -1    0    0    0    0  0.00000000000E+00  0.00000000000E+00  0.45593999997E+02  0.45594000000E+02  0.51100000000E-03 0.  1.
         11   -1    0    0    0    0 -0.00000000000E+00 -0.00000000000E+00 -0.45593999997E+02  0.45594000000E+02  0.51100000000E-03 0. -1.
    9900012    2    1    2    0    0 -0.23127596947E+02  0.35964300633E+02 -0.14170278807E+02  0.46142318053E+02  0.10000002664E+02 0.  0.
        -12    1    1    2    0    0  0.23127596947E+02 -0.35964300633E+02  0.14170278807E+02  0.45045681947E+02  0.00000000000E+00 0.  1.
         11    1    3    3    0    0 -0.30873974683E+01  0.34404951230E+01  0.68207130584E+00  0.46727134886E+01  0.51100000000E-03 0. -1.
        -11    1    3    3    0    0 -0.13754658697E+02  0.26831335128E+02 -0.12725213402E+02  0.32726781647E+02  0.51100000000E-03 0.  1.
        -12    1    3    3    0    0 -0.62855407823E+01  0.56924703818E+01 -0.21271367113E+01  0.87428229173E+01  0.00000000000E+00 0.  1.
</event>
<event>
 7    1  0.1476909E-008  0.4614232E+02  0.7816164E-02  0.1320468E+00
        -11   -1    0    0    0    0  0.00000000000E+00  0.00000000000E+00  0.45593999997E+02  0.45594000000E+02  0.51100000000E-03 0. -1.
         11   -1    0    0    0    0 -0.00000000000E+00 -0.00000000000E+00 -0.45593999997E+02  0.45594000000E+02  0.51100000000E-03 0.  1.
    9900012    2    1    2    0    0 -0.13577196965E+02  0.42554055872E+02  0.58245632762E+01  0.46142317788E+02  0.10000000242E+02 0.  0.
        -12    1    1    2    0    0  0.13577196965E+02 -0.42554055872E+02 -0.58245632762E+01  0.45045682212E+02  0.00000000000E+00 0.  1.
         11    1    3    3    0    0  0.21603522962E+00  0.56436240990E+01 -0.11515386172E+01  0.57639574633E+01  0.51100000000E-03 0. -1.
        -11    1    3    3    0    0 -0.12817325293E+02  0.30328506751E+02  0.42951151496E+01  0.33204670813E+02  0.51100000000E-03 0.  1.
         12    1    3    3    0    0 -0.97590690217E+00  0.65819250228E+01  0.26809867438E+01  0.71736895115E+01  0.00000000000E+00 0. -1.
</event>
<event>
 7    1  0.1476909E-008  0.4614232E+02  0.7816164E-02  0.1320468E+00
        -11   -1    0    0    0    0  0.00000000000E+00  0.00000000000E+00  0.45593999997E+02  0.45594000000E+02  0.51100000000E-03 0. -1.
         11   -1    0    0    0    0 -0.00000000000E+00 -0.00000000000E+00 -0.45593999997E+02  0.45594000000E+02  0.51100000000E-03 0.  1.
    9900012    2    1    2    0    0 -0.17209240575E+02  0.37889362257E+02  0.17243889343E+02  0.46142318152E+02  0.10000003569E+02 0.  0.
        -12    1    1    2    0    0  0.17209240575E+02 -0.37889362257E+02 -0.17243889343E+02  0.45045681848E+02  0.00000000000E+00 0.  1.
         11    1    3    3    0    0 -0.56590978005E+01  0.83749273297E+01  0.73102033442E+01  0.12474127981E+02  0.51100000000E-03 0. -1.
        -11    1    3    3    0    0 -0.64318564253E+01  0.19423021322E+02  0.88795303205E+01  0.22304003975E+02  0.51100000000E-03 0.  1.
        -12    1    3    3    0    0 -0.51182863494E+01  0.10091413605E+02  0.10541556788E+01  0.11364186196E+02  0.00000000000E+00 0.  1.
</event>
<event>
 7    1  0.1476909E-008  0.4614232E+02  0.7816164E-02  0.1320468E+00
        -11   -1    0    0    0    0  0.00000000000E+00  0.00000000000E+00  0.45593999997E+02  0.45594000000E+02  0.51100000000E-03 0. -1.
         11   -1    0    0    0    0 -0.00000000000E+00 -0.00000000000E+00 -0.45593999997E+02  0.45594000000E+02  0.51100000000E-03 0.  1.
    9900012    2    1    2    0    0  0.23185924955E+02 -0.24776612995E+02  0.29625087705E+02  0.46142317753E+02  0.99999999288E+01 0.  0.
        -12    1    1    2    0    0 -0.23185924955E+02  0.24776612995E+02 -0.29625087705E+02  0.45045682247E+02  0.00000000000E+00 0.  1.
         11    1    3    3    0    0  0.13558288648E+02 -0.14372903277E+02  0.17072269396E+02  0.26112639129E+02  0.51100000000E-03 0. -1.
        -11    1    3    3    0    0  0.69426356066E+01 -0.93188789243E+01  0.64886807813E+01  0.13309570696E+02  0.51100000000E-03 0.  1.
         12    1    3    3    0    0  0.26850007003E+01 -0.10848307935E+01  0.60641375278E+01  0.67201079283E+01  0.00000000000E+00 0. -1.
</event>
<event>
 7    1  0.1476909E-008  0.4614232E+02  0.7816164E-02  0.1320468E+00
        -11   -1    0    0    0    0  0.00000000000E+00  0.00000000000E+00  0.45593999997E+02  0.45594000000E+02  0.51100000000E-03 0.  1.
         11   -1    0    0    0    0 -0.00000000000E+00 -0.00000000000E+00 -0.45593999997E+02  0.45594000000E+02  0.51100000000E-03 0. -1.
    9900012    2    1    2    0    0 -0.39070945659E+02  0.12867922621E+02 -0.18357320898E+02  0.46142318100E+02  0.10000003088E+02 0.  0.
        -12    1    1    2    0    0  0.39070945659E+02 -0.12867922621E+02  0.18357320898E+02  0.45045681900E+02  0.00000000000E+00 0.  1.
         11    1    3    3    0    0 -0.15477351370E+02  0.55236158268E+01 -0.35675056862E+01  0.16816237222E+02  0.51100000000E-03 0. -1.
        -11    1    3    3    0    0 -0.16292732398E+02  0.61499597687E+01 -0.12952277785E+02  0.21703378406E+02  0.51100000000E-03 0.  1.
        -12    1    3    3    0    0 -0.73008618919E+01  0.11943470253E+01 -0.18375374274E+01  0.76227024722E+01  0.00000000000E+00 0.  1.
</event>
<event>
 7    1  0.1476909E-008  0.4614232E+02  0.7816164E-02  0.1320468E+00
        -11   -1    0    0    0    0  0.00000000000E+00  0.00000000000E+00  0.45593999997E+02  0.45594000000E+02  0.51100000000E-03 0.  1.
         11   -1    0    0    0    0 -0.00000000000E+00 -0.00000000000E+00 -0.45593999997E+02  0.45594000000E+02  0.51100000000E-03 0. -1.
    9900012    2    1    2    0    0 -0.20785190321E+02  0.35886918331E+01 -0.39802143555E+02  0.46142317884E+02  0.10000001119E+02 0.  0.
        -12    1    1    2    0    0  0.20785190321E+02 -0.35886918331E+01  0.39802143555E+02  0.45045682116E+02  0.00000000000E+00 0.  1.
         11    1    3    3    0    0 -0.16063032197E+02  0.42028388487E+01 -0.29355038140E+02  0.33725407666E+02  0.51100000000E-03 0. -1.
        -11    1    3    3    0    0 -0.69547439578E+00 -0.20300996371E+01 -0.53764738176E+01  0.57889083724E+01  0.51100000000E-03 0.  1.
        -12    1    3    3    0    0 -0.40266837278E+01  0.14159526215E+01 -0.50706315974E+01  0.66280018457E+01  0.00000000000E+00 0.  1.
</event>
<event>
 7    1  0.1476909E-008  0.4614232E+02  0.7816164E-02  0.1320468E+00
        -11   -1    0    0    0    0  0.00000000000E+00  0.00000000000E+00  0.45593999997E+02  0.45594000000E+02  0.51100000000E-03 0. -1.
         11   -1    0    0    0    0 -0.00000000000E+00 -0.00000000000E+00 -0.45593999997E+02  0.45594000000E+02  0.51100000000E-03 0.  1.
    9900012    2    1    2    0    0  0.31293261706E+02  0.23820714608E+02  0.21964036644E+02  0.46142316763E+02  0.99999908943E+01 0.  0.
        -12    1    1    2    0    0 -0.31293261706E+02 -0.23820714608E+02 -0.21964036644E+02  0.45045683237E+02  0.00000000000E+00 0.  1.
         11    1    3    3    0    0  0.17401056438E+02  0.94115277868E+01  0.65923281777E+01  0.20852635601E+02  0.51100000000E-03 0. -1.
        -11    1    3    3    0    0  0.13865761530E+02  0.14116209315E+02  0.15169472410E+02  0.24932701452E+02  0.51100000000E-03 0.  1.
         12    1    3    3    0    0  0.26443737492E-01  0.29297750667E+00  0.20223605624E+00  0.35697970966E+00  0.00000000000E+00 0. -1.
</event>
<event>
 7    1  0.1476909E-008  0.4614232E+02  0.7816164E-02  0.1320468E+00
        -11   -1    0    0    0    0  0.00000000000E+00  0.00000000000E+00  0.45593999997E+02  0.45594000000E+02  0.51100000000E-03 0.  1.
         11   -1    0    0    0    0 -0.00000000000E+00 -0.00000000000E+00 -0.45593999997E+02  0.45594000000E+02  0.51100000000E-03 0. -1.
    9900012    2    1    2    0    0  0.41912276940E+02  0.58307742189E+01 -0.15442691123E+02  0.46142316573E+02  0.99999891665E+01 0.  0.
        -12    1    1    2    0    0 -0.41912276940E+02 -0.58307742189E+01  0.15442691123E+02  0.45045683427E+02  0.00000000000E+00 0.  1.
         11    1    3    3    0    0  0.19337337407E+02  0.94819999487E+00 -0.11166357358E+02  0.22349927027E+02  0.51100000000E-03 0. -1.
        -11    1    3    3    0    0  0.10799046681E+02  0.34908309945E+01 -0.36352234848E+01  0.11917221165E+02  0.51100000000E-03 0.  1.
         12    1    3    3    0    0  0.11775892853E+02  0.13917432295E+01 -0.64111028016E+00  0.11875168381E+02  0.00000000000E+00 0. -1.
</event>
<event>
 7    1  0.1476909E-008  0.4614232E+02  0.7816164E-02  0.1320468E+00
        -11   -1    0    0    0    0  0.00000000000E+00  0.00000000000E+00  0.45593999997E+02  0.45594000000E+02  0.51100000000E-03 0.  1.
         11   -1    0    0    0    0 -0.00000000000E+00 -0.00000000000E+00 -0.45593999997E+02  0.45594000000E+02  0.51100000000E-03 0. -1.
    9900012    2    1    2    0    0  0.29066555039E+02  0.13884698881E+02 -0.31487524223E+02  0.46142315783E+02  0.99999819642E+01 0.  0.
        -12    1    1    2    0    0 -0.29066555039E+02 -0.13884698881E+02  0.31487524223E+02  0.45045684217E+02  0.00000000000E+00 0.  1.
         11    1    3    3    0    0  0.37326747047E+00  0.23036227518E+01 -0.38387667430E+01  0.44924533114E+01  0.51100000000E-03 0.  1.
        -11    1    3    3    0    0  0.25126988974E+02  0.11232367782E+02 -0.23740319636E+02  0.36347413079E+02  0.51100000000E-03 0. -1.
        -12    1    3    3    0    0  0.35662985944E+01  0.34870834738E+00 -0.39084378443E+01  0.53024493924E+01  0.00000000000E+00 0.  1.
</event>
<event>
 7    1  0.1476909E-008  0.4614232E+02  0.7816164E-02  0.1320468E+00
        -11   -1    0    0    0    0  0.00000000000E+00  0.00000000000E+00  0.45593999997E+02  0.45594000000E+02  0.51100000000E-03 0.  1.
         11   -1    0    0    0    0 -0.00000000000E+00 -0.00000000000E+00 -0.45593999997E+02  0.45594000000E+02  0.51100000000E-03 0. -1.
    9900012    2    1    2    0    0 -0.78603874208E+01  0.42060946787E+02 -0.14078515202E+02  0.46142317351E+02  0.99999962618E+01 0.  0.
        -12    1    1    2    0    0  0.78603874208E+01 -0.42060946787E+02  0.14078515202E+02  0.45045682649E+02  0.00000000000E+00 0.  1.
         11    1    3    3    0    0 -0.77256574604E+01  0.33863209822E+02 -0.13984481117E+02  0.37442869481E+02  0.51100000000E-03 0. -1.
        -11    1    3    3    0    0 -0.14569569008E+01  0.44670121358E+01  0.37551065411E+00  0.47135898575E+01  0.51100000000E-03 0.  1.
         12    1    3    3    0    0  0.13222269403E+01  0.37307248291E+01 -0.46954473957E+00  0.39858580124E+01  0.00000000000E+00 0. -1.
</event>
<event>
 7    1  0.1476909E-008  0.4614232E+02  0.7816164E-02  0.1320468E+00
        -11   -1    0    0    0    0  0.00000000000E+00  0.00000000000E+00  0.45593999997E+02  0.45594000000E+02  0.51100000000E-03 0.  1.
         11   -1    0    0    0    0 -0.00000000000E+00 -0.00000000000E+00 -0.45593999997E+02  0.45594000000E+02  0.51100000000E-03 0. -1.
    9900012    2    1    2    0    0 -0.33881690697E+02 -0.27046307462E+02 -0.12232817313E+02  0.46142317286E+02  0.99999956663E+01 0.  0.
        -12    1    1    2    0    0  0.33881690697E+02  0.27046307462E+02  0.12232817313E+02  0.45045682714E+02  0.00000000000E+00 0.  1.
         11    1    3    3    0    0 -0.81686929760E+01 -0.88256523431E+01 -0.70767176129E+01  0.13953480449E+02  0.51100000000E-03 0. -1.
        -11    1    3    3    0    0 -0.48163627924E+01 -0.53157446170E+01 -0.49533215435E+00  0.71902604672E+01  0.51100000000E-03 0.  1.
         12    1    3    3    0    0 -0.20896634928E+02 -0.12904910501E+02 -0.46607675455E+01  0.24998576369E+02  0.00000000000E+00 0. -1.
</event>
<event>
 7    1  0.1476909E-008  0.4614232E+02  0.7816164E-02  0.1320468E+00
        -11   -1    0    0    0    0  0.00000000000E+00  0.00000000000E+00  0.45593999997E+02  0.45594000000E+02  0.51100000000E-03 0.  1.
         11   -1    0    0    0    0 -0.00000000000E+00 -0.00000000000E+00 -0.45593999997E+02  0.45594000000E+02  0.51100000000E-03 0. -1.
    9900012    2    1    2    0    0 -0.43919340879E+02 -0.69006967219E+01  0.72515742484E+01  0.46142318213E+02  0.10000004125E+02 0.  0.
        -12    1    1    2    0    0  0.43919340879E+02  0.69006967219E+01 -0.72515742484E+01  0.45045681787E+02  0.00000000000E+00 0.  1.
         11    1    3    3    0    0 -0.17029509991E+02 -0.18039582966E+01  0.57681586130E+00  0.17134502994E+02  0.51100000000E-03 0. -1.
        -11    1    3    3    0    0 -0.71176299141E+01  0.17062079870E+01  0.16672512360E+01  0.75067654975E+01  0.51100000000E-03 0.  1.
        -12    1    3    3    0    0 -0.19772200974E+02 -0.68029464123E+01  0.50075071511E+01  0.21501049722E+02  0.00000000000E+00 0.  1.
</event>
<event>
 7    1  0.1476909E-008  0.4614232E+02  0.7816164E-02  0.1320468E+00
        -11   -1    0    0    0    0  0.00000000000E+00  0.00000000000E+00  0.45593999997E+02  0.45594000000E+02  0.51100000000E-03 0.  1.
         11   -1    0    0    0    0 -0.00000000000E+00 -0.00000000000E+00 -0.45593999997E+02  0.45594000000E+02  0.51100000000E-03 0. -1.
    9900012    2    1    2    0    0  0.21211725379E+02 -0.37727838039E+02  0.12481452329E+02  0.46142315313E+02  0.99999776804E+01 0.  0.
        -12    1    1    2    0    0 -0.21211725379E+02  0.37727838039E+02 -0.12481452329E+02  0.45045684687E+02  0.00000000000E+00 0.  1.
         11    1    3    3    0    0  0.73870032877E+01 -0.12550480986E+02  0.46120128489E+01  0.15275897792E+02  0.51100000000E-03 0. -1.
        -11    1    3    3    0    0  0.38804931325E+01 -0.46330347858E+01 -0.14461988898E+01  0.62140751338E+01  0.51100000000E-03 0.  1.
        -12    1    3    3    0    0  0.99442289590E+01 -0.20544322267E+02  0.93156383700E+01  0.24652342388E+02  0.00000000000E+00 0.  1.
</event>
<event>
 7    1  0.1476909E-008  0.4614232E+02  0.7816164E-02  0.1320468E+00
        -11   -1    0    0    0    0  0.00000000000E+00  0.00000000000E+00  0.45593999997E+02  0.45594000000E+02  0.51100000000E-03 0.  1.
         11   -1    0    0    0    0 -0.00000000000E+00 -0.00000000000E+00 -0.45593999997E+02  0.45594000000E+02  0.51100000000E-03 0. -1.
    9900012    2    1    2    0    0  0.23439734237E+02  0.26719993810E+02 -0.27671904555E+02  0.46142317499E+02  0.99999976064E+01 0.  0.
        -12    1    1    2    0    0 -0.23439734237E+02 -0.26719993810E+02  0.27671904555E+02  0.45045682501E+02  0.00000000000E+00 0.  1.
         11    1    3    3    0    0  0.14473705407E+02  0.16547373915E+02 -0.15167574109E+02  0.26708782007E+02  0.51100000000E-03 0. -1.
        -11    1    3    3    0    0 -0.20930690274E+00 -0.60797396268E+00 -0.18988798757E+00  0.67044718493E+00  0.51100000000E-03 0.  1.
        -12    1    3    3    0    0  0.91753357329E+01  0.10780593857E+02 -0.12314442459E+02  0.18763088306E+02  0.00000000000E+00 0.  1.
</event>
<event>
 7    1  0.1476909E-008  0.4614232E+02  0.7816164E-02  0.1320468E+00
        -11   -1    0    0    0    0  0.00000000000E+00  0.00000000000E+00  0.45593999997E+02  0.45594000000E+02  0.51100000000E-03 0.  1.
         11   -1    0    0    0    0 -0.00000000000E+00 -0.00000000000E+00 -0.45593999997E+02  0.45594000000E+02  0.51100000000E-03 0. -1.
    9900012    2    1    2    0    0 -0.25422873617E+02  0.35933993821E+02 -0.95675963792E+01  0.46142319681E+02  0.10000017510E+02 0.  0.
        -12    1    1    2    0    0  0.25422873617E+02 -0.35933993821E+02  0.95675963792E+01  0.45045680319E+02  0.00000000000E+00 0.  1.
         11    1    3    3    0    0 -0.13812399511E+02  0.16040592288E+02 -0.71294330432E+01  0.22336333562E+02  0.51100000000E-03 0. -1.
        -11    1    3    3    0    0 -0.68280961630E+01  0.81825887170E+01  0.98107224105E+00  0.10702343590E+02  0.51100000000E-03 0.  1.
        -12    1    3    3    0    0 -0.47823779431E+01  0.11710812816E+02 -0.34192355770E+01  0.13103642529E+02  0.00000000000E+00 0.  1.
</event>
<event>
 7    1  0.1476909E-008  0.4614232E+02  0.7816164E-02  0.1320468E+00
        -11   -1    0    0    0    0  0.00000000000E+00  0.00000000000E+00  0.45593999997E+02  0.45594000000E+02  0.51100000000E-03 0.  1.
         11   -1    0    0    0    0 -0.00000000000E+00 -0.00000000000E+00 -0.45593999997E+02  0.45594000000E+02  0.51100000000E-03 0. -1.
    9900012    2    1    2    0    0 -0.26258248011E+02  0.41514763739E+01 -0.36364585427E+02  0.46142318543E+02  0.10000007129E+02 0.  0.
        -12    1    1    2    0    0  0.26258248011E+02 -0.41514763739E+01  0.36364585427E+02  0.45045681457E+02  0.00000000000E+00 0.  1.
         11    1    3    3    0    0 -0.20378363755E+02  0.93627542267E+00 -0.27555214806E+02  0.34284751483E+02  0.51100000000E-03 0.  1.
        -11    1    3    3    0    0 -0.51015564572E+01  0.42491761181E+01 -0.74998173744E+01  0.10016418366E+02  0.51100000000E-03 0. -1.
        -12    1    3    3    0    0 -0.77832779799E+00 -0.10339751669E+01 -0.13095532468E+01  0.18411486939E+01  0.00000000000E+00 0.  1.
</event>
<event>
 7    1  0.1476909E-008  0.4614232E+02  0.7816164E-02  0.1320468E+00
        -11   -1    0    0    0    0  0.00000000000E+00  0.00000000000E+00  0.45593999997E+02  0.45594000000E+02  0.51100000000E-03 0.  1.
         11   -1    0    0    0    0 -0.00000000000E+00 -0.00000000000E+00 -0.45593999997E+02  0.45594000000E+02  0.51100000000E-03 0. -1.
    9900012    2    1    2    0    0 -0.37588958403E+02 -0.12322989865E+02 -0.21548260310E+02  0.46142318793E+02  0.10000009406E+02 0.  0.
        -12    1    1    2    0    0  0.37588958403E+02  0.12322989865E+02  0.21548260310E+02  0.45045681207E+02  0.00000000000E+00 0.  1.
         11    1    3    3    0    0 -0.98310672469E+01 -0.20565506225E+01 -0.70450121473E+01  0.12268312031E+02  0.51100000000E-03 0. -1.
        -11    1    3    3    0    0  0.36346590280E+00 -0.28695125945E+00 -0.10387008296E+01  0.11372546603E+01  0.51100000000E-03 0.  1.
        -12    1    3    3    0    0 -0.28121357059E+02 -0.99794879831E+01 -0.13464547333E+02  0.32736752101E+02  0.00000000000E+00 0.  1.
</event>
<event>
 7    1  0.1476909E-008  0.4614232E+02  0.7816164E-02  0.1320468E+00
        -11   -1    0    0    0    0  0.00000000000E+00  0.00000000000E+00  0.45593999997E+02  0.45594000000E+02  0.51100000000E-03 0.  1.
         11   -1    0    0    0    0 -0.00000000000E+00 -0.00000000000E+00 -0.45593999997E+02  0.45594000000E+02  0.51100000000E-03 0. -1.
    9900012    2    1    2    0    0  0.34341830965E+02  0.13345225148E+02 -0.25916346936E+02  0.46142318445E+02  0.10000006238E+02 0.  0.
        -12    1    1    2    0    0 -0.34341830965E+02 -0.13345225148E+02  0.25916346936E+02  0.45045681555E+02  0.00000000000E+00 0.  1.
         11    1    3    3    0    0  0.20731165108E+02  0.63328182373E+01 -0.13765757184E+02  0.25678431897E+02  0.51100000000E-03 0. -1.
        -11    1    3    3    0    0  0.10284552360E+02  0.75032070768E+01 -0.11235137955E+02  0.16979353899E+02  0.51100000000E-03 0.  1.
        -12    1    3    3    0    0  0.33261134963E+01 -0.49080016656E+00 -0.91545179620E+00  0.34845326494E+01  0.00000000000E+00 0.  1.
</event>
<event>
 7    1  0.1476909E-008  0.4614232E+02  0.7816164E-02  0.1320468E+00
        -11   -1    0    0    0    0  0.00000000000E+00  0.00000000000E+00  0.45593999997E+02  0.45594000000E+02  0.51100000000E-03 0.  1.
         11   -1    0    0    0    0 -0.00000000000E+00 -0.00000000000E+00 -0.45593999997E+02  0.45594000000E+02  0.51100000000E-03 0. -1.
    9900012    2    1    2    0    0  0.36751743473E+02  0.26265220296E+01 -0.25913783012E+02  0.46142318561E+02  0.10000007297E+02 0.  0.
        -12    1    1    2    0    0 -0.36751743473E+02 -0.26265220296E+01  0.25913783012E+02  0.45045681439E+02  0.00000000000E+00 0.  1.
         11    1    3    3    0    0  0.87996182873E+01  0.30156950846E+01 -0.38849765096E+01  0.10080711363E+02  0.51100000000E-03 0. -1.
        -11    1    3    3    0    0  0.16267678509E+02 -0.18165499141E+01 -0.97534729417E+01  0.19054328966E+02  0.51100000000E-03 0.  1.
         12    1    3    3    0    0  0.11684446677E+02  0.14273768591E+01 -0.12275333560E+02  0.17007278232E+02  0.00000000000E+00 0. -1.
</event>
<event>
 7    1  0.1476909E-008  0.4614232E+02  0.7816164E-02  0.1320468E+00
        -11   -1    0    0    0    0  0.00000000000E+00  0.00000000000E+00  0.45593999997E+02  0.45594000000E+02  0.51100000000E-03 0.  1.
         11   -1    0    0    0    0 -0.00000000000E+00 -0.00000000000E+00 -0.45593999997E+02  0.45594000000E+02  0.51100000000E-03 0. -1.
    9900012    2    1    2    0    0  0.19975829822E+02 -0.33483458595E+02 -0.22559649338E+02  0.46142317024E+02  0.99999932764E+01 0.  0.
        -12    1    1    2    0    0 -0.19975829822E+02  0.33483458595E+02  0.22559649338E+02  0.45045682976E+02  0.00000000000E+00 0.  1.
         11    1    3    3    0    0  0.76765614127E+01 -0.19001295927E+02 -0.12512155162E+02  0.24011098873E+02  0.51100000000E-03 0. -1.
        -11    1    3    3    0    0  0.46236813854E+01 -0.33505036203E+01 -0.83745049397E+00  0.57711028109E+01  0.51100000000E-03 0.  1.
        -12    1    3    3    0    0  0.76755870242E+01 -0.11131659047E+02 -0.92100436823E+01  0.16360115340E+02  0.00000000000E+00 0.  1.
</event>
<event>
 7    1  0.1476909E-008  0.4614232E+02  0.7816164E-02  0.1320468E+00
        -11   -1    0    0    0    0  0.00000000000E+00  0.00000000000E+00  0.45593999997E+02  0.45594000000E+02  0.51100000000E-03 0.  1.
         11   -1    0    0    0    0 -0.00000000000E+00 -0.00000000000E+00 -0.45593999997E+02  0.45594000000E+02  0.51100000000E-03 0. -1.
    9900012    2    1    2    0    0  0.26594189014E+01 -0.24202478161E+02 -0.37898295667E+02  0.46142320158E+02  0.10000021855E+02 0.  0.
        -12    1    1    2    0    0 -0.26594189014E+01  0.24202478161E+02  0.37898295667E+02  0.45045679842E+02  0.00000000000E+00 0.  1.
         11    1    3    3    0    0  0.24795845366E+01 -0.12561367483E+02 -0.27996244676E+02  0.30785158903E+02  0.51100000000E-03 0. -1.
        -11    1    3    3    0    0  0.20324448641E+00 -0.48869562910E+01 -0.32185528523E+01  0.58551458424E+01  0.51100000000E-03 0.  1.
         12    1    3    3    0    0 -0.23410121588E-01 -0.67541543873E+01 -0.66834981386E+01  0.95020154119E+01  0.00000000000E+00 0. -1.
</event>
<event>
 7    1  0.1476909E-008  0.4614232E+02  0.7816164E-02  0.1320468E+00
        -11   -1    0    0    0    0  0.00000000000E+00  0.00000000000E+00  0.45593999997E+02  0.45594000000E+02  0.51100000000E-03 0.  1.
         11   -1    0    0    0    0 -0.00000000000E+00 -0.00000000000E+00 -0.45593999997E+02  0.45594000000E+02  0.51100000000E-03 0. -1.
    9900012    2    1    2    0    0  0.15474977362E+01 -0.74285562282E+01 -0.44401974224E+02  0.46142317501E+02  0.99999976245E+01 0.  0.
        -12    1    1    2    0    0 -0.15474977362E+01  0.74285562282E+01  0.44401974224E+02  0.45045682499E+02  0.00000000000E+00 0.  1.
         11    1    3    3    0    0  0.28691210785E+01 -0.27108464339E+00 -0.84892260681E+01  0.89650600747E+01  0.51100000000E-03 0. -1.
        -11    1    3    3    0    0 -0.10678916627E+01 -0.22995664200E+01 -0.30949560778E+01  0.40008938636E+01  0.51100000000E-03 0.  1.
         12    1    3    3    0    0 -0.25373167962E+00 -0.48579051647E+01 -0.32817792078E+02  0.33176363562E+02  0.00000000000E+00 0. -1.
</event>
<event>
 7    1  0.1476909E-008  0.4614232E+02  0.7816164E-02  0.1320468E+00
        -11   -1    0    0    0    0  0.00000000000E+00  0.00000000000E+00  0.45593999997E+02  0.45594000000E+02  0.51100000000E-03 0. -1.
         11   -1    0    0    0    0 -0.00000000000E+00 -0.00000000000E+00 -0.45593999997E+02  0.45594000000E+02  0.51100000000E-03 0.  1.
    9900012    2    1    2    0    0  0.41040794319E+01 -0.29851162701E+02  0.33483997818E+02  0.46142317716E+02  0.99999995847E+01 0.  0.
        -12    1    1    2    0    0 -0.41040794319E+01  0.29851162701E+02 -0.33483997818E+02  0.45045682284E+02  0.00000000000E+00 0.  1.
         11    1    3    3    0    0 -0.42623350842E-01 -0.15236474910E+01  0.75848807751E-01  0.15261296569E+01  0.51100000000E-03 0. -1.
        -11    1    3    3    0    0  0.22807158181E+00  0.26151937507E+00 -0.13183331444E+00  0.37119983012E+00  0.51100000000E-03 0.  1.
         12    1    3    3    0    0  0.39186312009E+01 -0.28589034585E+02  0.33539982324E+02  0.44244988229E+02  0.00000000000E+00 0. -1.
</event>
<event>
 7    1  0.1476909E-008  0.4614232E+02  0.7816164E-02  0.1320468E+00
        -11   -1    0    0    0    0  0.00000000000E+00  0.00000000000E+00  0.45593999997E+02  0.45594000000E+02  0.51100000000E-03 0. -1.
         11   -1    0    0    0    0 -0.00000000000E+00 -0.00000000000E+00 -0.45593999997E+02  0.45594000000E+02  0.51100000000E-03 0.  1.
    9900012    2    1    2    0    0 -0.15567498108E+01 -0.32717888647E+02  0.30922965531E+02  0.46142317579E+02  0.99999983405E+01 0.  0.
        -12    1    1    2    0    0  0.15567498108E+01  0.32717888647E+02 -0.30922965531E+02  0.45045682421E+02  0.00000000000E+00 0.  1.
         11    1    3    3    0    0 -0.23040438660E+01 -0.16737528959E+01  0.28404581584E+01  0.40222219859E+01  0.51100000000E-03 0. -1.
        -11    1    3    3    0    0 -0.13399543873E+00 -0.57020102670E+00 -0.10997052394E+00  0.59596792338E+00  0.51100000000E-03 0.  1.
         12    1    3    3    0    0  0.88128949386E+00 -0.30473934725E+02  0.28192477897E+02  0.41524127670E+02  0.00000000000E+00 0. -1.
</event>
<event>
 7    1  0.1476909E-008  0.4614232E+02  0.7816164E-02  0.1320468E+00
        -11   -1    0    0    0    0  0.00000000000E+00  0.00000000000E+00  0.45593999997E+02  0.45594000000E+02  0.51100000000E-03 0.  1.
         11   -1    0    0    0    0 -0.00000000000E+00 -0.00000000000E+00 -0.45593999997E+02  0.45594000000E+02  0.51100000000E-03 0. -1.
    9900012    2    1    2    0    0  0.69551888081E+01  0.29631249812E+02 -0.33207346916E+02  0.46142317566E+02  0.99999982224E+01 0.  0.
        -12    1    1    2    0    0 -0.69551888081E+01 -0.29631249812E+02  0.33207346916E+02  0.45045682434E+02  0.00000000000E+00 0.  1.
         11    1    3    3    0    0  0.18264274520E+01  0.78943892639E+01 -0.63848165762E+01  0.10316157330E+02  0.51100000000E-03 0.  1.
        -11    1    3    3    0    0  0.65767128246E+01  0.21209539569E+02 -0.25225424167E+02  0.33606840747E+02  0.51100000000E-03 0. -1.
        -12    1    3    3    0    0 -0.14479514685E+01  0.52732097877E+00 -0.15971061723E+01  0.22193194892E+01  0.00000000000E+00 0.  1.
</event>
<event>
 7    1  0.1476909E-008  0.4614232E+02  0.7816164E-02  0.1320468E+00
        -11   -1    0    0    0    0  0.00000000000E+00  0.00000000000E+00  0.45593999997E+02  0.45594000000E+02  0.51100000000E-03 0.  1.
         11   -1    0    0    0    0 -0.00000000000E+00 -0.00000000000E+00 -0.45593999997E+02  0.45594000000E+02  0.51100000000E-03 0. -1.
    9900012    2    1    2    0    0  0.30880501512E+01 -0.44772686400E+02  0.38709019874E+01  0.46142318926E+02  0.10000010622E+02 0.  0.
        -12    1    1    2    0    0 -0.30880501512E+01  0.44772686400E+02 -0.38709019874E+01  0.45045681074E+02  0.00000000000E+00 0.  1.
         11    1    3    3    0    0  0.44697112038E+01 -0.14908274667E+02  0.66256010273E+00  0.15577995954E+02  0.51100000000E-03 0. -1.
        -11    1    3    3    0    0 -0.76867998625E+00 -0.16171202002E+01 -0.91554194326E+00  0.20110106848E+01  0.51100000000E-03 0.  1.
         12    1    3    3    0    0 -0.61298106639E+00 -0.28247291533E+02  0.41238838279E+01  0.28553312287E+02  0.00000000000E+00 0. -1.
</event>
<event>
 7    1  0.1476909E-008  0.4614232E+02  0.7816164E-02  0.1320468E+00
        -11   -1    0    0    0    0  0.00000000000E+00  0.00000000000E+00  0.45593999997E+02  0.45594000000E+02  0.51100000000E-03 0.  1.
         11   -1    0    0    0    0 -0.00000000000E+00 -0.00000000000E+00 -0.45593999997E+02  0.45594000000E+02  0.51100000000E-03 0. -1.
    9900012    2    1    2    0    0 -0.38707232156E+02 -0.20246862593E+02 -0.10996719951E+02  0.46142321898E+02  0.10000037722E+02 0.  0.
        -12    1    1    2    0    0  0.38707232156E+02  0.20246862593E+02  0.10996719951E+02  0.45045678102E+02  0.00000000000E+00 0.  1.
         11    1    3    3    0    0 -0.65056181221E+01  0.68764551492E-01 -0.28147565102E+01  0.70887692999E+01  0.51100000000E-03 0. -1.
        -11    1    3    3    0    0 -0.23985211370E+02 -0.14170301539E+02 -0.70079307766E+01  0.28726275502E+02  0.51100000000E-03 0.  1.
         12    1    3    3    0    0 -0.82164026636E+01 -0.61453256053E+01 -0.11740326642E+01  0.10327277096E+02  0.00000000000E+00 0. -1.
</event>
<event>
 7    1  0.1476909E-008  0.4614232E+02  0.7816164E-02  0.1320468E+00
        -11   -1    0    0    0    0  0.00000000000E+00  0.00000000000E+00  0.45593999997E+02  0.45594000000E+02  0.51100000000E-03 0.  1.
         11   -1    0    0    0    0 -0.00000000000E+00 -0.00000000000E+00 -0.45593999997E+02  0.45594000000E+02  0.51100000000E-03 0. -1.
    9900012    2    1    2    0    0  0.21038401203E+02 -0.11371703123E+02 -0.38173072615E+02  0.46142318409E+02  0.10000005905E+02 0.  0.
        -12    1    1    2    0    0 -0.21038401203E+02  0.11371703123E+02  0.38173072615E+02  0.45045681591E+02  0.00000000000E+00 0.  1.
         11    1    3    3    0    0  0.10246435449E+02 -0.82511382565E+01 -0.21725286590E+02  0.25398007788E+02  0.51100000000E-03 0. -1.
        -11    1    3    3    0    0  0.58325825868E+01  0.63842775385E+00 -0.49758429144E+01  0.76932192611E+01  0.51100000000E-03 0.  1.
        -12    1    3    3    0    0  0.49593831677E+01 -0.37589926208E+01 -0.11471943111E+02  0.13051091359E+02  0.00000000000E+00 0.  1.
</event>
<event>
 7    1  0.1476909E-008  0.4614232E+02  0.7816164E-02  0.1320468E+00
        -11   -1    0    0    0    0  0.00000000000E+00  0.00000000000E+00  0.45593999997E+02  0.45594000000E+02  0.51100000000E-03 0.  1.
         11   -1    0    0    0    0 -0.00000000000E+00 -0.00000000000E+00 -0.45593999997E+02  0.45594000000E+02  0.51100000000E-03 0. -1.
    9900012    2    1    2    0    0 -0.36618591647E+02  0.26228635451E+02 -0.50092677638E+00  0.46142317638E+02  0.99999988788E+01 0.  0.
        -12    1    1    2    0    0  0.36618591647E+02 -0.26228635451E+02  0.50092677638E+00  0.45045682362E+02  0.00000000000E+00 0.  1.
         11    1    3    3    0    0 -0.19998220836E+02  0.13089148887E+02  0.38403656434E+01  0.24207500154E+02  0.51100000000E-03 0.  1.
        -11    1    3    3    0    0 -0.15948316453E+02  0.13334654166E+02 -0.40637435843E+01  0.21181969021E+02  0.51100000000E-03 0. -1.
         12    1    3    3    0    0 -0.67205435785E+00 -0.19516760171E+00 -0.27754883547E+00  0.75284846333E+00  0.00000000000E+00 0. -1.
</event>
<event>
 7    1  0.1476909E-008  0.4614232E+02  0.7816164E-02  0.1320468E+00
        -11   -1    0    0    0    0  0.00000000000E+00  0.00000000000E+00  0.45593999997E+02  0.45594000000E+02  0.51100000000E-03 0. -1.
         11   -1    0    0    0    0 -0.00000000000E+00 -0.00000000000E+00 -0.45593999997E+02  0.45594000000E+02  0.51100000000E-03 0.  1.
    9900012    2    1    2    0    0  0.29252711048E+01  0.44480863777E+02 -0.64814507021E+01  0.46142315894E+02  0.99999829772E+01 0.  0.
        -12    1    1    2    0    0 -0.29252711048E+01 -0.44480863777E+02  0.64814507021E+01  0.45045684106E+02  0.00000000000E+00 0.  1.
         11    1    3    3    0    0  0.31749072005E+01  0.33258247586E+02 -0.59584513304E+01  0.33936620496E+02  0.51100000000E-03 0. -1.
        -11    1    3    3    0    0 -0.23944604493E+01  0.54241749133E+01 -0.96635632369E+00  0.60074086875E+01  0.51100000000E-03 0.  1.
        -12    1    3    3    0    0  0.21448243536E+01  0.57984412775E+01  0.44335695190E+00  0.61982867103E+01  0.00000000000E+00 0.  1.
</event>
<event>
 7    1  0.1476909E-008  0.4614232E+02  0.7816164E-02  0.1320468E+00
        -11   -1    0    0    0    0  0.00000000000E+00  0.00000000000E+00  0.45593999997E+02  0.45594000000E+02  0.51100000000E-03 0.  1.
         11   -1    0    0    0    0 -0.00000000000E+00 -0.00000000000E+00 -0.45593999997E+02  0.45594000000E+02  0.51100000000E-03 0. -1.
    9900012    2    1    2    0    0  0.91295022919E+01 -0.25917030234E+02 -0.35694164080E+02  0.46142316326E+02  0.99999869156E+01 0.  0.
        -12    1    1    2    0    0 -0.91295022919E+01  0.25917030234E+02  0.35694164080E+02  0.45045683674E+02  0.00000000000E+00 0.  1.
         11    1    3    3    0    0  0.80798198140E+01 -0.18928224428E+02 -0.20617087056E+02  0.29131176550E+02  0.51100000000E-03 0. -1.
        -11    1    3    3    0    0  0.13344101012E+01 -0.68604124875E+01 -0.15155271437E+02  0.16689163023E+02  0.51100000000E-03 0.  1.
         12    1    3    3    0    0 -0.28472762332E+00 -0.12839331815E+00  0.78194412718E-01  0.32197675352E+00  0.00000000000E+00 0. -1.
</event>
<event>
 7    1  0.1476909E-008  0.4614231E+02  0.7816164E-02  0.1320468E+00
        -11   -1    0    0    0    0  0.00000000000E+00  0.00000000000E+00  0.45593999997E+02  0.45594000000E+02  0.51100000000E-03 0.  1.
         11   -1    0    0    0    0 -0.00000000000E+00 -0.00000000000E+00 -0.45593999997E+02  0.45594000000E+02  0.51100000000E-03 0. -1.
    9900012    2    1    2    0    0 -0.69045683451E+01  0.59074602481E+01 -0.44119643090E+02  0.46142311449E+02  0.99999424421E+01 0.  0.
        -12    1    1    2    0    0  0.69045683451E+01 -0.59074602481E+01  0.44119643090E+02  0.45045688551E+02  0.00000000000E+00 0.  1.
         11    1    3    3    0    0 -0.32211687873E+01 -0.12144861239E+01 -0.12568053249E+02  0.13030996418E+02  0.51100000000E-03 0. -1.
        -11    1    3    3    0    0  0.19477710513E+00  0.18100497352E+01 -0.17525256605E+02  0.17619558379E+02  0.51100000000E-03 0.  1.
         12    1    3    3    0    0 -0.38781766629E+01  0.53118966368E+01 -0.14026333236E+02  0.15491756652E+02  0.00000000000E+00 0. -1.
</event>
<event>
 7    1  0.1476909E-008  0.4614232E+02  0.7816164E-02  0.1320468E+00
        -11   -1    0    0    0    0  0.00000000000E+00  0.00000000000E+00  0.45593999997E+02  0.45594000000E+02  0.51100000000E-03 0.  1.
         11   -1    0    0    0    0 -0.00000000000E+00 -0.00000000000E+00 -0.45593999997E+02  0.45594000000E+02  0.51100000000E-03 0. -1.
    9900012    2    1    2    0    0  0.96591191951E+01 -0.39402581940E+02 -0.19576810100E+02  0.46142317178E+02  0.99999946859E+01 0.  0.
        -12    1    1    2    0    0 -0.96591191951E+01  0.39402581940E+02  0.19576810100E+02  0.45045682822E+02  0.00000000000E+00 0.  1.
         11    1    3    3    0    0  0.60738529900E+01 -0.14506168686E+02 -0.82824885242E+01  0.17774145170E+02  0.51100000000E-03 0. -1.
        -11    1    3    3    0    0 -0.18044685834E+01 -0.35347318671E+01 -0.21610144821E+01  0.45188958933E+01  0.51100000000E-03 0.  1.
         12    1    3    3    0    0  0.53897347885E+01 -0.21361681387E+02 -0.91333070933E+01  0.23849276116E+02  0.00000000000E+00 0. -1.
</event>
<event>
 7    1  0.1476909E-008  0.4614232E+02  0.7816164E-02  0.1320468E+00
        -11   -1    0    0    0    0  0.00000000000E+00  0.00000000000E+00  0.45593999997E+02  0.45594000000E+02  0.51100000000E-03 0. -1.
         11   -1    0    0    0    0 -0.00000000000E+00 -0.00000000000E+00 -0.45593999997E+02  0.45594000000E+02  0.51100000000E-03 0.  1.
    9900012    2    1    2    0    0 -0.34364845261E+02  0.57446601594E+00  0.29117703783E+02  0.46142320134E+02  0.10000021637E+02 0.  0.
        -12    1    1    2    0    0  0.34364845261E+02 -0.57446601594E+00 -0.29117703783E+02  0.45045679866E+02  0.00000000000E+00 0.  1.
         11    1    3    3    0    0 -0.10466147864E+01  0.48279226274E+00  0.39402368646E+01  0.41053571940E+01  0.51100000000E-03 0. -1.
        -11    1    3    3    0    0 -0.10369826683E+02 -0.21271707096E+01  0.72247502965E+01  0.12816207621E+02  0.51100000000E-03 0.  1.
         12    1    3    3    0    0 -0.22948403791E+02  0.22188444628E+01  0.17952716622E+02  0.29220755319E+02  0.00000000000E+00 0. -1.
</event>
<event>
 7    1  0.1476909E-008  0.4614232E+02  0.7816164E-02  0.1320468E+00
        -11   -1    0    0    0    0  0.00000000000E+00  0.00000000000E+00  0.45593999997E+02  0.45594000000E+02  0.51100000000E-03 0.  1.
         11   -1    0    0    0    0 -0.00000000000E+00 -0.00000000000E+00 -0.45593999997E+02  0.45594000000E+02  0.51100000000E-03 0. -1.
    9900012    2    1    2    0    0  0.92133117026E+00 -0.60231355846E+01 -0.44631676774E+02  0.46142316688E+02  0.99999902123E+01 0.  0.
        -12    1    1    2    0    0 -0.92133117026E+00  0.60231355846E+01  0.44631676774E+02  0.45045683312E+02  0.00000000000E+00 0.  1.
         11    1    3    3    0    0  0.17917507423E+01 -0.18487417019E+01 -0.22578731518E+02  0.22725037598E+02  0.51100000000E-03 0. -1.
        -11    1    3    3    0    0 -0.35374756946E+01 -0.20944903503E+01 -0.15588938491E+02  0.16121899009E+02  0.51100000000E-03 0.  1.
        -12    1    3    3    0    0  0.26670561226E+01 -0.20799035323E+01 -0.64640067652E+01  0.72953800810E+01  0.00000000000E+00 0.  1.
</event>
<event>
 7    1  0.1476909E-008  0.4614232E+02  0.7816164E-02  0.1320468E+00
        -11   -1    0    0    0    0  0.00000000000E+00  0.00000000000E+00  0.45593999997E+02  0.45594000000E+02  0.51100000000E-03 0.  1.
         11   -1    0    0    0    0 -0.00000000000E+00 -0.00000000000E+00 -0.45593999997E+02  0.45594000000E+02  0.51100000000E-03 0. -1.
    9900012    2    1    2    0    0  0.22179150100E+02 -0.11026634605E+02 -0.37624620738E+02  0.46142318126E+02  0.10000003327E+02 0.  0.
        -12    1    1    2    0    0 -0.22179150100E+02  0.11026634605E+02  0.37624620738E+02  0.45045681874E+02  0.00000000000E+00 0.  1.
         11    1    3    3    0    0  0.13454729745E+02 -0.28905940448E+01 -0.17460386970E+02  0.22231743068E+02  0.51100000000E-03 0.  1.
        -11    1    3    3    0    0  0.44696366791E+01 -0.24943660349E+01 -0.12385589202E+02  0.13401579538E+02  0.51100000000E-03 0. -1.
         12    1    3    3    0    0  0.42547836758E+01 -0.56416745248E+01 -0.77786445657E+01  0.10508995521E+02  0.00000000000E+00 0. -1.
</event>
<event>
 7    1  0.1476909E-008  0.4614232E+02  0.7816164E-02  0.1320468E+00
        -11   -1    0    0    0    0  0.00000000000E+00  0.00000000000E+00  0.45593999997E+02  0.45594000000E+02  0.51100000000E-03 0.  1.
         11   -1    0    0    0    0 -0.00000000000E+00 -0.00000000000E+00 -0.45593999997E+02  0.45594000000E+02  0.51100000000E-03 0. -1.
    9900012    2    1    2    0    0 -0.14839002948E+02  0.41996084968E+02  0.67265465653E+01  0.46142316635E+02  0.99999897308E+01 0.  0.
        -12    1    1    2    0    0  0.14839002948E+02 -0.41996084968E+02 -0.67265465653E+01  0.45045683365E+02  0.00000000000E+00 0.  1.
         11    1    3    3    0    0 -0.10235601362E+02  0.23794783748E+02  0.72940923469E+00  0.25913149306E+02  0.51100000000E-03 0. -1.
        -11    1    3    3    0    0 -0.15098494260E+00  0.44780983596E+00  0.12264683403E+01  0.13143648478E+01  0.51100000000E-03 0.  1.
         12    1    3    3    0    0 -0.44524166426E+01  0.17753491384E+02  0.47706689903E+01  0.18914802481E+02  0.00000000000E+00 0. -1.
</event>
<event>
 7    1  0.1476909E-008  0.4614232E+02  0.7816164E-02  0.1320468E+00
        -11   -1    0    0    0    0  0.00000000000E+00  0.00000000000E+00  0.45593999997E+02  0.45594000000E+02  0.51100000000E-03 0.  1.
         11   -1    0    0    0    0 -0.00000000000E+00 -0.00000000000E+00 -0.45593999997E+02  0.45594000000E+02  0.51100000000E-03 0. -1.
    9900012    2    1    2    0    0  0.15234399758E+02 -0.23498652997E+02 -0.35282286557E+02  0.46142319038E+02  0.10000011645E+02 0.  0.
        -12    1    1    2    0    0 -0.15234399758E+02  0.23498652997E+02  0.35282286557E+02  0.45045680962E+02  0.00000000000E+00 0.  1.
         11    1    3    3    0    0  0.69214959465E+01 -0.16053635405E+02 -0.27289313819E+02  0.32408840843E+02  0.51100000000E-03 0. -1.
        -11    1    3    3    0    0  0.42128638860E+01 -0.35807744276E+01 -0.37586408737E+01  0.66856225665E+01  0.51100000000E-03 0.  1.
         12    1    3    3    0    0  0.41000399252E+01 -0.38642431642E+01 -0.42343318647E+01  0.70478556286E+01  0.00000000000E+00 0. -1.
</event>
<event>
 7    1  0.1476909E-008  0.4614232E+02  0.7816164E-02  0.1320468E+00
        -11   -1    0    0    0    0  0.00000000000E+00  0.00000000000E+00  0.45593999997E+02  0.45594000000E+02  0.51100000000E-03 0.  1.
         11   -1    0    0    0    0 -0.00000000000E+00 -0.00000000000E+00 -0.45593999997E+02  0.45594000000E+02  0.51100000000E-03 0. -1.
    9900012    2    1    2    0    0 -0.27888219118E+02  0.34982155238E+02 -0.52544758731E+01  0.46142317994E+02  0.10000002125E+02 0.  0.
        -12    1    1    2    0    0  0.27888219118E+02 -0.34982155238E+02  0.52544758731E+01  0.45045682006E+02  0.00000000000E+00 0.  1.
         11    1    3    3    0    0 -0.60775874383E+01  0.11353897177E+02 -0.15387216410E+01  0.12969800104E+02  0.51100000000E-03 0. -1.
        -11    1    3    3    0    0 -0.11564911620E+02  0.15675233549E+02  0.64068290359E+00  0.19490269430E+02  0.51100000000E-03 0.  1.
        -12    1    3    3    0    0 -0.10245720059E+02  0.79530245119E+01 -0.43564371357E+01  0.13682248460E+02  0.00000000000E+00 0.  1.
</event>
<event>
 7    1  0.1476909E-008  0.4614232E+02  0.7816164E-02  0.1320468E+00
        -11   -1    0    0    0    0  0.00000000000E+00  0.00000000000E+00  0.45593999997E+02  0.45594000000E+02  0.51100000000E-03 0.  1.
         11   -1    0    0    0    0 -0.00000000000E+00 -0.00000000000E+00 -0.45593999997E+02  0.45594000000E+02  0.51100000000E-03 0. -1.
    9900012    2    1    2    0    0  0.33831896924E+01 -0.29361379414E+02 -0.33993776955E+02  0.46142318240E+02  0.10000004363E+02 0.  0.
        -12    1    1    2    0    0 -0.33831896924E+01  0.29361379414E+02  0.33993776955E+02  0.45045681760E+02  0.00000000000E+00 0.  1.
         11    1    3    3    0    0 -0.10214607869E+01 -0.97816930739E-04 -0.10661912999E+01  0.14765318479E+01  0.51100000000E-03 0.  1.
        -11    1    3    3    0    0 -0.10024597505E+01 -0.97380519577E+01 -0.96926470595E+01  0.13776138384E+02  0.51100000000E-03 0. -1.
        -12    1    3    3    0    0  0.54071102298E+01 -0.19623229639E+02 -0.23234938596E+02  0.30889648008E+02  0.00000000000E+00 0.  1.
</event>
<event>
 7    1  0.1476909E-008  0.4614232E+02  0.7816164E-02  0.1320468E+00
        -11   -1    0    0    0    0  0.00000000000E+00  0.00000000000E+00  0.45593999997E+02  0.45594000000E+02  0.51100000000E-03 0. -1.
         11   -1    0    0    0    0 -0.00000000000E+00 -0.00000000000E+00 -0.45593999997E+02  0.45594000000E+02  0.51100000000E-03 0.  1.
    9900012    2    1    2    0    0 -0.32766541299E+02 -0.30827646772E+02 -0.22634961711E+01  0.46142318197E+02  0.10000003973E+02 0.  0.
        -12    1    1    2    0    0  0.32766541299E+02  0.30827646772E+02  0.22634961711E+01  0.45045681803E+02  0.00000000000E+00 0.  1.
         11    1    3    3    0    0 -0.87179775391E+01 -0.14060687099E+02 -0.11780531720E+01  0.16585953805E+02  0.51100000000E-03 0. -1.
        -11    1    3    3    0    0 -0.17474244300E+02 -0.10983409179E+02  0.55957120704E+00  0.20646975838E+02  0.51100000000E-03 0.  1.
        -12    1    3    3    0    0 -0.65743194605E+01 -0.57835504936E+01 -0.16450142062E+01  0.89093885547E+01  0.00000000000E+00 0.  1.
</event>
<event>
 7    1  0.1476909E-008  0.4614232E+02  0.7816164E-02  0.1320468E+00
        -11   -1    0    0    0    0  0.00000000000E+00  0.00000000000E+00  0.45593999997E+02  0.45594000000E+02  0.51100000000E-03 0. -1.
         11   -1    0    0    0    0 -0.00000000000E+00 -0.00000000000E+00 -0.45593999997E+02  0.45594000000E+02  0.51100000000E-03 0.  1.
    9900012    2    1    2    0    0 -0.20091915478E+02 -0.40240945077E+02  0.24687905478E+01  0.46142315911E+02  0.99999831295E+01 0.  0.
        -12    1    1    2    0    0  0.20091915478E+02  0.40240945077E+02 -0.24687905478E+01  0.45045684089E+02  0.00000000000E+00 0.  1.
         11    1    3    3    0    0 -0.16095583807E+02 -0.24768751466E+02  0.11606350308E+01  0.29561900162E+02  0.51100000000E-03 0. -1.
        -11    1    3    3    0    0  0.78470396501E+00 -0.43843922727E+01  0.35253814749E+00  0.44679905238E+01  0.51100000000E-03 0.  1.
         12    1    3    3    0    0 -0.47810356361E+01 -0.11087801338E+02  0.95561736950E+00  0.12112425225E+02  0.00000000000E+00 0. -1.
</event>
<event>
 7    1  0.1476909E-008  0.4614230E+02  0.7816164E-02  0.1320468E+00
        -11   -1    0    0    0    0  0.00000000000E+00  0.00000000000E+00  0.45593999997E+02  0.45594000000E+02  0.51100000000E-03 0.  1.
         11   -1    0    0    0    0 -0.00000000000E+00 -0.00000000000E+00 -0.45593999997E+02  0.45594000000E+02  0.51100000000E-03 0. -1.
    9900012    2    1    2    0    0 -0.12849531847E+02  0.37116267960E+02 -0.22054183793E+02  0.46142302772E+02  0.99998633189E+01 0.  0.
        -12    1    1    2    0    0  0.12849531847E+02 -0.37116267960E+02  0.22054183793E+02  0.45045697228E+02  0.00000000000E+00 0.  1.
         11    1    3    3    0    0 -0.79023452189E+01  0.25391330833E+02 -0.10440480277E+02  0.28568695632E+02  0.51100000000E-03 0. -1.
        -11    1    3    3    0    0 -0.11684382695E+01  0.12585524694E+01 -0.31691739394E+01  0.36045618357E+01  0.51100000000E-03 0.  1.
        -12    1    3    3    0    0 -0.37787483590E+01  0.10466384657E+02 -0.84445295767E+01  0.13969045305E+02  0.00000000000E+00 0.  1.
</event>
<event>
 7    1  0.1476909E-008  0.4614232E+02  0.7816164E-02  0.1320468E+00
        -11   -1    0    0    0    0  0.00000000000E+00  0.00000000000E+00  0.45593999997E+02  0.45594000000E+02  0.51100000000E-03 0.  1.
         11   -1    0    0    0    0 -0.00000000000E+00 -0.00000000000E+00 -0.45593999997E+02  0.45594000000E+02  0.51100000000E-03 0. -1.
    9900012    2    1    2    0    0 -0.21966227245E+02 -0.37470110681E+02 -0.11941068406E+02  0.46142318203E+02  0.10000004033E+02 0.  0.
        -12    1    1    2    0    0  0.21966227245E+02  0.37470110681E+02  0.11941068406E+02  0.45045681797E+02  0.00000000000E+00 0.  1.
         11    1    3    3    0    0 -0.81263326134E+01 -0.72464206920E+01 -0.27506915210E+01  0.11230057822E+02  0.51100000000E-03 0. -1.
        -11    1    3    3    0    0 -0.51088532487E+01 -0.12437541020E+02 -0.10342896184E+01  0.13485642863E+02  0.51100000000E-03 0.  1.
        -12    1    3    3    0    0 -0.87310413833E+01 -0.17786148969E+02 -0.81560872662E+01  0.21426617518E+02  0.00000000000E+00 0.  1.
</event>
<event>
 7    1  0.1476909E-008  0.4614232E+02  0.7816164E-02  0.1320468E+00
        -11   -1    0    0    0    0  0.00000000000E+00  0.00000000000E+00  0.45593999997E+02  0.45594000000E+02  0.51100000000E-03 0.  1.
         11   -1    0    0    0    0 -0.00000000000E+00 -0.00000000000E+00 -0.45593999997E+02  0.45594000000E+02  0.51100000000E-03 0. -1.
    9900012    2    1    2    0    0 -0.22211000901E+02  0.35286877999E+02 -0.17047613394E+02  0.46142318272E+02  0.10000004658E+02 0.  0.
        -12    1    1    2    0    0  0.22211000901E+02 -0.35286877999E+02  0.17047613394E+02  0.45045681728E+02  0.00000000000E+00 0.  1.
         11    1    3    3    0    0 -0.53060999607E+01  0.54911232987E+01 -0.20690035955E+01  0.79112519878E+01  0.51100000000E-03 0. -1.
        -11    1    3    3    0    0 -0.37965121902E+01  0.18333500973E+01 -0.26438667997E+01  0.49764153068E+01  0.51100000000E-03 0.  1.
         12    1    3    3    0    0 -0.13108388750E+02  0.27962404603E+02 -0.12334742999E+02  0.33254650977E+02  0.00000000000E+00 0. -1.
</event>
<event>
 7    1  0.1476909E-008  0.4614232E+02  0.7816164E-02  0.1320468E+00
        -11   -1    0    0    0    0  0.00000000000E+00  0.00000000000E+00  0.45593999997E+02  0.45594000000E+02  0.51100000000E-03 0.  1.
         11   -1    0    0    0    0 -0.00000000000E+00 -0.00000000000E+00 -0.45593999997E+02  0.45594000000E+02  0.51100000000E-03 0. -1.
    9900012    2    1    2    0    0 -0.42383414256E+02  0.14835874572E+02  0.35576028210E+01  0.46142317453E+02  0.99999971889E+01 0.  0.
        -12    1    1    2    0    0  0.42383414256E+02 -0.14835874572E+02 -0.35576028210E+01  0.45045682547E+02  0.00000000000E+00 0.  1.
         11    1    3    3    0    0 -0.14646021591E+02  0.60968179802E+01 -0.17726554213E+01  0.15963065039E+02  0.51100000000E-03 0. -1.
        -11    1    3    3    0    0 -0.19672339886E+02  0.32489045969E+01  0.39391164937E+01  0.20324196827E+02  0.51100000000E-03 0.  1.
        -12    1    3    3    0    0 -0.80650527796E+01  0.54901519944E+01  0.13911417485E+01  0.98550555870E+01  0.00000000000E+00 0.  1.
</event>
<event>
 7    1  0.1476909E-008  0.4614232E+02  0.7816164E-02  0.1320468E+00
        -11   -1    0    0    0    0  0.00000000000E+00  0.00000000000E+00  0.45593999997E+02  0.45594000000E+02  0.51100000000E-03 0.  1.
         11   -1    0    0    0    0 -0.00000000000E+00 -0.00000000000E+00 -0.45593999997E+02  0.45594000000E+02  0.51100000000E-03 0. -1.
    9900012    2    1    2    0    0 -0.31949919805E+02  0.26710056652E+02 -0.17172334069E+02  0.46142316974E+02  0.99999928249E+01 0.  0.
        -12    1    1    2    0    0  0.31949919805E+02 -0.26710056652E+02  0.17172334069E+02  0.45045683026E+02  0.00000000000E+00 0.  1.
         11    1    3    3    0    0 -0.44295426412E+01  0.33445688872E+01 -0.32072612886E+01  0.64104223173E+01  0.51100000000E-03 0. -1.
        -11    1    3    3    0    0  0.48395263784E+00  0.68092974291E+00  0.41107630544E+00  0.93105287737E+00  0.51100000000E-03 0.  1.
        -12    1    3    3    0    0 -0.28004329801E+02  0.22684558022E+02 -0.14376149086E+02  0.38800841780E+02  0.00000000000E+00 0.  1.
</event>
<event>
 7    1  0.1476909E-008  0.4614231E+02  0.7816164E-02  0.1320468E+00
        -11   -1    0    0    0    0  0.00000000000E+00  0.00000000000E+00  0.45593999997E+02  0.45594000000E+02  0.51100000000E-03 0.  1.
         11   -1    0    0    0    0 -0.00000000000E+00 -0.00000000000E+00 -0.45593999997E+02  0.45594000000E+02  0.51100000000E-03 0. -1.
    9900012    2    1    2    0    0  0.13606586152E+02 -0.28417466061E+02 -0.32193516887E+02  0.46142311043E+02  0.99999387362E+01 0.  0.
        -12    1    1    2    0    0 -0.13606586152E+02  0.28417466061E+02  0.32193516887E+02  0.45045688957E+02  0.00000000000E+00 0.  1.
         11    1    3    3    0    0 -0.92218061520E+00 -0.10082783068E+01 -0.14731819459E+01  0.20093052376E+01  0.51100000000E-03 0. -1.
        -11    1    3    3    0    0 -0.57070992081E+00 -0.54815810056E+00 -0.34116063982E+00  0.86172963289E+00  0.51100000000E-03 0.  1.
         12    1    3    3    0    0  0.15099476688E+02 -0.26861029654E+02 -0.30379174301E+02  0.43271276172E+02  0.00000000000E+00 0. -1.
</event>
<event>
 7    1  0.1476909E-008  0.4614232E+02  0.7816164E-02  0.1320468E+00
        -11   -1    0    0    0    0  0.00000000000E+00  0.00000000000E+00  0.45593999997E+02  0.45594000000E+02  0.51100000000E-03 0.  1.
         11   -1    0    0    0    0 -0.00000000000E+00 -0.00000000000E+00 -0.45593999997E+02  0.45594000000E+02  0.51100000000E-03 0. -1.
    9900012    2    1    2    0    0 -0.32278546517E+02 -0.28098414361E+02 -0.14060157815E+02  0.46142317714E+02  0.99999995719E+01 0.  0.
        -12    1    1    2    0    0  0.32278546517E+02  0.28098414361E+02  0.14060157815E+02  0.45045682286E+02  0.00000000000E+00 0.  1.
         11    1    3    3    0    0 -0.11239906751E+02 -0.13420003719E+02 -0.42596809298E+01  0.18016017470E+02  0.51100000000E-03 0. -1.
        -11    1    3    3    0    0 -0.72705355353E+01 -0.47646763102E+01 -0.33635140046E+00  0.86991930567E+01  0.51100000000E-03 0.  1.
         12    1    3    3    0    0 -0.13768104230E+02 -0.99137343318E+01 -0.94641254849E+01  0.19427107188E+02  0.00000000000E+00 0. -1.
</event>
<event>
 7    1  0.1476909E-008  0.4614232E+02  0.7816164E-02  0.1320468E+00
        -11   -1    0    0    0    0  0.00000000000E+00  0.00000000000E+00  0.45593999997E+02  0.45594000000E+02  0.51100000000E-03 0. -1.
         11   -1    0    0    0    0 -0.00000000000E+00 -0.00000000000E+00 -0.45593999997E+02  0.45594000000E+02  0.51100000000E-03 0.  1.
    9900012    2    1    2    0    0  0.11205725529E+02 -0.24469293029E+02  0.36122000173E+02  0.46142317826E+02  0.10000000595E+02 0.  0.
        -12    1    1    2    0    0 -0.11205725529E+02  0.24469293029E+02 -0.36122000173E+02  0.45045682174E+02  0.00000000000E+00 0.  1.
         11    1    3    3    0    0  0.25712854876E+01 -0.98141982700E+01  0.96440036164E+01  0.13997742774E+02  0.51100000000E-03 0. -1.
        -11    1    3    3    0    0  0.31729885962E+01 -0.78077260095E+01  0.76628203624E+01  0.11390665399E+02  0.51100000000E-03 0.  1.
        -12    1    3    3    0    0  0.54614514454E+01 -0.68473687496E+01  0.18815176194E+02  0.20753909653E+02  0.00000000000E+00 0.  1.
</event>
<event>
 7    1  0.1476909E-008  0.4614232E+02  0.7816164E-02  0.1320468E+00
        -11   -1    0    0    0    0  0.00000000000E+00  0.00000000000E+00  0.45593999997E+02  0.45594000000E+02  0.51100000000E-03 0. -1.
         11   -1    0    0    0    0 -0.00000000000E+00 -0.00000000000E+00 -0.45593999997E+02  0.45594000000E+02  0.51100000000E-03 0.  1.
    9900012    2    1    2    0    0 -0.38609282485E+02  0.20520841312E+02  0.10831983841E+02  0.46142317675E+02  0.99999992191E+01 0.  0.
        -12    1    1    2    0    0  0.38609282485E+02 -0.20520841312E+02 -0.10831983841E+02  0.45045682325E+02  0.00000000000E+00 0.  1.
         11    1    3    3    0    0 -0.75437873768E+01  0.18310382500E+01  0.17331120291E+01  0.79539365490E+01  0.51100000000E-03 0. -1.
        -11    1    3    3    0    0 -0.12742936309E+02  0.11452671825E+02  0.20054146644E+01  0.17250153795E+02  0.51100000000E-03 0.  1.
        -12    1    3    3    0    0 -0.18322558798E+02  0.72371312370E+01  0.70934571478E+01  0.20938227331E+02  0.00000000000E+00 0.  1.
</event>
<event>
 7    1  0.1476909E-008  0.4614232E+02  0.7816164E-02  0.1320468E+00
        -11   -1    0    0    0    0  0.00000000000E+00  0.00000000000E+00  0.45593999997E+02  0.45594000000E+02  0.51100000000E-03 0.  1.
         11   -1    0    0    0    0 -0.00000000000E+00 -0.00000000000E+00 -0.45593999997E+02  0.45594000000E+02  0.51100000000E-03 0. -1.
    9900012    2    1    2    0    0  0.16957656445E+02 -0.34312292050E+02  0.23753271680E+02  0.46142318593E+02  0.10000007589E+02 0.  0.
        -12    1    1    2    0    0 -0.16957656445E+02  0.34312292050E+02 -0.23753271680E+02  0.45045681407E+02  0.00000000000E+00 0.  1.
         11    1    3    3    0    0  0.12888787171E+02 -0.21649856459E+02  0.12571703214E+02  0.28158210905E+02  0.51100000000E-03 0. -1.
        -11    1    3    3    0    0  0.10630102210E+01 -0.19356628772E+01  0.11296435669E-01  0.22083725625E+01  0.51100000000E-03 0.  1.
         12    1    3    3    0    0  0.30058590535E+01 -0.10726772714E+02  0.11170272031E+02  0.15775735126E+02  0.00000000000E+00 0. -1.
</event>
<event>
 7    1  0.1476909E-008  0.4614232E+02  0.7816164E-02  0.1320468E+00
        -11   -1    0    0    0    0  0.00000000000E+00  0.00000000000E+00  0.45593999997E+02  0.45594000000E+02  0.51100000000E-03 0.  1.
         11   -1    0    0    0    0 -0.00000000000E+00 -0.00000000000E+00 -0.45593999997E+02  0.45594000000E+02  0.51100000000E-03 0. -1.
    9900012    2    1    2    0    0 -0.32111587625E+02  0.24038186067E+02 -0.20496942580E+02  0.46142322024E+02  0.10000038874E+02 0.  0.
        -12    1    1    2    0    0  0.32111587625E+02 -0.24038186067E+02  0.20496942580E+02  0.45045677976E+02  0.00000000000E+00 0.  1.
         11    1    3    3    0    0 -0.17813910371E+01  0.15266296133E+01  0.68218738588E-01  0.23470419810E+01  0.51100000000E-03 0.  1.
        -11    1    3    3    0    0 -0.27620277434E+02  0.17194582485E+02 -0.15855317573E+02  0.36192878968E+02  0.51100000000E-03 0. -1.
         12    1    3    3    0    0 -0.27099191532E+01  0.53169739687E+01 -0.47098437454E+01  0.76024010751E+01  0.00000000000E+00 0. -1.
</event>
<event>
 7    1  0.1476909E-008  0.4614231E+02  0.7816164E-02  0.1320468E+00
        -11   -1    0    0    0    0  0.00000000000E+00  0.00000000000E+00  0.45593999997E+02  0.45594000000E+02  0.51100000000E-03 0. -1.
         11   -1    0    0    0    0 -0.00000000000E+00 -0.00000000000E+00 -0.45593999997E+02  0.45594000000E+02  0.51100000000E-03 0.  1.
    9900012    2    1    2    0    0 -0.39238487038E+02 -0.21739047318E+02 -0.41071565723E+01  0.46142314541E+02  0.99999706395E+01 0.  0.
        -12    1    1    2    0    0  0.39238487038E+02  0.21739047318E+02  0.41071565723E+01  0.45045685459E+02  0.00000000000E+00 0.  1.
         11    1    3    3    0    0 -0.18913425462E+02 -0.83069431545E+01 -0.23240148461E+01  0.20787592755E+02  0.51100000000E-03 0. -1.
        -11    1    3    3    0    0 -0.42390237279E+01 -0.26812533884E+00 -0.16826435979E+01  0.45686434641E+01  0.51100000000E-03 0.  1.
         12    1    3    3    0    0 -0.16086037848E+02 -0.13163978824E+02 -0.10049812834E+00  0.20786078322E+02  0.00000000000E+00 0. -1.
</event>
<event>
 7    1  0.1476909E-008  0.4614232E+02  0.7816164E-02  0.1320468E+00
        -11   -1    0    0    0    0  0.00000000000E+00  0.00000000000E+00  0.45593999997E+02  0.45594000000E+02  0.51100000000E-03 0.  1.
         11   -1    0    0    0    0 -0.00000000000E+00 -0.00000000000E+00 -0.45593999997E+02  0.45594000000E+02  0.51100000000E-03 0. -1.
    9900012    2    1    2    0    0 -0.33261306651E+01  0.44698192733E+02 -0.44857508169E+01  0.46142317197E+02  0.99999948555E+01 0.  0.
        -12    1    1    2    0    0  0.33261306651E+01 -0.44698192733E+02  0.44857508169E+01  0.45045682803E+02  0.00000000000E+00 0.  1.
         11    1    3    3    0    0  0.47289360014E+00  0.30706289363E+02 -0.52221747701E+01  0.31150777589E+02  0.51100000000E-03 0. -1.
        -11    1    3    3    0    0 -0.17120377140E+01  0.97598593753E+01  0.19954488196E+01  0.10107806113E+02  0.51100000000E-03 0.  1.
         12    1    3    3    0    0 -0.20869865513E+01  0.42320439944E+01 -0.12590248664E+01  0.48837334950E+01  0.00000000000E+00 0. -1.
</event>
<event>
 7    1  0.1476909E-008  0.4614233E+02  0.7816164E-02  0.1320468E+00
        -11   -1    0    0    0    0  0.00000000000E+00  0.00000000000E+00  0.45593999997E+02  0.45594000000E+02  0.51100000000E-03 0.  1.
         11   -1    0    0    0    0 -0.00000000000E+00 -0.00000000000E+00 -0.45593999997E+02  0.45594000000E+02  0.51100000000E-03 0. -1.
    9900012    2    1    2    0    0  0.62851159014E+01 -0.44533521015E+02 -0.25248582798E+01  0.46142333336E+02  0.10000142020E+02 0.  0.
        -12    1    1    2    0    0 -0.62851159014E+01  0.44533521015E+02  0.25248582798E+01  0.45045666664E+02  0.00000000000E+00 0.  1.
         11    1    3    3    0    0  0.92882607049E+00 -0.61354666872E+01 -0.20357766127E+01  0.65307775966E+01  0.51100000000E-03 0. -1.
        -11    1    3    3    0    0  0.34041360063E+01 -0.35618516426E+02 -0.21203002522E+01  0.35843584192E+02  0.51100000000E-03 0.  1.
        -12    1    3    3    0    0  0.19521538247E+01 -0.27795379023E+01  0.16312185851E+01  0.37679715469E+01  0.00000000000E+00 0.  1.
</event>
<event>
 7    1  0.1476909E-008  0.4614232E+02  0.7816164E-02  0.1320468E+00
        -11   -1    0    0    0    0  0.00000000000E+00  0.00000000000E+00  0.45593999997E+02  0.45594000000E+02  0.51100000000E-03 0.  1.
         11   -1    0    0    0    0 -0.00000000000E+00 -0.00000000000E+00 -0.45593999997E+02  0.45594000000E+02  0.51100000000E-03 0. -1.
    9900012    2    1    2    0    0  0.25035906328E+02 -0.25221024202E+02 -0.27680621314E+02  0.46142318034E+02  0.10000002486E+02 0.  0.
        -12    1    1    2    0    0 -0.25035906328E+02  0.25221024202E+02  0.27680621314E+02  0.45045681966E+02  0.00000000000E+00 0.  1.
         11    1    3    3    0    0  0.16362837462E+01 -0.27663337619E+01 -0.68167510933E+01  0.75364529263E+01  0.51100000000E-03 0. -1.
        -11    1    3    3    0    0  0.10479682919E+02 -0.90775071143E+01 -0.82380899418E+01  0.16127337525E+02  0.51100000000E-03 0.  1.
         12    1    3    3    0    0  0.12919939663E+02 -0.13377183326E+02 -0.12625780279E+02  0.22478527583E+02  0.00000000000E+00 0. -1.
</event>
<event>
 7    1  0.1476909E-008  0.4614231E+02  0.7816164E-02  0.1320468E+00
        -11   -1    0    0    0    0  0.00000000000E+00  0.00000000000E+00  0.45593999997E+02  0.45594000000E+02  0.51100000000E-03 0.  1.
         11   -1    0    0    0    0 -0.00000000000E+00 -0.00000000000E+00 -0.45593999997E+02  0.45594000000E+02  0.51100000000E-03 0. -1.
    9900012    2    1    2    0    0 -0.37965879814E+02  0.15707370468E+02  0.18465760430E+02  0.46142314021E+02  0.99999658948E+01 0.  0.
        -12    1    1    2    0    0  0.37965879814E+02 -0.15707370468E+02 -0.18465760430E+02  0.45045685979E+02  0.00000000000E+00 0.  1.
         11    1    3    3    0    0 -0.15997959279E+02  0.73505126537E+01  0.58925078337E+01  0.18565731502E+02  0.51100000000E-03 0. -1.
        -11    1    3    3    0    0 -0.19723335082E+02  0.94756257538E+01  0.12164862378E+02  0.25035600795E+02  0.51100000000E-03 0.  1.
         12    1    3    3    0    0 -0.22445854520E+01 -0.11187679394E+01  0.40839021822E+00  0.25409817244E+01  0.00000000000E+00 0. -1.
</event>
<event>
 7    1  0.1476909E-008  0.4614232E+02  0.7816164E-02  0.1320468E+00
        -11   -1    0    0    0    0  0.00000000000E+00  0.00000000000E+00  0.45593999997E+02  0.45594000000E+02  0.51100000000E-03 0.  1.
         11   -1    0    0    0    0 -0.00000000000E+00 -0.00000000000E+00 -0.45593999997E+02  0.45594000000E+02  0.51100000000E-03 0. -1.
    9900012    2    1    2    0    0 -0.11302037696E+02 -0.18541492286E+02 -0.39466321654E+02  0.46142317219E+02  0.99999950611E+01 0.  0.
        -12    1    1    2    0    0  0.11302037696E+02  0.18541492286E+02  0.39466321654E+02  0.45045682781E+02  0.00000000000E+00 0.  1.
         11    1    3    3    0    0 -0.31433084425E+01 -0.91777221232E+01 -0.14107009336E+02  0.17120709214E+02  0.51100000000E-03 0.  1.
        -11    1    3    3    0    0  0.10043970333E+01 -0.17012831921E+01 -0.55329346727E+01  0.58750782338E+01  0.51100000000E-03 0. -1.
         12    1    3    3    0    0 -0.91631262865E+01 -0.76624869703E+01 -0.19826377646E+02  0.23146529772E+02  0.00000000000E+00 0. -1.
</event>
<event>
 7    1  0.1476909E-008  0.4614232E+02  0.7816164E-02  0.1320468E+00
        -11   -1    0    0    0    0  0.00000000000E+00  0.00000000000E+00  0.45593999997E+02  0.45594000000E+02  0.51100000000E-03 0.  1.
         11   -1    0    0    0    0 -0.00000000000E+00 -0.00000000000E+00 -0.45593999997E+02  0.45594000000E+02  0.51100000000E-03 0. -1.
    9900012    2    1    2    0    0  0.34296427213E+01 -0.18223993927E+02 -0.41051639071E+02  0.46142317918E+02  0.10000001427E+02 0.  0.
        -12    1    1    2    0    0 -0.34296427213E+01  0.18223993927E+02  0.41051639071E+02  0.45045682082E+02  0.00000000000E+00 0.  1.
         11    1    3    3    0    0  0.33846440375E+01 -0.26111731644E+01 -0.49678740555E+01  0.65539158865E+01  0.51100000000E-03 0.  1.
        -11    1    3    3    0    0 -0.20636236295E+01 -0.10169830777E+02 -0.21278800471E+02  0.23674276130E+02  0.51100000000E-03 0. -1.
         12    1    3    3    0    0  0.21086223133E+01 -0.54429899857E+01 -0.14804964544E+02  0.15914125901E+02  0.00000000000E+00 0. -1.
</event>
<event>
 7    1  0.1476909E-008  0.4614232E+02  0.7816164E-02  0.1320468E+00
        -11   -1    0    0    0    0  0.00000000000E+00  0.00000000000E+00  0.45593999997E+02  0.45594000000E+02  0.51100000000E-03 0.  1.
         11   -1    0    0    0    0 -0.00000000000E+00 -0.00000000000E+00 -0.45593999997E+02  0.45594000000E+02  0.51100000000E-03 0. -1.
    9900012    2    1    2    0    0 -0.15215445963E+02 -0.40829440977E+02  0.11426309861E+02  0.46142316484E+02  0.99999883539E+01 0.  0.
        -12    1    1    2    0    0  0.15215445963E+02  0.40829440977E+02 -0.11426309861E+02  0.45045683516E+02  0.00000000000E+00 0.  1.
         11    1    3    3    0    0 -0.56792751668E+01 -0.19189583210E+02  0.46944042516E+01  0.20555575928E+02  0.51100000000E-03 0. -1.
        -11    1    3    3    0    0  0.86212133169E+00 -0.10140586973E+01  0.12945828502E+01  0.18567480307E+01  0.51100000000E-03 0.  1.
        -12    1    3    3    0    0 -0.10398292128E+02 -0.20625799070E+02  0.54373227594E+01  0.23729992525E+02  0.00000000000E+00 0.  1.
</event>
<event>
 7    1  0.1476909E-008  0.4614232E+02  0.7816164E-02  0.1320468E+00
        -11   -1    0    0    0    0  0.00000000000E+00  0.00000000000E+00  0.45593999997E+02  0.45594000000E+02  0.51100000000E-03 0.  1.
         11   -1    0    0    0    0 -0.00000000000E+00 -0.00000000000E+00 -0.45593999997E+02  0.45594000000E+02  0.51100000000E-03 0. -1.
    9900012    2    1    2    0    0 -0.38189009169E+02 -0.17092967130E+02 -0.16689624367E+02  0.46142317542E+02  0.99999980003E+01 0.  0.
        -12    1    1    2    0    0  0.38189009169E+02  0.17092967130E+02  0.16689624367E+02  0.45045682458E+02  0.00000000000E+00 0.  1.
         11    1    3    3    0    0 -0.10022979141E+02 -0.83097324063E+01 -0.45328618458E+01  0.13786174244E+02  0.51100000000E-03 0. -1.
        -11    1    3    3    0    0 -0.23728383689E+02 -0.80989447987E+01 -0.12160896897E+02  0.27866045879E+02  0.51100000000E-03 0.  1.
         12    1    3    3    0    0 -0.44376463390E+01 -0.68428992463E+00  0.41343755632E-02  0.44900974181E+01  0.00000000000E+00 0. -1.
</event>
<event>
 7    1  0.1476909E-008  0.4614232E+02  0.7816164E-02  0.1320468E+00
        -11   -1    0    0    0    0  0.00000000000E+00  0.00000000000E+00  0.45593999997E+02  0.45594000000E+02  0.51100000000E-03 0.  1.
         11   -1    0    0    0    0 -0.00000000000E+00 -0.00000000000E+00 -0.45593999997E+02  0.45594000000E+02  0.51100000000E-03 0. -1.
    9900012    2    1    2    0    0  0.96902430649E+01  0.20035311096E+02 -0.39163745527E+02  0.46142318020E+02  0.10000002359E+02 0.  0.
        -12    1    1    2    0    0 -0.96902430649E+01 -0.20035311096E+02  0.39163745527E+02  0.45045681980E+02  0.00000000000E+00 0.  1.
         11    1    3    3    0    0  0.12197011179E+01  0.10374280052E+01 -0.68494214963E+01  0.70340957328E+01  0.51100000000E-03 0. -1.
        -11    1    3    3    0    0 -0.71957101095E+00  0.55474777840E+01 -0.10313812936E+02  0.11733159410E+02  0.51100000000E-03 0.  1.
        -12    1    3    3    0    0  0.91901129580E+01  0.13450405307E+02 -0.22000511095E+02  0.27375062877E+02  0.00000000000E+00 0.  1.
</event>
<event>
 7    1  0.1476909E-008  0.4614232E+02  0.7816164E-02  0.1320468E+00
        -11   -1    0    0    0    0  0.00000000000E+00  0.00000000000E+00  0.45593999997E+02  0.45594000000E+02  0.51100000000E-03 0.  1.
         11   -1    0    0    0    0 -0.00000000000E+00 -0.00000000000E+00 -0.45593999997E+02  0.45594000000E+02  0.51100000000E-03 0. -1.
    9900012    2    1    2    0    0  0.13391877261E+02  0.32992918084E+02 -0.27590550732E+02  0.46142317522E+02  0.99999978180E+01 0.  0.
        -12    1    1    2    0    0 -0.13391877261E+02 -0.32992918084E+02  0.27590550732E+02  0.45045682478E+02  0.00000000000E+00 0.  1.
         11    1    3    3    0    0  0.80795985246E+01  0.14422149740E+02 -0.11435124849E+02  0.20100756106E+02  0.51100000000E-03 0. -1.
        -11    1    3    3    0    0  0.27326083205E+01  0.91261792433E+01 -0.37497910989E+01  0.10237930912E+02  0.51100000000E-03 0.  1.
        -12    1    3    3    0    0  0.25796704162E+01  0.94445891006E+01 -0.12405634783E+02  0.15803630504E+02  0.00000000000E+00 0.  1.
</event>
<event>
 7    1  0.1476909E-008  0.4614232E+02  0.7816164E-02  0.1320468E+00
        -11   -1    0    0    0    0  0.00000000000E+00  0.00000000000E+00  0.45593999997E+02  0.45594000000E+02  0.51100000000E-03 0.  1.
         11   -1    0    0    0    0 -0.00000000000E+00 -0.00000000000E+00 -0.45593999997E+02  0.45594000000E+02  0.51100000000E-03 0. -1.
    9900012    2    1    2    0    0  0.21973893664E+02 -0.23593070661E+02 -0.31458361846E+02  0.46142317454E+02  0.99999972019E+01 0.  0.
        -12    1    1    2    0    0 -0.21973893664E+02  0.23593070661E+02  0.31458361846E+02  0.45045682546E+02  0.00000000000E+00 0.  1.
         11    1    3    3    0    0  0.77415448440E+01 -0.94712370333E+01 -0.11854974291E+02  0.17034560846E+02  0.51100000000E-03 0. -1.
        -11    1    3    3    0    0  0.96215072122E+01 -0.43846669818E+01 -0.11534507254E+02  0.15647477862E+02  0.51100000000E-03 0.  1.
        -12    1    3    3    0    0  0.46108416079E+01 -0.97371666464E+01 -0.80688803007E+01  0.13460278747E+02  0.00000000000E+00 0.  1.
</event>
<event>
 7    1  0.1476909E-008  0.4614232E+02  0.7816164E-02  0.1320468E+00
        -11   -1    0    0    0    0  0.00000000000E+00  0.00000000000E+00  0.45593999997E+02  0.45594000000E+02  0.51100000000E-03 0.  1.
         11   -1    0    0    0    0 -0.00000000000E+00 -0.00000000000E+00 -0.45593999997E+02  0.45594000000E+02  0.51100000000E-03 0. -1.
    9900012    2    1    2    0    0  0.15600884020E+02  0.32625491019E+02 -0.26857088773E+02  0.46142318034E+02  0.10000002489E+02 0.  0.
        -12    1    1    2    0    0 -0.15600884020E+02 -0.32625491019E+02  0.26857088773E+02  0.45045681966E+02  0.00000000000E+00 0.  1.
         11    1    3    3    0    0  0.50886560919E+01  0.11178101630E+02 -0.11663329583E+02  0.16937462445E+02  0.51100000000E-03 0. -1.
        -11    1    3    3    0    0  0.34486688804E+01  0.80943971310E+01 -0.17244948440E+01  0.89658499144E+01  0.51100000000E-03 0.  1.
        -12    1    3    3    0    0  0.70635590478E+01  0.13352992258E+02 -0.13469264346E+02  0.20239005675E+02  0.00000000000E+00 0.  1.
</event>
<event>
 7    1  0.1476909E-008  0.4614232E+02  0.7816164E-02  0.1320468E+00
        -11   -1    0    0    0    0  0.00000000000E+00  0.00000000000E+00  0.45593999997E+02  0.45594000000E+02  0.51100000000E-03 0.  1.
         11   -1    0    0    0    0 -0.00000000000E+00 -0.00000000000E+00 -0.45593999997E+02  0.45594000000E+02  0.51100000000E-03 0. -1.
    9900012    2    1    2    0    0 -0.25745425363E+02  0.34521391230E+02 -0.13212117237E+02  0.46142318504E+02  0.10000006771E+02 0.  0.
        -12    1    1    2    0    0  0.25745425363E+02 -0.34521391230E+02  0.13212117237E+02  0.45045681496E+02  0.00000000000E+00 0.  1.
         11    1    3    3    0    0 -0.86495515451E+01  0.12441636368E+02 -0.49155409008E+01  0.15930210295E+02  0.51100000000E-03 0. -1.
        -11    1    3    3    0    0 -0.12409965757E+02  0.20750076862E+02 -0.67807730626E+01  0.25110790977E+02  0.51100000000E-03 0.  1.
        -12    1    3    3    0    0 -0.46859080604E+01  0.13296780000E+01 -0.15158032738E+01  0.51013172317E+01  0.00000000000E+00 0.  1.
</event>
<event>
 7    1  0.1476909E-008  0.4614232E+02  0.7816164E-02  0.1320468E+00
        -11   -1    0    0    0    0  0.00000000000E+00  0.00000000000E+00  0.45593999997E+02  0.45594000000E+02  0.51100000000E-03 0.  1.
         11   -1    0    0    0    0 -0.00000000000E+00 -0.00000000000E+00 -0.45593999997E+02  0.45594000000E+02  0.51100000000E-03 0. -1.
    9900012    2    1    2    0    0  0.19661172982E+02 -0.10309772123E+02 -0.39195157193E+02  0.46142317947E+02  0.10000001694E+02 0.  0.
        -12    1    1    2    0    0 -0.19661172982E+02  0.10309772123E+02  0.39195157193E+02  0.45045682053E+02  0.00000000000E+00 0.  1.
         11    1    3    3    0    0  0.75172664873E+01 -0.67132648334E+00 -0.84616370693E+01  0.11338398337E+02  0.51100000000E-03 0. -1.
        -11    1    3    3    0    0  0.52118426840E+01 -0.54854794914E+01 -0.19888988497E+02  0.21279700494E+02  0.51100000000E-03 0.  1.
        -12    1    3    3    0    0  0.69320638109E+01 -0.41529661488E+01 -0.10844531626E+02  0.13524219116E+02  0.00000000000E+00 0.  1.
</event>
<event>
 7    1  0.1476909E-008  0.4614232E+02  0.7816164E-02  0.1320468E+00
        -11   -1    0    0    0    0  0.00000000000E+00  0.00000000000E+00  0.45593999997E+02  0.45594000000E+02  0.51100000000E-03 0.  1.
         11   -1    0    0    0    0 -0.00000000000E+00 -0.00000000000E+00 -0.45593999997E+02  0.45594000000E+02  0.51100000000E-03 0. -1.
    9900012    2    1    2    0    0 -0.32497227154E+02 -0.79947600732E+01 -0.30151740225E+02  0.46142318743E+02  0.10000008953E+02 0.  0.
        -12    1    1    2    0    0  0.32497227154E+02  0.79947600732E+01  0.30151740225E+02  0.45045681257E+02  0.00000000000E+00 0.  1.
         11    1    3    3    0    0 -0.19183000545E+02 -0.75675914835E+01 -0.19786407103E+02  0.28578975788E+02  0.51100000000E-03 0. -1.
        -11    1    3    3    0    0 -0.93577304974E+01 -0.94682950267E+00 -0.43937626855E+01  0.10381173198E+02  0.51100000000E-03 0.  1.
         12    1    3    3    0    0 -0.39564961115E+01  0.51966091292E+00 -0.59715704366E+01  0.71821697574E+01  0.00000000000E+00 0. -1.
</event>
<event>
 7    1  0.1476909E-008  0.4614232E+02  0.7816164E-02  0.1320468E+00
        -11   -1    0    0    0    0  0.00000000000E+00  0.00000000000E+00  0.45593999997E+02  0.45594000000E+02  0.51100000000E-03 0.  1.
         11   -1    0    0    0    0 -0.00000000000E+00 -0.00000000000E+00 -0.45593999997E+02  0.45594000000E+02  0.51100000000E-03 0. -1.
    9900012    2    1    2    0    0  0.41350398485E+02 -0.16647333395E+02 -0.64903299684E+01  0.46142317109E+02  0.99999940529E+01 0.  0.
        -12    1    1    2    0    0 -0.41350398485E+02  0.16647333395E+02  0.64903299684E+01  0.45045682891E+02  0.00000000000E+00 0.  1.
         11    1    3    3    0    0  0.15648763199E+02 -0.14552228057E+01 -0.26299174579E+01  0.15934802452E+02  0.51100000000E-03 0. -1.
        -11    1    3    3    0    0  0.17669958688E+02 -0.11192091978E+02 -0.17452725280E+01  0.20988957557E+02  0.51100000000E-03 0.  1.
         12    1    3    3    0    0  0.80316765975E+01 -0.40000186112E+01 -0.21151399826E+01  0.92185570998E+01  0.00000000000E+00 0. -1.
</event>
<event>
 7    1  0.1476909E-008  0.4614232E+02  0.7816164E-02  0.1320468E+00
        -11   -1    0    0    0    0  0.00000000000E+00  0.00000000000E+00  0.45593999997E+02  0.45594000000E+02  0.51100000000E-03 0. -1.
         11   -1    0    0    0    0 -0.00000000000E+00 -0.00000000000E+00 -0.45593999997E+02  0.45594000000E+02  0.51100000000E-03 0.  1.
    9900012    2    1    2    0    0 -0.39872183142E+02 -0.18327558810E+02  0.10169717835E+02  0.46142316952E+02  0.99999926204E+01 0.  0.
        -12    1    1    2    0    0  0.39872183142E+02  0.18327558810E+02 -0.10169717835E+02  0.45045683048E+02  0.00000000000E+00 0.  1.
         11    1    3    3    0    0 -0.14075556779E+02 -0.77729494888E+01  0.28601442982E+00  0.16081724003E+02  0.51100000000E-03 0.  1.
        -11    1    3    3    0    0 -0.20135180224E+02 -0.10104503309E+02  0.64898931761E+01  0.23444512865E+02  0.51100000000E-03 0. -1.
         12    1    3    3    0    0 -0.56614461388E+01 -0.45010601178E+00  0.33938102286E+01  0.66160800836E+01  0.00000000000E+00 0. -1.
</event>
<event>
 7    1  0.1476909E-008  0.4614232E+02  0.7816164E-02  0.1320468E+00
        -11   -1    0    0    0    0  0.00000000000E+00  0.00000000000E+00  0.45593999997E+02  0.45594000000E+02  0.51100000000E-03 0.  1.
         11   -1    0    0    0    0 -0.00000000000E+00 -0.00000000000E+00 -0.45593999997E+02  0.45594000000E+02  0.51100000000E-03 0. -1.
    9900012    2    1    2    0    0 -0.54168199184E+01 -0.32081626761E+01 -0.44603578182E+02  0.46142318382E+02  0.10000005661E+02 0.  0.
        -12    1    1    2    0    0  0.54168199184E+01  0.32081626761E+01  0.44603578182E+02  0.45045681618E+02  0.00000000000E+00 0.  1.
         11    1    3    3    0    0  0.80283509160E+00 -0.17590843389E+01 -0.27160775749E+02  0.27229518200E+02  0.51100000000E-03 0. -1.
        -11    1    3    3    0    0 -0.32008141873E+01 -0.12441471168E+01 -0.47318217454E+01  0.58466444052E+01  0.51100000000E-03 0.  1.
        -12    1    3    3    0    0 -0.30188408227E+01 -0.20493122046E+00 -0.12710980688E+02  0.13066155776E+02  0.00000000000E+00 0.  1.
</event>
<event>
 7    1  0.1476909E-008  0.4614231E+02  0.7816164E-02  0.1320468E+00
        -11   -1    0    0    0    0  0.00000000000E+00  0.00000000000E+00  0.45593999997E+02  0.45594000000E+02  0.51100000000E-03 0.  1.
         11   -1    0    0    0    0 -0.00000000000E+00 -0.00000000000E+00 -0.45593999997E+02  0.45594000000E+02  0.51100000000E-03 0. -1.
    9900012    2    1    2    0    0  0.23228371549E+00 -0.31156095658E+02 -0.32532408596E+02  0.46142313620E+02  0.99999622418E+01 0.  0.
        -12    1    1    2    0    0 -0.23228371549E+00  0.31156095658E+02  0.32532408596E+02  0.45045686380E+02  0.00000000000E+00 0.  1.
         11    1    3    3    0    0  0.32625832170E+00 -0.23138083035E+02 -0.22484982790E+02  0.32265334065E+02  0.51100000000E-03 0. -1.
        -11    1    3    3    0    0 -0.23482342051E+01 -0.20476048895E+01 -0.41345405877E+01  0.51769987249E+01  0.51100000000E-03 0.  1.
        -12    1    3    3    0    0  0.22542595988E+01 -0.59704077332E+01 -0.59128852186E+01  0.86999808303E+01  0.00000000000E+00 0.  1.
</event>
<event>
 7    1  0.1476909E-008  0.4614232E+02  0.7816164E-02  0.1320468E+00
        -11   -1    0    0    0    0  0.00000000000E+00  0.00000000000E+00  0.45593999997E+02  0.45594000000E+02  0.51100000000E-03 0.  1.
         11   -1    0    0    0    0 -0.00000000000E+00 -0.00000000000E+00 -0.45593999997E+02  0.45594000000E+02  0.51100000000E-03 0. -1.
    9900012    2    1    2    0    0  0.41248436931E+01  0.29086172848E+02 -0.34148114743E+02  0.46142317333E+02  0.99999960931E+01 0.  0.
        -12    1    1    2    0    0 -0.41248436931E+01 -0.29086172848E+02  0.34148114743E+02  0.45045682667E+02  0.00000000000E+00 0.  1.
         11    1    3    3    0    0  0.27333655014E+01  0.15500974853E+02 -0.17522488337E+02  0.23553961580E+02  0.51100000000E-03 0. -1.
        -11    1    3    3    0    0 -0.16253999558E+01  0.74859919403E+01 -0.50962923644E+01  0.92007715150E+01  0.51100000000E-03 0.  1.
        -12    1    3    3    0    0  0.30168781475E+01  0.60992060550E+01 -0.11529334042E+02  0.13387584237E+02  0.00000000000E+00 0.  1.
</event>
<event>
 7    1  0.1476909E-008  0.4614232E+02  0.7816164E-02  0.1320468E+00
        -11   -1    0    0    0    0  0.00000000000E+00  0.00000000000E+00  0.45593999997E+02  0.45594000000E+02  0.51100000000E-03 0.  1.
         11   -1    0    0    0    0 -0.00000000000E+00 -0.00000000000E+00 -0.45593999997E+02  0.45594000000E+02  0.51100000000E-03 0. -1.
    9900012    2    1    2    0    0  0.28124229697E+02  0.29202904270E+02 -0.19629852840E+02  0.46142322779E+02  0.10000045753E+02 0.  0.
        -12    1    1    2    0    0 -0.28124229697E+02 -0.29202904270E+02  0.19629852840E+02  0.45045677221E+02  0.00000000000E+00 0.  1.
         11    1    3    3    0    0  0.43085540628E+01  0.66132621171E+01 -0.60293372293E+01  0.99323603250E+01  0.51100000000E-03 0. -1.
        -11    1    3    3    0    0  0.22246775880E+02  0.22671852325E+02 -0.13789147666E+02  0.34627626522E+02  0.51100000000E-03 0.  1.
         12    1    3    3    0    0  0.15688997535E+01 -0.82210172449E-01  0.18863205484E+00  0.15823359318E+01  0.00000000000E+00 0. -1.
</event>
<event>
 7    1  0.1476909E-008  0.4614232E+02  0.7816164E-02  0.1320468E+00
        -11   -1    0    0    0    0  0.00000000000E+00  0.00000000000E+00  0.45593999997E+02  0.45594000000E+02  0.51100000000E-03 0. -1.
         11   -1    0    0    0    0 -0.00000000000E+00 -0.00000000000E+00 -0.45593999997E+02  0.45594000000E+02  0.51100000000E-03 0.  1.
    9900012    2    1    2    0    0  0.33320660155E+02 -0.60978120987E+01  0.29692823670E+02  0.46142317820E+02  0.10000000538E+02 0.  0.
        -12    1    1    2    0    0 -0.33320660155E+02  0.60978120987E+01 -0.29692823670E+02  0.45045682180E+02  0.00000000000E+00 0.  1.
         11    1    3    3    0    0  0.33079906013E+01  0.15424312298E+01  0.34859747206E+01  0.50471691007E+01  0.51100000000E-03 0. -1.
        -11    1    3    3    0    0  0.50904939502E+01  0.11629176140E+01  0.44822172119E+01  0.68815534169E+01  0.51100000000E-03 0.  1.
         12    1    3    3    0    0  0.24922175603E+02 -0.88031609425E+01  0.21724631738E+02  0.34213595303E+02  0.00000000000E+00 0. -1.
</event>
<event>
 7    1  0.1476909E-008  0.4614232E+02  0.7816164E-02  0.1320468E+00
        -11   -1    0    0    0    0  0.00000000000E+00  0.00000000000E+00  0.45593999997E+02  0.45594000000E+02  0.51100000000E-03 0. -1.
         11   -1    0    0    0    0 -0.00000000000E+00 -0.00000000000E+00 -0.45593999997E+02  0.45594000000E+02  0.51100000000E-03 0.  1.
    9900012    2    1    2    0    0  0.14663436828E+02 -0.35733483032E+02  0.23177904217E+02  0.46142318374E+02  0.10000005589E+02 0.  0.
        -12    1    1    2    0    0 -0.14663436828E+02  0.35733483032E+02 -0.23177904217E+02  0.45045681626E+02  0.00000000000E+00 0.  1.
         11    1    3    3    0    0  0.11672465442E+02 -0.24585111365E+02  0.15502780594E+02  0.31321084859E+02  0.51100000000E-03 0. -1.
        -11    1    3    3    0    0  0.28576024636E+00 -0.73000865818E+01  0.22577365589E+01  0.76465873205E+01  0.51100000000E-03 0.  1.
         12    1    3    3    0    0  0.27052111400E+01 -0.38482850852E+01  0.54173870642E+01  0.71746461942E+01  0.00000000000E+00 0. -1.
</event>
<event>
 7    1  0.1476909E-008  0.4614232E+02  0.7816164E-02  0.1320468E+00
        -11   -1    0    0    0    0  0.00000000000E+00  0.00000000000E+00  0.45593999997E+02  0.45594000000E+02  0.51100000000E-03 0.  1.
         11   -1    0    0    0    0 -0.00000000000E+00 -0.00000000000E+00 -0.45593999997E+02  0.45594000000E+02  0.51100000000E-03 0. -1.
    9900012    2    1    2    0    0 -0.16563592396E+02  0.97326153804E+01 -0.40743553040E+02  0.46142317526E+02  0.99999978597E+01 0.  0.
        -12    1    1    2    0    0  0.16563592396E+02 -0.97326153804E+01  0.40743553040E+02  0.45045682474E+02  0.00000000000E+00 0.  1.
         11    1    3    3    0    0 -0.11136642323E+02  0.39911002585E+01 -0.24447070655E+02  0.27159030678E+02  0.51100000000E-03 0. -1.
        -11    1    3    3    0    0 -0.10369562598E+01  0.50355453002E+01 -0.10367601316E+02  0.11572344277E+02  0.51100000000E-03 0.  1.
        -12    1    3    3    0    0 -0.43899938127E+01  0.70596982176E+00 -0.59288810691E+01  0.74109425714E+01  0.00000000000E+00 0.  1.
</event>
<event>
 7    1  0.1476909E-008  0.4614232E+02  0.7816164E-02  0.1320468E+00
        -11   -1    0    0    0    0  0.00000000000E+00  0.00000000000E+00  0.45593999997E+02  0.45594000000E+02  0.51100000000E-03 0. -1.
         11   -1    0    0    0    0 -0.00000000000E+00 -0.00000000000E+00 -0.45593999997E+02  0.45594000000E+02  0.51100000000E-03 0.  1.
    9900012    2    1    2    0    0  0.27323542078E+02 -0.22622151681E+02  0.27762849736E+02  0.46142317367E+02  0.99999964070E+01 0.  0.
        -12    1    1    2    0    0 -0.27323542078E+02  0.22622151681E+02 -0.27762849736E+02  0.45045682633E+02  0.00000000000E+00 0.  1.
         11    1    3    3    0    0  0.13041769544E+02 -0.13701707002E+02  0.13606064495E+02  0.23301277194E+02  0.51100000000E-03 0. -1.
        -11    1    3    3    0    0  0.74980049384E+00 -0.11554636750E+01 -0.46984770260E+00  0.14553536373E+01  0.51100000000E-03 0.  1.
         12    1    3    3    0    0  0.13531972040E+02 -0.77649810045E+01  0.14626632944E+02  0.21385686535E+02  0.00000000000E+00 0. -1.
</event>
<event>
 7    1  0.1476909E-008  0.4614232E+02  0.7816164E-02  0.1320468E+00
        -11   -1    0    0    0    0  0.00000000000E+00  0.00000000000E+00  0.45593999997E+02  0.45594000000E+02  0.51100000000E-03 0.  1.
         11   -1    0    0    0    0 -0.00000000000E+00 -0.00000000000E+00 -0.45593999997E+02  0.45594000000E+02  0.51100000000E-03 0. -1.
    9900012    2    1    2    0    0  0.36857066480E+02  0.97451099430E+01 -0.23993811769E+02  0.46142317404E+02  0.99999967457E+01 0.  0.
        -12    1    1    2    0    0 -0.36857066480E+02 -0.97451099430E+01  0.23993811769E+02  0.45045682596E+02  0.00000000000E+00 0.  1.
         11    1    3    3    0    0  0.30150707212E+02  0.73035076526E+01 -0.19544739542E+02  0.36666104422E+02  0.51100000000E-03 0. -1.
        -11    1    3    3    0    0  0.23736573242E+01 -0.97432448097E+00 -0.32171564457E+00  0.25859347447E+01  0.51100000000E-03 0.  1.
        -12    1    3    3    0    0  0.43327019440E+01  0.34159267713E+01 -0.41273565818E+01  0.68902782379E+01  0.00000000000E+00 0.  1.
</event>
<event>
 7    1  0.1476909E-008  0.4614232E+02  0.7816164E-02  0.1320468E+00
        -11   -1    0    0    0    0  0.00000000000E+00  0.00000000000E+00  0.45593999997E+02  0.45594000000E+02  0.51100000000E-03 0.  1.
         11   -1    0    0    0    0 -0.00000000000E+00 -0.00000000000E+00 -0.45593999997E+02  0.45594000000E+02  0.51100000000E-03 0. -1.
    9900012    2    1    2    0    0  0.16024339726E+02 -0.37718851847E+02 -0.18698187846E+02  0.46142317887E+02  0.10000001148E+02 0.  0.
        -12    1    1    2    0    0 -0.16024339726E+02  0.37718851847E+02  0.18698187846E+02  0.45045682113E+02  0.00000000000E+00 0.  1.
         11    1    3    3    0    0  0.73068460575E+01 -0.10156807702E+02 -0.71591286462E+01  0.14415403749E+02  0.51100000000E-03 0. -1.
        -11    1    3    3    0    0  0.33691164107E+01 -0.85097430766E+01 -0.73746750805E+00  0.91820766281E+01  0.51100000000E-03 0.  1.
        -12    1    3    3    0    0  0.53483772577E+01 -0.19052301068E+02 -0.10801591692E+02  0.22544837510E+02  0.00000000000E+00 0.  1.
</event>
<event>
 7    1  0.1476909E-008  0.4614232E+02  0.7816164E-02  0.1320468E+00
        -11   -1    0    0    0    0  0.00000000000E+00  0.00000000000E+00  0.45593999997E+02  0.45594000000E+02  0.51100000000E-03 0. -1.
         11   -1    0    0    0    0 -0.00000000000E+00 -0.00000000000E+00 -0.45593999997E+02  0.45594000000E+02  0.51100000000E-03 0.  1.
    9900012    2    1    2    0    0 -0.79481755008E+01 -0.32334045875E+02  0.30338908453E+02  0.46142318936E+02  0.10000010711E+02 0.  0.
        -12    1    1    2    0    0  0.79481755008E+01  0.32334045875E+02 -0.30338908453E+02  0.45045681064E+02  0.00000000000E+00 0.  1.
         11    1    3    3    0    0 -0.25621828463E+01 -0.25163903748E+02  0.21665556993E+02  0.33304402004E+02  0.51100000000E-03 0. -1.
        -11    1    3    3    0    0 -0.26202486371E+01 -0.18545610691E+01  0.45329910317E+01  0.55545573752E+01  0.51100000000E-03 0.  1.
         12    1    3    3    0    0 -0.27657440174E+01 -0.53155810583E+01  0.41403604279E+01  0.72833595565E+01  0.00000000000E+00 0. -1.
</event>
<event>
 7    1  0.1476909E-008  0.4614232E+02  0.7816164E-02  0.1320468E+00
        -11   -1    0    0    0    0  0.00000000000E+00  0.00000000000E+00  0.45593999997E+02  0.45594000000E+02  0.51100000000E-03 0.  1.
         11   -1    0    0    0    0 -0.00000000000E+00 -0.00000000000E+00 -0.45593999997E+02  0.45594000000E+02  0.51100000000E-03 0. -1.
    9900012    2    1    2    0    0 -0.31780665402E+02 -0.21890130978E+02 -0.23236285485E+02  0.46142317734E+02  0.99999997551E+01 0.  0.
        -12    1    1    2    0    0  0.31780665402E+02  0.21890130978E+02  0.23236285485E+02  0.45045682266E+02  0.00000000000E+00 0.  1.
         11    1    3    3    0    0 -0.20956384795E+02 -0.11668532884E+02 -0.10171597279E+02  0.26053524038E+02  0.51100000000E-03 0. -1.
        -11    1    3    3    0    0 -0.72196665766E+01 -0.53658736927E+01 -0.94339761144E+01  0.13035186671E+02  0.51100000000E-03 0.  1.
        -12    1    3    3    0    0 -0.36046140310E+01 -0.48557244015E+01 -0.36307120912E+01  0.70536070251E+01  0.00000000000E+00 0.  1.
</event>
<event>
 7    1  0.1476909E-008  0.4614232E+02  0.7816164E-02  0.1320468E+00
        -11   -1    0    0    0    0  0.00000000000E+00  0.00000000000E+00  0.45593999997E+02  0.45594000000E+02  0.51100000000E-03 0. -1.
         11   -1    0    0    0    0 -0.00000000000E+00 -0.00000000000E+00 -0.45593999997E+02  0.45594000000E+02  0.51100000000E-03 0.  1.
    9900012    2    1    2    0    0 -0.38160869430E+02 -0.16376909794E+01  0.23878431560E+02  0.46142317841E+02  0.10000000725E+02 0.  0.
        -12    1    1    2    0    0  0.38160869430E+02  0.16376909794E+01 -0.23878431560E+02  0.45045682159E+02  0.00000000000E+00 0.  1.
         11    1    3    3    0    0 -0.20147903527E+01 -0.15183500458E+01  0.42189640417E+00  0.25578826915E+01  0.51100000000E-03 0. -1.
        -11    1    3    3    0    0 -0.19664423583E+02 -0.31964828615E+00  0.88722242925E+01  0.21575636584E+02  0.51100000000E-03 0.  1.
         12    1    3    3    0    0 -0.16481655495E+02  0.20030735250E+00  0.14584310864E+02  0.22008798565E+02  0.00000000000E+00 0. -1.
</event>
<event>
 7    1  0.1476909E-008  0.4614232E+02  0.7816164E-02  0.1320468E+00
        -11   -1    0    0    0    0  0.00000000000E+00  0.00000000000E+00  0.45593999997E+02  0.45594000000E+02  0.51100000000E-03 0.  1.
         11   -1    0    0    0    0 -0.00000000000E+00 -0.00000000000E+00 -0.45593999997E+02  0.45594000000E+02  0.51100000000E-03 0. -1.
    9900012    2    1    2    0    0 -0.38984878823E+02  0.97204352217E+01 -0.20366783300E+02  0.46142317635E+02  0.99999988506E+01 0.  0.
        -12    1    1    2    0    0  0.38984878823E+02 -0.97204352217E+01  0.20366783300E+02  0.45045682365E+02  0.00000000000E+00 0.  1.
         11    1    3    3    0    0 -0.24506637178E+02  0.63140193630E+01 -0.10724376240E+02  0.27485529870E+02  0.51100000000E-03 0. -1.
        -11    1    3    3    0    0 -0.24605476989E+01  0.15916951783E+01 -0.46949294777E+01  0.55344513351E+01  0.51100000000E-03 0.  1.
        -12    1    3    3    0    0 -0.12017693946E+02  0.18147206805E+01 -0.49474775826E+01  0.13122336429E+02  0.00000000000E+00 0.  1.
</event>
<event>
 7    1  0.1476909E-008  0.4614232E+02  0.7816164E-02  0.1320468E+00
        -11   -1    0    0    0    0  0.00000000000E+00  0.00000000000E+00  0.45593999997E+02  0.45594000000E+02  0.51100000000E-03 0.  1.
         11   -1    0    0    0    0 -0.00000000000E+00 -0.00000000000E+00 -0.45593999997E+02  0.45594000000E+02  0.51100000000E-03 0. -1.
    9900012    2    1    2    0    0 -0.22720433364E+02 -0.36031630479E+02 -0.14649812633E+02  0.46142317661E+02  0.99999990879E+01 0.  0.
        -12    1    1    2    0    0  0.22720433364E+02  0.36031630479E+02  0.14649812633E+02  0.45045682339E+02  0.00000000000E+00 0.  1.
         11    1    3    3    0    0 -0.15748316664E+01 -0.61535741735E+01 -0.19322276768E+01  0.66392826377E+01  0.51100000000E-03 0. -1.
        -11    1    3    3    0    0 -0.18829465069E+02 -0.23348702323E+02 -0.12705220270E+02  0.32575040711E+02  0.51100000000E-03 0.  1.
        -12    1    3    3    0    0 -0.23161366277E+01 -0.65293539822E+01 -0.12364686371E-01  0.69279943120E+01  0.00000000000E+00 0.  1.
</event>
<event>
 7    1  0.1476909E-008  0.4614232E+02  0.7816164E-02  0.1320468E+00
        -11   -1    0    0    0    0  0.00000000000E+00  0.00000000000E+00  0.45593999997E+02  0.45594000000E+02  0.51100000000E-03 0.  1.
         11   -1    0    0    0    0 -0.00000000000E+00 -0.00000000000E+00 -0.45593999997E+02  0.45594000000E+02  0.51100000000E-03 0. -1.
    9900012    2    1    2    0    0  0.20480125057E+02 -0.44279074852E+01 -0.39875703619E+02  0.46142316232E+02  0.99999860531E+01 0.  0.
        -12    1    1    2    0    0 -0.20480125057E+02  0.44279074852E+01  0.39875703619E+02  0.45045683768E+02  0.00000000000E+00 0.  1.
         11    1    3    3    0    0  0.20077443962E+02 -0.45048159290E+01 -0.34662305857E+02  0.40309708138E+02  0.51100000000E-03 0. -1.
        -11    1    3    3    0    0 -0.48121106700E+00 -0.43766181676E+00 -0.45878001421E+01  0.46336834551E+01  0.51100000000E-03 0.  1.
         12    1    3    3    0    0  0.88389216171E+00  0.51457026054E+00 -0.62559762041E+00  0.11989246387E+01  0.00000000000E+00 0. -1.
</event>
<event>
 7    1  0.1476909E-008  0.4614232E+02  0.7816164E-02  0.1320468E+00
        -11   -1    0    0    0    0  0.00000000000E+00  0.00000000000E+00  0.45593999997E+02  0.45594000000E+02  0.51100000000E-03 0.  1.
         11   -1    0    0    0    0 -0.00000000000E+00 -0.00000000000E+00 -0.45593999997E+02  0.45594000000E+02  0.51100000000E-03 0. -1.
    9900012    2    1    2    0    0  0.29491205081E+02 -0.17455766540E+02 -0.29234885186E+02  0.46142317916E+02  0.10000001410E+02 0.  0.
        -12    1    1    2    0    0 -0.29491205081E+02  0.17455766540E+02  0.29234885186E+02  0.45045682084E+02  0.00000000000E+00 0.  1.
         11    1    3    3    0    0  0.19979146270E+02 -0.10768268159E+02 -0.23131477802E+02  0.32406591157E+02  0.51100000000E-03 0. -1.
        -11    1    3    3    0    0 -0.95251821037E-01 -0.12688469273E+01 -0.54387531167E+00  0.13837796249E+01  0.51100000000E-03 0.  1.
         12    1    3    3    0    0  0.96073106314E+01 -0.54186514534E+01 -0.55595320722E+01  0.12351947134E+02  0.00000000000E+00 0. -1.
</event>
<event>
 7    1  0.1476909E-008  0.4614232E+02  0.7816164E-02  0.1320468E+00
        -11   -1    0    0    0    0  0.00000000000E+00  0.00000000000E+00  0.45593999997E+02  0.45594000000E+02  0.51100000000E-03 0.  1.
         11   -1    0    0    0    0 -0.00000000000E+00 -0.00000000000E+00 -0.45593999997E+02  0.45594000000E+02  0.51100000000E-03 0. -1.
    9900012    2    1    2    0    0  0.25924281643E+02 -0.24661040946E+02 -0.27365639196E+02  0.46142317322E+02  0.99999959981E+01 0.  0.
        -12    1    1    2    0    0 -0.25924281643E+02  0.24661040946E+02  0.27365639196E+02  0.45045682678E+02  0.00000000000E+00 0.  1.
         11    1    3    3    0    0  0.14638613882E+02 -0.15311615257E+02 -0.11193330299E+02  0.23958823460E+02  0.51100000000E-03 0. -1.
        -11    1    3    3    0    0  0.11576926641E+02 -0.93514618034E+01 -0.15967574498E+02  0.21827471313E+02  0.51100000000E-03 0.  1.
        -12    1    3    3    0    0 -0.29125887990E+00  0.20361138872E-02 -0.20473439943E+00  0.35602254872E+00  0.00000000000E+00 0.  1.
</event>
<event>
 7    1  0.1476909E-008  0.4614233E+02  0.7816164E-02  0.1320468E+00
        -11   -1    0    0    0    0  0.00000000000E+00  0.00000000000E+00  0.45593999997E+02  0.45594000000E+02  0.51100000000E-03 0. -1.
         11   -1    0    0    0    0 -0.00000000000E+00 -0.00000000000E+00 -0.45593999997E+02  0.45594000000E+02  0.51100000000E-03 0.  1.
    9900012    2    1    2    0    0 -0.30105072565E+02 -0.23583381563E+02  0.23803811155E+02  0.46142326450E+02  0.10000079232E+02 0.  0.
        -12    1    1    2    0    0  0.30105072565E+02  0.23583381563E+02 -0.23803811155E+02  0.45045673550E+02  0.00000000000E+00 0.  1.
         11    1    3    3    0    0 -0.88667680037E+01 -0.83358171185E+01  0.10096321480E+02  0.15812688878E+02  0.51100000000E-03 0. -1.
        -11    1    3    3    0    0 -0.13229236409E+01 -0.36405350229E+01  0.30703826529E+01  0.49427595641E+01  0.51100000000E-03 0.  1.
         12    1    3    3    0    0 -0.19915380920E+02 -0.11607029422E+02  0.10637107022E+02  0.25386878008E+02  0.00000000000E+00 0. -1.
</event>
<event>
 7    1  0.1476909E-008  0.4614232E+02  0.7816164E-02  0.1320468E+00
        -11   -1    0    0    0    0  0.00000000000E+00  0.00000000000E+00  0.45593999997E+02  0.45594000000E+02  0.51100000000E-03 0.  1.
         11   -1    0    0    0    0 -0.00000000000E+00 -0.00000000000E+00 -0.45593999997E+02  0.45594000000E+02  0.51100000000E-03 0. -1.
    9900012    2    1    2    0    0 -0.15369247525E+02  0.90160807557E+01 -0.41371608835E+02  0.46142317640E+02  0.99999988947E+01 0.  0.
        -12    1    1    2    0    0  0.15369247525E+02 -0.90160807557E+01  0.41371608835E+02  0.45045682360E+02  0.00000000000E+00 0.  1.
         11    1    3    3    0    0 -0.15293109202E+01  0.17272822507E+01 -0.15412112831E+02  0.15583822318E+02  0.51100000000E-03 0. -1.
        -11    1    3    3    0    0 -0.36813551994E+01  0.34961987017E+01 -0.61449582116E+01  0.79709656347E+01  0.51100000000E-03 0.  1.
         12    1    3    3    0    0 -0.10158581405E+02  0.37925998033E+01 -0.19814537793E+02  0.22587529687E+02  0.00000000000E+00 0. -1.
</event>
<event>
 7    1  0.1476909E-008  0.4614232E+02  0.7816164E-02  0.1320468E+00
        -11   -1    0    0    0    0  0.00000000000E+00  0.00000000000E+00  0.45593999997E+02  0.45594000000E+02  0.51100000000E-03 0.  1.
         11   -1    0    0    0    0 -0.00000000000E+00 -0.00000000000E+00 -0.45593999997E+02  0.45594000000E+02  0.51100000000E-03 0. -1.
    9900012    2    1    2    0    0 -0.22386570598E+01 -0.19428921375E+02 -0.40578552136E+02  0.46142318024E+02  0.10000002400E+02 0.  0.
        -12    1    1    2    0    0  0.22386570598E+01  0.19428921375E+02  0.40578552136E+02  0.45045681976E+02  0.00000000000E+00 0.  1.
         11    1    3    3    0    0  0.37664331857E+01 -0.76143477499E+01 -0.13146592390E+02  0.15652386474E+02  0.51100000000E-03 0. -1.
        -11    1    3    3    0    0 -0.10106139512E+01 -0.23023989264E+01 -0.63118673621E+01  0.67942660555E+01  0.51100000000E-03 0.  1.
         12    1    3    3    0    0 -0.49944762943E+01 -0.95121746984E+01 -0.21120092384E+02  0.23695665495E+02  0.00000000000E+00 0. -1.
</event>
<event>
 7    1  0.1476909E-008  0.4614231E+02  0.7816164E-02  0.1320468E+00
        -11   -1    0    0    0    0  0.00000000000E+00  0.00000000000E+00  0.45593999997E+02  0.45594000000E+02  0.51100000000E-03 0.  1.
         11   -1    0    0    0    0 -0.00000000000E+00 -0.00000000000E+00 -0.45593999997E+02  0.45594000000E+02  0.51100000000E-03 0. -1.
    9900012    2    1    2    0    0 -0.71220408351E+01 -0.12469235802E+02 -0.42695532527E+02  0.46142314248E+02  0.99999679601E+01 0.  0.
        -12    1    1    2    0    0  0.71220408351E+01  0.12469235802E+02  0.42695532527E+02  0.45045685752E+02  0.00000000000E+00 0.  1.
         11    1    3    3    0    0 -0.46072794882E+01 -0.49776460695E+01 -0.21729938396E+02  0.22763879450E+02  0.51100000000E-03 0. -1.
        -11    1    3    3    0    0 -0.29213509369E+01 -0.60684618756E+01 -0.85942365785E+01  0.10918856326E+02  0.51100000000E-03 0.  1.
        -12    1    3    3    0    0  0.40658958999E+00 -0.14231278566E+01 -0.12371357553E+02  0.12459578471E+02  0.00000000000E+00 0.  1.
</event>
<event>
 7    1  0.1476909E-008  0.4614232E+02  0.7816164E-02  0.1320468E+00
        -11   -1    0    0    0    0  0.00000000000E+00  0.00000000000E+00  0.45593999997E+02  0.45594000000E+02  0.51100000000E-03 0.  1.
         11   -1    0    0    0    0 -0.00000000000E+00 -0.00000000000E+00 -0.45593999997E+02  0.45594000000E+02  0.51100000000E-03 0. -1.
    9900012    2    1    2    0    0 -0.16822050937E+02 -0.18890292190E+02 -0.37273166598E+02  0.46142317799E+02  0.10000000342E+02 0.  0.
        -12    1    1    2    0    0  0.16822050937E+02  0.18890292190E+02  0.37273166598E+02  0.45045682201E+02  0.00000000000E+00 0.  1.
         11    1    3    3    0    0 -0.13042731090E+02 -0.17361909255E+02 -0.28784873359E+02  0.36057144393E+02  0.51100000000E-03 0. -1.
        -11    1    3    3    0    0 -0.20201675957E+00 -0.34014935749E+00  0.31700390407E+00  0.50695571095E+00  0.51100000000E-03 0.  1.
         12    1    3    3    0    0 -0.35773030873E+01 -0.11882335769E+01 -0.88052971436E+01  0.95782176943E+01  0.00000000000E+00 0. -1.
</event>
<event>
 7    1  0.1476909E-008  0.4614232E+02  0.7816164E-02  0.1320468E+00
        -11   -1    0    0    0    0  0.00000000000E+00  0.00000000000E+00  0.45593999997E+02  0.45594000000E+02  0.51100000000E-03 0.  1.
         11   -1    0    0    0    0 -0.00000000000E+00 -0.00000000000E+00 -0.45593999997E+02  0.45594000000E+02  0.51100000000E-03 0. -1.
    9900012    2    1    2    0    0  0.11453534918E+01 -0.24286587061E+02 -0.37920487000E+02  0.46142317854E+02  0.10000000846E+02 0.  0.
        -12    1    1    2    0    0 -0.11453534918E+01  0.24286587061E+02  0.37920487000E+02  0.45045682146E+02  0.00000000000E+00 0.  1.
         11    1    3    3    0    0  0.47728360067E-01 -0.12997222800E+02 -0.13510777177E+02  0.18747564608E+02  0.51100000000E-03 0. -1.
        -11    1    3    3    0    0 -0.18000102915E-01 -0.34259443190E+01 -0.13325439957E+02  0.13758806954E+02  0.51100000000E-03 0.  1.
        -12    1    3    3    0    0  0.11156252346E+01 -0.78634199420E+01 -0.11084269865E+02  0.13635946293E+02  0.00000000000E+00 0.  1.
</event>
<event>
 7    1  0.1476909E-008  0.4614232E+02  0.7816164E-02  0.1320468E+00
        -11   -1    0    0    0    0  0.00000000000E+00  0.00000000000E+00  0.45593999997E+02  0.45594000000E+02  0.51100000000E-03 0.  1.
         11   -1    0    0    0    0 -0.00000000000E+00 -0.00000000000E+00 -0.45593999997E+02  0.45594000000E+02  0.51100000000E-03 0. -1.
    9900012    2    1    2    0    0 -0.31189551697E+02 -0.32213751335E+02  0.43127297244E+01  0.46142317102E+02  0.99999939861E+01 0.  0.
        -12    1    1    2    0    0  0.31189551697E+02  0.32213751335E+02 -0.43127297244E+01  0.45045682898E+02  0.00000000000E+00 0.  1.
         11    1    3    3    0    0 -0.18518606218E+02 -0.15244980102E+02  0.28130082303E+01  0.24150801439E+02  0.51100000000E-03 0.  1.
        -11    1    3    3    0    0 -0.12627332438E+02 -0.17385827307E+02  0.12995323943E+01  0.21526850684E+02  0.51100000000E-03 0. -1.
        -12    1    3    3    0    0 -0.43613040234E-01  0.41705607460E+00  0.20018909980E+00  0.46466497857E+00  0.00000000000E+00 0.  1.
</event>
<event>
 7    1  0.1476909E-008  0.4614232E+02  0.7816164E-02  0.1320468E+00
        -11   -1    0    0    0    0  0.00000000000E+00  0.00000000000E+00  0.45593999997E+02  0.45594000000E+02  0.51100000000E-03 0. -1.
         11   -1    0    0    0    0 -0.00000000000E+00 -0.00000000000E+00 -0.45593999997E+02  0.45594000000E+02  0.51100000000E-03 0.  1.
    9900012    2    1    2    0    0  0.99742164376E+01  0.87019415255E+00  0.43918916466E+02  0.46142318132E+02  0.10000003385E+02 0.  0.
        -12    1    1    2    0    0 -0.99742164376E+01 -0.87019415255E+00 -0.43918916466E+02  0.45045681868E+02  0.00000000000E+00 0.  1.
         11    1    3    3    0    0  0.88161622311E+00  0.11883592578E+01  0.16993653789E+02  0.17057951643E+02  0.51100000000E-03 0. -1.
        -11    1    3    3    0    0  0.47771375863E+01  0.22848815110E+01  0.18723608356E+02  0.19458037855E+02  0.51100000000E-03 0.  1.
        -12    1    3    3    0    0  0.43154626282E+01 -0.26030466163E+01  0.82016543203E+01  0.96263286340E+01  0.00000000000E+00 0.  1.
</event>
<event>
 7    1  0.1476909E-008  0.4614232E+02  0.7816164E-02  0.1320468E+00
        -11   -1    0    0    0    0  0.00000000000E+00  0.00000000000E+00  0.45593999997E+02  0.45594000000E+02  0.51100000000E-03 0. -1.
         11   -1    0    0    0    0 -0.00000000000E+00 -0.00000000000E+00 -0.45593999997E+02  0.45594000000E+02  0.51100000000E-03 0.  1.
    9900012    2    1    2    0    0 -0.29003054135E+02  0.31951236659E+02  0.12924969574E+02  0.46142317502E+02  0.99999976358E+01 0.  0.
        -12    1    1    2    0    0  0.29003054135E+02 -0.31951236659E+02 -0.12924969574E+02  0.45045682498E+02  0.00000000000E+00 0.  1.
         11    1    3    3    0    0 -0.57011685076E+01  0.62854991816E+01  0.81053106245E-01  0.84863061565E+01  0.51100000000E-03 0. -1.
        -11    1    3    3    0    0 -0.35950400384E+01  0.41733285054E+01 -0.61065889687E+00  0.55420112091E+01  0.51100000000E-03 0.  1.
         12    1    3    3    0    0 -0.19706845589E+02  0.21492408972E+02  0.13454575365E+02  0.32114000136E+02  0.00000000000E+00 0. -1.
</event>
<event>
 7    1  0.1476909E-008  0.4614232E+02  0.7816164E-02  0.1320468E+00
        -11   -1    0    0    0    0  0.00000000000E+00  0.00000000000E+00  0.45593999997E+02  0.45594000000E+02  0.51100000000E-03 0.  1.
         11   -1    0    0    0    0 -0.00000000000E+00 -0.00000000000E+00 -0.45593999997E+02  0.45594000000E+02  0.51100000000E-03 0. -1.
    9900012    2    1    2    0    0  0.21241686362E+02 -0.24699895636E+02 -0.31109796263E+02  0.46142317550E+02  0.99999980729E+01 0.  0.
        -12    1    1    2    0    0 -0.21241686362E+02  0.24699895636E+02  0.31109796263E+02  0.45045682450E+02  0.00000000000E+00 0.  1.
         11    1    3    3    0    0  0.45850446254E+01 -0.71365490397E+01 -0.11036006888E+02  0.13919282119E+02  0.51100000000E-03 0. -1.
        -11    1    3    3    0    0  0.15491909399E+02 -0.12813745676E+02 -0.17705277076E+02  0.26789329437E+02  0.51100000000E-03 0.  1.
        -12    1    3    3    0    0  0.11647323371E+01 -0.47496009204E+01 -0.23685122981E+01  0.54337059937E+01  0.00000000000E+00 0.  1.
</event>
<event>
 7    1  0.1476909E-008  0.4614231E+02  0.7816164E-02  0.1320468E+00
        -11   -1    0    0    0    0  0.00000000000E+00  0.00000000000E+00  0.45593999997E+02  0.45594000000E+02  0.51100000000E-03 0. -1.
         11   -1    0    0    0    0 -0.00000000000E+00 -0.00000000000E+00 -0.45593999997E+02  0.45594000000E+02  0.51100000000E-03 0.  1.
    9900012    2    1    2    0    0 -0.14372287818E+02 -0.44347585198E+01  0.42460382525E+02  0.46142314031E+02  0.99999659874E+01 0.  0.
        -12    1    1    2    0    0  0.14372287818E+02  0.44347585198E+01 -0.42460382525E+02  0.45045685969E+02  0.00000000000E+00 0.  1.
         11    1    3    3    0    0 -0.10524900419E+02 -0.30002496005E+01  0.27886281848E+02  0.29956964834E+02  0.51100000000E-03 0. -1.
        -11    1    3    3    0    0 -0.30540152049E+01 -0.31743462247E+01  0.62618834577E+01  0.76560216513E+01  0.51100000000E-03 0.  1.
         12    1    3    3    0    0 -0.79337219377E+00  0.17398373054E+01  0.83122172195E+01  0.85293275462E+01  0.00000000000E+00 0. -1.
</event>
<event>
 7    1  0.1476909E-008  0.4614232E+02  0.7816164E-02  0.1320468E+00
        -11   -1    0    0    0    0  0.00000000000E+00  0.00000000000E+00  0.45593999997E+02  0.45594000000E+02  0.51100000000E-03 0.  1.
         11   -1    0    0    0    0 -0.00000000000E+00 -0.00000000000E+00 -0.45593999997E+02  0.45594000000E+02  0.51100000000E-03 0. -1.
    9900012    2    1    2    0    0  0.10430715173E+02 -0.33117758687E+01 -0.43696061134E+02  0.46142318331E+02  0.10000005196E+02 0.  0.
        -12    1    1    2    0    0 -0.10430715173E+02  0.33117758687E+01  0.43696061134E+02  0.45045681669E+02  0.00000000000E+00 0.  1.
         11    1    3    3    0    0  0.44147460092E+01 -0.10262156160E+00 -0.29460246113E+02  0.29789370836E+02  0.51100000000E-03 0. -1.
        -11    1    3    3    0    0  0.65811626530E+01 -0.30416635817E+01 -0.13893177896E+02  0.15671113921E+02  0.51100000000E-03 0.  1.
         12    1    3    3    0    0 -0.56519348934E+00 -0.16749072538E+00 -0.34263712484E+00  0.68183357412E+00  0.00000000000E+00 0. -1.
</event>
<event>
 7    1  0.1476909E-008  0.4614232E+02  0.7816164E-02  0.1320468E+00
        -11   -1    0    0    0    0  0.00000000000E+00  0.00000000000E+00  0.45593999997E+02  0.45594000000E+02  0.51100000000E-03 0.  1.
         11   -1    0    0    0    0 -0.00000000000E+00 -0.00000000000E+00 -0.45593999997E+02  0.45594000000E+02  0.51100000000E-03 0. -1.
    9900012    2    1    2    0    0 -0.27174400812E+02  0.35190089875E+02 -0.72334681734E+01  0.46142317113E+02  0.99999940905E+01 0.  0.
        -12    1    1    2    0    0  0.27174400812E+02 -0.35190089875E+02  0.72334681734E+01  0.45045682887E+02  0.00000000000E+00 0.  1.
         11    1    3    3    0    0 -0.19421600718E+02  0.29896050249E+02 -0.29489778210E+01  0.35772459594E+02  0.51100000000E-03 0. -1.
        -11    1    3    3    0    0 -0.52744397496E+01  0.41544600426E+01 -0.31287766605E+01  0.74073272218E+01  0.51100000000E-03 0.  1.
         12    1    3    3    0    0 -0.24783603443E+01  0.11395795833E+01 -0.11557136919E+01  0.29625302970E+01  0.00000000000E+00 0. -1.
</event>
<event>
 7    1  0.1476909E-008  0.4614231E+02  0.7816164E-02  0.1320468E+00
        -11   -1    0    0    0    0  0.00000000000E+00  0.00000000000E+00  0.45593999997E+02  0.45594000000E+02  0.51100000000E-03 0.  1.
         11   -1    0    0    0    0 -0.00000000000E+00 -0.00000000000E+00 -0.45593999997E+02  0.45594000000E+02  0.51100000000E-03 0. -1.
    9900012    2    1    2    0    0 -0.36904544083E+02 -0.49335830041E+00 -0.25824895850E+02  0.46142311837E+02  0.99999459785E+01 0.  0.
        -12    1    1    2    0    0  0.36904544083E+02  0.49335830041E+00  0.25824895850E+02  0.45045688163E+02  0.00000000000E+00 0.  1.
         11    1    3    3    0    0 -0.78740711441E+01 -0.32385202054E+01 -0.55969346139E+01  0.10188949251E+02  0.51100000000E-03 0. -1.
        -11    1    3    3    0    0 -0.28924860604E+02  0.23153437304E+01 -0.20408285744E+02  0.35475435231E+02  0.51100000000E-03 0.  1.
        -12    1    3    3    0    0 -0.10561233540E+00  0.42981817457E+00  0.18032450806E+00  0.47792735513E+00  0.00000000000E+00 0.  1.
</event>
<event>
 7    1  0.1476909E-008  0.4614232E+02  0.7816164E-02  0.1320468E+00
        -11   -1    0    0    0    0  0.00000000000E+00  0.00000000000E+00  0.45593999997E+02  0.45594000000E+02  0.51100000000E-03 0.  1.
         11   -1    0    0    0    0 -0.00000000000E+00 -0.00000000000E+00 -0.45593999997E+02  0.45594000000E+02  0.51100000000E-03 0. -1.
    9900012    2    1    2    0    0  0.35779886456E+02 -0.30359803108E+01 -0.27197351823E+02  0.46142318771E+02  0.10000009205E+02 0.  0.
        -12    1    1    2    0    0 -0.35779886456E+02  0.30359803108E+01  0.27197351823E+02  0.45045681229E+02  0.00000000000E+00 0.  1.
         11    1    3    3    0    0  0.47002787278E+01  0.14444487461E+01 -0.27971099223E+01  0.56571084909E+01  0.51100000000E-03 0. -1.
        -11    1    3    3    0    0  0.48428410618E+01 -0.21452749228E+01 -0.75267530167E+01  0.92036582553E+01  0.51100000000E-03 0.  1.
        -12    1    3    3    0    0  0.26236766667E+02 -0.23351541342E+01 -0.16873488883E+02  0.31281552024E+02  0.00000000000E+00 0.  1.
</event>
<event>
 7    1  0.1476909E-008  0.4614232E+02  0.7816164E-02  0.1320468E+00
        -11   -1    0    0    0    0  0.00000000000E+00  0.00000000000E+00  0.45593999997E+02  0.45594000000E+02  0.51100000000E-03 0.  1.
         11   -1    0    0    0    0 -0.00000000000E+00 -0.00000000000E+00 -0.45593999997E+02  0.45594000000E+02  0.51100000000E-03 0. -1.
    9900012    2    1    2    0    0  0.24201825042E+02  0.21691785930E+01 -0.37929932274E+02  0.46142318371E+02  0.10000005559E+02 0.  0.
        -12    1    1    2    0    0 -0.24201825042E+02 -0.21691785930E+01  0.37929932274E+02  0.45045681629E+02  0.00000000000E+00 0.  1.
         11    1    3    3    0    0  0.15222544074E+02  0.10684045463E+01 -0.16003035345E+02  0.22112541168E+02  0.51100000000E-03 0. -1.
        -11    1    3    3    0    0  0.16303555786E+01 -0.12262245498E+01 -0.59602912277E+01  0.62997426724E+01  0.51100000000E-03 0.  1.
         12    1    3    3    0    0  0.73489253887E+01  0.23269985964E+01 -0.15966605702E+02  0.17730034531E+02  0.00000000000E+00 0. -1.
</event>
<event>
 7    1  0.1476909E-008  0.4614232E+02  0.7816164E-02  0.1320468E+00
        -11   -1    0    0    0    0  0.00000000000E+00  0.00000000000E+00  0.45593999997E+02  0.45594000000E+02  0.51100000000E-03 0.  1.
         11   -1    0    0    0    0 -0.00000000000E+00 -0.00000000000E+00 -0.45593999997E+02  0.45594000000E+02  0.51100000000E-03 0. -1.
    9900012    2    1    2    0    0 -0.20393422856E+01  0.30909596498E+02 -0.32703994740E+02  0.46142319357E+02  0.10000014552E+02 0.  0.
        -12    1    1    2    0    0  0.20393422856E+01 -0.30909596498E+02  0.32703994740E+02  0.45045680643E+02  0.00000000000E+00 0.  1.
         11    1    3    3    0    0 -0.32533741441E+01  0.89129783157E+01 -0.52647338261E+01  0.10850946885E+02  0.51100000000E-03 0. -1.
        -11    1    3    3    0    0  0.91486857962E+00  0.24694562149E+01 -0.38935291751E+01  0.47005072294E+01  0.51100000000E-03 0.  1.
         12    1    3    3    0    0  0.29916327890E+00  0.19527161968E+02 -0.23545731739E+02  0.30590865243E+02  0.00000000000E+00 0. -1.
</event>
<event>
 7    1  0.1476909E-008  0.4614232E+02  0.7816164E-02  0.1320468E+00
        -11   -1    0    0    0    0  0.00000000000E+00  0.00000000000E+00  0.45593999997E+02  0.45594000000E+02  0.51100000000E-03 0.  1.
         11   -1    0    0    0    0 -0.00000000000E+00 -0.00000000000E+00 -0.45593999997E+02  0.45594000000E+02  0.51100000000E-03 0. -1.
    9900012    2    1    2    0    0  0.20371766191E+02 -0.39609624334E+02 -0.67217476884E+01  0.46142322187E+02  0.10000040363E+02 0.  0.
        -12    1    1    2    0    0 -0.20371766191E+02  0.39609624334E+02  0.67217476884E+01  0.45045677813E+02  0.00000000000E+00 0.  1.
         11    1    3    3    0    0  0.64160303799E+01 -0.14585591580E+02  0.17795030313E+01  0.16033451246E+02  0.51100000000E-03 0. -1.
        -11    1    3    3    0    0  0.71123516320E+01 -0.15675238495E+02 -0.62057183890E+01  0.18297802835E+02  0.51100000000E-03 0.  1.
         12    1    3    3    0    0  0.68433841793E+01 -0.93487942593E+01 -0.22955323306E+01  0.11811068106E+02  0.00000000000E+00 0. -1.
</event>
<event>
 7    1  0.1476909E-008  0.4614232E+02  0.7816164E-02  0.1320468E+00
        -11   -1    0    0    0    0  0.00000000000E+00  0.00000000000E+00  0.45593999997E+02  0.45594000000E+02  0.51100000000E-03 0.  1.
         11   -1    0    0    0    0 -0.00000000000E+00 -0.00000000000E+00 -0.45593999997E+02  0.45594000000E+02  0.51100000000E-03 0. -1.
    9900012    2    1    2    0    0 -0.11075839344E+02 -0.71534787580E+01 -0.43072813468E+02  0.46142315018E+02  0.99999749831E+01 0.  0.
        -12    1    1    2    0    0  0.11075839344E+02  0.71534787580E+01  0.43072813468E+02  0.45045684982E+02  0.00000000000E+00 0.  1.
         11    1    3    3    0    0 -0.76119048881E+01 -0.87326924932E+01 -0.30555058647E+02  0.32677402336E+02  0.51100000000E-03 0. -1.
        -11    1    3    3    0    0 -0.32111223304E+01  0.15987177506E+01 -0.63591906541E+01  0.73011308099E+01  0.51100000000E-03 0.  1.
        -12    1    3    3    0    0 -0.25281212536E+00 -0.19504015338E-01 -0.61585641663E+01  0.61637818722E+01  0.00000000000E+00 0.  1.
</event>
<event>
 7    1  0.1476909E-008  0.4614232E+02  0.7816164E-02  0.1320468E+00
        -11   -1    0    0    0    0  0.00000000000E+00  0.00000000000E+00  0.45593999997E+02  0.45594000000E+02  0.51100000000E-03 0.  1.
         11   -1    0    0    0    0 -0.00000000000E+00 -0.00000000000E+00 -0.45593999997E+02  0.45594000000E+02  0.51100000000E-03 0. -1.
    9900012    2    1    2    0    0  0.86556555391E-01 -0.26484380940E+01 -0.44967674075E+02  0.46142318430E+02  0.10000006102E+02 0.  0.
        -12    1    1    2    0    0 -0.86556555391E-01  0.26484380940E+01  0.44967674075E+02  0.45045681570E+02  0.00000000000E+00 0.  1.
         11    1    3    3    0    0 -0.21655078789E+01 -0.21623735633E+01 -0.28005121831E+02  0.28171832259E+02  0.51100000000E-03 0. -1.
        -11    1    3    3    0    0  0.24271431715E+01 -0.23186540442E+01 -0.14569981445E+02  0.14951640048E+02  0.51100000000E-03 0.  1.
        -12    1    3    3    0    0 -0.17507873720E+00  0.18325895136E+01 -0.23925707991E+01  0.30188461236E+01  0.00000000000E+00 0.  1.
</event>
<event>
 7    1  0.1476909E-008  0.4614232E+02  0.7816164E-02  0.1320468E+00
        -11   -1    0    0    0    0  0.00000000000E+00  0.00000000000E+00  0.45593999997E+02  0.45594000000E+02  0.51100000000E-03 0.  1.
         11   -1    0    0    0    0 -0.00000000000E+00 -0.00000000000E+00 -0.45593999997E+02  0.45594000000E+02  0.51100000000E-03 0. -1.
    9900012    2    1    2    0    0  0.64333411401E+01  0.47061903007E+01 -0.44334832451E+02  0.46142317923E+02  0.10000001472E+02 0.  0.
        -12    1    1    2    0    0 -0.64333411401E+01 -0.47061903007E+01  0.44334832451E+02  0.45045682077E+02  0.00000000000E+00 0.  1.
         11    1    3    3    0    0  0.10324867813E+01 -0.17828596808E+01 -0.18100534911E+01  0.27424280294E+01  0.51100000000E-03 0.  1.
        -11    1    3    3    0    0  0.29293651275E+01  0.47950924005E+01 -0.25303962998E+02  0.25920351750E+02  0.51100000000E-03 0. -1.
         12    1    3    3    0    0  0.24714892313E+01  0.16939575810E+01 -0.17220815962E+02  0.17479538143E+02  0.00000000000E+00 0. -1.
</event>
<event>
 7    1  0.1476909E-008  0.4614232E+02  0.7816164E-02  0.1320468E+00
        -11   -1    0    0    0    0  0.00000000000E+00  0.00000000000E+00  0.45593999997E+02  0.45594000000E+02  0.51100000000E-03 0. -1.
         11   -1    0    0    0    0 -0.00000000000E+00 -0.00000000000E+00 -0.45593999997E+02  0.45594000000E+02  0.51100000000E-03 0.  1.
    9900012    2    1    2    0    0 -0.18957980267E+02  0.10713930548E+02 -0.39432474381E+02  0.46142319193E+02  0.10000013054E+02 0.  0.
        -12    1    1    2    0    0  0.18957980267E+02 -0.10713930548E+02  0.39432474381E+02  0.45045680807E+02  0.00000000000E+00 0.  1.
         11    1    3    3    0    0 -0.37398248304E+01  0.18177168931E+01 -0.96524582437E+01  0.10510011174E+02  0.51100000000E-03 0. -1.
        -11    1    3    3    0    0 -0.14535444840E+02  0.85205198330E+01 -0.21498309624E+02  0.27314020793E+02  0.51100000000E-03 0.  1.
        -12    1    3    3    0    0 -0.68271059685E+00  0.37569382214E+00 -0.82817065126E+01  0.83182872256E+01  0.00000000000E+00 0.  1.
</event>
<event>
 7    1  0.1476909E-008  0.4614232E+02  0.7816164E-02  0.1320468E+00
        -11   -1    0    0    0    0  0.00000000000E+00  0.00000000000E+00  0.45593999997E+02  0.45594000000E+02  0.51100000000E-03 0.  1.
         11   -1    0    0    0    0 -0.00000000000E+00 -0.00000000000E+00 -0.45593999997E+02  0.45594000000E+02  0.51100000000E-03 0. -1.
    9900012    2    1    2    0    0  0.13961657725E+02  0.35404237354E+02 -0.24098249411E+02  0.46142317258E+02  0.99999954114E+01 0.  0.
        -12    1    1    2    0    0 -0.13961657725E+02 -0.35404237354E+02  0.24098249411E+02  0.45045682742E+02  0.00000000000E+00 0.  1.
         11    1    3    3    0    0  0.55652944314E+01  0.12227388669E+02 -0.84579026472E+01  0.15875063881E+02  0.51100000000E-03 0. -1.
        -11    1    3    3    0    0  0.42973395744E+01  0.56178740181E+01 -0.12165610796E+01  0.71768835175E+01  0.51100000000E-03 0.  1.
        -12    1    3    3    0    0  0.40990237192E+01  0.17558974667E+02 -0.14423785684E+02  0.23090369859E+02  0.00000000000E+00 0.  1.
</event>
<event>
 7    1  0.1476909E-008  0.4614232E+02  0.7816164E-02  0.1320468E+00
        -11   -1    0    0    0    0  0.00000000000E+00  0.00000000000E+00  0.45593999997E+02  0.45594000000E+02  0.51100000000E-03 0.  1.
         11   -1    0    0    0    0 -0.00000000000E+00 -0.00000000000E+00 -0.45593999997E+02  0.45594000000E+02  0.51100000000E-03 0. -1.
    9900012    2    1    2    0    0 -0.17411285334E+02 -0.35871733667E+02  0.20956607654E+02  0.46142317214E+02  0.99999950112E+01 0.  0.
        -12    1    1    2    0    0  0.17411285334E+02  0.35871733667E+02 -0.20956607654E+02  0.45045682786E+02  0.00000000000E+00 0.  1.
         11    1    3    3    0    0 -0.82212920974E+01 -0.18123041282E+02  0.11902709976E+02  0.23188548340E+02  0.51100000000E-03 0. -1.
        -11    1    3    3    0    0 -0.23138731912E+01 -0.72379753334E+01  0.67915595230E+01  0.10191544392E+02  0.51100000000E-03 0.  1.
        -12    1    3    3    0    0 -0.68761200455E+01 -0.10510717052E+02  0.22623381556E+01  0.12762224483E+02  0.00000000000E+00 0.  1.
</event>
<event>
 7    1  0.1476909E-008  0.4614232E+02  0.7816164E-02  0.1320468E+00
        -11   -1    0    0    0    0  0.00000000000E+00  0.00000000000E+00  0.45593999997E+02  0.45594000000E+02  0.51100000000E-03 0.  1.
         11   -1    0    0    0    0 -0.00000000000E+00 -0.00000000000E+00 -0.45593999997E+02  0.45594000000E+02  0.51100000000E-03 0. -1.
    9900012    2    1    2    0    0  0.41410757752E+01  0.41357840152E+02  0.17363584484E+02  0.46142317446E+02  0.99999971243E+01 0.  0.
        -12    1    1    2    0    0 -0.41410757752E+01 -0.41357840152E+02 -0.17363584484E+02  0.45045682554E+02  0.00000000000E+00 0.  1.
         11    1    3    3    0    0  0.74104946184E+01  0.30495775463E+02  0.13085705730E+02  0.34002109439E+02  0.51100000000E-03 0. -1.
        -11    1    3    3    0    0 -0.22195748206E+01  0.77416713388E+01  0.27444874820E+01  0.85083605531E+01  0.51100000000E-03 0.  1.
         12    1    3    3    0    0 -0.10498440226E+01  0.31203933508E+01  0.15333912721E+01  0.36318474540E+01  0.00000000000E+00 0. -1.
</event>
<event>
 7    1  0.1476909E-008  0.4614232E+02  0.7816164E-02  0.1320468E+00
        -11   -1    0    0    0    0  0.00000000000E+00  0.00000000000E+00  0.45593999997E+02  0.45594000000E+02  0.51100000000E-03 0.  1.
         11   -1    0    0    0    0 -0.00000000000E+00 -0.00000000000E+00 -0.45593999997E+02  0.45594000000E+02  0.51100000000E-03 0. -1.
    9900012    2    1    2    0    0  0.30628196123E+02 -0.92119954698E+01 -0.31720123638E+02  0.46142317611E+02  0.99999986313E+01 0.  0.
        -12    1    1    2    0    0 -0.30628196123E+02  0.92119954698E+01  0.31720123638E+02  0.45045682389E+02  0.00000000000E+00 0.  1.
         11    1    3    3    0    0  0.20364997217E+02 -0.85439388544E+01 -0.22250341582E+02  0.31349795910E+02  0.51100000000E-03 0. -1.
        -11    1    3    3    0    0  0.82782841540E+01 -0.96333274545E+00 -0.45861577136E+01  0.95126674149E+01  0.51100000000E-03 0.  1.
         12    1    3    3    0    0  0.19849147513E+01  0.29527613005E+00 -0.48836243429E+01  0.52798542864E+01  0.00000000000E+00 0. -1.
</event>
<event>
 7    1  0.1476909E-008  0.4614232E+02  0.7816164E-02  0.1320468E+00
        -11   -1    0    0    0    0  0.00000000000E+00  0.00000000000E+00  0.45593999997E+02  0.45594000000E+02  0.51100000000E-03 0.  1.
         11   -1    0    0    0    0 -0.00000000000E+00 -0.00000000000E+00 -0.45593999997E+02  0.45594000000E+02  0.51100000000E-03 0. -1.
    9900012    2    1    2    0    0  0.40767303371E+02  0.42959139765E+01 -0.18673125855E+02  0.46142317296E+02  0.99999957610E+01 0.  0.
        -12    1    1    2    0    0 -0.40767303371E+02 -0.42959139765E+01  0.18673125855E+02  0.45045682704E+02  0.00000000000E+00 0.  1.
         11    1    3    3    0    0  0.27957592286E+02  0.52246156007E+01 -0.14953827002E+02  0.32133168485E+02  0.51100000000E-03 0. -1.
        -11    1    3    3    0    0  0.47013411880E+01  0.13557195490E+01 -0.25180353401E+00  0.48993866700E+01  0.51100000000E-03 0.  1.
        -12    1    3    3    0    0  0.81083698976E+01 -0.22844211731E+01 -0.34674953185E+01  0.91097621416E+01  0.00000000000E+00 0.  1.
</event>
<event>
 7    1  0.1476909E-008  0.4614232E+02  0.7816164E-02  0.1320468E+00
        -11   -1    0    0    0    0  0.00000000000E+00  0.00000000000E+00  0.45593999997E+02  0.45594000000E+02  0.51100000000E-03 0.  1.
         11   -1    0    0    0    0 -0.00000000000E+00 -0.00000000000E+00 -0.45593999997E+02  0.45594000000E+02  0.51100000000E-03 0. -1.
    9900012    2    1    2    0    0  0.37868234149E+01 -0.13969037561E+02 -0.42657232393E+02  0.46142317439E+02  0.99999970635E+01 0.  0.
        -12    1    1    2    0    0 -0.37868234149E+01  0.13969037561E+02  0.42657232393E+02  0.45045682561E+02  0.00000000000E+00 0.  1.
         11    1    3    3    0    0  0.28165253038E+01 -0.58656297866E+01 -0.81797493133E+01  0.10452115894E+02  0.51100000000E-03 0.  1.
        -11    1    3    3    0    0  0.13358069312E+01 -0.58306128164E+01 -0.30613969731E+02  0.31192876894E+02  0.51100000000E-03 0. -1.
        -12    1    3    3    0    0 -0.36550882006E+00 -0.22727949582E+01 -0.38635133486E+01  0.44973246507E+01  0.00000000000E+00 0.  1.
</event>
<event>
 7    1  0.1476909E-008  0.4614232E+02  0.7816164E-02  0.1320468E+00
        -11   -1    0    0    0    0  0.00000000000E+00  0.00000000000E+00  0.45593999997E+02  0.45594000000E+02  0.51100000000E-03 0. -1.
         11   -1    0    0    0    0 -0.00000000000E+00 -0.00000000000E+00 -0.45593999997E+02  0.45594000000E+02  0.51100000000E-03 0.  1.
    9900012    2    1    2    0    0  0.21802648204E+02  0.26104406597E+02  0.29535031761E+02  0.46142316371E+02  0.99999873259E+01 0.  0.
        -12    1    1    2    0    0 -0.21802648204E+02 -0.26104406597E+02 -0.29535031761E+02  0.45045683629E+02  0.00000000000E+00 0.  1.
         11    1    3    3    0    0  0.16566030769E+02  0.14351840721E+02  0.17836570151E+02  0.28258661372E+02  0.51100000000E-03 0. -1.
        -11    1    3    3    0    0  0.33782884551E+00  0.57383106625E+01  0.44831820045E+01  0.72898051232E+01  0.51100000000E-03 0.  1.
        -12    1    3    3    0    0  0.48987885892E+01  0.60142552141E+01  0.72152796048E+01  0.10593849876E+02  0.00000000000E+00 0.  1.
</event>
<event>
 7    1  0.1476909E-008  0.4614232E+02  0.7816164E-02  0.1320468E+00
        -11   -1    0    0    0    0  0.00000000000E+00  0.00000000000E+00  0.45593999997E+02  0.45594000000E+02  0.51100000000E-03 0.  1.
         11   -1    0    0    0    0 -0.00000000000E+00 -0.00000000000E+00 -0.45593999997E+02  0.45594000000E+02  0.51100000000E-03 0. -1.
    9900012    2    1    2    0    0 -0.28606423017E+02  0.57400014494E+01 -0.34319650043E+02  0.46142318369E+02  0.10000005547E+02 0.  0.
        -12    1    1    2    0    0  0.28606423017E+02 -0.57400014494E+01  0.34319650043E+02  0.45045681631E+02  0.00000000000E+00 0.  1.
         11    1    3    3    0    0 -0.57946776506E+01 -0.27105190181E+01 -0.73102488582E+01  0.97141618811E+01  0.51100000000E-03 0. -1.
        -11    1    3    3    0    0 -0.19950304151E+02  0.81402247381E+01 -0.24268945460E+02  0.32453961368E+02  0.51100000000E-03 0.  1.
         12    1    3    3    0    0 -0.28614412156E+01  0.31029572935E+00 -0.27404557251E+01  0.39741951200E+01  0.00000000000E+00 0. -1.
</event>
<event>
 7    1  0.1476909E-008  0.4614232E+02  0.7816164E-02  0.1320468E+00
        -11   -1    0    0    0    0  0.00000000000E+00  0.00000000000E+00  0.45593999997E+02  0.45594000000E+02  0.51100000000E-03 0.  1.
         11   -1    0    0    0    0 -0.00000000000E+00 -0.00000000000E+00 -0.45593999997E+02  0.45594000000E+02  0.51100000000E-03 0. -1.
    9900012    2    1    2    0    0 -0.25849313955E+02  0.52715953981E+01 -0.36512144585E+02  0.46142318163E+02  0.10000003665E+02 0.  0.
        -12    1    1    2    0    0  0.25849313955E+02 -0.52715953981E+01  0.36512144585E+02  0.45045681837E+02  0.00000000000E+00 0.  1.
         11    1    3    3    0    0 -0.10550210281E+02  0.47589835682E+01 -0.21757292164E+02  0.24644160041E+02  0.51100000000E-03 0. -1.
        -11    1    3    3    0    0 -0.40459749408E+01 -0.70020645578E+00 -0.55817527635E+01  0.69293698470E+01  0.51100000000E-03 0.  1.
         12    1    3    3    0    0 -0.11253128733E+02  0.12128182857E+01 -0.91730996578E+01  0.14568788275E+02  0.00000000000E+00 0. -1.
</event>
<event>
 7    1  0.1476909E-008  0.4614232E+02  0.7816164E-02  0.1320468E+00
        -11   -1    0    0    0    0  0.00000000000E+00  0.00000000000E+00  0.45593999997E+02  0.45594000000E+02  0.51100000000E-03 0.  1.
         11   -1    0    0    0    0 -0.00000000000E+00 -0.00000000000E+00 -0.45593999997E+02  0.45594000000E+02  0.51100000000E-03 0. -1.
    9900012    2    1    2    0    0  0.12167611838E+01  0.38230272681E+02 -0.23792414851E+02  0.46142320279E+02  0.10000022964E+02 0.  0.
        -12    1    1    2    0    0 -0.12167611838E+01 -0.38230272681E+02  0.23792414851E+02  0.45045679721E+02  0.00000000000E+00 0.  1.
         11    1    3    3    0    0 -0.85619452531E+00  0.21474498679E+02 -0.86382071515E+01  0.23162594536E+02  0.51100000000E-03 0. -1.
        -11    1    3    3    0    0 -0.48573010658E+00  0.10040525541E+02 -0.95658176980E+01  0.13876345173E+02  0.51100000000E-03 0.  1.
         12    1    3    3    0    0  0.25586858157E+01  0.67152484608E+01 -0.55883900016E+01  0.91033805701E+01  0.00000000000E+00 0. -1.
</event>
<event>
 7    1  0.1476909E-008  0.4614232E+02  0.7816164E-02  0.1320468E+00
        -11   -1    0    0    0    0  0.00000000000E+00  0.00000000000E+00  0.45593999997E+02  0.45594000000E+02  0.51100000000E-03 0.  1.
         11   -1    0    0    0    0 -0.00000000000E+00 -0.00000000000E+00 -0.45593999997E+02  0.45594000000E+02  0.51100000000E-03 0. -1.
    9900012    2    1    2    0    0  0.39042971508E+02 -0.22891170009E+01 -0.22349943788E+02  0.46142315765E+02  0.99999817995E+01 0.  0.
        -12    1    1    2    0    0 -0.39042971508E+02  0.22891170009E+01  0.22349943788E+02  0.45045684235E+02  0.00000000000E+00 0.  1.
         11    1    3    3    0    0  0.16929361311E+02 -0.26953980482E+01 -0.82828936489E+01  0.19038770247E+02  0.51100000000E-03 0.  1.
        -11    1    3    3    0    0  0.17191423885E+02  0.17353567981E+01 -0.13589969470E+02  0.21982806665E+02  0.51100000000E-03 0. -1.
         12    1    3    3    0    0  0.49221863122E+01 -0.13290757508E+01 -0.47708066950E+00  0.51207388538E+01  0.00000000000E+00 0. -1.
</event>
<event>
 7    1  0.1476909E-008  0.4614232E+02  0.7816164E-02  0.1320468E+00
        -11   -1    0    0    0    0  0.00000000000E+00  0.00000000000E+00  0.45593999997E+02  0.45594000000E+02  0.51100000000E-03 0.  1.
         11   -1    0    0    0    0 -0.00000000000E+00 -0.00000000000E+00 -0.45593999997E+02  0.45594000000E+02  0.51100000000E-03 0. -1.
    9900012    2    1    2    0    0 -0.19759220527E+02  0.40479225299E+02  0.34510126588E+00  0.46142316838E+02  0.99999915787E+01 0.  0.
        -12    1    1    2    0    0  0.19759220527E+02 -0.40479225299E+02 -0.34510126588E+00  0.45045683162E+02  0.00000000000E+00 0.  1.
         11    1    3    3    0    0 -0.10556791575E+02  0.16955724356E+02 -0.38107982944E+01  0.20333829465E+02  0.51100000000E-03 0. -1.
        -11    1    3    3    0    0 -0.59856032483E+01  0.18424314570E+02  0.39801045162E+01  0.19776856318E+02  0.51100000000E-03 0.  1.
        -12    1    3    3    0    0 -0.32168257042E+01  0.50991863732E+01  0.17579504403E+00  0.60316310545E+01  0.00000000000E+00 0.  1.
</event>
<event>
 7    1  0.1476909E-008  0.4614232E+02  0.7816164E-02  0.1320468E+00
        -11   -1    0    0    0    0  0.00000000000E+00  0.00000000000E+00  0.45593999997E+02  0.45594000000E+02  0.51100000000E-03 0. -1.
         11   -1    0    0    0    0 -0.00000000000E+00 -0.00000000000E+00 -0.45593999997E+02  0.45594000000E+02  0.51100000000E-03 0.  1.
    9900012    2    1    2    0    0  0.61241442922E+01 -0.19329766939E+02  0.40223978432E+02  0.46142317919E+02  0.10000001437E+02 0.  0.
        -12    1    1    2    0    0 -0.61241442922E+01  0.19329766939E+02 -0.40223978432E+02  0.45045682081E+02  0.00000000000E+00 0.  1.
         11    1    3    3    0    0  0.71570244358E+00 -0.11884072708E+02  0.28903408328E+02  0.31259405423E+02  0.51100000000E-03 0. -1.
        -11    1    3    3    0    0  0.55824840310E+01 -0.74304584771E+01  0.11384969918E+02  0.14696713287E+02  0.51100000000E-03 0.  1.
        -12    1    3    3    0    0 -0.17404218244E+00 -0.15235754340E-01 -0.64399814117E-01  0.18619920928E+00  0.00000000000E+00 0.  1.
</event>
<event>
 7    1  0.1476909E-008  0.4614232E+02  0.7816164E-02  0.1320468E+00
        -11   -1    0    0    0    0  0.00000000000E+00  0.00000000000E+00  0.45593999997E+02  0.45594000000E+02  0.51100000000E-03 0. -1.
         11   -1    0    0    0    0 -0.00000000000E+00 -0.00000000000E+00 -0.45593999997E+02  0.45594000000E+02  0.51100000000E-03 0.  1.
    9900012    2    1    2    0    0  0.39784114808E+02 -0.13869939999E+02  0.15936200015E+02  0.46142317659E+02  0.99999990707E+01 0.  0.
        -12    1    1    2    0    0 -0.39784114808E+02  0.13869939999E+02 -0.15936200015E+02  0.45045682341E+02  0.00000000000E+00 0.  1.
         11    1    3    3    0    0  0.10800559380E+02 -0.21134308619E+01  0.90986614754E+00  0.11042940260E+02  0.51100000000E-03 0.  1.
        -11    1    3    3    0    0  0.29051837401E+02 -0.12025580040E+02  0.14880907675E+02  0.34785992083E+02  0.51100000000E-03 0. -1.
        -12    1    3    3    0    0 -0.68281972812E-01  0.26907090351E+00  0.14542619300E+00  0.31338531640E+00  0.00000000000E+00 0.  1.
</event>
<event>
 7    1  0.1476909E-008  0.4614232E+02  0.7816164E-02  0.1320468E+00
        -11   -1    0    0    0    0  0.00000000000E+00  0.00000000000E+00  0.45593999997E+02  0.45594000000E+02  0.51100000000E-03 0. -1.
         11   -1    0    0    0    0 -0.00000000000E+00 -0.00000000000E+00 -0.45593999997E+02  0.45594000000E+02  0.51100000000E-03 0.  1.
    9900012    2    1    2    0    0  0.15114453530E+02 -0.37774944266E+02 -0.19331852375E+02  0.46142316122E+02  0.99999850558E+01 0.  0.
        -12    1    1    2    0    0 -0.15114453530E+02  0.37774944266E+02  0.19331852375E+02  0.45045683878E+02  0.00000000000E+00 0.  1.
         11    1    3    3    0    0  0.63430392458E+01 -0.26176446658E+02 -0.11042205449E+02  0.29109634280E+02  0.51100000000E-03 0. -1.
        -11    1    3    3    0    0  0.71982642711E+01 -0.97061703221E+01 -0.53958956043E+01  0.13234063642E+02  0.51100000000E-03 0.  1.
         12    1    3    3    0    0  0.15731500133E+01 -0.18923272856E+01 -0.28937513216E+01  0.37986182003E+01  0.00000000000E+00 0. -1.
</event>
<event>
 7    1  0.1476909E-008  0.4614232E+02  0.7816164E-02  0.1320468E+00
        -11   -1    0    0    0    0  0.00000000000E+00  0.00000000000E+00  0.45593999997E+02  0.45594000000E+02  0.51100000000E-03 0. -1.
         11   -1    0    0    0    0 -0.00000000000E+00 -0.00000000000E+00 -0.45593999997E+02  0.45594000000E+02  0.51100000000E-03 0.  1.
    9900012    2    1    2    0    0  0.27468678015E+02  0.28344173861E+02 -0.21706980838E+02  0.46142317844E+02  0.10000000757E+02 0.  0.
        -12    1    1    2    0    0 -0.27468678015E+02 -0.28344173861E+02  0.21706980838E+02  0.45045682156E+02  0.00000000000E+00 0.  1.
         11    1    3    3    0    0  0.17888926378E+01  0.41586026326E+01 -0.15220680854E+01  0.47760657703E+01  0.51100000000E-03 0. -1.
        -11    1    3    3    0    0  0.21744909013E+02  0.23620726938E+02 -0.17454616278E+02  0.36543719553E+02  0.51100000000E-03 0.  1.
        -12    1    3    3    0    0  0.39348763642E+01  0.56484429027E+00 -0.27302964755E+01  0.48225325212E+01  0.00000000000E+00 0.  1.
</event>
<event>
 7    1  0.1476909E-008  0.4614232E+02  0.7816164E-02  0.1320468E+00
        -11   -1    0    0    0    0  0.00000000000E+00  0.00000000000E+00  0.45593999997E+02  0.45594000000E+02  0.51100000000E-03 0.  1.
         11   -1    0    0    0    0 -0.00000000000E+00 -0.00000000000E+00 -0.45593999997E+02  0.45594000000E+02  0.51100000000E-03 0. -1.
    9900012    2    1    2    0    0  0.35146159596E+01 -0.44384321775E+02  0.68405383369E+01  0.46142317527E+02  0.99999978615E+01 0.  0.
        -12    1    1    2    0    0 -0.35146159596E+01  0.44384321775E+02 -0.68405383369E+01  0.45045682473E+02  0.00000000000E+00 0.  1.
         11    1    3    3    0    0 -0.83276201965E+00 -0.18986168258E+02 -0.46820133177E-01  0.19004480263E+02  0.51100000000E-03 0. -1.
        -11    1    3    3    0    0  0.34376823659E+01 -0.13624416245E+02  0.60525609291E+01  0.15299538298E+02  0.51100000000E-03 0.  1.
        -12    1    3    3    0    0  0.90969561334E+00 -0.11773737272E+02  0.83479754100E+00  0.11838298965E+02  0.00000000000E+00 0.  1.
</event>
<event>
 7    1  0.1476909E-008  0.4614232E+02  0.7816164E-02  0.1320468E+00
        -11   -1    0    0    0    0  0.00000000000E+00  0.00000000000E+00  0.45593999997E+02  0.45594000000E+02  0.51100000000E-03 0.  1.
         11   -1    0    0    0    0 -0.00000000000E+00 -0.00000000000E+00 -0.45593999997E+02  0.45594000000E+02  0.51100000000E-03 0. -1.
    9900012    2    1    2    0    0  0.18183686775E+02  0.40767960646E+02 -0.60365921231E+01  0.46142317361E+02  0.99999963485E+01 0.  0.
        -12    1    1    2    0    0 -0.18183686775E+02 -0.40767960646E+02  0.60365921231E+01  0.45045682639E+02  0.00000000000E+00 0.  1.
         11    1    3    3    0    0  0.45194528848E+01  0.87568844395E+01  0.12226437293E+01  0.99299213197E+01  0.51100000000E-03 0. -1.
        -11    1    3    3    0    0  0.81747855574E+01  0.12710815340E+02 -0.54497316034E+01  0.16065227055E+02  0.51100000000E-03 0.  1.
        -12    1    3    3    0    0  0.54894483327E+01  0.19300260867E+02 -0.18095042490E+01  0.20147168986E+02  0.00000000000E+00 0.  1.
</event>
<event>
 7    1  0.1476909E-008  0.4614232E+02  0.7816164E-02  0.1320468E+00
        -11   -1    0    0    0    0  0.00000000000E+00  0.00000000000E+00  0.45593999997E+02  0.45594000000E+02  0.51100000000E-03 0.  1.
         11   -1    0    0    0    0 -0.00000000000E+00 -0.00000000000E+00 -0.45593999997E+02  0.45594000000E+02  0.51100000000E-03 0. -1.
    9900012    2    1    2    0    0 -0.34271217277E+02  0.28160489188E+02  0.78475483033E+01  0.46142317639E+02  0.99999988894E+01 0.  0.
        -12    1    1    2    0    0  0.34271217277E+02 -0.28160489188E+02 -0.78475483033E+01  0.45045682361E+02  0.00000000000E+00 0.  1.
         11    1    3    3    0    0 -0.98401713748E+01  0.10364333621E+02  0.56673688766E+01  0.15374246464E+02  0.51100000000E-03 0. -1.
        -11    1    3    3    0    0 -0.51101527879E+01  0.49064928528E+01 -0.15302941082E+01  0.72476985278E+01  0.51100000000E-03 0.  1.
         12    1    3    3    0    0 -0.19320893114E+02  0.12889662714E+02  0.37104735348E+01  0.23520372647E+02  0.00000000000E+00 0. -1.
</event>
<event>
 7    1  0.1476909E-008  0.4614232E+02  0.7816164E-02  0.1320468E+00
        -11   -1    0    0    0    0  0.00000000000E+00  0.00000000000E+00  0.45593999997E+02  0.45594000000E+02  0.51100000000E-03 0.  1.
         11   -1    0    0    0    0 -0.00000000000E+00 -0.00000000000E+00 -0.45593999997E+02  0.45594000000E+02  0.51100000000E-03 0. -1.
    9900012    2    1    2    0    0  0.20268310594E+01 -0.81958152648E+01 -0.44247419270E+02  0.46142317143E+02  0.99999943599E+01 0.  0.
        -12    1    1    2    0    0 -0.20268310594E+01  0.81958152648E+01  0.44247419270E+02  0.45045682857E+02  0.00000000000E+00 0.  1.
         11    1    3    3    0    0  0.26616109005E+01  0.82480853530E+00 -0.12110994379E+02  0.12427415935E+02  0.51100000000E-03 0. -1.
        -11    1    3    3    0    0  0.14264033594E+01 -0.58387742463E+01 -0.14902734391E+02  0.16069144465E+02  0.51100000000E-03 0.  1.
        -12    1    3    3    0    0 -0.20611832005E+01 -0.31818495538E+01 -0.17233690501E+02  0.17645756743E+02  0.00000000000E+00 0.  1.
</event>
<event>
 7    1  0.1476909E-008  0.4614232E+02  0.7816164E-02  0.1320468E+00
        -11   -1    0    0    0    0  0.00000000000E+00  0.00000000000E+00  0.45593999997E+02  0.45594000000E+02  0.51100000000E-03 0.  1.
         11   -1    0    0    0    0 -0.00000000000E+00 -0.00000000000E+00 -0.45593999997E+02  0.45594000000E+02  0.51100000000E-03 0. -1.
    9900012    2    1    2    0    0 -0.39031335585E+02  0.57381993168E+00 -0.22479746230E+02  0.46142318549E+02  0.10000007185E+02 0.  0.
        -12    1    1    2    0    0  0.39031335585E+02 -0.57381993168E+00  0.22479746230E+02  0.45045681451E+02  0.00000000000E+00 0.  1.
         11    1    3    3    0    0 -0.18987579976E+02  0.43446771792E+01 -0.13175755572E+02  0.23516057244E+02  0.51100000000E-03 0. -1.
        -11    1    3    3    0    0 -0.15643425574E+01 -0.11910939983E+01 -0.87568576255E+00  0.21523704062E+01  0.51100000000E-03 0.  1.
         12    1    3    3    0    0 -0.18479413051E+02 -0.25797632493E+01 -0.84283048949E+01  0.20473890899E+02  0.00000000000E+00 0. -1.
</event>
<event>
 7    1  0.1476909E-008  0.4614231E+02  0.7816164E-02  0.1320468E+00
        -11   -1    0    0    0    0  0.00000000000E+00  0.00000000000E+00  0.45593999997E+02  0.45594000000E+02  0.51100000000E-03 0.  1.
         11   -1    0    0    0    0 -0.00000000000E+00 -0.00000000000E+00 -0.45593999997E+02  0.45594000000E+02  0.51100000000E-03 0. -1.
    9900012    2    1    2    0    0 -0.60660598616E-02  0.63629939972E+01 -0.44594014480E+02  0.46142313671E+02  0.99999627052E+01 0.  0.
        -12    1    1    2    0    0  0.60660598616E-02 -0.63629939972E+01  0.44594014480E+02  0.45045686329E+02  0.00000000000E+00 0.  1.
         11    1    3    3    0    0 -0.26520065212E+01  0.40118694399E+01 -0.14280501880E+02  0.15068542371E+02  0.51100000000E-03 0. -1.
        -11    1    3    3    0    0  0.21726127311E+01 -0.11317544322E+01 -0.56110948455E+01  0.61225403062E+01  0.51100000000E-03 0.  1.
         12    1    3    3    0    0  0.47332773027E+00  0.34828789895E+01 -0.24702417755E+02  0.24951230994E+02  0.00000000000E+00 0. -1.
</event>
<event>
 7    1  0.1476909E-008  0.4614232E+02  0.7816164E-02  0.1320468E+00
        -11   -1    0    0    0    0  0.00000000000E+00  0.00000000000E+00  0.45593999997E+02  0.45594000000E+02  0.51100000000E-03 0. -1.
         11   -1    0    0    0    0 -0.00000000000E+00 -0.00000000000E+00 -0.45593999997E+02  0.45594000000E+02  0.51100000000E-03 0.  1.
    9900012    2    1    2    0    0 -0.18773445378E+02  0.17656724815E+01  0.40909089568E+02  0.46142318077E+02  0.10000002878E+02 0.  0.
        -12    1    1    2    0    0  0.18773445378E+02 -0.17656724815E+01 -0.40909089568E+02  0.45045681923E+02  0.00000000000E+00 0.  1.
         11    1    3    3    0    0 -0.19353215823E+01  0.26849535507E+01  0.13946946110E+02  0.14334285864E+02  0.51100000000E-03 0. -1.
        -11    1    3    3    0    0 -0.69735725587E+01 -0.65017117305E+00  0.10860988804E+02  0.12923409568E+02  0.51100000000E-03 0.  1.
         12    1    3    3    0    0 -0.98645512372E+01 -0.26910989623E+00  0.16101154654E+02  0.18884622645E+02  0.00000000000E+00 0. -1.
</event>
<event>
 7    1  0.1476909E-008  0.4614232E+02  0.7816164E-02  0.1320468E+00
        -11   -1    0    0    0    0  0.00000000000E+00  0.00000000000E+00  0.45593999997E+02  0.45594000000E+02  0.51100000000E-03 0. -1.
         11   -1    0    0    0    0 -0.00000000000E+00 -0.00000000000E+00 -0.45593999997E+02  0.45594000000E+02  0.51100000000E-03 0.  1.
    9900012    2    1    2    0    0 -0.90264972291E+01 -0.13781029761E+02  0.41925158660E+02  0.46142319163E+02  0.10000012779E+02 0.  0.
        -12    1    1    2    0    0  0.90264972291E+01  0.13781029761E+02 -0.41925158660E+02  0.45045680837E+02  0.00000000000E+00 0.  1.
         11    1    3    3    0    0 -0.67850856404E+01 -0.70314531156E+01  0.30890395818E+02  0.32399001128E+02  0.51100000000E-03 0. -1.
        -11    1    3    3    0    0  0.61016989694E+00 -0.20995239746E+01  0.11922431858E+01  0.24903317647E+01  0.51100000000E-03 0.  1.
         12    1    3    3    0    0 -0.28515814856E+01 -0.46500526703E+01  0.98425196560E+01  0.11252986270E+02  0.00000000000E+00 0. -1.
</event>
<event>
 7    1  0.1476909E-008  0.4614232E+02  0.7816164E-02  0.1320468E+00
        -11   -1    0    0    0    0  0.00000000000E+00  0.00000000000E+00  0.45593999997E+02  0.45594000000E+02  0.51100000000E-03 0. -1.
         11   -1    0    0    0    0 -0.00000000000E+00 -0.00000000000E+00 -0.45593999997E+02  0.45594000000E+02  0.51100000000E-03 0.  1.
    9900012    2    1    2    0    0 -0.44369881122E+02  0.59379304138E+01  0.50167832306E+01  0.46142317828E+02  0.10000000610E+02 0.  0.
        -12    1    1    2    0    0  0.44369881122E+02 -0.59379304138E+01 -0.50167832306E+01  0.45045682172E+02  0.00000000000E+00 0.  1.
         11    1    3    3    0    0 -0.36016036951E+02  0.22012849958E+01  0.17117472784E+01  0.36123823888E+02  0.51100000000E-03 0. -1.
        -11    1    3    3    0    0 -0.38461242077E+00  0.92721375621E+00  0.26357920433E+00  0.10378469646E+01  0.51100000000E-03 0.  1.
         12    1    3    3    0    0 -0.79692317502E+01  0.28094316617E+01  0.30414567479E+01  0.89806469755E+01  0.00000000000E+00 0. -1.
</event>
<event>
 7    1  0.1476909E-008  0.4614232E+02  0.7816164E-02  0.1320468E+00
        -11   -1    0    0    0    0  0.00000000000E+00  0.00000000000E+00  0.45593999997E+02  0.45594000000E+02  0.51100000000E-03 0.  1.
         11   -1    0    0    0    0 -0.00000000000E+00 -0.00000000000E+00 -0.45593999997E+02  0.45594000000E+02  0.51100000000E-03 0. -1.
    9900012    2    1    2    0    0 -0.27661598898E+01 -0.81878410745E+01 -0.44208835412E+02  0.46142317515E+02  0.99999977583E+01 0.  0.
        -12    1    1    2    0    0  0.27661598898E+01  0.81878410745E+01  0.44208835412E+02  0.45045682485E+02  0.00000000000E+00 0.  1.
         11    1    3    3    0    0 -0.13593250828E+01 -0.86549388634E+00 -0.19933474003E+02  0.19998505705E+02  0.51100000000E-03 0. -1.
        -11    1    3    3    0    0 -0.24249664677E+01 -0.39669840341E+01 -0.63014693927E+01  0.78310881405E+01  0.51100000000E-03 0.  1.
        -12    1    3    3    0    0  0.10181316607E+01 -0.33553631540E+01 -0.17973892017E+02  0.18312723670E+02  0.00000000000E+00 0.  1.
</event>
<event>
 7    1  0.1476909E-008  0.4614232E+02  0.7816164E-02  0.1320468E+00
        -11   -1    0    0    0    0  0.00000000000E+00  0.00000000000E+00  0.45593999997E+02  0.45594000000E+02  0.51100000000E-03 0.  1.
         11   -1    0    0    0    0 -0.00000000000E+00 -0.00000000000E+00 -0.45593999997E+02  0.45594000000E+02  0.51100000000E-03 0. -1.
    9900012    2    1    2    0    0 -0.32869806971E+02  0.22947946566E+02 -0.20544609792E+02  0.46142318149E+02  0.10000003537E+02 0.  0.
        -12    1    1    2    0    0  0.32869806971E+02 -0.22947946566E+02  0.20544609792E+02  0.45045681851E+02  0.00000000000E+00 0.  1.
         11    1    3    3    0    0 -0.12822054857E+01  0.29081285381E+01 -0.18494577398E+01  0.36771941333E+01  0.51100000000E-03 0. -1.
        -11    1    3    3    0    0 -0.23741899483E+02  0.16035325152E+02 -0.17510664513E+02  0.33577266353E+02  0.51100000000E-03 0.  1.
        -12    1    3    3    0    0 -0.78457020022E+01  0.40044928762E+01 -0.11844875393E+01  0.88878576628E+01  0.00000000000E+00 0.  1.
</event>
<event>
 7    1  0.1476909E-008  0.4614232E+02  0.7816164E-02  0.1320468E+00
        -11   -1    0    0    0    0  0.00000000000E+00  0.00000000000E+00  0.45593999997E+02  0.45594000000E+02  0.51100000000E-03 0. -1.
         11   -1    0    0    0    0 -0.00000000000E+00 -0.00000000000E+00 -0.45593999997E+02  0.45594000000E+02  0.51100000000E-03 0.  1.
    9900012    2    1    2    0    0  0.36482125169E+02  0.26238312323E+02 -0.31175328285E+01  0.46142317617E+02  0.99999986858E+01 0.  0.
        -12    1    1    2    0    0 -0.36482125169E+02 -0.26238312323E+02  0.31175328285E+01  0.45045682383E+02  0.00000000000E+00 0.  1.
         11    1    3    3    0    0  0.20654123228E+02  0.17465507454E+02 -0.49284227857E+01  0.27494110430E+02  0.51100000000E-03 0. -1.
        -11    1    3    3    0    0  0.30436170313E+01  0.52238329449E+00  0.14914126010E+01  0.34294023892E+01  0.51100000000E-03 0.  1.
        -12    1    3    3    0    0  0.12784384911E+02  0.82504215745E+01  0.31947735619E+00  0.15218804798E+02  0.00000000000E+00 0.  1.
</event>
<event>
 7    1  0.1476909E-008  0.4614232E+02  0.7816164E-02  0.1320468E+00
        -11   -1    0    0    0    0  0.00000000000E+00  0.00000000000E+00  0.45593999997E+02  0.45594000000E+02  0.51100000000E-03 0. -1.
         11   -1    0    0    0    0 -0.00000000000E+00 -0.00000000000E+00 -0.45593999997E+02  0.45594000000E+02  0.51100000000E-03 0.  1.
    9900012    2    1    2    0    0  0.38406475183E+02 -0.15394234431E+02 -0.17806562935E+02  0.46142317929E+02  0.10000001530E+02 0.  0.
        -12    1    1    2    0    0 -0.38406475183E+02  0.15394234431E+02  0.17806562935E+02  0.45045682071E+02  0.00000000000E+00 0.  1.
         11    1    3    3    0    0  0.11397985033E+02 -0.15905192657E+01 -0.19612060228E+01  0.11674336969E+02  0.51100000000E-03 0. -1.
        -11    1    3    3    0    0  0.23864060741E+02 -0.13580108917E+02 -0.14191921767E+02  0.30908306277E+02  0.51100000000E-03 0.  1.
        -12    1    3    3    0    0  0.31444294092E+01 -0.22360624800E+00 -0.16534351454E+01  0.35596746823E+01  0.00000000000E+00 0.  1.
</event>
<event>
 7    1  0.1476909E-008  0.4614232E+02  0.7816164E-02  0.1320468E+00
        -11   -1    0    0    0    0  0.00000000000E+00  0.00000000000E+00  0.45593999997E+02  0.45594000000E+02  0.51100000000E-03 0. -1.
         11   -1    0    0    0    0 -0.00000000000E+00 -0.00000000000E+00 -0.45593999997E+02  0.45594000000E+02  0.51100000000E-03 0.  1.
    9900012    2    1    2    0    0 -0.38083402390E+02 -0.24040893438E+02 -0.89631091379E+00  0.46142317985E+02  0.10000002045E+02 0.  0.
        -12    1    1    2    0    0  0.38083402390E+02  0.24040893438E+02  0.89631091379E+00  0.45045682015E+02  0.00000000000E+00 0.  1.
         11    1    3    3    0    0 -0.91690704091E+01 -0.27727675715E+01 -0.25816838540E+01  0.99209467268E+01  0.51100000000E-03 0. -1.
        -11    1    3    3    0    0 -0.27671338242E+02 -0.21138561287E+02  0.21504550100E+01  0.34887908942E+02  0.51100000000E-03 0.  1.
        -12    1    3    3    0    0 -0.12429937396E+01 -0.12956457931E+00 -0.46508206979E+00  0.13334623161E+01  0.00000000000E+00 0.  1.
</event>
<event>
 7    1  0.1476909E-008  0.4614232E+02  0.7816164E-02  0.1320468E+00
        -11   -1    0    0    0    0  0.00000000000E+00  0.00000000000E+00  0.45593999997E+02  0.45594000000E+02  0.51100000000E-03 0.  1.
         11   -1    0    0    0    0 -0.00000000000E+00 -0.00000000000E+00 -0.45593999997E+02  0.45594000000E+02  0.51100000000E-03 0. -1.
    9900012    2    1    2    0    0 -0.14314164594E+02  0.42367889243E+02  0.54018739433E+01  0.46142316644E+02  0.99999898112E+01 0.  0.
        -12    1    1    2    0    0  0.14314164594E+02 -0.42367889243E+02 -0.54018739433E+01  0.45045683356E+02  0.00000000000E+00 0.  1.
         11    1    3    3    0    0 -0.44780609249E+00  0.14361953576E+02  0.32819293424E+01  0.14738972192E+02  0.51100000000E-03 0. -1.
        -11    1    3    3    0    0 -0.13206071408E+02  0.27237831273E+02  0.23602797414E+01  0.30362323614E+02  0.51100000000E-03 0.  1.
        -12    1    3    3    0    0 -0.66028709310E+00  0.76810439448E+00 -0.24033514045E+00  0.10410208383E+01  0.00000000000E+00 0.  1.
</event>
<event>
 7    1  0.1476909E-008  0.4614232E+02  0.7816164E-02  0.1320468E+00
        -11   -1    0    0    0    0  0.00000000000E+00  0.00000000000E+00  0.45593999997E+02  0.45594000000E+02  0.51100000000E-03 0. -1.
         11   -1    0    0    0    0 -0.00000000000E+00 -0.00000000000E+00 -0.45593999997E+02  0.45594000000E+02  0.51100000000E-03 0.  1.
    9900012    2    1    2    0    0 -0.25230153522E+02 -0.23253471051E+02  0.29186104586E+02  0.46142320256E+02  0.10000022751E+02 0.  0.
        -12    1    1    2    0    0  0.25230153522E+02  0.23253471051E+02 -0.29186104586E+02  0.45045679744E+02  0.00000000000E+00 0.  1.
         11    1    3    3    0    0 -0.10718293559E+02 -0.70991241849E+01  0.14628949176E+02  0.19475254434E+02  0.51100000000E-03 0. -1.
        -11    1    3    3    0    0 -0.73000211747E+01 -0.11560775943E+02  0.10281907629E+02  0.17107293015E+02  0.51100000000E-03 0.  1.
         12    1    3    3    0    0 -0.72118387878E+01 -0.45935709235E+01  0.42752477819E+01  0.95597728073E+01  0.00000000000E+00 0. -1.
</event>
<event>
 7    1  0.1476909E-008  0.4614232E+02  0.7816164E-02  0.1320468E+00
        -11   -1    0    0    0    0  0.00000000000E+00  0.00000000000E+00  0.45593999997E+02  0.45594000000E+02  0.51100000000E-03 0.  1.
         11   -1    0    0    0    0 -0.00000000000E+00 -0.00000000000E+00 -0.45593999997E+02  0.45594000000E+02  0.51100000000E-03 0. -1.
    9900012    2    1    2    0    0 -0.33124077491E+02 -0.23215939642E+02 -0.19822438868E+02  0.46142318234E+02  0.10000004314E+02 0.  0.
        -12    1    1    2    0    0  0.33124077491E+02  0.23215939642E+02  0.19822438868E+02  0.45045681766E+02  0.00000000000E+00 0.  1.
         11    1    3    3    0    0 -0.11844649192E+02 -0.72863868078E+01 -0.76763731465E+01  0.15884390204E+02  0.51100000000E-03 0. -1.
        -11    1    3    3    0    0 -0.15710952292E+02 -0.11609530546E+02 -0.48798219721E+01  0.20135239858E+02  0.51100000000E-03 0.  1.
        -12    1    3    3    0    0 -0.55684760066E+01 -0.43200222891E+01 -0.72662437490E+01  0.10122688172E+02  0.00000000000E+00 0.  1.
</event>
<event>
 7    1  0.1476909E-008  0.4614232E+02  0.7816164E-02  0.1320468E+00
        -11   -1    0    0    0    0  0.00000000000E+00  0.00000000000E+00  0.45593999997E+02  0.45594000000E+02  0.51100000000E-03 0. -1.
         11   -1    0    0    0    0 -0.00000000000E+00 -0.00000000000E+00 -0.45593999997E+02  0.45594000000E+02  0.51100000000E-03 0.  1.
    9900012    2    1    2    0    0 -0.34006575239E+02 -0.25931963332E+02  0.14149195174E+02  0.46142316457E+02  0.99999881118E+01 0.  0.
        -12    1    1    2    0    0  0.34006575239E+02  0.25931963332E+02 -0.14149195174E+02  0.45045683543E+02  0.00000000000E+00 0.  1.
         11    1    3    3    0    0 -0.25849020756E+02 -0.22076849704E+02  0.12563504374E+02  0.36240872083E+02  0.51100000000E-03 0. -1.
        -11    1    3    3    0    0 -0.40833665098E+01 -0.63364613726E+00 -0.76143774295E+00  0.42018064185E+01  0.51100000000E-03 0.  1.
        -12    1    3    3    0    0 -0.40741879730E+01 -0.32214674908E+01  0.23471285422E+01  0.56996379558E+01  0.00000000000E+00 0.  1.
</event>
<event>
 7    1  0.1476909E-008  0.4614232E+02  0.7816164E-02  0.1320468E+00
        -11   -1    0    0    0    0  0.00000000000E+00  0.00000000000E+00  0.45593999997E+02  0.45594000000E+02  0.51100000000E-03 0. -1.
         11   -1    0    0    0    0 -0.00000000000E+00 -0.00000000000E+00 -0.45593999997E+02  0.45594000000E+02  0.51100000000E-03 0.  1.
    9900012    2    1    2    0    0 -0.39775995607E+02  0.17990256649E+02 -0.11105595949E+02  0.46142318495E+02  0.10000006695E+02 0.  0.
        -12    1    1    2    0    0  0.39775995607E+02 -0.17990256649E+02  0.11105595949E+02  0.45045681505E+02  0.00000000000E+00 0.  1.
         11    1    3    3    0    0 -0.16890057071E+02  0.72577977983E+01 -0.97836497438E+00  0.18409422995E+02  0.51100000000E-03 0.  1.
        -11    1    3    3    0    0 -0.59920294422E+01  0.42070790112E+00 -0.28064026932E+01  0.66300307926E+01  0.51100000000E-03 0. -1.
         12    1    3    3    0    0 -0.16893909094E+02  0.10311750950E+02 -0.73208282813E+01  0.21102864707E+02  0.00000000000E+00 0. -1.
</event>
<event>
 7    1  0.1476909E-008  0.4614231E+02  0.7816164E-02  0.1320468E+00
        -11   -1    0    0    0    0  0.00000000000E+00  0.00000000000E+00  0.45593999997E+02  0.45594000000E+02  0.51100000000E-03 0.  1.
         11   -1    0    0    0    0 -0.00000000000E+00 -0.00000000000E+00 -0.45593999997E+02  0.45594000000E+02  0.51100000000E-03 0. -1.
    9900012    2    1    2    0    0  0.44302393984E+02 -0.81480511178E+01  0.14513946274E+00  0.46142313023E+02  0.99999567960E+01 0.  0.
        -12    1    1    2    0    0 -0.44302393984E+02  0.81480511178E+01 -0.14513946274E+00  0.45045686977E+02  0.00000000000E+00 0.  1.
         11    1    3    3    0    0  0.13780474962E+02 -0.35008546234E+01  0.36323876402E+01  0.14674866728E+02  0.51100000000E-03 0.  1.
        -11    1    3    3    0    0  0.18921961492E+02 -0.11450486383E+01 -0.38558230871E+01  0.19344744378E+02  0.51100000000E-03 0. -1.
         12    1    3    3    0    0  0.11599957530E+02 -0.35021478561E+01  0.36857490959E+00  0.12122701917E+02  0.00000000000E+00 0. -1.
</event>
<event>
 7    1  0.1476909E-008  0.4614232E+02  0.7816164E-02  0.1320468E+00
        -11   -1    0    0    0    0  0.00000000000E+00  0.00000000000E+00  0.45593999997E+02  0.45594000000E+02  0.51100000000E-03 0.  1.
         11   -1    0    0    0    0 -0.00000000000E+00 -0.00000000000E+00 -0.45593999997E+02  0.45594000000E+02  0.51100000000E-03 0. -1.
    9900012    2    1    2    0    0 -0.16136432735E+02  0.22344288104E+01 -0.41996864167E+02  0.46142315041E+02  0.99999751979E+01 0.  0.
        -12    1    1    2    0    0  0.16136432735E+02 -0.22344288104E+01  0.41996864167E+02  0.45045684959E+02  0.00000000000E+00 0.  1.
         11    1    3    3    0    0 -0.37539661346E+01  0.58494539374E+00 -0.38519052000E+01  0.54103231682E+01  0.51100000000E-03 0. -1.
        -11    1    3    3    0    0 -0.26121720740E+01 -0.11435359588E+01 -0.29643274507E+01  0.41131927902E+01  0.51100000000E-03 0.  1.
         12    1    3    3    0    0 -0.97702945264E+01  0.27930193754E+01 -0.35180631517E+02  0.36618799083E+02  0.00000000000E+00 0. -1.
</event>
<event>
 7    1  0.1476909E-008  0.4614232E+02  0.7816164E-02  0.1320468E+00
        -11   -1    0    0    0    0  0.00000000000E+00  0.00000000000E+00  0.45593999997E+02  0.45594000000E+02  0.51100000000E-03 0. -1.
         11   -1    0    0    0    0 -0.00000000000E+00 -0.00000000000E+00 -0.45593999997E+02  0.45594000000E+02  0.51100000000E-03 0.  1.
    9900012    2    1    2    0    0 -0.12613455466E+02 -0.43136149540E+02 -0.30474191540E+01  0.46142318527E+02  0.10000006980E+02 0.  0.
        -12    1    1    2    0    0  0.12613455466E+02  0.43136149540E+02  0.30474191540E+01  0.45045681473E+02  0.00000000000E+00 0.  1.
         11    1    3    3    0    0 -0.30856431807E+01 -0.72242084527E+01 -0.33146341699E+01  0.85262642200E+01  0.51100000000E-03 0. -1.
        -11    1    3    3    0    0 -0.10134073129E+02 -0.35250630892E+02 -0.53211344698E-02  0.36678419337E+02  0.51100000000E-03 0.  1.
        -12    1    3    3    0    0  0.60626084300E+00 -0.66131019453E+00  0.27253615031E+00  0.93763496968E+00  0.00000000000E+00 0.  1.
</event>
<event>
 7    1  0.1476909E-008  0.4614232E+02  0.7816164E-02  0.1320468E+00
        -11   -1    0    0    0    0  0.00000000000E+00  0.00000000000E+00  0.45593999997E+02  0.45594000000E+02  0.51100000000E-03 0.  1.
         11   -1    0    0    0    0 -0.00000000000E+00 -0.00000000000E+00 -0.45593999997E+02  0.45594000000E+02  0.51100000000E-03 0. -1.
    9900012    2    1    2    0    0  0.20159341121E+02 -0.10519392878E+02 -0.38885173749E+02  0.46142318759E+02  0.10000009100E+02 0.  0.
        -12    1    1    2    0    0 -0.20159341121E+02  0.10519392878E+02  0.38885173749E+02  0.45045681241E+02  0.00000000000E+00 0.  1.
         11    1    3    3    0    0  0.73352882429E+01 -0.16581715222E+01 -0.11085816515E+02  0.13395943956E+02  0.51100000000E-03 0. -1.
        -11    1    3    3    0    0 -0.66427770628E-02 -0.31476944867E+01 -0.66600908147E+01  0.73664669028E+01  0.51100000000E-03 0.  1.
        -12    1    3    3    0    0  0.12830695655E+02 -0.57135268691E+01 -0.21139266420E+02  0.25379907901E+02  0.00000000000E+00 0.  1.
</event>
<event>
 7    1  0.1476909E-008  0.4614231E+02  0.7816164E-02  0.1320468E+00
        -11   -1    0    0    0    0  0.00000000000E+00  0.00000000000E+00  0.45593999997E+02  0.45594000000E+02  0.51100000000E-03 0. -1.
         11   -1    0    0    0    0 -0.00000000000E+00 -0.00000000000E+00 -0.45593999997E+02  0.45594000000E+02  0.51100000000E-03 0.  1.
    9900012    2    1    2    0    0 -0.25618387635E+02 -0.24362056478E+02 -0.27915987016E+02  0.46142313059E+02  0.99999571236E+01 0.  0.
        -12    1    1    2    0    0  0.25618387635E+02  0.24362056478E+02  0.27915987016E+02  0.45045686941E+02  0.00000000000E+00 0.  1.
         11    1    3    3    0    0 -0.14883548440E+02 -0.86747934865E+01 -0.15011185917E+02  0.22849677440E+02  0.51100000000E-03 0. -1.
        -11    1    3    3    0    0 -0.39026322845E+01 -0.75501541876E+01 -0.76686729045E+01  0.11447441259E+02  0.51100000000E-03 0.  1.
         12    1    3    3    0    0 -0.68322069113E+01 -0.81371088038E+01 -0.52361281945E+01  0.11845194360E+02  0.00000000000E+00 0. -1.
</event>
<event>
 7    1  0.1476909E-008  0.4614232E+02  0.7816164E-02  0.1320468E+00
        -11   -1    0    0    0    0  0.00000000000E+00  0.00000000000E+00  0.45593999997E+02  0.45594000000E+02  0.51100000000E-03 0.  1.
         11   -1    0    0    0    0 -0.00000000000E+00 -0.00000000000E+00 -0.45593999997E+02  0.45594000000E+02  0.51100000000E-03 0. -1.
    9900012    2    1    2    0    0 -0.28660814549E+02 -0.31393731404E+01 -0.34609471399E+02  0.46142318022E+02  0.10000002381E+02 0.  0.
        -12    1    1    2    0    0  0.28660814549E+02  0.31393731404E+01  0.34609471399E+02  0.45045681978E+02  0.00000000000E+00 0.  1.
         11    1    3    3    0    0 -0.85880493839E+01 -0.32829701249E+01 -0.14268646951E+02  0.16974297368E+02  0.51100000000E-03 0. -1.
        -11    1    3    3    0    0 -0.19999237218E+01  0.16841384661E+01 -0.14966206745E+01  0.30126219428E+01  0.51100000000E-03 0.  1.
         12    1    3    3    0    0 -0.18072841444E+02 -0.15405414816E+01 -0.18844203773E+02  0.26155398711E+02  0.00000000000E+00 0. -1.
</event>
<event>
 7    1  0.1476909E-008  0.4614232E+02  0.7816164E-02  0.1320468E+00
        -11   -1    0    0    0    0  0.00000000000E+00  0.00000000000E+00  0.45593999997E+02  0.45594000000E+02  0.51100000000E-03 0.  1.
         11   -1    0    0    0    0 -0.00000000000E+00 -0.00000000000E+00 -0.45593999997E+02  0.45594000000E+02  0.51100000000E-03 0. -1.
    9900012    2    1    2    0    0  0.45094351126E+01 -0.94951843327E+01 -0.43802053623E+02  0.46142318385E+02  0.10000005691E+02 0.  0.
        -12    1    1    2    0    0 -0.45094351126E+01  0.94951843327E+01  0.43802053623E+02  0.45045681615E+02  0.00000000000E+00 0.  1.
         11    1    3    3    0    0 -0.11174424207E+01 -0.15542965702E+00 -0.28728341232E+01  0.30864238371E+01  0.51100000000E-03 0.  1.
        -11    1    3    3    0    0  0.24308560441E+01 -0.84462707357E+01 -0.36369323536E+02  0.37416256429E+02  0.51100000000E-03 0. -1.
         12    1    3    3    0    0  0.31960214892E+01 -0.89348393994E+00 -0.45598959636E+01  0.56396381186E+01  0.00000000000E+00 0. -1.
</event>
<event>
 7    1  0.1476909E-008  0.4614232E+02  0.7816164E-02  0.1320468E+00
        -11   -1    0    0    0    0  0.00000000000E+00  0.00000000000E+00  0.45593999997E+02  0.45594000000E+02  0.51100000000E-03 0. -1.
         11   -1    0    0    0    0 -0.00000000000E+00 -0.00000000000E+00 -0.45593999997E+02  0.45594000000E+02  0.51100000000E-03 0.  1.
    9900012    2    1    2    0    0 -0.10796542211E+02  0.27767222001E+01  0.43644443383E+02  0.46142323758E+02  0.10000054688E+02 0.  0.
        -12    1    1    2    0    0  0.10796542211E+02 -0.27767222001E+01 -0.43644443383E+02  0.45045676242E+02  0.00000000000E+00 0.  1.
         11    1    3    3    0    0 -0.33589413302E+01  0.48477018566E+01  0.24143510256E+02  0.24853405961E+02  0.51100000000E-03 0. -1.
        -11    1    3    3    0    0 -0.34169464440E+01 -0.28335395295E+01  0.10625810648E+02  0.11515742332E+02  0.51100000000E-03 0.  1.
         12    1    3    3    0    0 -0.40206544366E+01  0.76255987311E+00  0.88751224792E+01  0.97731754655E+01  0.00000000000E+00 0. -1.
</event>
<event>
 7    1  0.1476909E-008  0.4614232E+02  0.7816164E-02  0.1320468E+00
        -11   -1    0    0    0    0  0.00000000000E+00  0.00000000000E+00  0.45593999997E+02  0.45594000000E+02  0.51100000000E-03 0. -1.
         11   -1    0    0    0    0 -0.00000000000E+00 -0.00000000000E+00 -0.45593999997E+02  0.45594000000E+02  0.51100000000E-03 0.  1.
    9900012    2    1    2    0    0 -0.14683081557E+02 -0.41849891519E+02  0.78808105034E+01  0.46142317873E+02  0.10000001017E+02 0.  0.
        -12    1    1    2    0    0  0.14683081557E+02  0.41849891519E+02 -0.78808105034E+01  0.45045682127E+02  0.00000000000E+00 0.  1.
         11    1    3    3    0    0 -0.10794146063E+02 -0.21602615633E+02  0.50182993097E+01  0.24665155982E+02  0.51100000000E-03 0. -1.
        -11    1    3    3    0    0 -0.23942999382E+01 -0.16374563912E+02  0.42756284620E+01  0.17092103864E+02  0.51100000000E-03 0.  1.
        -12    1    3    3    0    0 -0.14946355557E+01 -0.38727119739E+01 -0.14131172683E+01  0.43850580259E+01  0.00000000000E+00 0.  1.
</event>
<event>
 7    1  0.1476909E-008  0.4614232E+02  0.7816164E-02  0.1320468E+00
        -11   -1    0    0    0    0  0.00000000000E+00  0.00000000000E+00  0.45593999997E+02  0.45594000000E+02  0.51100000000E-03 0.  1.
         11   -1    0    0    0    0 -0.00000000000E+00 -0.00000000000E+00 -0.45593999997E+02  0.45594000000E+02  0.51100000000E-03 0. -1.
    9900012    2    1    2    0    0  0.27981485043E+02 -0.20969142448E+02 -0.28397978209E+02  0.46142316449E+02  0.99999880347E+01 0.  0.
        -12    1    1    2    0    0 -0.27981485043E+02  0.20969142448E+02  0.28397978209E+02  0.45045683551E+02  0.00000000000E+00 0.  1.
         11    1    3    3    0    0  0.11402318871E+02 -0.10411595762E+02 -0.15376278604E+02  0.21790918886E+02  0.51100000000E-03 0. -1.
        -11    1    3    3    0    0  0.16714111869E+02 -0.94560358913E+01 -0.11236639174E+02  0.22249499108E+02  0.51100000000E-03 0.  1.
        -12    1    3    3    0    0 -0.13494569698E+00 -0.11015107947E+01 -0.17850604314E+01  0.21018984552E+01  0.00000000000E+00 0.  1.
</event>
<event>
 7    1  0.1476909E-008  0.4614231E+02  0.7816164E-02  0.1320468E+00
        -11   -1    0    0    0    0  0.00000000000E+00  0.00000000000E+00  0.45593999997E+02  0.45594000000E+02  0.51100000000E-03 0.  1.
         11   -1    0    0    0    0 -0.00000000000E+00 -0.00000000000E+00 -0.45593999997E+02  0.45594000000E+02  0.51100000000E-03 0. -1.
    9900012    2    1    2    0    0  0.10918541022E+02 -0.39408200279E+02  0.18891611755E+02  0.46142314503E+02  0.99999702855E+01 0.  0.
        -12    1    1    2    0    0 -0.10918541022E+02  0.39408200279E+02 -0.18891611755E+02  0.45045685497E+02  0.00000000000E+00 0.  1.
         11    1    3    3    0    0  0.59211370822E+01 -0.13338462140E+02  0.91203939918E+01  0.17209184276E+02  0.51100000000E-03 0. -1.
        -11    1    3    3    0    0  0.36517236904E+01 -0.54201343345E+01  0.21259729518E+01  0.68726052824E+01  0.51100000000E-03 0.  1.
         12    1    3    3    0    0  0.13456802490E+01 -0.20649603804E+02  0.76452448111E+01  0.22060524944E+02  0.00000000000E+00 0. -1.
</event>
<event>
 7    1  0.1476909E-008  0.4614232E+02  0.7816164E-02  0.1320468E+00
        -11   -1    0    0    0    0  0.00000000000E+00  0.00000000000E+00  0.45593999997E+02  0.45594000000E+02  0.51100000000E-03 0.  1.
         11   -1    0    0    0    0 -0.00000000000E+00 -0.00000000000E+00 -0.45593999997E+02  0.45594000000E+02  0.51100000000E-03 0. -1.
    9900012    2    1    2    0    0 -0.43893817435E+02 -0.83783364165E+01 -0.56788877762E+01  0.46142317671E+02  0.99999991810E+01 0.  0.
        -12    1    1    2    0    0  0.43893817435E+02  0.83783364165E+01  0.56788877762E+01  0.45045682329E+02  0.00000000000E+00 0.  1.
         11    1    3    3    0    0 -0.17820272569E+02  0.15020339521E+00 -0.31127419590E+00  0.17823623857E+02  0.51100000000E-03 0. -1.
        -11    1    3    3    0    0 -0.45354838510E+01 -0.32813805929E+01 -0.16909642553E+01  0.58478571059E+01  0.51100000000E-03 0.  1.
         12    1    3    3    0    0 -0.21538061014E+02 -0.52471592189E+01 -0.36766493250E+01  0.22470836709E+02  0.00000000000E+00 0. -1.
</event>
<event>
 7    1  0.1476909E-008  0.4614232E+02  0.7816164E-02  0.1320468E+00
        -11   -1    0    0    0    0  0.00000000000E+00  0.00000000000E+00  0.45593999997E+02  0.45594000000E+02  0.51100000000E-03 0.  1.
         11   -1    0    0    0    0 -0.00000000000E+00 -0.00000000000E+00 -0.45593999997E+02  0.45594000000E+02  0.51100000000E-03 0. -1.
    9900012    2    1    2    0    0  0.91683874080E+00  0.18516313488E+02 -0.41053854248E+02  0.46142318664E+02  0.10000008230E+02 0.  0.
        -12    1    1    2    0    0 -0.91683874080E+00 -0.18516313488E+02  0.41053854248E+02  0.45045681336E+02  0.00000000000E+00 0.  1.
         11    1    3    3    0    0 -0.27846844155E+01  0.46729857045E+01 -0.11452486884E+02  0.12678750679E+02  0.51100000000E-03 0. -1.
        -11    1    3    3    0    0 -0.44058677365E+00  0.33195668211E+01 -0.27692902371E+01  0.43454124388E+01  0.51100000000E-03 0.  1.
         12    1    3    3    0    0  0.41421099299E+01  0.10523760963E+02 -0.26832077127E+02  0.29118155546E+02  0.00000000000E+00 0. -1.
</event>
<event>
 7    1  0.1476909E-008  0.4614232E+02  0.7816164E-02  0.1320468E+00
        -11   -1    0    0    0    0  0.00000000000E+00  0.00000000000E+00  0.45593999997E+02  0.45594000000E+02  0.51100000000E-03 0.  1.
         11   -1    0    0    0    0 -0.00000000000E+00 -0.00000000000E+00 -0.45593999997E+02  0.45594000000E+02  0.51100000000E-03 0. -1.
    9900012    2    1    2    0    0  0.26949691036E+02  0.25136231300E+02 -0.25903620733E+02  0.46142317211E+02  0.99999949792E+01 0.  0.
        -12    1    1    2    0    0 -0.26949691036E+02 -0.25136231300E+02  0.25903620733E+02  0.45045682789E+02  0.00000000000E+00 0.  1.
         11    1    3    3    0    0  0.21338806495E+01  0.39836469222E+01 -0.15802266190E+01  0.47874842930E+01  0.51100000000E-03 0. -1.
        -11    1    3    3    0    0  0.15980758073E+01 -0.49599306404E+00 -0.16024802612E+01  0.23168510211E+01  0.51100000000E-03 0.  1.
         12    1    3    3    0    0  0.23217734579E+02  0.21648577442E+02 -0.22720913853E+02  0.39037981896E+02  0.00000000000E+00 0. -1.
</event>
<event>
 7    1  0.1476909E-008  0.4614232E+02  0.7816164E-02  0.1320468E+00
        -11   -1    0    0    0    0  0.00000000000E+00  0.00000000000E+00  0.45593999997E+02  0.45594000000E+02  0.51100000000E-03 0.  1.
         11   -1    0    0    0    0 -0.00000000000E+00 -0.00000000000E+00 -0.45593999997E+02  0.45594000000E+02  0.51100000000E-03 0. -1.
    9900012    2    1    2    0    0  0.36682753006E+01 -0.25294336049E+02 -0.37092503029E+02  0.46142318067E+02  0.10000002791E+02 0.  0.
        -12    1    1    2    0    0 -0.36682753006E+01  0.25294336049E+02  0.37092503029E+02  0.45045681933E+02  0.00000000000E+00 0.  1.
         11    1    3    3    0    0  0.48997752718E+01 -0.20794916023E+02 -0.26256619278E+02  0.33850352824E+02  0.51100000000E-03 0. -1.
        -11    1    3    3    0    0 -0.13729666432E+01 -0.11211964184E+00 -0.32073949972E+01  0.34907006670E+01  0.51100000000E-03 0.  1.
         12    1    3    3    0    0  0.14146667200E+00 -0.43873003839E+01 -0.76284887539E+01  0.88012645766E+01  0.00000000000E+00 0. -1.
</event>
<event>
 7    1  0.1476909E-008  0.4614232E+02  0.7816164E-02  0.1320468E+00
        -11   -1    0    0    0    0  0.00000000000E+00  0.00000000000E+00  0.45593999997E+02  0.45594000000E+02  0.51100000000E-03 0. -1.
         11   -1    0    0    0    0 -0.00000000000E+00 -0.00000000000E+00 -0.45593999997E+02  0.45594000000E+02  0.51100000000E-03 0.  1.
    9900012    2    1    2    0    0 -0.51903496511E+01 -0.11743662895E+01  0.44730242984E+02  0.46142317598E+02  0.99999985083E+01 0.  0.
        -12    1    1    2    0    0  0.51903496511E+01  0.11743662895E+01 -0.44730242984E+02  0.45045682402E+02  0.00000000000E+00 0.  1.
         11    1    3    3    0    0 -0.72538518650E+00  0.16227078778E+01  0.79172077698E+01  0.81142802304E+01  0.51100000000E-03 0. -1.
        -11    1    3    3    0    0 -0.16926556292E+01 -0.46170727327E+01  0.30529805543E+02  0.30923315968E+02  0.51100000000E-03 0.  1.
        -12    1    3    3    0    0 -0.27723088355E+01  0.18199985654E+01  0.62832296710E+01  0.71047213989E+01  0.00000000000E+00 0.  1.
</event>
<event>
 7    1  0.1476909E-008  0.4614232E+02  0.7816164E-02  0.1320468E+00
        -11   -1    0    0    0    0  0.00000000000E+00  0.00000000000E+00  0.45593999997E+02  0.45594000000E+02  0.51100000000E-03 0.  1.
         11   -1    0    0    0    0 -0.00000000000E+00 -0.00000000000E+00 -0.45593999997E+02  0.45594000000E+02  0.51100000000E-03 0. -1.
    9900012    2    1    2    0    0 -0.27098861304E+02  0.28819961235E+01 -0.35867245649E+02  0.46142317676E+02  0.99999992230E+01 0.  0.
        -12    1    1    2    0    0  0.27098861304E+02 -0.28819961235E+01  0.35867245649E+02  0.45045682324E+02  0.00000000000E+00 0.  1.
         11    1    3    3    0    0 -0.16747644476E+02  0.60035754832E+00 -0.15977648375E+02  0.23154465499E+02  0.51100000000E-03 0. -1.
        -11    1    3    3    0    0 -0.90223074952E+01  0.10118039673E+01 -0.18730507254E+02  0.20814842831E+02  0.51100000000E-03 0.  1.
         12    1    3    3    0    0 -0.13289093323E+01  0.12698346078E+01 -0.11590900193E+01  0.21730093459E+01  0.00000000000E+00 0. -1.
</event>
<event>
 7    1  0.1476909E-008  0.4614232E+02  0.7816164E-02  0.1320468E+00
        -11   -1    0    0    0    0  0.00000000000E+00  0.00000000000E+00  0.45593999997E+02  0.45594000000E+02  0.51100000000E-03 0. -1.
         11   -1    0    0    0    0 -0.00000000000E+00 -0.00000000000E+00 -0.45593999997E+02  0.45594000000E+02  0.51100000000E-03 0.  1.
    9900012    2    1    2    0    0  0.14196152814E+01 -0.34860367362E+02  0.28493033117E+02  0.46142318117E+02  0.10000003242E+02 0.  0.
        -12    1    1    2    0    0 -0.14196152814E+01  0.34860367362E+02 -0.28493033117E+02  0.45045681883E+02  0.00000000000E+00 0.  1.
         11    1    3    3    0    0  0.20942714536E+01 -0.19721554524E+02  0.10617948345E+02  0.22495922144E+02  0.51100000000E-03 0.  1.
        -11    1    3    3    0    0 -0.19472255713E+01 -0.86486412066E+01  0.10091496534E+02  0.13432385667E+02  0.51100000000E-03 0. -1.
        -12    1    3    3    0    0  0.12725693992E+01 -0.64901716309E+01  0.77835882383E+01  0.10214010306E+02  0.00000000000E+00 0.  1.
</event>
<event>
 7    1  0.1476909E-008  0.4614232E+02  0.7816164E-02  0.1320468E+00
        -11   -1    0    0    0    0  0.00000000000E+00  0.00000000000E+00  0.45593999997E+02  0.45594000000E+02  0.51100000000E-03 0.  1.
         11   -1    0    0    0    0 -0.00000000000E+00 -0.00000000000E+00 -0.45593999997E+02  0.45594000000E+02  0.51100000000E-03 0. -1.
    9900012    2    1    2    0    0  0.15614804881E+02 -0.24196891338E+02 -0.34638153838E+02  0.46142318928E+02  0.10000010644E+02 0.  0.
        -12    1    1    2    0    0 -0.15614804881E+02  0.24196891338E+02  0.34638153838E+02  0.45045681072E+02  0.00000000000E+00 0.  1.
         11    1    3    3    0    0  0.74448410730E+01 -0.98336445314E+01 -0.21503043240E+02  0.24789253563E+02  0.51100000000E-03 0. -1.
        -11    1    3    3    0    0  0.13797795021E+00 -0.23376293880E+01 -0.13906390151E+01  0.27234952179E+01  0.51100000000E-03 0.  1.
         12    1    3    3    0    0  0.80319858578E+01 -0.12025617418E+02 -0.11744471583E+02  0.18629570148E+02  0.00000000000E+00 0. -1.
</event>
<event>
 7    1  0.1476909E-008  0.4614232E+02  0.7816164E-02  0.1320468E+00
        -11   -1    0    0    0    0  0.00000000000E+00  0.00000000000E+00  0.45593999997E+02  0.45594000000E+02  0.51100000000E-03 0.  1.
         11   -1    0    0    0    0 -0.00000000000E+00 -0.00000000000E+00 -0.45593999997E+02  0.45594000000E+02  0.51100000000E-03 0. -1.
    9900012    2    1    2    0    0 -0.31794908568E+02  0.66337468186E+01 -0.31212020239E+02  0.46142323014E+02  0.10000047904E+02 0.  0.
        -12    1    1    2    0    0  0.31794908568E+02 -0.66337468186E+01  0.31212020239E+02  0.45045676986E+02  0.00000000000E+00 0.  1.
         11    1    3    3    0    0 -0.78279723106E+00  0.12078756662E+01 -0.20237904803E+01  0.24834377986E+01  0.51100000000E-03 0. -1.
        -11    1    3    3    0    0 -0.36328311445E+01  0.34468033696E+01 -0.41352923926E+01  0.64945022154E+01  0.51100000000E-03 0.  1.
         12    1    3    3    0    0 -0.27379280192E+02  0.19790677828E+01 -0.25052937366E+02  0.37164383000E+02  0.00000000000E+00 0. -1.
</event>
<event>
 7    1  0.1476909E-008  0.4614232E+02  0.7816164E-02  0.1320468E+00
        -11   -1    0    0    0    0  0.00000000000E+00  0.00000000000E+00  0.45593999997E+02  0.45594000000E+02  0.51100000000E-03 0.  1.
         11   -1    0    0    0    0 -0.00000000000E+00 -0.00000000000E+00 -0.45593999997E+02  0.45594000000E+02  0.51100000000E-03 0. -1.
    9900012    2    1    2    0    0 -0.13737065658E+02  0.42819486397E+02 -0.26264156158E+01  0.46142318219E+02  0.10000004172E+02 0.  0.
        -12    1    1    2    0    0  0.13737065658E+02 -0.42819486397E+02  0.26264156158E+01  0.45045681781E+02  0.00000000000E+00 0.  1.
         11    1    3    3    0    0 -0.51161288784E+01  0.23140450250E+02  0.14001682095E+01  0.23740591479E+02  0.51100000000E-03 0. -1.
        -11    1    3    3    0    0 -0.85566653126E+01  0.19250592674E+02 -0.47155002903E+01  0.21587908255E+02  0.51100000000E-03 0.  1.
         12    1    3    3    0    0 -0.64271466669E-01  0.42844347234E+00  0.68891646502E+00  0.81381848479E+00  0.00000000000E+00 0. -1.
</event>
<event>
 7    1  0.1476909E-008  0.4614232E+02  0.7816164E-02  0.1320468E+00
        -11   -1    0    0    0    0  0.00000000000E+00  0.00000000000E+00  0.45593999997E+02  0.45594000000E+02  0.51100000000E-03 0.  1.
         11   -1    0    0    0    0 -0.00000000000E+00 -0.00000000000E+00 -0.45593999997E+02  0.45594000000E+02  0.51100000000E-03 0. -1.
    9900012    2    1    2    0    0  0.43734281035E+02 -0.45295324620E+01  0.97933408946E+01  0.46142317323E+02  0.99999960045E+01 0.  0.
        -12    1    1    2    0    0 -0.43734281035E+02  0.45295324620E+01 -0.97933408946E+01  0.45045682677E+02  0.00000000000E+00 0.  1.
         11    1    3    3    0    0  0.21996703626E+02 -0.40335357311E+01  0.91549442111E+01  0.24164796392E+02  0.51100000000E-03 0. -1.
        -11    1    3    3    0    0  0.15558958625E+02 -0.13574697499E+01 -0.54641686368E+00  0.15627619437E+02  0.51100000000E-03 0.  1.
        -12    1    3    3    0    0  0.61786187841E+01  0.86147301910E+00  0.11848135472E+01  0.63499014940E+01  0.00000000000E+00 0.  1.
</event>
<event>
 7    1  0.1476909E-008  0.4614232E+02  0.7816164E-02  0.1320468E+00
        -11   -1    0    0    0    0  0.00000000000E+00  0.00000000000E+00  0.45593999997E+02  0.45594000000E+02  0.51100000000E-03 0. -1.
         11   -1    0    0    0    0 -0.00000000000E+00 -0.00000000000E+00 -0.45593999997E+02  0.45594000000E+02  0.51100000000E-03 0.  1.
    9900012    2    1    2    0    0 -0.31229970114E+02  0.32353524701E+02 -0.26555203717E+01  0.46142318938E+02  0.10000010731E+02 0.  0.
        -12    1    1    2    0    0  0.31229970114E+02 -0.32353524701E+02  0.26555203717E+01  0.45045681062E+02  0.00000000000E+00 0.  1.
         11    1    3    3    0    0 -0.19490407819E+02  0.24627605969E+02 -0.33627794675E+01  0.31586441058E+02  0.51100000000E-03 0. -1.
        -11    1    3    3    0    0 -0.83750890100E+01  0.56914560420E+01  0.21789152202E+01  0.10357724634E+02  0.51100000000E-03 0.  1.
        -12    1    3    3    0    0 -0.33644732855E+01  0.20344626898E+01 -0.14716561244E+01  0.41981532456E+01  0.00000000000E+00 0.  1.
</event>
<event>
 7    1  0.1476909E-008  0.4614233E+02  0.7816164E-02  0.1320468E+00
        -11   -1    0    0    0    0  0.00000000000E+00  0.00000000000E+00  0.45593999997E+02  0.45594000000E+02  0.51100000000E-03 0.  1.
         11   -1    0    0    0    0 -0.00000000000E+00 -0.00000000000E+00 -0.45593999997E+02  0.45594000000E+02  0.51100000000E-03 0. -1.
    9900012    2    1    2    0    0 -0.23810663229E+02 -0.28455669745E+02 -0.25542903764E+02  0.46142325882E+02  0.10000074055E+02 0.  0.
        -12    1    1    2    0    0  0.23810663229E+02  0.28455669745E+02  0.25542903764E+02  0.45045674118E+02  0.00000000000E+00 0.  1.
         11    1    3    3    0    0 -0.77595254160E+01 -0.88582695030E+01 -0.63848076854E+01  0.13395706130E+02  0.51100000000E-03 0.  1.
        -11    1    3    3    0    0 -0.13147817909E+02 -0.17253661492E+02 -0.12293778944E+02  0.24933731202E+02  0.51100000000E-03 0. -1.
        -12    1    3    3    0    0 -0.29033199042E+01 -0.23437387500E+01 -0.68643171341E+01  0.78128885511E+01  0.00000000000E+00 0.  1.
</event>
<event>
 7    1  0.1476909E-008  0.4614232E+02  0.7816164E-02  0.1320468E+00
        -11   -1    0    0    0    0  0.00000000000E+00  0.00000000000E+00  0.45593999997E+02  0.45594000000E+02  0.51100000000E-03 0.  1.
         11   -1    0    0    0    0 -0.00000000000E+00 -0.00000000000E+00 -0.45593999997E+02  0.45594000000E+02  0.51100000000E-03 0. -1.
    9900012    2    1    2    0    0  0.44389508652E+02 -0.60968859742E+01  0.46382184815E+01  0.46142316881E+02  0.99999919786E+01 0.  0.
        -12    1    1    2    0    0 -0.44389508652E+02  0.60968859742E+01 -0.46382184815E+01  0.45045683119E+02  0.00000000000E+00 0.  1.
         11    1    3    3    0    0  0.20054907102E+02 -0.66340011789E+01  0.33172648361E+01  0.21382551689E+02  0.51100000000E-03 0. -1.
        -11    1    3    3    0    0  0.89612760622E+01  0.21147089095E+01 -0.36072618119E+00  0.92144769832E+01  0.51100000000E-03 0.  1.
         12    1    3    3    0    0  0.15373325488E+02 -0.15775937047E+01  0.16816798266E+01  0.15545288209E+02  0.00000000000E+00 0. -1.
</event>
<event>
 7    1  0.1476909E-008  0.4614232E+02  0.7816164E-02  0.1320468E+00
        -11   -1    0    0    0    0  0.00000000000E+00  0.00000000000E+00  0.45593999997E+02  0.45594000000E+02  0.51100000000E-03 0.  1.
         11   -1    0    0    0    0 -0.00000000000E+00 -0.00000000000E+00 -0.45593999997E+02  0.45594000000E+02  0.51100000000E-03 0. -1.
    9900012    2    1    2    0    0  0.34671755160E+01 -0.31150166155E+01 -0.44803893271E+02  0.46142317779E+02  0.10000000159E+02 0.  0.
        -12    1    1    2    0    0 -0.34671755160E+01  0.31150166155E+01  0.44803893271E+02  0.45045682221E+02  0.00000000000E+00 0.  1.
         11    1    3    3    0    0  0.31324784232E+01 -0.45405607698E+01 -0.24854609856E+02  0.25459394033E+02  0.51100000000E-03 0. -1.
        -11    1    3    3    0    0 -0.34967678481E+00  0.26531803376E+01 -0.18389938306E+02  0.18583634492E+02  0.51100000000E-03 0.  1.
        -12    1    3    3    0    0  0.68437387762E+00 -0.12276361834E+01 -0.15593451090E+01  0.20992892540E+01  0.00000000000E+00 0.  1.
</event>
<event>
 7    1  0.1476909E-008  0.4614232E+02  0.7816164E-02  0.1320468E+00
        -11   -1    0    0    0    0  0.00000000000E+00  0.00000000000E+00  0.45593999997E+02  0.45594000000E+02  0.51100000000E-03 0.  1.
         11   -1    0    0    0    0 -0.00000000000E+00 -0.00000000000E+00 -0.45593999997E+02  0.45594000000E+02  0.51100000000E-03 0. -1.
    9900012    2    1    2    0    0 -0.28114491554E+02 -0.23132448944E+02 -0.26525057528E+02  0.46142317561E+02  0.99999981770E+01 0.  0.
        -12    1    1    2    0    0  0.28114491554E+02  0.23132448944E+02  0.26525057528E+02  0.45045682439E+02  0.00000000000E+00 0.  1.
         11    1    3    3    0    0 -0.19046351119E+02 -0.14742196432E+02 -0.20185549979E+02  0.31425344466E+02  0.51100000000E-03 0. -1.
        -11    1    3    3    0    0 -0.45263397619E+01 -0.31665393465E+01 -0.30269731581E+00  0.55323005160E+01  0.51100000000E-03 0.  1.
        -12    1    3    3    0    0 -0.45418006729E+01 -0.52237131657E+01 -0.60368102333E+01  0.91846725789E+01  0.00000000000E+00 0.  1.
</event>
<event>
 7    1  0.1476909E-008  0.4614232E+02  0.7816164E-02  0.1320468E+00
        -11   -1    0    0    0    0  0.00000000000E+00  0.00000000000E+00  0.45593999997E+02  0.45594000000E+02  0.51100000000E-03 0. -1.
         11   -1    0    0    0    0 -0.00000000000E+00 -0.00000000000E+00 -0.45593999997E+02  0.45594000000E+02  0.51100000000E-03 0.  1.
    9900012    2    1    2    0    0 -0.12385655561E+02 -0.39970151389E+02  0.16676212309E+02  0.46142317379E+02  0.99999965194E+01 0.  0.
        -12    1    1    2    0    0  0.12385655561E+02  0.39970151389E+02 -0.16676212309E+02  0.45045682621E+02  0.00000000000E+00 0.  1.
         11    1    3    3    0    0 -0.36170393914E+01 -0.10649348770E+02  0.12976674952E+01  0.11321463879E+02  0.51100000000E-03 0. -1.
        -11    1    3    3    0    0 -0.68813165291E+01 -0.27995277980E+02  0.13437758384E+02  0.31806625992E+02  0.51100000000E-03 0.  1.
        -12    1    3    3    0    0 -0.18872996410E+01 -0.13255246397E+01  0.19407864297E+01  0.30142275081E+01  0.00000000000E+00 0.  1.
</event>
<event>
 7    1  0.1476909E-008  0.4614232E+02  0.7816164E-02  0.1320468E+00
        -11   -1    0    0    0    0  0.00000000000E+00  0.00000000000E+00  0.45593999997E+02  0.45594000000E+02  0.51100000000E-03 0. -1.
         11   -1    0    0    0    0 -0.00000000000E+00 -0.00000000000E+00 -0.45593999997E+02  0.45594000000E+02  0.51100000000E-03 0.  1.
    9900012    2    1    2    0    0  0.14738269405E+02 -0.41925338582E+02  0.73595423141E+01  0.46142318039E+02  0.10000002531E+02 0.  0.
        -12    1    1    2    0    0 -0.14738269405E+02  0.41925338582E+02 -0.73595423141E+01  0.45045681961E+02  0.00000000000E+00 0.  1.
         11    1    3    3    0    0  0.37572494378E+01 -0.18033078081E+02  0.28708002620E+01  0.18642701597E+02  0.51100000000E-03 0. -1.
        -11    1    3    3    0    0  0.98867542146E+01 -0.19283977624E+02  0.60724645029E+01  0.22505433284E+02  0.51100000000E-03 0.  1.
        -12    1    3    3    0    0  0.10942657523E+01 -0.46082828776E+01 -0.15837224507E+01  0.49941831582E+01  0.00000000000E+00 0.  1.
</event>
<event>
 7    1  0.1476909E-008  0.4614232E+02  0.7816164E-02  0.1320468E+00
        -11   -1    0    0    0    0  0.00000000000E+00  0.00000000000E+00  0.45593999997E+02  0.45594000000E+02  0.51100000000E-03 0.  1.
         11   -1    0    0    0    0 -0.00000000000E+00 -0.00000000000E+00 -0.45593999997E+02  0.45594000000E+02  0.51100000000E-03 0. -1.
    9900012    2    1    2    0    0 -0.84336972646E+01  0.42805564358E+01 -0.44041605252E+02  0.46142318674E+02  0.10000008323E+02 0.  0.
        -12    1    1    2    0    0  0.84336972646E+01 -0.42805564358E+01  0.44041605252E+02  0.45045681326E+02  0.00000000000E+00 0.  1.
         11    1    3    3    0    0 -0.16513875311E+01  0.11605046101E+01 -0.13774410057E+01  0.24436030188E+01  0.51100000000E-03 0. -1.
        -11    1    3    3    0    0 -0.24764713033E+01 -0.16016227891E+01 -0.10523366011E+02  0.10928830593E+02  0.51100000000E-03 0.  1.
         12    1    3    3    0    0 -0.43058384303E+01  0.47216746148E+01 -0.32140798236E+02  0.32769885062E+02  0.00000000000E+00 0. -1.
</event>
<event>
 7    1  0.1476909E-008  0.4614232E+02  0.7816164E-02  0.1320468E+00
        -11   -1    0    0    0    0  0.00000000000E+00  0.00000000000E+00  0.45593999997E+02  0.45594000000E+02  0.51100000000E-03 0.  1.
         11   -1    0    0    0    0 -0.00000000000E+00 -0.00000000000E+00 -0.45593999997E+02  0.45594000000E+02  0.51100000000E-03 0. -1.
    9900012    2    1    2    0    0 -0.22371254243E+02  0.35770606320E+02 -0.15783023420E+02  0.46142321837E+02  0.10000037171E+02 0.  0.
        -12    1    1    2    0    0  0.22371254243E+02 -0.35770606320E+02  0.15783023420E+02  0.45045678163E+02  0.00000000000E+00 0.  1.
         11    1    3    3    0    0 -0.64341224012E+01  0.16851488621E+02 -0.54806869537E+01  0.18852281813E+02  0.51100000000E-03 0. -1.
        -11    1    3    3    0    0 -0.94162653063E+01  0.10749363845E+02 -0.31764289750E+01  0.14639145353E+02  0.51100000000E-03 0.  1.
         12    1    3    3    0    0 -0.65208665350E+01  0.81697538544E+01 -0.71259074911E+01  0.12650894671E+02  0.00000000000E+00 0. -1.
</event>
<event>
 7    1  0.1476909E-008  0.4614232E+02  0.7816164E-02  0.1320468E+00
        -11   -1    0    0    0    0  0.00000000000E+00  0.00000000000E+00  0.45593999997E+02  0.45594000000E+02  0.51100000000E-03 0.  1.
         11   -1    0    0    0    0 -0.00000000000E+00 -0.00000000000E+00 -0.45593999997E+02  0.45594000000E+02  0.51100000000E-03 0. -1.
    9900012    2    1    2    0    0 -0.92818476536E+00 -0.32469670186E+02 -0.31208528543E+02  0.46142320265E+02  0.10000022834E+02 0.  0.
        -12    1    1    2    0    0  0.92818476536E+00  0.32469670186E+02  0.31208528543E+02  0.45045679735E+02  0.00000000000E+00 0.  1.
         11    1    3    3    0    0  0.36873344867E+01 -0.22457125032E+02 -0.20424574262E+02  0.30579112714E+02  0.51100000000E-03 0. -1.
        -11    1    3    3    0    0 -0.31852487489E+01 -0.86526285220E+01 -0.92813724646E+01  0.13082723914E+02  0.51100000000E-03 0.  1.
        -12    1    3    3    0    0 -0.14302705031E+01 -0.13599166318E+01 -0.15025818165E+01  0.24804836369E+01  0.00000000000E+00 0.  1.
</event>
<event>
 7    1  0.1476909E-008  0.4614232E+02  0.7816164E-02  0.1320468E+00
        -11   -1    0    0    0    0  0.00000000000E+00  0.00000000000E+00  0.45593999997E+02  0.45594000000E+02  0.51100000000E-03 0.  1.
         11   -1    0    0    0    0 -0.00000000000E+00 -0.00000000000E+00 -0.45593999997E+02  0.45594000000E+02  0.51100000000E-03 0. -1.
    9900012    2    1    2    0    0  0.21238277706E+02 -0.38825299186E+02 -0.84050667349E+01  0.46142318257E+02  0.10000004526E+02 0.  0.
        -12    1    1    2    0    0 -0.21238277706E+02  0.38825299186E+02  0.84050667349E+01  0.45045681743E+02  0.00000000000E+00 0.  1.
         11    1    3    3    0    0  0.80219079864E+01 -0.10362767132E+02 -0.57596761915E+01  0.14314741369E+02  0.51100000000E-03 0. -1.
        -11    1    3    3    0    0  0.23455755790E+01 -0.97190633503E+01 -0.16805134750E+01  0.10138345181E+02  0.51100000000E-03 0.  1.
         12    1    3    3    0    0  0.10870794140E+02 -0.18743468704E+02 -0.96487706843E+00  0.21689231707E+02  0.00000000000E+00 0. -1.
</event>
<event>
 7    1  0.1515393E-008  0.4614232E+02  0.7816164E-02  0.1320468E+00
        -11   -1    0    0    0    0  0.00000000000E+00  0.00000000000E+00  0.45593999997E+02  0.45594000000E+02  0.51100000000E-03 0. -1.
         11   -1    0    0    0    0 -0.00000000000E+00 -0.00000000000E+00 -0.45593999997E+02  0.45594000000E+02  0.51100000000E-03 0.  1.
    9900012    2    1    2    0    0  0.31682123968E+02 -0.49369959664E+01  0.31638311691E+02  0.46142315690E+02  0.99999811164E+01 0.  0.
        -12    1    1    2    0    0 -0.31682123968E+02  0.49369959664E+01 -0.31638311691E+02  0.45045684310E+02  0.00000000000E+00 0.  1.
         11    1    3    3    0    0  0.15282470754E+02 -0.62328810896E+00  0.17097978252E+02  0.22940864434E+02  0.51100000000E-03 0. -1.
        -11    1    3    3    0    0  0.14681346256E+02 -0.42330085357E+01  0.97837600954E+01  0.18143380363E+02  0.51100000000E-03 0.  1.
        -12    1    3    3    0    0  0.17183069575E+01 -0.80699321776E-01  0.47565733439E+01  0.50580708928E+01  0.00000000000E+00 0.  1.
</event>
<event>
 7    1  0.1476909E-008  0.4614232E+02  0.7816164E-02  0.1320468E+00
        -11   -1    0    0    0    0  0.00000000000E+00  0.00000000000E+00  0.45593999997E+02  0.45594000000E+02  0.51100000000E-03 0.  1.
         11   -1    0    0    0    0 -0.00000000000E+00 -0.00000000000E+00 -0.45593999997E+02  0.45594000000E+02  0.51100000000E-03 0. -1.
    9900012    2    1    2    0    0 -0.34498781132E+02  0.40150597638E+01 -0.28684960046E+02  0.46142317217E+02  0.99999950428E+01 0.  0.
        -12    1    1    2    0    0  0.34498781132E+02 -0.40150597638E+01  0.28684960046E+02  0.45045682783E+02  0.00000000000E+00 0.  1.
         11    1    3    3    0    0 -0.15067335812E+02  0.45965306598E+01 -0.14781467785E+02  0.21601955762E+02  0.51100000000E-03 0. -1.
        -11    1    3    3    0    0 -0.17240533066E+02  0.94684980133E+00 -0.10480364273E+02  0.20198280633E+02  0.51100000000E-03 0.  1.
         12    1    3    3    0    0 -0.21909122537E+01 -0.15283206973E+01 -0.34231279870E+01  0.43420808229E+01  0.00000000000E+00 0. -1.
</event>
<event>
 7    1  0.1476909E-008  0.4614232E+02  0.7816164E-02  0.1320468E+00
        -11   -1    0    0    0    0  0.00000000000E+00  0.00000000000E+00  0.45593999997E+02  0.45594000000E+02  0.51100000000E-03 0. -1.
         11   -1    0    0    0    0 -0.00000000000E+00 -0.00000000000E+00 -0.45593999997E+02  0.45594000000E+02  0.51100000000E-03 0.  1.
    9900012    2    1    2    0    0 -0.31003678767E+02  0.11877739120E+02  0.30443466889E+02  0.46142318076E+02  0.10000002874E+02 0.  0.
        -12    1    1    2    0    0  0.31003678767E+02 -0.11877739120E+02 -0.30443466889E+02  0.45045681924E+02  0.00000000000E+00 0.  1.
         11    1    3    3    0    0 -0.12792117883E+02  0.11537651862E+00  0.13004691017E+02  0.18242082677E+02  0.51100000000E-03 0. -1.
        -11    1    3    3    0    0 -0.83961406046E+01  0.60314482374E+01  0.94627259893E+01  0.14014875251E+02  0.51100000000E-03 0.  1.
         12    1    3    3    0    0 -0.98154202796E+01  0.57309143641E+01  0.79760498831E+01  0.13885360148E+02  0.00000000000E+00 0. -1.
</event>
<event>
 7    1  0.1476909E-008  0.4614232E+02  0.7816164E-02  0.1320468E+00
        -11   -1    0    0    0    0  0.00000000000E+00  0.00000000000E+00  0.45593999997E+02  0.45594000000E+02  0.51100000000E-03 0.  1.
         11   -1    0    0    0    0 -0.00000000000E+00 -0.00000000000E+00 -0.45593999997E+02  0.45594000000E+02  0.51100000000E-03 0. -1.
    9900012    2    1    2    0    0 -0.35225905085E+02  0.19177287562E+02  0.20505628207E+02  0.46142317239E+02  0.99999952363E+01 0.  0.
        -12    1    1    2    0    0  0.35225905085E+02 -0.19177287562E+02 -0.20505628207E+02  0.45045682761E+02  0.00000000000E+00 0.  1.
         11    1    3    3    0    0 -0.43391550844E+01  0.14708174796E+01  0.54126226013E+01  0.70914070952E+01  0.51100000000E-03 0. -1.
        -11    1    3    3    0    0 -0.22410815141E+02  0.13688338573E+02  0.85619111684E+01  0.27621034942E+02  0.51100000000E-03 0.  1.
        -12    1    3    3    0    0 -0.84759348590E+01  0.40181315098E+01  0.65310944372E+01  0.11429875201E+02  0.00000000000E+00 0.  1.
</event>
<event>
 7    1  0.1476909E-008  0.4614232E+02  0.7816164E-02  0.1320468E+00
        -11   -1    0    0    0    0  0.00000000000E+00  0.00000000000E+00  0.45593999997E+02  0.45594000000E+02  0.51100000000E-03 0. -1.
         11   -1    0    0    0    0 -0.00000000000E+00 -0.00000000000E+00 -0.45593999997E+02  0.45594000000E+02  0.51100000000E-03 0.  1.
    9900012    2    1    2    0    0  0.50219278071E+01 -0.70230585653E+01  0.44210521024E+02  0.46142320077E+02  0.10000021118E+02 0.  0.
        -12    1    1    2    0    0 -0.50219278071E+01  0.70230585653E+01 -0.44210521024E+02  0.45045679923E+02  0.00000000000E+00 0.  1.
         11    1    3    3    0    0  0.41951196721E+01 -0.50036568293E+01  0.41888550058E+02  0.42394412803E+02  0.51100000000E-03 0. -1.
        -11    1    3    3    0    0  0.14633741332E+01 -0.11634063230E+01  0.13644746688E+01  0.23144695957E+01  0.51100000000E-03 0.  1.
         12    1    3    3    0    0 -0.63656599826E+00 -0.85599541296E+00  0.95749629743E+00  0.14334376780E+01  0.00000000000E+00 0. -1.
</event>
<event>
 7    1  0.1476909E-008  0.4614232E+02  0.7816164E-02  0.1320468E+00
        -11   -1    0    0    0    0  0.00000000000E+00  0.00000000000E+00  0.45593999997E+02  0.45594000000E+02  0.51100000000E-03 0.  1.
         11   -1    0    0    0    0 -0.00000000000E+00 -0.00000000000E+00 -0.45593999997E+02  0.45594000000E+02  0.51100000000E-03 0. -1.
    9900012    2    1    2    0    0 -0.12844856635E+02  0.45235988409E+01 -0.42937864418E+02  0.46142317752E+02  0.99999999131E+01 0.  0.
        -12    1    1    2    0    0  0.12844856635E+02 -0.45235988409E+01  0.42937864418E+02  0.45045682248E+02  0.00000000000E+00 0.  1.
         11    1    3    3    0    0 -0.28048852541E+01  0.11641010323E+01 -0.11145617081E+02  0.11551938923E+02  0.51100000000E-03 0. -1.
        -11    1    3    3    0    0 -0.30497593118E+01 -0.29092348119E+01 -0.10835337327E+02  0.11626229582E+02  0.51100000000E-03 0.  1.
        -12    1    3    3    0    0 -0.69902120694E+01  0.62687326205E+01 -0.20956910010E+02  0.22964149247E+02  0.00000000000E+00 0.  1.
</event>
<event>
 7    1  0.1476909E-008  0.4614231E+02  0.7816164E-02  0.1320468E+00
        -11   -1    0    0    0    0  0.00000000000E+00  0.00000000000E+00  0.45593999997E+02  0.45594000000E+02  0.51100000000E-03 0. -1.
         11   -1    0    0    0    0 -0.00000000000E+00 -0.00000000000E+00 -0.45593999997E+02  0.45594000000E+02  0.51100000000E-03 0.  1.
    9900012    2    1    2    0    0  0.26912292590E+02 -0.31987057834E+02  0.16783043913E+02  0.46142312922E+02  0.99999558748E+01 0.  0.
        -12    1    1    2    0    0 -0.26912292590E+02  0.31987057834E+02 -0.16783043913E+02  0.45045687078E+02  0.00000000000E+00 0.  1.
         11    1    3    3    0    0  0.81067278025E+01 -0.64462163344E+01  0.78325022854E+01  0.12985408465E+02  0.51100000000E-03 0. -1.
        -11    1    3    3    0    0  0.20469180189E+01 -0.30259825858E+01 -0.13493284738E+00  0.36557695661E+01  0.51100000000E-03 0.  1.
         12    1    3    3    0    0  0.16758646768E+02 -0.22514858914E+02  0.90854744753E+01  0.29501134891E+02  0.00000000000E+00 0. -1.
</event>
<event>
 7    1  0.1476909E-008  0.4614232E+02  0.7816164E-02  0.1320468E+00
        -11   -1    0    0    0    0  0.00000000000E+00  0.00000000000E+00  0.45593999997E+02  0.45594000000E+02  0.51100000000E-03 0.  1.
         11   -1    0    0    0    0 -0.00000000000E+00 -0.00000000000E+00 -0.45593999997E+02  0.45594000000E+02  0.51100000000E-03 0. -1.
    9900012    2    1    2    0    0 -0.35232103716E+02 -0.24903611235E+02 -0.12946917051E+02  0.46142316012E+02  0.99999840532E+01 0.  0.
        -12    1    1    2    0    0  0.35232103716E+02  0.24903611235E+02  0.12946917051E+02  0.45045683988E+02  0.00000000000E+00 0.  1.
         11    1    3    3    0    0  0.42609456710E+00 -0.11236406206E+01 -0.65330035787E+00  0.13678181323E+01  0.51100000000E-03 0.  1.
        -11    1    3    3    0    0 -0.31183162327E+02 -0.22238554273E+02 -0.11363900787E+02  0.39950984346E+02  0.51100000000E-03 0. -1.
        -12    1    3    3    0    0 -0.44750359562E+01 -0.15414163414E+01 -0.92971590566E+00  0.48235135339E+01  0.00000000000E+00 0.  1.
</event>
<event>
 7    1  0.1476909E-008  0.4614232E+02  0.7816164E-02  0.1320468E+00
        -11   -1    0    0    0    0  0.00000000000E+00  0.00000000000E+00  0.45593999997E+02  0.45594000000E+02  0.51100000000E-03 0. -1.
         11   -1    0    0    0    0 -0.00000000000E+00 -0.00000000000E+00 -0.45593999997E+02  0.45594000000E+02  0.51100000000E-03 0.  1.
    9900012    2    1    2    0    0  0.86352088541E+01 -0.37070248605E+02  0.24090313469E+02  0.46142319113E+02  0.10000012325E+02 0.  0.
        -12    1    1    2    0    0 -0.86352088541E+01  0.37070248605E+02 -0.24090313469E+02  0.45045680887E+02  0.00000000000E+00 0.  1.
         11    1    3    3    0    0 -0.11976425935E+01 -0.52504046949E+01  0.46905415242E+01  0.71415878692E+01  0.51100000000E-03 0. -1.
        -11    1    3    3    0    0  0.32640890468E+01 -0.85693351953E+01  0.84691610300E+01  0.12482566716E+02  0.51100000000E-03 0.  1.
         12    1    3    3    0    0  0.65687624008E+01 -0.23250508714E+02  0.10930610915E+02  0.26518164528E+02  0.00000000000E+00 0. -1.
</event>
<event>
 7    1  0.1476909E-008  0.4614232E+02  0.7816164E-02  0.1320468E+00
        -11   -1    0    0    0    0  0.00000000000E+00  0.00000000000E+00  0.45593999997E+02  0.45594000000E+02  0.51100000000E-03 0.  1.
         11   -1    0    0    0    0 -0.00000000000E+00 -0.00000000000E+00 -0.45593999997E+02  0.45594000000E+02  0.51100000000E-03 0. -1.
    9900012    2    1    2    0    0  0.15862175036E+02  0.41657156228E+02 -0.64950814715E+01  0.46142319350E+02  0.10000014488E+02 0.  0.
        -12    1    1    2    0    0 -0.15862175036E+02 -0.41657156228E+02  0.64950814715E+01  0.45045680650E+02  0.00000000000E+00 0.  1.
         11    1    3    3    0    0  0.10082248975E+02  0.31302871251E+02 -0.37038613281E+01  0.33094411643E+02  0.51100000000E-03 0. -1.
        -11    1    3    3    0    0  0.21971916593E+01  0.57518259953E+01 -0.36419131469E+01  0.71536483767E+01  0.51100000000E-03 0.  1.
        -12    1    3    3    0    0  0.35827344014E+01  0.46024589819E+01  0.85069300344E+00  0.58942593307E+01  0.00000000000E+00 0.  1.
</event>
<event>
 7    1  0.1476909E-008  0.4614232E+02  0.7816164E-02  0.1320468E+00
        -11   -1    0    0    0    0  0.00000000000E+00  0.00000000000E+00  0.45593999997E+02  0.45594000000E+02  0.51100000000E-03 0.  1.
         11   -1    0    0    0    0 -0.00000000000E+00 -0.00000000000E+00 -0.45593999997E+02  0.45594000000E+02  0.51100000000E-03 0. -1.
    9900012    2    1    2    0    0  0.44166116496E+01  0.22459857001E+02 -0.38796410943E+02  0.46142321661E+02  0.10000035563E+02 0.  0.
        -12    1    1    2    0    0 -0.44166116496E+01 -0.22459857001E+02  0.38796410943E+02  0.45045678339E+02  0.00000000000E+00 0.  1.
         11    1    3    3    0    0 -0.61256506520E+00  0.22371585765E+01 -0.94879310138E+01  0.97673409708E+01  0.51100000000E-03 0. -1.
        -11    1    3    3    0    0  0.19826381500E+01  0.31868767875E+01 -0.86256330240E+01  0.94068370358E+01  0.51100000000E-03 0.  1.
         12    1    3    3    0    0  0.30465385649E+01  0.17035821637E+02 -0.20682846905E+02  0.26968143654E+02  0.00000000000E+00 0. -1.
</event>
<event>
 7    1  0.1476909E-008  0.4614231E+02  0.7816164E-02  0.1320468E+00
        -11   -1    0    0    0    0  0.00000000000E+00  0.00000000000E+00  0.45593999997E+02  0.45594000000E+02  0.51100000000E-03 0. -1.
         11   -1    0    0    0    0 -0.00000000000E+00 -0.00000000000E+00 -0.45593999997E+02  0.45594000000E+02  0.51100000000E-03 0.  1.
    9900012    2    1    2    0    0  0.20146253010E+02  0.28627491630E+02  0.28349761042E+02  0.46142314984E+02  0.99999746786E+01 0.  0.
        -12    1    1    2    0    0 -0.20146253010E+02 -0.28627491630E+02 -0.28349761042E+02  0.45045685016E+02  0.00000000000E+00 0.  1.
         11    1    3    3    0    0  0.14985998649E+02  0.15187079549E+02  0.14737386156E+02  0.25931025658E+02  0.51100000000E-03 0. -1.
        -11    1    3    3    0    0  0.46305572375E+01  0.12995994247E+02  0.11410993635E+02  0.17903873960E+02  0.51100000000E-03 0.  1.
         12    1    3    3    0    0  0.52969712424E+00  0.44441783425E+00  0.22013812517E+01  0.23074153658E+01  0.00000000000E+00 0. -1.
</event>
<event>
 7    1  0.1476909E-008  0.4614232E+02  0.7816164E-02  0.1320468E+00
        -11   -1    0    0    0    0  0.00000000000E+00  0.00000000000E+00  0.45593999997E+02  0.45594000000E+02  0.51100000000E-03 0.  1.
         11   -1    0    0    0    0 -0.00000000000E+00 -0.00000000000E+00 -0.45593999997E+02  0.45594000000E+02  0.51100000000E-03 0. -1.
    9900012    2    1    2    0    0  0.25484063023E+02  0.22557718221E+02 -0.29509751622E+02  0.46142316963E+02  0.99999927183E+01 0.  0.
        -12    1    1    2    0    0 -0.25484063023E+02 -0.22557718221E+02  0.29509751622E+02  0.45045683037E+02  0.00000000000E+00 0.  1.
         11    1    3    3    0    0  0.14477294638E+02  0.15421420672E+02 -0.16887943511E+02  0.27066860030E+02  0.51100000000E-03 0. -1.
        -11    1    3    3    0    0  0.15407608334E+00 -0.23640528222E+00 -0.24708677420E+01  0.24869287397E+01  0.51100000000E-03 0.  1.
        -12    1    3    3    0    0  0.10852692302E+02  0.73727028312E+01 -0.10150940369E+02  0.16588528193E+02  0.00000000000E+00 0.  1.
</event>
<event>
 7    1  0.1476909E-008  0.4614232E+02  0.7816164E-02  0.1320468E+00
        -11   -1    0    0    0    0  0.00000000000E+00  0.00000000000E+00  0.45593999997E+02  0.45594000000E+02  0.51100000000E-03 0. -1.
         11   -1    0    0    0    0 -0.00000000000E+00 -0.00000000000E+00 -0.45593999997E+02  0.45594000000E+02  0.51100000000E-03 0.  1.
    9900012    2    1    2    0    0 -0.39405915525E+01 -0.10563759469E+01  0.44860553430E+02  0.46142318231E+02  0.10000004287E+02 0.  0.
        -12    1    1    2    0    0  0.39405915525E+01  0.10563759469E+01 -0.44860553430E+02  0.45045681769E+02  0.00000000000E+00 0.  1.
         11    1    3    3    0    0 -0.23600366506E+01  0.98782789191E-01  0.24424025146E+01  0.33977729965E+01  0.51100000000E-03 0.  1.
        -11    1    3    3    0    0 -0.19108646876E+00 -0.27987344863E+01  0.16460805783E+02  0.16698130316E+02  0.51100000000E-03 0. -1.
         12    1    3    3    0    0 -0.13894684332E+01  0.16435757502E+01  0.25957345133E+02  0.26046414919E+02  0.00000000000E+00 0. -1.
</event>
<event>
 7    1  0.1476909E-008  0.4614232E+02  0.7816164E-02  0.1320468E+00
        -11   -1    0    0    0    0  0.00000000000E+00  0.00000000000E+00  0.45593999997E+02  0.45594000000E+02  0.51100000000E-03 0.  1.
         11   -1    0    0    0    0 -0.00000000000E+00 -0.00000000000E+00 -0.45593999997E+02  0.45594000000E+02  0.51100000000E-03 0. -1.
    9900012    2    1    2    0    0  0.76011953750E+01  0.18433371738E+02 -0.40392397219E+02  0.46142321874E+02  0.10000037506E+02 0.  0.
        -12    1    1    2    0    0 -0.76011953750E+01 -0.18433371738E+02  0.40392397219E+02  0.45045678126E+02  0.00000000000E+00 0.  1.
         11    1    3    3    0    0  0.29185983081E+01  0.37462444512E+00 -0.24740952358E+01  0.38444384578E+01  0.51100000000E-03 0. -1.
        -11    1    3    3    0    0  0.70559813211E+00  0.60615048970E+01 -0.12082241497E+02  0.13535888230E+02  0.51100000000E-03 0.  1.
         12    1    3    3    0    0  0.39769989348E+01  0.11997242395E+02 -0.25836060486E+02  0.28761995186E+02  0.00000000000E+00 0. -1.
</event>
<event>
 7    1  0.1476909E-008  0.4614232E+02  0.7816164E-02  0.1320468E+00
        -11   -1    0    0    0    0  0.00000000000E+00  0.00000000000E+00  0.45593999997E+02  0.45594000000E+02  0.51100000000E-03 0. -1.
         11   -1    0    0    0    0 -0.00000000000E+00 -0.00000000000E+00 -0.45593999997E+02  0.45594000000E+02  0.51100000000E-03 0.  1.
    9900012    2    1    2    0    0  0.19294052361E+02  0.36905514047E+02  0.17170789420E+02  0.46142318377E+02  0.10000005619E+02 0.  0.
        -12    1    1    2    0    0 -0.19294052361E+02 -0.36905514047E+02 -0.17170789420E+02  0.45045681623E+02  0.00000000000E+00 0.  1.
         11    1    3    3    0    0  0.37442262910E+01  0.66682174298E+01  0.34508910223E+01  0.83900538328E+01  0.51100000000E-03 0. -1.
        -11    1    3    3    0    0  0.66593550086E+01  0.65501857251E+01  0.67017782818E+01  0.11496337441E+02  0.51100000000E-03 0.  1.
        -12    1    3    3    0    0  0.88904710617E+01  0.23687110892E+02  0.70181201155E+01  0.26255927103E+02  0.00000000000E+00 0.  1.
</event>
<event>
 7    1  0.1476909E-008  0.4614232E+02  0.7816164E-02  0.1320468E+00
        -11   -1    0    0    0    0  0.00000000000E+00  0.00000000000E+00  0.45593999997E+02  0.45594000000E+02  0.51100000000E-03 0.  1.
         11   -1    0    0    0    0 -0.00000000000E+00 -0.00000000000E+00 -0.45593999997E+02  0.45594000000E+02  0.51100000000E-03 0. -1.
    9900012    2    1    2    0    0  0.14477238871E+02 -0.70621099614E+00 -0.42650020095E+02  0.46142318815E+02  0.10000009609E+02 0.  0.
        -12    1    1    2    0    0 -0.14477238871E+02  0.70621099614E+00  0.42650020095E+02  0.45045681185E+02  0.00000000000E+00 0.  1.
         11    1    3    3    0    0  0.92623327156E+01 -0.20425855205E+01 -0.14026637873E+02  0.16932499320E+02  0.51100000000E-03 0. -1.
        -11    1    3    3    0    0  0.19404654888E+01  0.11506454250E+01 -0.16385927528E+02  0.16540496136E+02  0.51100000000E-03 0.  1.
        -12    1    3    3    0    0  0.32744406664E+01  0.18572909933E+00 -0.12237454694E+02  0.12669323358E+02  0.00000000000E+00 0.  1.
</event>
<event>
 7    1  0.1476909E-008  0.4614232E+02  0.7816164E-02  0.1320468E+00
        -11   -1    0    0    0    0  0.00000000000E+00  0.00000000000E+00  0.45593999997E+02  0.45594000000E+02  0.51100000000E-03 0.  1.
         11   -1    0    0    0    0 -0.00000000000E+00 -0.00000000000E+00 -0.45593999997E+02  0.45594000000E+02  0.51100000000E-03 0. -1.
    9900012    2    1    2    0    0  0.14798647965E+02  0.24485079330E+02 -0.34793596990E+02  0.46142317822E+02  0.10000000558E+02 0.  0.
        -12    1    1    2    0    0 -0.14798647965E+02 -0.24485079330E+02  0.34793596990E+02  0.45045682178E+02  0.00000000000E+00 0.  1.
         11    1    3    3    0    0 -0.21213323789E+00  0.36043932212E+01 -0.17855515507E+01  0.40280076471E+01  0.51100000000E-03 0.  1.
        -11    1    3    3    0    0  0.14837472127E+02  0.20185579549E+02 -0.30311528413E+02  0.39324254040E+02  0.51100000000E-03 0. -1.
         12    1    3    3    0    0  0.17330907573E+00  0.69510656033E+00 -0.26965170260E+01  0.27900561352E+01  0.00000000000E+00 0. -1.
</event>
<event>
 7    1  0.1476909E-008  0.4614232E+02  0.7816164E-02  0.1320468E+00
        -11   -1    0    0    0    0  0.00000000000E+00  0.00000000000E+00  0.45593999997E+02  0.45594000000E+02  0.51100000000E-03 0. -1.
         11   -1    0    0    0    0 -0.00000000000E+00 -0.00000000000E+00 -0.45593999997E+02  0.45594000000E+02  0.51100000000E-03 0.  1.
    9900012    2    1    2    0    0  0.25072442177E+02  0.21894998833E+02  0.30349546119E+02  0.46142320071E+02  0.10000021067E+02 0.  0.
        -12    1    1    2    0    0 -0.25072442177E+02 -0.21894998833E+02 -0.30349546119E+02  0.45045679929E+02  0.00000000000E+00 0.  1.
         11    1    3    3    0    0  0.79268104967E+01  0.91168563878E+01  0.11030624467E+02  0.16359280896E+02  0.51100000000E-03 0.  1.
        -11    1    3    3    0    0  0.11342273257E+02  0.11859909187E+02  0.16481578243E+02  0.23258267997E+02  0.51100000000E-03 0. -1.
         12    1    3    3    0    0  0.58033584240E+01  0.91823325733E+00  0.28373434087E+01  0.65247711784E+01  0.00000000000E+00 0. -1.
</event>
<event>
 7    1  0.1692268E-008  0.4614232E+02  0.7816164E-02  0.1320468E+00
        -11   -1    0    0    0    0  0.00000000000E+00  0.00000000000E+00  0.45593999997E+02  0.45594000000E+02  0.51100000000E-03 0.  1.
         11   -1    0    0    0    0 -0.00000000000E+00 -0.00000000000E+00 -0.45593999997E+02  0.45594000000E+02  0.51100000000E-03 0. -1.
    9900012    2    1    2    0    0 -0.32065627717E+02  0.30005882860E+02  0.10027762944E+02  0.46142317446E+02  0.99999971266E+01 0.  0.
        -12    1    1    2    0    0  0.32065627717E+02 -0.30005882860E+02 -0.10027762944E+02  0.45045682554E+02  0.00000000000E+00 0.  1.
         11    1    3    3    0    0 -0.30917089403E+02  0.30369445229E+02  0.90151571807E+01  0.44265592506E+02  0.51100000000E-03 0. -1.
        -11    1    3    3    0    0 -0.11155331675E+01 -0.53558504991E+00  0.49933936861E+00  0.13343933676E+01  0.51100000000E-03 0.  1.
         12    1    3    3    0    0 -0.33005146673E-01  0.17202268103E+00  0.51326639463E+00  0.54233157233E+00  0.00000000000E+00 0. -1.
</event>
<event>
 7    1  0.1476909E-008  0.4614232E+02  0.7816164E-02  0.1320468E+00
        -11   -1    0    0    0    0  0.00000000000E+00  0.00000000000E+00  0.45593999997E+02  0.45594000000E+02  0.51100000000E-03 0.  1.
         11   -1    0    0    0    0 -0.00000000000E+00 -0.00000000000E+00 -0.45593999997E+02  0.45594000000E+02  0.51100000000E-03 0. -1.
    9900012    2    1    2    0    0 -0.24901783263E+02  0.52556739477E+01 -0.37167086830E+02  0.46142320277E+02  0.10000022939E+02 0.  0.
        -12    1    1    2    0    0  0.24901783263E+02 -0.52556739477E+01  0.37167086830E+02  0.45045679723E+02  0.00000000000E+00 0.  1.
         11    1    3    3    0    0 -0.16741479578E+02  0.10837989964E+01 -0.22545053523E+02  0.28102156453E+02  0.51100000000E-03 0. -1.
        -11    1    3    3    0    0 -0.36321749319E+01  0.37541501632E+01 -0.11169650172E+02  0.12330751129E+02  0.51100000000E-03 0.  1.
        -12    1    3    3    0    0 -0.45281287522E+01  0.41772478811E+00 -0.34523831355E+01  0.57094126939E+01  0.00000000000E+00 0.  1.
</event>
<event>
 7    1  0.1476909E-008  0.4614232E+02  0.7816164E-02  0.1320468E+00
        -11   -1    0    0    0    0  0.00000000000E+00  0.00000000000E+00  0.45593999997E+02  0.45594000000E+02  0.51100000000E-03 0.  1.
         11   -1    0    0    0    0 -0.00000000000E+00 -0.00000000000E+00 -0.45593999997E+02  0.45594000000E+02  0.51100000000E-03 0. -1.
    9900012    2    1    2    0    0  0.31053592028E+02  0.18555618278E+02 -0.26841701421E+02  0.46142317824E+02  0.10000000576E+02 0.  0.
        -12    1    1    2    0    0 -0.31053592028E+02 -0.18555618278E+02  0.26841701421E+02  0.45045682176E+02  0.00000000000E+00 0.  1.
         11    1    3    3    0    0  0.26393470307E+02  0.15086077331E+02 -0.21671002687E+02  0.37334131325E+02  0.51100000000E-03 0. -1.
        -11    1    3    3    0    0  0.35940686890E+01  0.28475619008E+01 -0.58233875544E+01  0.74120025223E+01  0.51100000000E-03 0.  1.
         12    1    3    3    0    0  0.10660530319E+01  0.62197904595E+00  0.65268882060E+00  0.13961839768E+01  0.00000000000E+00 0. -1.
</event>
<event>
 7    1  0.1476909E-008  0.4614232E+02  0.7816164E-02  0.1320468E+00
        -11   -1    0    0    0    0  0.00000000000E+00  0.00000000000E+00  0.45593999997E+02  0.45594000000E+02  0.51100000000E-03 0. -1.
         11   -1    0    0    0    0 -0.00000000000E+00 -0.00000000000E+00 -0.45593999997E+02  0.45594000000E+02  0.51100000000E-03 0.  1.
    9900012    2    1    2    0    0  0.40621828656E+02  0.63559260026E+01  0.18400617189E+02  0.46142317946E+02  0.10000001690E+02 0.  0.
        -12    1    1    2    0    0 -0.40621828656E+02 -0.63559260026E+01 -0.18400617189E+02  0.45045682054E+02  0.00000000000E+00 0.  1.
         11    1    3    3    0    0  0.10138805464E+02  0.14879710906E+00  0.87659640303E+01  0.13403717487E+02  0.51100000000E-03 0. -1.
        -11    1    3    3    0    0  0.28971331102E+02  0.55919312521E+01  0.83593551954E+01  0.30667353007E+02  0.51100000000E-03 0.  1.
        -12    1    3    3    0    0  0.15116920903E+01  0.61519764146E+00  0.12752979633E+01  0.20712474524E+01  0.00000000000E+00 0.  1.
</event>
<event>
 7    1  0.1476909E-008  0.4614232E+02  0.7816164E-02  0.1320468E+00
        -11   -1    0    0    0    0  0.00000000000E+00  0.00000000000E+00  0.45593999997E+02  0.45594000000E+02  0.51100000000E-03 0.  1.
         11   -1    0    0    0    0 -0.00000000000E+00 -0.00000000000E+00 -0.45593999997E+02  0.45594000000E+02  0.51100000000E-03 0. -1.
    9900012    2    1    2    0    0 -0.20065338764E+02 -0.49380348927E+01 -0.40026384249E+02  0.46142318249E+02  0.10000004451E+02 0.  0.
        -12    1    1    2    0    0  0.20065338764E+02  0.49380348927E+01  0.40026384249E+02  0.45045681751E+02  0.00000000000E+00 0.  1.
         11    1    3    3    0    0 -0.12439966418E+02  0.92021914087E+00 -0.26587782757E+02  0.29368516475E+02  0.51100000000E-03 0. -1.
        -11    1    3    3    0    0 -0.42499281122E+01 -0.28635941105E+01 -0.94555367317E+01  0.10754963288E+02  0.51100000000E-03 0.  1.
         12    1    3    3    0    0 -0.33754442340E+01 -0.29946599231E+01 -0.39830647606E+01  0.60188384858E+01  0.00000000000E+00 0. -1.
</event>
<event>
 7    1  0.1476909E-008  0.4614231E+02  0.7816164E-02  0.1320468E+00
        -11   -1    0    0    0    0  0.00000000000E+00  0.00000000000E+00  0.45593999997E+02  0.45594000000E+02  0.51100000000E-03 0.  1.
         11   -1    0    0    0    0 -0.00000000000E+00 -0.00000000000E+00 -0.45593999997E+02  0.45594000000E+02  0.51100000000E-03 0. -1.
    9900012    2    1    2    0    0  0.27699095608E+01  0.12303036355E+02 -0.43244384931E+02  0.46142312853E+02  0.99999552396E+01 0.  0.
        -12    1    1    2    0    0 -0.27699095608E+01 -0.12303036355E+02  0.43244384931E+02  0.45045687147E+02  0.00000000000E+00 0.  1.
         11    1    3    3    0    0  0.43437187057E+01  0.12534264515E+02 -0.40595841512E+02  0.42708289915E+02  0.51100000000E-03 0. -1.
        -11    1    3    3    0    0 -0.73638258351E+00 -0.81329653871E+00 -0.17968103991E+01  0.21052882084E+01  0.51100000000E-03 0.  1.
         12    1    3    3    0    0 -0.83742656145E+00  0.58206837845E+00 -0.85173301968E+00  0.13287347289E+01  0.00000000000E+00 0. -1.
</event>
<event>
 7    1  0.1476909E-008  0.4614232E+02  0.7816164E-02  0.1320468E+00
        -11   -1    0    0    0    0  0.00000000000E+00  0.00000000000E+00  0.45593999997E+02  0.45594000000E+02  0.51100000000E-03 0.  1.
         11   -1    0    0    0    0 -0.00000000000E+00 -0.00000000000E+00 -0.45593999997E+02  0.45594000000E+02  0.51100000000E-03 0. -1.
    9900012    2    1    2    0    0  0.17149951684E+01 -0.57264625589E+01 -0.44647284073E+02  0.46142317000E+02  0.99999930591E+01 0.  0.
        -12    1    1    2    0    0 -0.17149951684E+01  0.57264625589E+01  0.44647284073E+02  0.45045683000E+02  0.00000000000E+00 0.  1.
         11    1    3    3    0    0  0.46623638523E+01 -0.18580509136E+01 -0.14409675212E+02  0.15258726351E+02  0.51100000000E-03 0. -1.
        -11    1    3    3    0    0 -0.36123966428E+01 -0.16768971363E+01 -0.20052783108E+02  0.20444449226E+02  0.51100000000E-03 0.  1.
        -12    1    3    3    0    0  0.66502795886E+00 -0.21915145091E+01 -0.10184825753E+02  0.10439141423E+02  0.00000000000E+00 0.  1.
</event>
<event>
 7    1  0.1476909E-008  0.4614232E+02  0.7816164E-02  0.1320468E+00
        -11   -1    0    0    0    0  0.00000000000E+00  0.00000000000E+00  0.45593999997E+02  0.45594000000E+02  0.51100000000E-03 0.  1.
         11   -1    0    0    0    0 -0.00000000000E+00 -0.00000000000E+00 -0.45593999997E+02  0.45594000000E+02  0.51100000000E-03 0. -1.
    9900012    2    1    2    0    0  0.28916282948E+02  0.98428165884E+01 -0.33107117014E+02  0.46142315913E+02  0.99999831451E+01 0.  0.
        -12    1    1    2    0    0 -0.28916282948E+02 -0.98428165884E+01  0.33107117014E+02  0.45045684087E+02  0.00000000000E+00 0.  1.
         11    1    3    3    0    0  0.16956814397E+02  0.54255551907E+01 -0.18286697161E+02  0.25522019844E+02  0.51100000000E-03 0. -1.
        -11    1    3    3    0    0  0.29888022383E+01  0.39492534782E+01 -0.77106587569E+01  0.91642675966E+01  0.51100000000E-03 0.  1.
        -12    1    3    3    0    0  0.89706663124E+01  0.46800791947E+00 -0.71097610965E+01  0.11456028472E+02  0.00000000000E+00 0.  1.
</event>
<event>
 7    1  0.1476909E-008  0.4614232E+02  0.7816164E-02  0.1320468E+00
        -11   -1    0    0    0    0  0.00000000000E+00  0.00000000000E+00  0.45593999997E+02  0.45594000000E+02  0.51100000000E-03 0.  1.
         11   -1    0    0    0    0 -0.00000000000E+00 -0.00000000000E+00 -0.45593999997E+02  0.45594000000E+02  0.51100000000E-03 0. -1.
    9900012    2    1    2    0    0 -0.20296802043E+02  0.17497887064E+01 -0.40175758438E+02  0.46142317635E+02  0.99999988470E+01 0.  0.
        -12    1    1    2    0    0  0.20296802043E+02 -0.17497887064E+01  0.40175758438E+02  0.45045682365E+02  0.00000000000E+00 0.  1.
         11    1    3    3    0    0 -0.15999976238E+02  0.28960932287E+01 -0.26674116196E+02  0.31239319306E+02  0.51100000000E-03 0. -1.
        -11    1    3    3    0    0 -0.51725703949E+00 -0.17219604317E+01 -0.80247970251E+01  0.82237503688E+01  0.51100000000E-03 0.  1.
        -12    1    3    3    0    0 -0.37795687656E+01  0.57565590936E+00 -0.54768452169E+01  0.66792479599E+01  0.00000000000E+00 0.  1.
</event>
<event>
 7    1  0.1476909E-008  0.4614232E+02  0.7816164E-02  0.1320468E+00
        -11   -1    0    0    0    0  0.00000000000E+00  0.00000000000E+00  0.45593999997E+02  0.45594000000E+02  0.51100000000E-03 0. -1.
         11   -1    0    0    0    0 -0.00000000000E+00 -0.00000000000E+00 -0.45593999997E+02  0.45594000000E+02  0.51100000000E-03 0.  1.
    9900012    2    1    2    0    0  0.27485774055E+02  0.13639586114E+02  0.32978893184E+02  0.46142317850E+02  0.10000000808E+02 0.  0.
        -12    1    1    2    0    0 -0.27485774055E+02 -0.13639586114E+02 -0.32978893184E+02  0.45045682150E+02  0.00000000000E+00 0.  1.
         11    1    3    3    0    0  0.81220489469E+01  0.13152175427E+01  0.54674831635E+01  0.98788080599E+01  0.51100000000E-03 0. -1.
        -11    1    3    3    0    0  0.10916379196E+02  0.94419271826E+01  0.19568203688E+02  0.24315261042E+02  0.51100000000E-03 0.  1.
        -12    1    3    3    0    0  0.84473459121E+01  0.28824413884E+01  0.79432063318E+01  0.11948248748E+02  0.00000000000E+00 0.  1.
</event>
<event>
 7    1  0.1476909E-008  0.4614232E+02  0.7816164E-02  0.1320468E+00
        -11   -1    0    0    0    0  0.00000000000E+00  0.00000000000E+00  0.45593999997E+02  0.45594000000E+02  0.51100000000E-03 0.  1.
         11   -1    0    0    0    0 -0.00000000000E+00 -0.00000000000E+00 -0.45593999997E+02  0.45594000000E+02  0.51100000000E-03 0. -1.
    9900012    2    1    2    0    0 -0.15545211153E+02  0.42902958683E+01 -0.42060114519E+02  0.46142318056E+02  0.10000002689E+02 0.  0.
        -12    1    1    2    0    0  0.15545211153E+02 -0.42902958683E+01  0.42060114519E+02  0.45045681944E+02  0.00000000000E+00 0.  1.
         11    1    3    3    0    0 -0.35574322751E+01  0.32559730717E+01 -0.19127701242E+02  0.19726267769E+02  0.51100000000E-03 0. -1.
        -11    1    3    3    0    0 -0.55329210744E+01  0.23661323758E+01 -0.73640417970E+01  0.95100425806E+01  0.51100000000E-03 0.  1.
         12    1    3    3    0    0 -0.64548578034E+01 -0.13318095792E+01 -0.15568371481E+02  0.16906007707E+02  0.00000000000E+00 0. -1.
</event>
<event>
 7    1  0.1476909E-008  0.4614232E+02  0.7816164E-02  0.1320468E+00
        -11   -1    0    0    0    0  0.00000000000E+00  0.00000000000E+00  0.45593999997E+02  0.45594000000E+02  0.51100000000E-03 0. -1.
         11   -1    0    0    0    0 -0.00000000000E+00 -0.00000000000E+00 -0.45593999997E+02  0.45594000000E+02  0.51100000000E-03 0.  1.
    9900012    2    1    2    0    0  0.24784196628E+02  0.37586551809E+02 -0.14519878670E+01  0.46142317098E+02  0.99999939531E+01 0.  0.
        -12    1    1    2    0    0 -0.24784196628E+02 -0.37586551809E+02  0.14519878670E+01  0.45045682902E+02  0.00000000000E+00 0.  1.
         11    1    3    3    0    0  0.86112682447E+01  0.66603197876E+01  0.14813158469E+01  0.10986723686E+02  0.51100000000E-03 0. -1.
        -11    1    3    3    0    0  0.26799086609E+01  0.74449408131E+01 -0.13541967331E+01  0.80276337232E+01  0.51100000000E-03 0.  1.
         12    1    3    3    0    0  0.13493019722E+02  0.23481291208E+02 -0.15791069808E+01  0.27127959689E+02  0.00000000000E+00 0. -1.
</event>
<event>
 7    1  0.1476909E-008  0.4614232E+02  0.7816164E-02  0.1320468E+00
        -11   -1    0    0    0    0  0.00000000000E+00  0.00000000000E+00  0.45593999997E+02  0.45594000000E+02  0.51100000000E-03 0.  1.
         11   -1    0    0    0    0 -0.00000000000E+00 -0.00000000000E+00 -0.45593999997E+02  0.45594000000E+02  0.51100000000E-03 0. -1.
    9900012    2    1    2    0    0 -0.26491430558E+02 -0.23377770997E+02 -0.27942752929E+02  0.46142317509E+02  0.99999977039E+01 0.  0.
        -12    1    1    2    0    0  0.26491430558E+02  0.23377770997E+02  0.27942752929E+02  0.45045682491E+02  0.00000000000E+00 0.  1.
         11    1    3    3    0    0 -0.18088138303E+02 -0.12016027987E+02 -0.13942371478E+02  0.25806111651E+02  0.51100000000E-03 0. -1.
        -11    1    3    3    0    0 -0.47710473733E+01 -0.49234943981E+01 -0.93815118294E+01  0.11619658110E+02  0.51100000000E-03 0.  1.
         12    1    3    3    0    0 -0.36322448818E+01 -0.64382486116E+01 -0.46188696220E+01  0.87165477484E+01  0.00000000000E+00 0. -1.
</event>
<event>
 7    1  0.1476909E-008  0.4614232E+02  0.7816164E-02  0.1320468E+00
        -11   -1    0    0    0    0  0.00000000000E+00  0.00000000000E+00  0.45593999997E+02  0.45594000000E+02  0.51100000000E-03 0. -1.
         11   -1    0    0    0    0 -0.00000000000E+00 -0.00000000000E+00 -0.45593999997E+02  0.45594000000E+02  0.51100000000E-03 0.  1.
    9900012    2    1    2    0    0  0.36380782545E+02 -0.18771621998E+02 -0.18793036662E+02  0.46142319208E+02  0.10000013194E+02 0.  0.
        -12    1    1    2    0    0 -0.36380782545E+02  0.18771621998E+02  0.18793036662E+02  0.45045680792E+02  0.00000000000E+00 0.  1.
         11    1    3    3    0    0  0.20769099472E+02 -0.93343920780E+01 -0.11175756386E+02  0.25365013294E+02  0.51100000000E-03 0. -1.
        -11    1    3    3    0    0  0.20325779111E+01 -0.27374493399E+01  0.73019702188E+00  0.34868595907E+01  0.51100000000E-03 0.  1.
        -12    1    3    3    0    0  0.13579105162E+02 -0.66997805800E+01 -0.83474772981E+01  0.17290446323E+02  0.00000000000E+00 0.  1.
</event>
<event>
 7    1  0.1476909E-008  0.4614232E+02  0.7816164E-02  0.1320468E+00
        -11   -1    0    0    0    0  0.00000000000E+00  0.00000000000E+00  0.45593999997E+02  0.45594000000E+02  0.51100000000E-03 0.  1.
         11   -1    0    0    0    0 -0.00000000000E+00 -0.00000000000E+00 -0.45593999997E+02  0.45594000000E+02  0.51100000000E-03 0. -1.
    9900012    2    1    2    0    0  0.17793152372E+02 -0.28122827657E+01 -0.41286903553E+02  0.46142316403E+02  0.99999876171E+01 0.  0.
        -12    1    1    2    0    0 -0.17793152372E+02  0.28122827657E+01  0.41286903553E+02  0.45045683597E+02  0.00000000000E+00 0.  1.
         11    1    3    3    0    0  0.59033241662E+01  0.19868410737E+01 -0.12248681115E+02  0.13741432348E+02  0.51100000000E-03 0. -1.
        -11    1    3    3    0    0  0.11111318934E+02 -0.61885274991E+01 -0.26663806421E+02  0.29541798425E+02  0.51100000000E-03 0.  1.
        -12    1    3    3    0    0  0.77850927094E+00  0.13894036598E+01 -0.23744160178E+01  0.28590856301E+01  0.00000000000E+00 0.  1.
</event>
<event>
 7    1  0.1476909E-008  0.4614232E+02  0.7816164E-02  0.1320468E+00
        -11   -1    0    0    0    0  0.00000000000E+00  0.00000000000E+00  0.45593999997E+02  0.45594000000E+02  0.51100000000E-03 0.  1.
         11   -1    0    0    0    0 -0.00000000000E+00 -0.00000000000E+00 -0.45593999997E+02  0.45594000000E+02  0.51100000000E-03 0. -1.
    9900012    2    1    2    0    0 -0.22710590580E+02  0.31838561557E+02  0.22352820502E+02  0.46142317511E+02  0.99999977181E+01 0.  0.
        -12    1    1    2    0    0  0.22710590580E+02 -0.31838561557E+02 -0.22352820502E+02  0.45045682489E+02  0.00000000000E+00 0.  1.
         11    1    3    3    0    0 -0.16310412512E+02  0.19361770599E+02  0.18009675275E+02  0.31068571271E+02  0.51100000000E-03 0. -1.
        -11    1    3    3    0    0 -0.29520536620E+01  0.91264487064E+01  0.33827445777E+01  0.10171020006E+02  0.51100000000E-03 0.  1.
        -12    1    3    3    0    0 -0.34481244060E+01  0.33503422516E+01  0.96040064909E+00  0.49027262344E+01  0.00000000000E+00 0.  1.
</event>
<event>
 7    1  0.1476909E-008  0.4614232E+02  0.7816164E-02  0.1320468E+00
        -11   -1    0    0    0    0  0.00000000000E+00  0.00000000000E+00  0.45593999997E+02  0.45594000000E+02  0.51100000000E-03 0.  1.
         11   -1    0    0    0    0 -0.00000000000E+00 -0.00000000000E+00 -0.45593999997E+02  0.45594000000E+02  0.51100000000E-03 0. -1.
    9900012    2    1    2    0    0 -0.16015433356E+02  0.25506208615E+01 -0.42025155855E+02  0.46142317665E+02  0.99999991227E+01 0.  0.
        -12    1    1    2    0    0  0.16015433356E+02 -0.25506208615E+01  0.42025155855E+02  0.45045682335E+02  0.00000000000E+00 0.  1.
         11    1    3    3    0    0 -0.12157949141E+02 -0.19227434659E+01 -0.27964967993E+02  0.30554084913E+02  0.51100000000E-03 0. -1.
        -11    1    3    3    0    0 -0.14612633845E+01  0.36438204045E+01 -0.10559089619E+02  0.11265304775E+02  0.51100000000E-03 0.  1.
         12    1    3    3    0    0 -0.23962208305E+01  0.82954392295E+00 -0.35010982431E+01  0.43229279772E+01  0.00000000000E+00 0. -1.
</event>
<event>
 7    1  0.1476909E-008  0.4614232E+02  0.7816164E-02  0.1320468E+00
        -11   -1    0    0    0    0  0.00000000000E+00  0.00000000000E+00  0.45593999997E+02  0.45594000000E+02  0.51100000000E-03 0.  1.
         11   -1    0    0    0    0 -0.00000000000E+00 -0.00000000000E+00 -0.45593999997E+02  0.45594000000E+02  0.51100000000E-03 0. -1.
    9900012    2    1    2    0    0  0.38513144960E+02 -0.23244872053E+02 -0.23509846601E+01  0.46142317184E+02  0.99999947413E+01 0.  0.
        -12    1    1    2    0    0 -0.38513144960E+02  0.23244872053E+02  0.23509846601E+01  0.45045682816E+02  0.00000000000E+00 0.  1.
         11    1    3    3    0    0  0.63782628286E+01 -0.29444515765E+01 -0.23187388298E+01  0.73978768454E+01  0.51100000000E-03 0. -1.
        -11    1    3    3    0    0  0.22659614599E+02 -0.15435216499E+02  0.32248770423E+01  0.27606228905E+02  0.51100000000E-03 0.  1.
        -12    1    3    3    0    0  0.94752675322E+01 -0.48652039780E+01 -0.32571228726E+01  0.11138211435E+02  0.00000000000E+00 0.  1.
</event>
<event>
 7    1  0.1476909E-008  0.4614232E+02  0.7816164E-02  0.1320468E+00
        -11   -1    0    0    0    0  0.00000000000E+00  0.00000000000E+00  0.45593999997E+02  0.45594000000E+02  0.51100000000E-03 0. -1.
         11   -1    0    0    0    0 -0.00000000000E+00 -0.00000000000E+00 -0.45593999997E+02  0.45594000000E+02  0.51100000000E-03 0.  1.
    9900012    2    1    2    0    0 -0.23795979431E+02  0.32561026119E+02  0.20066003268E+02  0.46142317120E+02  0.99999941535E+01 0.  0.
        -12    1    1    2    0    0  0.23795979431E+02 -0.32561026119E+02 -0.20066003268E+02  0.45045682880E+02  0.00000000000E+00 0.  1.
         11    1    3    3    0    0 -0.11070395440E+02  0.14717486020E+02  0.10575094927E+02  0.21236541218E+02  0.51100000000E-03 0. -1.
        -11    1    3    3    0    0 -0.49107661715E+01  0.12462131132E+02  0.41786401815E+01  0.14031442220E+02  0.51100000000E-03 0.  1.
        -12    1    3    3    0    0 -0.78148178200E+01  0.53814089665E+01  0.53122681596E+01  0.10874333682E+02  0.00000000000E+00 0.  1.
</event>
<event>
 7    1  0.1476909E-008  0.4614232E+02  0.7816164E-02  0.1320468E+00
        -11   -1    0    0    0    0  0.00000000000E+00  0.00000000000E+00  0.45593999997E+02  0.45594000000E+02  0.51100000000E-03 0.  1.
         11   -1    0    0    0    0 -0.00000000000E+00 -0.00000000000E+00 -0.45593999997E+02  0.45594000000E+02  0.51100000000E-03 0. -1.
    9900012    2    1    2    0    0  0.39979843343E+01 -0.44168873516E+02 -0.78892475977E+01  0.46142317697E+02  0.99999994188E+01 0.  0.
        -12    1    1    2    0    0 -0.39979843343E+01  0.44168873516E+02  0.78892475977E+01  0.45045682303E+02  0.00000000000E+00 0.  1.
         11    1    3    3    0    0 -0.28024551233E+00 -0.75372075653E+01 -0.36213876083E+01  0.83667487054E+01  0.51100000000E-03 0. -1.
        -11    1    3    3    0    0  0.15742411306E+01 -0.17008129732E+01 -0.11901979062E+01  0.26052967632E+01  0.51100000000E-03 0.  1.
        -12    1    3    3    0    0  0.27039887160E+01 -0.34930852978E+02 -0.30776620832E+01  0.35170272229E+02  0.00000000000E+00 0.  1.
</event>
<event>
 7    1  0.1476909E-008  0.4614232E+02  0.7816164E-02  0.1320468E+00
        -11   -1    0    0    0    0  0.00000000000E+00  0.00000000000E+00  0.45593999997E+02  0.45594000000E+02  0.51100000000E-03 0. -1.
         11   -1    0    0    0    0 -0.00000000000E+00 -0.00000000000E+00 -0.45593999997E+02  0.45594000000E+02  0.51100000000E-03 0.  1.
    9900012    2    1    2    0    0 -0.26035390733E+02  0.14850038446E+02  0.33626602668E+02  0.46142316306E+02  0.99999867327E+01 0.  0.
        -12    1    1    2    0    0  0.26035390733E+02 -0.14850038446E+02 -0.33626602668E+02  0.45045683694E+02  0.00000000000E+00 0.  1.
         11    1    3    3    0    0 -0.18389204247E+02  0.11040178602E+02  0.19758898022E+02  0.29162688966E+02  0.51100000000E-03 0. -1.
        -11    1    3    3    0    0 -0.67073836308E+01  0.33879476450E+01  0.14051010118E+02  0.15934179302E+02  0.51100000000E-03 0.  1.
        -12    1    3    3    0    0 -0.93880285506E+00  0.42191219930E+00 -0.18330547303E+00  0.10454480384E+01  0.00000000000E+00 0.  1.
</event>
<event>
 7    1  0.1476909E-008  0.4614232E+02  0.7816164E-02  0.1320468E+00
        -11   -1    0    0    0    0  0.00000000000E+00  0.00000000000E+00  0.45593999997E+02  0.45594000000E+02  0.51100000000E-03 0.  1.
         11   -1    0    0    0    0 -0.00000000000E+00 -0.00000000000E+00 -0.45593999997E+02  0.45594000000E+02  0.51100000000E-03 0. -1.
    9900012    2    1    2    0    0  0.38790714260E+01 -0.18456861029E+02 -0.40907341231E+02  0.46142317846E+02  0.10000000772E+02 0.  0.
        -12    1    1    2    0    0 -0.38790714260E+01  0.18456861029E+02  0.40907341231E+02  0.45045682154E+02  0.00000000000E+00 0.  1.
         11    1    3    3    0    0  0.23675075921E+01 -0.17611933952E+02 -0.32946919126E+02  0.37433738657E+02  0.51100000000E-03 0. -1.
        -11    1    3    3    0    0  0.58145347381E+00  0.11724364414E+01 -0.30650831520E+01  0.33327811722E+01  0.51100000000E-03 0.  1.
         12    1    3    3    0    0  0.93011036001E+00 -0.20173635185E+01 -0.48953389530E+01  0.53757980163E+01  0.00000000000E+00 0. -1.
</event>
<event>
 7    1  0.1476909E-008  0.4614232E+02  0.7816164E-02  0.1320468E+00
        -11   -1    0    0    0    0  0.00000000000E+00  0.00000000000E+00  0.45593999997E+02  0.45594000000E+02  0.51100000000E-03 0.  1.
         11   -1    0    0    0    0 -0.00000000000E+00 -0.00000000000E+00 -0.45593999997E+02  0.45594000000E+02  0.51100000000E-03 0. -1.
    9900012    2    1    2    0    0 -0.11380750881E+01  0.44058326512E+02 -0.93103218588E+01  0.46142318264E+02  0.10000004588E+02 0.  0.
        -12    1    1    2    0    0  0.11380750881E+01 -0.44058326512E+02  0.93103218588E+01  0.45045681736E+02  0.00000000000E+00 0.  1.
         11    1    3    3    0    0 -0.17401368035E+01  0.28888684358E+02 -0.33387112883E+01  0.29132990807E+02  0.51100000000E-03 0.  1.
        -11    1    3    3    0    0 -0.12558518269E+01  0.93906146262E+01 -0.17997783202E+01  0.96436512345E+01  0.51100000000E-03 0. -1.
         12    1    3    3    0    0  0.18579135424E+01  0.57790275281E+01 -0.41718322503E+01  0.73656762232E+01  0.00000000000E+00 0. -1.
</event>
<event>
 7    1  0.1476909E-008  0.4614232E+02  0.7816164E-02  0.1320468E+00
        -11   -1    0    0    0    0  0.00000000000E+00  0.00000000000E+00  0.45593999997E+02  0.45594000000E+02  0.51100000000E-03 0. -1.
         11   -1    0    0    0    0 -0.00000000000E+00 -0.00000000000E+00 -0.45593999997E+02  0.45594000000E+02  0.51100000000E-03 0.  1.
    9900012    2    1    2    0    0 -0.79364754140E+01 -0.41130151013E+02  0.16566127438E+02  0.46142317159E+02  0.99999945076E+01 0.  0.
        -12    1    1    2    0    0  0.79364754140E+01  0.41130151013E+02 -0.16566127438E+02  0.45045682841E+02  0.00000000000E+00 0.  1.
         11    1    3    3    0    0 -0.50822517406E+01 -0.17665974108E+02  0.91359228202E+01  0.20527567074E+02  0.51100000000E-03 0. -1.
        -11    1    3    3    0    0  0.16968057707E+01 -0.23651719971E+01  0.12076501867E+01  0.31514453246E+01  0.51100000000E-03 0.  1.
        -12    1    3    3    0    0 -0.45510294442E+01 -0.21099004908E+02  0.62225544311E+01  0.22463304761E+02  0.00000000000E+00 0.  1.
</event>
<event>
 7    1  0.1476909E-008  0.4614232E+02  0.7816164E-02  0.1320468E+00
        -11   -1    0    0    0    0  0.00000000000E+00  0.00000000000E+00  0.45593999997E+02  0.45594000000E+02  0.51100000000E-03 0. -1.
         11   -1    0    0    0    0 -0.00000000000E+00 -0.00000000000E+00 -0.45593999997E+02  0.45594000000E+02  0.51100000000E-03 0.  1.
    9900012    2    1    2    0    0 -0.38108619904E+02  0.79318454060E+01 -0.22670075205E+02  0.46142318827E+02  0.10000009719E+02 0.  0.
        -12    1    1    2    0    0  0.38108619904E+02 -0.79318454060E+01  0.22670075205E+02  0.45045681173E+02  0.00000000000E+00 0.  1.
         11    1    3    3    0    0 -0.45166792090E+01  0.16363316959E+01  0.23008957811E+00  0.48094608815E+01  0.51100000000E-03 0. -1.
        -11    1    3    3    0    0 -0.19562876538E+02  0.53684508620E+01 -0.14750944216E+02  0.25082200036E+02  0.51100000000E-03 0.  1.
        -12    1    3    3    0    0 -0.14029064157E+02  0.92706284810E+00 -0.81492205665E+01  0.16250657910E+02  0.00000000000E+00 0.  1.
</event>
<event>
 7    1  0.1476909E-008  0.4614232E+02  0.7816164E-02  0.1320468E+00
        -11   -1    0    0    0    0  0.00000000000E+00  0.00000000000E+00  0.45593999997E+02  0.45594000000E+02  0.51100000000E-03 0.  1.
         11   -1    0    0    0    0 -0.00000000000E+00 -0.00000000000E+00 -0.45593999997E+02  0.45594000000E+02  0.51100000000E-03 0. -1.
    9900012    2    1    2    0    0 -0.41418123834E+02  0.24567842632E+01 -0.17539002308E+02  0.46142319044E+02  0.10000011698E+02 0.  0.
        -12    1    1    2    0    0  0.41418123834E+02 -0.24567842632E+01  0.17539002308E+02  0.45045680956E+02  0.00000000000E+00 0.  1.
         11    1    3    3    0    0 -0.18974026705E+02  0.15213828675E+01 -0.81632008941E+01  0.20711497878E+02  0.51100000000E-03 0. -1.
        -11    1    3    3    0    0 -0.15040767249E+02  0.31737619043E+00 -0.98577498732E+01  0.17986123538E+02  0.51100000000E-03 0.  1.
        -12    1    3    3    0    0 -0.74033298798E+01  0.61802520527E+00  0.48194845965E+00  0.74446976286E+01  0.00000000000E+00 0.  1.
</event>
<event>
 7    1  0.1476909E-008  0.4614232E+02  0.7816164E-02  0.1320468E+00
        -11   -1    0    0    0    0  0.00000000000E+00  0.00000000000E+00  0.45593999997E+02  0.45594000000E+02  0.51100000000E-03 0.  1.
         11   -1    0    0    0    0 -0.00000000000E+00 -0.00000000000E+00 -0.45593999997E+02  0.45594000000E+02  0.51100000000E-03 0. -1.
    9900012    2    1    2    0    0 -0.43028192806E+02 -0.32364888950E+01 -0.12931100664E+02  0.46142316512E+02  0.99999886113E+01 0.  0.
        -12    1    1    2    0    0  0.43028192806E+02  0.32364888950E+01  0.12931100664E+02  0.45045683488E+02  0.00000000000E+00 0.  1.
         11    1    3    3    0    0 -0.58165024650E+01 -0.29884859575E+00 -0.19545008461E+01  0.61433773470E+01  0.51100000000E-03 0. -1.
        -11    1    3    3    0    0 -0.27767272251E+02 -0.35332193320E+01 -0.40746371162E+01  0.28286175333E+02  0.51100000000E-03 0.  1.
        -12    1    3    3    0    0 -0.94444180897E+01  0.59557903275E+00 -0.69019627020E+01  0.11712763832E+02  0.00000000000E+00 0.  1.
</event>
<event>
 7    1  0.1476909E-008  0.4614232E+02  0.7816164E-02  0.1320468E+00
        -11   -1    0    0    0    0  0.00000000000E+00  0.00000000000E+00  0.45593999997E+02  0.45594000000E+02  0.51100000000E-03 0.  1.
         11   -1    0    0    0    0 -0.00000000000E+00 -0.00000000000E+00 -0.45593999997E+02  0.45594000000E+02  0.51100000000E-03 0. -1.
    9900012    2    1    2    0    0 -0.20578772120E+02 -0.33790043633E+02 -0.21537423216E+02  0.46142317527E+02  0.99999978639E+01 0.  0.
        -12    1    1    2    0    0  0.20578772120E+02  0.33790043633E+02  0.21537423216E+02  0.45045682473E+02  0.00000000000E+00 0.  1.
         11    1    3    3    0    0 -0.18083813278E+02 -0.24152267127E+02 -0.15472709366E+02  0.33908126540E+02  0.51100000000E-03 0. -1.
        -11    1    3    3    0    0 -0.87776794872E+00 -0.75862330118E+01 -0.58368182215E+01  0.96119641641E+01  0.51100000000E-03 0.  1.
        -12    1    3    3    0    0 -0.16171908926E+01 -0.20515434947E+01 -0.22789562847E+00  0.26222268230E+01  0.00000000000E+00 0.  1.
</event>
<event>
 7    1  0.1476909E-008  0.4614232E+02  0.7816164E-02  0.1320468E+00
        -11   -1    0    0    0    0  0.00000000000E+00  0.00000000000E+00  0.45593999997E+02  0.45594000000E+02  0.51100000000E-03 0. -1.
         11   -1    0    0    0    0 -0.00000000000E+00 -0.00000000000E+00 -0.45593999997E+02  0.45594000000E+02  0.51100000000E-03 0.  1.
    9900012    2    1    2    0    0  0.20246384966E+02  0.26242800235E+02  0.30504310316E+02  0.46142316342E+02  0.99999870586E+01 0.  0.
        -12    1    1    2    0    0 -0.20246384966E+02 -0.26242800235E+02 -0.30504310316E+02  0.45045683658E+02  0.00000000000E+00 0.  1.
         11    1    3    3    0    0  0.20172217350E+02  0.24583979515E+02  0.28549012933E+02  0.42735658897E+02  0.51100000000E-03 0. -1.
        -11    1    3    3    0    0 -0.93886410789E-01  0.22054274964E+01  0.16675447554E+01  0.27664834850E+01  0.51100000000E-03 0.  1.
         12    1    3    3    0    0  0.16805402670E+00 -0.54660677689E+00  0.28775262747E+00  0.64017395999E+00  0.00000000000E+00 0. -1.
</event>
<event>
 7    1  0.1476909E-008  0.4614231E+02  0.7816164E-02  0.1320468E+00
        -11   -1    0    0    0    0  0.00000000000E+00  0.00000000000E+00  0.45593999997E+02  0.45594000000E+02  0.51100000000E-03 0.  1.
         11   -1    0    0    0    0 -0.00000000000E+00 -0.00000000000E+00 -0.45593999997E+02  0.45594000000E+02  0.51100000000E-03 0. -1.
    9900012    2    1    2    0    0 -0.41088441882E+02  0.59167712570E+01 -0.17488440643E+02  0.46142314363E+02  0.99999690133E+01 0.  0.
        -12    1    1    2    0    0  0.41088441882E+02 -0.59167712570E+01  0.17488440643E+02  0.45045685637E+02  0.00000000000E+00 0.  1.
         11    1    3    3    0    0 -0.26235986989E+02  0.16107121059E+01 -0.10339257437E+02  0.28245736871E+02  0.51100000000E-03 0. -1.
        -11    1    3    3    0    0 -0.12710663447E+02  0.48746438759E+01 -0.42780079051E+01  0.14269704624E+02  0.51100000000E-03 0.  1.
        -12    1    3    3    0    0 -0.21417914458E+01 -0.56858472485E+00 -0.28711753009E+01  0.36268728673E+01  0.00000000000E+00 0.  1.
</event>
<event>
 7    1  0.1476909E-008  0.4614232E+02  0.7816164E-02  0.1320468E+00
        -11   -1    0    0    0    0  0.00000000000E+00  0.00000000000E+00  0.45593999997E+02  0.45594000000E+02  0.51100000000E-03 0.  1.
         11   -1    0    0    0    0 -0.00000000000E+00 -0.00000000000E+00 -0.45593999997E+02  0.45594000000E+02  0.51100000000E-03 0. -1.
    9900012    2    1    2    0    0 -0.19381854110E+02  0.22722612996E+02 -0.33721508288E+02  0.46142317285E+02  0.99999956576E+01 0.  0.
        -12    1    1    2    0    0  0.19381854110E+02 -0.22722612996E+02  0.33721508288E+02  0.45045682715E+02  0.00000000000E+00 0.  1.
         11    1    3    3    0    0  0.16247690128E+00  0.18673492023E+01 -0.85828680827E+00  0.20615645256E+01  0.51100000000E-03 0.  1.
        -11    1    3    3    0    0 -0.12479478818E+02  0.17326178611E+02 -0.22089566055E+02  0.30722675430E+02  0.51100000000E-03 0. -1.
        -12    1    3    3    0    0 -0.70648521926E+01  0.35290851826E+01 -0.10773655424E+02  0.13358077329E+02  0.00000000000E+00 0.  1.
</event>
<event>
 7    1  0.1476909E-008  0.4614232E+02  0.7816164E-02  0.1320468E+00
        -11   -1    0    0    0    0  0.00000000000E+00  0.00000000000E+00  0.45593999997E+02  0.45594000000E+02  0.51100000000E-03 0.  1.
         11   -1    0    0    0    0 -0.00000000000E+00 -0.00000000000E+00 -0.45593999997E+02  0.45594000000E+02  0.51100000000E-03 0. -1.
    9900012    2    1    2    0    0  0.74756226082E+01 -0.35014212368E+01 -0.44282825182E+02  0.46142317742E+02  0.99999998223E+01 0.  0.
        -12    1    1    2    0    0 -0.74756226082E+01  0.35014212368E+01  0.44282825182E+02  0.45045682258E+02  0.00000000000E+00 0.  1.
         11    1    3    3    0    0  0.19316372975E+01  0.42282062219E+00 -0.64785004368E+01  0.67735491508E+01  0.51100000000E-03 0. -1.
        -11    1    3    3    0    0  0.23362345488E+01 -0.97507891539E+00 -0.18109790717E+01  0.31126220807E+01  0.51100000000E-03 0.  1.
         12    1    3    3    0    0  0.32077507619E+01 -0.29491629436E+01 -0.35993345673E+02  0.36256146510E+02  0.00000000000E+00 0. -1.
</event>
<event>
 7    1  0.1476909E-008  0.4614232E+02  0.7816164E-02  0.1320468E+00
        -11   -1    0    0    0    0  0.00000000000E+00  0.00000000000E+00  0.45593999997E+02  0.45594000000E+02  0.51100000000E-03 0. -1.
         11   -1    0    0    0    0 -0.00000000000E+00 -0.00000000000E+00 -0.45593999997E+02  0.45594000000E+02  0.51100000000E-03 0.  1.
    9900012    2    1    2    0    0  0.43201146005E+02  0.10092929921E+01  0.12718330662E+02  0.46142316263E+02  0.99999863423E+01 0.  0.
        -12    1    1    2    0    0 -0.43201146005E+02 -0.10092929921E+01 -0.12718330662E+02  0.45045683737E+02  0.00000000000E+00 0.  1.
         11    1    3    3    0    0  0.32939206026E+02  0.21669905607E+01  0.13085980547E+02  0.35509576580E+02  0.51100000000E-03 0. -1.
        -11    1    3    3    0    0  0.10156818329E+02 -0.10896230843E+01 -0.73806332238E+00  0.10241727137E+02  0.51100000000E-03 0.  1.
         12    1    3    3    0    0  0.10512164971E+00 -0.68074484202E-01  0.37041343735E+00  0.39101254610E+00  0.00000000000E+00 0. -1.
</event>
<event>
 7    1  0.1476909E-008  0.4614232E+02  0.7816164E-02  0.1320468E+00
        -11   -1    0    0    0    0  0.00000000000E+00  0.00000000000E+00  0.45593999997E+02  0.45594000000E+02  0.51100000000E-03 0.  1.
         11   -1    0    0    0    0 -0.00000000000E+00 -0.00000000000E+00 -0.45593999997E+02  0.45594000000E+02  0.51100000000E-03 0. -1.
    9900012    2    1    2    0    0  0.24175348159E+02 -0.16571637449E+02 -0.34205947273E+02  0.46142318130E+02  0.10000003359E+02 0.  0.
        -12    1    1    2    0    0 -0.24175348159E+02  0.16571637449E+02  0.34205947273E+02  0.45045681870E+02  0.00000000000E+00 0.  1.
         11    1    3    3    0    0  0.20854867079E+02 -0.13563173963E+02 -0.23799260578E+02  0.34428040507E+02  0.51100000000E-03 0. -1.
        -11    1    3    3    0    0  0.33328265099E+00 -0.11977058137E+01 -0.58066549217E+01  0.59382504311E+01  0.51100000000E-03 0.  1.
        -12    1    3    3    0    0  0.29871984292E+01 -0.18107576722E+01 -0.46000317735E+01  0.57760271918E+01  0.00000000000E+00 0.  1.
</event>
<event>
 7    1  0.1476909E-008  0.4614232E+02  0.7816164E-02  0.1320468E+00
        -11   -1    0    0    0    0  0.00000000000E+00  0.00000000000E+00  0.45593999997E+02  0.45594000000E+02  0.51100000000E-03 0.  1.
         11   -1    0    0    0    0 -0.00000000000E+00 -0.00000000000E+00 -0.45593999997E+02  0.45594000000E+02  0.51100000000E-03 0. -1.
    9900012    2    1    2    0    0  0.40511552790E+01  0.30341971934E+02 -0.33046426695E+02  0.46142318329E+02  0.10000005177E+02 0.  0.
        -12    1    1    2    0    0 -0.40511552790E+01 -0.30341971934E+02  0.33046426695E+02  0.45045681671E+02  0.00000000000E+00 0.  1.
         11    1    3    3    0    0  0.47454590888E+01  0.13407115744E+02 -0.20885278191E+02  0.25267864570E+02  0.51100000000E-03 0. -1.
        -11    1    3    3    0    0 -0.46536520418E+00  0.12227279569E+02 -0.91909256142E+01  0.15303465109E+02  0.51100000000E-03 0.  1.
         12    1    3    3    0    0 -0.22893860569E+00  0.47075766212E+01 -0.29702228895E+01  0.55709886503E+01  0.00000000000E+00 0. -1.
</event>
<event>
 7    1  0.1476909E-008  0.4614232E+02  0.7816164E-02  0.1320468E+00
        -11   -1    0    0    0    0  0.00000000000E+00  0.00000000000E+00  0.45593999997E+02  0.45594000000E+02  0.51100000000E-03 0.  1.
         11   -1    0    0    0    0 -0.00000000000E+00 -0.00000000000E+00 -0.45593999997E+02  0.45594000000E+02  0.51100000000E-03 0. -1.
    9900012    2    1    2    0    0  0.35031574279E+02  0.26086168052E+02  0.11018801390E+02  0.46142319362E+02  0.10000014594E+02 0.  0.
        -12    1    1    2    0    0 -0.35031574279E+02 -0.26086168052E+02 -0.11018801390E+02  0.45045680638E+02  0.00000000000E+00 0.  1.
         11    1    3    3    0    0  0.18677821925E+02  0.12335153775E+02  0.82847384421E+01  0.23867424282E+02  0.51100000000E-03 0. -1.
        -11    1    3    3    0    0  0.68037875680E+01  0.90006359055E+01  0.78722205636E-01  0.11283136506E+02  0.51100000000E-03 0.  1.
        -12    1    3    3    0    0  0.95499647856E+01  0.47503783716E+01  0.26553407422E+01  0.10991758573E+02  0.00000000000E+00 0.  1.
</event>
<event>
 7    1  0.1476909E-008  0.4614232E+02  0.7816164E-02  0.1320468E+00
        -11   -1    0    0    0    0  0.00000000000E+00  0.00000000000E+00  0.45593999997E+02  0.45594000000E+02  0.51100000000E-03 0. -1.
         11   -1    0    0    0    0 -0.00000000000E+00 -0.00000000000E+00 -0.45593999997E+02  0.45594000000E+02  0.51100000000E-03 0.  1.
    9900012    2    1    2    0    0 -0.43587110359E+01 -0.22626460775E+01  0.44777176772E+02  0.46142317756E+02  0.99999999513E+01 0.  0.
        -12    1    1    2    0    0  0.43587110359E+01  0.22626460775E+01 -0.44777176772E+02  0.45045682244E+02  0.00000000000E+00 0.  1.
         11    1    3    3    0    0 -0.59843253512E+00 -0.53277275612E+00  0.25245415302E+02  0.25258126660E+02  0.51100000000E-03 0. -1.
        -11    1    3    3    0    0 -0.49388452723E+01 -0.44420974221E-03  0.10364507957E+02  0.11481080885E+02  0.51100000000E-03 0.  1.
        -12    1    3    3    0    0  0.11785667715E+01 -0.17294291117E+01  0.91672535125E+01  0.94031102115E+01  0.00000000000E+00 0.  1.
</event>
<event>
 7    1  0.1476909E-008  0.4614232E+02  0.7816164E-02  0.1320468E+00
        -11   -1    0    0    0    0  0.00000000000E+00  0.00000000000E+00  0.45593999997E+02  0.45594000000E+02  0.51100000000E-03 0.  1.
         11   -1    0    0    0    0 -0.00000000000E+00 -0.00000000000E+00 -0.45593999997E+02  0.45594000000E+02  0.51100000000E-03 0. -1.
    9900012    2    1    2    0    0 -0.40176785148E+02 -0.76543156752E+00  0.20355677244E+02  0.46142317118E+02  0.99999941324E+01 0.  0.
        -12    1    1    2    0    0  0.40176785148E+02  0.76543156752E+00 -0.20355677244E+02  0.45045682882E+02  0.00000000000E+00 0.  1.
         11    1    3    3    0    0 -0.15916502465E+02  0.14955702021E+01  0.10414079675E+02  0.19079434915E+02  0.51100000000E-03 0. -1.
        -11    1    3    3    0    0 -0.18945249381E+02 -0.20559578133E+01  0.10425568674E+02  0.21721922545E+02  0.51100000000E-03 0.  1.
        -12    1    3    3    0    0 -0.53150333019E+01 -0.20504395635E+00 -0.48397110563E+00  0.53409596568E+01  0.00000000000E+00 0.  1.
</event>
<event>
 7    1  0.1476909E-008  0.4614232E+02  0.7816164E-02  0.1320468E+00
        -11   -1    0    0    0    0  0.00000000000E+00  0.00000000000E+00  0.45593999997E+02  0.45594000000E+02  0.51100000000E-03 0.  1.
         11   -1    0    0    0    0 -0.00000000000E+00 -0.00000000000E+00 -0.45593999997E+02  0.45594000000E+02  0.51100000000E-03 0. -1.
    9900012    2    1    2    0    0  0.19348333086E+01  0.44300480032E+01 -0.44785539685E+02  0.46142317964E+02  0.10000001847E+02 0.  0.
        -12    1    1    2    0    0 -0.19348333086E+01 -0.44300480032E+01  0.44785539685E+02  0.45045682036E+02  0.00000000000E+00 0.  1.
         11    1    3    3    0    0  0.21634578507E+01  0.30585926499E+01 -0.90997632711E+01  0.98407942119E+01  0.51100000000E-03 0. -1.
        -11    1    3    3    0    0  0.92706107376E+00 -0.22570646432E+01 -0.82674471046E+01  0.86200037661E+01  0.51100000000E-03 0.  1.
         12    1    3    3    0    0 -0.11556856159E+01  0.36285199966E+01 -0.27418329309E+02  0.27681519986E+02  0.00000000000E+00 0. -1.
</event>
<event>
 7    1  0.1476909E-008  0.4614232E+02  0.7816164E-02  0.1320468E+00
        -11   -1    0    0    0    0  0.00000000000E+00  0.00000000000E+00  0.45593999997E+02  0.45594000000E+02  0.51100000000E-03 0.  1.
         11   -1    0    0    0    0 -0.00000000000E+00 -0.00000000000E+00 -0.45593999997E+02  0.45594000000E+02  0.51100000000E-03 0. -1.
    9900012    2    1    2    0    0 -0.16838294662E+02  0.16139956917E+02 -0.38536824951E+02  0.46142320366E+02  0.10000023751E+02 0.  0.
        -12    1    1    2    0    0  0.16838294662E+02 -0.16139956917E+02  0.38536824951E+02  0.45045679634E+02  0.00000000000E+00 0.  1.
         11    1    3    3    0    0 -0.69594652650E+01  0.76554098506E+01 -0.21666724769E+02  0.24010131595E+02  0.51100000000E-03 0. -1.
        -11    1    3    3    0    0 -0.10066780351E+02  0.90591159284E+01 -0.15210056594E+02  0.20365497045E+02  0.51100000000E-03 0.  1.
        -12    1    3    3    0    0  0.18795095346E+00 -0.57456886230E+00 -0.16600435881E+01  0.17666917255E+01  0.00000000000E+00 0.  1.
</event>
<event>
 7    1  0.1476909E-008  0.4614232E+02  0.7816164E-02  0.1320468E+00
        -11   -1    0    0    0    0  0.00000000000E+00  0.00000000000E+00  0.45593999997E+02  0.45594000000E+02  0.51100000000E-03 0.  1.
         11   -1    0    0    0    0 -0.00000000000E+00 -0.00000000000E+00 -0.45593999997E+02  0.45594000000E+02  0.51100000000E-03 0. -1.
    9900012    2    1    2    0    0  0.13901714402E+02  0.21441840909E+02 -0.37095863662E+02  0.46142319789E+02  0.10000018488E+02 0.  0.
        -12    1    1    2    0    0 -0.13901714402E+02 -0.21441840909E+02  0.37095863662E+02  0.45045680211E+02  0.00000000000E+00 0.  1.
         11    1    3    3    0    0  0.59305822594E+01  0.33040380564E+01 -0.76159221897E+01  0.10202487171E+02  0.51100000000E-03 0. -1.
        -11    1    3    3    0    0  0.35918663648E+01  0.90932315870E+01 -0.98014705192E+01  0.13844030818E+02  0.51100000000E-03 0.  1.
         12    1    3    3    0    0  0.43792657776E+01  0.90445712652E+01 -0.19678470953E+02  0.22095801800E+02  0.00000000000E+00 0. -1.
</event>
<event>
 7    1  0.1476909E-008  0.4614232E+02  0.7816164E-02  0.1320468E+00
        -11   -1    0    0    0    0  0.00000000000E+00  0.00000000000E+00  0.45593999997E+02  0.45594000000E+02  0.51100000000E-03 0.  1.
         11   -1    0    0    0    0 -0.00000000000E+00 -0.00000000000E+00 -0.45593999997E+02  0.45594000000E+02  0.51100000000E-03 0. -1.
    9900012    2    1    2    0    0 -0.22993007403E+02  0.37580052771E+02 -0.93901356803E+01  0.46142318700E+02  0.10000008564E+02 0.  0.
        -12    1    1    2    0    0  0.22993007403E+02 -0.37580052771E+02  0.93901356803E+01  0.45045681300E+02  0.00000000000E+00 0.  1.
         11    1    3    3    0    0 -0.11619378365E+02  0.25699530975E+02 -0.43903007301E+01  0.28543836230E+02  0.51100000000E-03 0. -1.
        -11    1    3    3    0    0 -0.20461933684E+01  0.84008768808E+00  0.23988466198E+00  0.22249043882E+01  0.51100000000E-03 0.  1.
         12    1    3    3    0    0 -0.93274356695E+01  0.11040434107E+02 -0.52397196123E+01  0.15373578082E+02  0.00000000000E+00 0. -1.
</event>
<event>
 7    1  0.1476909E-008  0.4614232E+02  0.7816164E-02  0.1320468E+00
        -11   -1    0    0    0    0  0.00000000000E+00  0.00000000000E+00  0.45593999997E+02  0.45594000000E+02  0.51100000000E-03 0.  1.
         11   -1    0    0    0    0 -0.00000000000E+00 -0.00000000000E+00 -0.45593999997E+02  0.45594000000E+02  0.51100000000E-03 0. -1.
    9900012    2    1    2    0    0 -0.21112293176E+02  0.31753320131E+02 -0.23981473998E+02  0.46142319213E+02  0.10000013237E+02 0.  0.
        -12    1    1    2    0    0  0.21112293176E+02 -0.31753320131E+02  0.23981473998E+02  0.45045680787E+02  0.00000000000E+00 0.  1.
         11    1    3    3    0    0 -0.94291651572E+01  0.10986949048E+02 -0.13346005843E+02  0.19691065922E+02  0.51100000000E-03 0. -1.
        -11    1    3    3    0    0 -0.72725163802E+01  0.11421367215E+02 -0.82170331175E+01  0.15838458166E+02  0.51100000000E-03 0.  1.
        -12    1    3    3    0    0 -0.44106116388E+01  0.93450038679E+01 -0.24184350373E+01  0.10612795124E+02  0.00000000000E+00 0.  1.
</event>
<event>
 7    1  0.1476909E-008  0.4614232E+02  0.7816164E-02  0.1320468E+00
        -11   -1    0    0    0    0  0.00000000000E+00  0.00000000000E+00  0.45593999997E+02  0.45594000000E+02  0.51100000000E-03 0.  1.
         11   -1    0    0    0    0 -0.00000000000E+00 -0.00000000000E+00 -0.45593999997E+02  0.45594000000E+02  0.51100000000E-03 0. -1.
    9900012    2    1    2    0    0  0.36371827749E+02  0.22204236690E+02 -0.14600531639E+02  0.46142317577E+02  0.99999983238E+01 0.  0.
        -12    1    1    2    0    0 -0.36371827749E+02 -0.22204236690E+02  0.14600531639E+02  0.45045682423E+02  0.00000000000E+00 0.  1.
         11    1    3    3    0    0  0.26788858795E+02  0.12412694539E+02 -0.12298357811E+02  0.31983863844E+02  0.51100000000E-03 0. -1.
        -11    1    3    3    0    0  0.38944222308E+01  0.21768602453E+01 -0.88576216396E+00  0.45486063702E+01  0.51100000000E-03 0.  1.
         12    1    3    3    0    0  0.56885467226E+01  0.76146819056E+01 -0.14164116642E+01  0.96098473631E+01  0.00000000000E+00 0. -1.
</event>
<event>
 7    1  0.1476909E-008  0.4614232E+02  0.7816164E-02  0.1320468E+00
        -11   -1    0    0    0    0  0.00000000000E+00  0.00000000000E+00  0.45593999997E+02  0.45594000000E+02  0.51100000000E-03 0.  1.
         11   -1    0    0    0    0 -0.00000000000E+00 -0.00000000000E+00 -0.45593999997E+02  0.45594000000E+02  0.51100000000E-03 0. -1.
    9900012    2    1    2    0    0  0.18277813895E+02 -0.27479870623E+02 -0.30657653423E+02  0.46142317813E+02  0.10000000477E+02 0.  0.
        -12    1    1    2    0    0 -0.18277813895E+02  0.27479870623E+02  0.30657653423E+02  0.45045682187E+02  0.00000000000E+00 0.  1.
         11    1    3    3    0    0  0.42718947196E+01 -0.10286212719E+02 -0.73593914059E+01  0.13349752759E+02  0.51100000000E-03 0. -1.
        -11    1    3    3    0    0  0.14344433157E+02 -0.17309864169E+02 -0.22033264573E+02  0.31477911432E+02  0.51100000000E-03 0.  1.
        -12    1    3    3    0    0 -0.33851398218E+00  0.11620626468E+00 -0.12649974446E+01  0.13146536224E+01  0.00000000000E+00 0.  1.
</event>
<event>
 7    1  0.1476909E-008  0.4614232E+02  0.7816164E-02  0.1320468E+00
        -11   -1    0    0    0    0  0.00000000000E+00  0.00000000000E+00  0.45593999997E+02  0.45594000000E+02  0.51100000000E-03 0. -1.
         11   -1    0    0    0    0 -0.00000000000E+00 -0.00000000000E+00 -0.45593999997E+02  0.45594000000E+02  0.51100000000E-03 0.  1.
    9900012    2    1    2    0    0  0.31766970837E+02 -0.96708990921E+01  0.30437588650E+02  0.46142317318E+02  0.99999959636E+01 0.  0.
        -12    1    1    2    0    0 -0.31766970837E+02  0.96708990921E+01 -0.30437588650E+02  0.45045682682E+02  0.00000000000E+00 0.  1.
         11    1    3    3    0    0  0.17325959619E+02 -0.54947096228E+00  0.17216932061E+02  0.24431814196E+02  0.51100000000E-03 0. -1.
        -11    1    3    3    0    0  0.99929171537E+01 -0.51177445410E+01  0.82842389524E+01  0.13952717216E+02  0.51100000000E-03 0.  1.
         12    1    3    3    0    0  0.44480940639E+01 -0.40036835888E+01  0.49364176367E+01  0.77577859061E+01  0.00000000000E+00 0. -1.
</event>
<event>
 7    1  0.1476909E-008  0.4614232E+02  0.7816164E-02  0.1320468E+00
        -11   -1    0    0    0    0  0.00000000000E+00  0.00000000000E+00  0.45593999997E+02  0.45594000000E+02  0.51100000000E-03 0.  1.
         11   -1    0    0    0    0 -0.00000000000E+00 -0.00000000000E+00 -0.45593999997E+02  0.45594000000E+02  0.51100000000E-03 0. -1.
    9900012    2    1    2    0    0  0.40327813901E+01 -0.43954685142E+02 -0.89908733480E+01  0.46142317906E+02  0.10000001325E+02 0.  0.
        -12    1    1    2    0    0 -0.40327813901E+01  0.43954685142E+02  0.89908733480E+01  0.45045682094E+02  0.00000000000E+00 0.  1.
         11    1    3    3    0    0 -0.57959553147E+00 -0.14821056961E+02  0.56875606546E+00  0.14843286164E+02  0.51100000000E-03 0. -1.
        -11    1    3    3    0    0  0.23267208335E+01 -0.15095687876E+02 -0.71844592249E+01  0.16879273589E+02  0.51100000000E-03 0.  1.
        -12    1    3    3    0    0  0.22856560880E+01 -0.14037940306E+02 -0.23751701886E+01  0.14419758153E+02  0.00000000000E+00 0.  1.
</event>
<event>
 7    1  0.1476909E-008  0.4614232E+02  0.7816164E-02  0.1320468E+00
        -11   -1    0    0    0    0  0.00000000000E+00  0.00000000000E+00  0.45593999997E+02  0.45594000000E+02  0.51100000000E-03 0.  1.
         11   -1    0    0    0    0 -0.00000000000E+00 -0.00000000000E+00 -0.45593999997E+02  0.45594000000E+02  0.51100000000E-03 0. -1.
    9900012    2    1    2    0    0  0.21572376857E+02 -0.23546727233E+02 -0.31769445498E+02  0.46142317922E+02  0.10000001463E+02 0.  0.
        -12    1    1    2    0    0 -0.21572376857E+02  0.23546727233E+02  0.31769445498E+02  0.45045682078E+02  0.00000000000E+00 0.  1.
         11    1    3    3    0    0  0.81722909377E+01 -0.13903437826E+02 -0.15670848527E+02  0.22487049970E+02  0.51100000000E-03 0. -1.
        -11    1    3    3    0    0  0.88301983429E+01 -0.65776874920E+01 -0.13892072875E+02  0.17726479192E+02  0.51100000000E-03 0.  1.
        -12    1    3    3    0    0  0.45698875769E+01 -0.30656019151E+01 -0.22065240962E+01  0.59287887595E+01  0.00000000000E+00 0.  1.
</event>
<event>
 7    1  0.1476909E-008  0.4614232E+02  0.7816164E-02  0.1320468E+00
        -11   -1    0    0    0    0  0.00000000000E+00  0.00000000000E+00  0.45593999997E+02  0.45594000000E+02  0.51100000000E-03 0.  1.
         11   -1    0    0    0    0 -0.00000000000E+00 -0.00000000000E+00 -0.45593999997E+02  0.45594000000E+02  0.51100000000E-03 0. -1.
    9900012    2    1    2    0    0  0.33858653466E+01 -0.31729733685E+02 -0.31794233646E+02  0.46142318997E+02  0.10000011271E+02 0.  0.
        -12    1    1    2    0    0 -0.33858653466E+01  0.31729733685E+02  0.31794233646E+02  0.45045681003E+02  0.00000000000E+00 0.  1.
         11    1    3    3    0    0  0.36743779386E+01 -0.20275894307E+02 -0.14884634032E+02  0.25419781150E+02  0.51100000000E-03 0. -1.
        -11    1    3    3    0    0  0.12749712604E+01 -0.83324969027E+01 -0.10994209138E+02  0.13853833086E+02  0.51100000000E-03 0.  1.
         12    1    3    3    0    0 -0.15634838524E+01 -0.31213424751E+01 -0.59153904764E+01  0.68687047609E+01  0.00000000000E+00 0. -1.
</event>
<event>
 7    1  0.1476909E-008  0.4614232E+02  0.7816164E-02  0.1320468E+00
        -11   -1    0    0    0    0  0.00000000000E+00  0.00000000000E+00  0.45593999997E+02  0.45594000000E+02  0.51100000000E-03 0. -1.
         11   -1    0    0    0    0 -0.00000000000E+00 -0.00000000000E+00 -0.45593999997E+02  0.45594000000E+02  0.51100000000E-03 0.  1.
    9900012    2    1    2    0    0 -0.40329070764E+02 -0.98029739667E+01  0.17509462239E+02  0.46142317464E+02  0.99999972871E+01 0.  0.
        -12    1    1    2    0    0  0.40329070764E+02  0.98029739667E+01 -0.17509462239E+02  0.45045682536E+02  0.00000000000E+00 0.  1.
         11    1    3    3    0    0 -0.22856919958E+02 -0.16304259696E+01  0.80456880262E+01  0.24286419557E+02  0.51100000000E-03 0. -1.
        -11    1    3    3    0    0 -0.84412978654E+01 -0.47681699546E+01  0.26782168446E+01  0.10058021679E+02  0.51100000000E-03 0.  1.
         12    1    3    3    0    0 -0.90308529405E+01 -0.34043780425E+01  0.67855573685E+01  0.11797876228E+02  0.00000000000E+00 0. -1.
</event>
<event>
 7    1  0.1476909E-008  0.4614232E+02  0.7816164E-02  0.1320468E+00
        -11   -1    0    0    0    0  0.00000000000E+00  0.00000000000E+00  0.45593999997E+02  0.45594000000E+02  0.51100000000E-03 0.  1.
         11   -1    0    0    0    0 -0.00000000000E+00 -0.00000000000E+00 -0.45593999997E+02  0.45594000000E+02  0.51100000000E-03 0. -1.
    9900012    2    1    2    0    0 -0.15726123775E+02 -0.16528140407E+02 -0.38840997166E+02  0.46142318130E+02  0.10000003366E+02 0.  0.
        -12    1    1    2    0    0  0.15726123775E+02  0.16528140407E+02  0.38840997166E+02  0.45045681870E+02  0.00000000000E+00 0.  1.
         11    1    3    3    0    0 -0.84124136548E+01 -0.31323264580E+01 -0.10237035297E+02  0.13615324619E+02  0.51100000000E-03 0. -1.
        -11    1    3    3    0    0 -0.25095462923E+01 -0.69989466319E+01 -0.15097848637E+02  0.16829382350E+02  0.51100000000E-03 0.  1.
         12    1    3    3    0    0 -0.48041638277E+01 -0.63968673172E+01 -0.13506113231E+02  0.15697611162E+02  0.00000000000E+00 0. -1.
</event>
<event>
 7    1  0.1476909E-008  0.4614232E+02  0.7816164E-02  0.1320468E+00
        -11   -1    0    0    0    0  0.00000000000E+00  0.00000000000E+00  0.45593999997E+02  0.45594000000E+02  0.51100000000E-03 0. -1.
         11   -1    0    0    0    0 -0.00000000000E+00 -0.00000000000E+00 -0.45593999997E+02  0.45594000000E+02  0.51100000000E-03 0.  1.
    9900012    2    1    2    0    0 -0.16351070122E+02 -0.26169111274E+02  0.32816668410E+02  0.46142316472E+02  0.99999882469E+01 0.  0.
        -12    1    1    2    0    0  0.16351070122E+02  0.26169111274E+02 -0.32816668410E+02  0.45045683528E+02  0.00000000000E+00 0.  1.
         11    1    3    3    0    0 -0.39145951672E+01 -0.94841048576E+01  0.16115288699E+02  0.19104314444E+02  0.51100000000E-03 0. -1.
        -11    1    3    3    0    0 -0.52957172271E+01 -0.10652135754E+02  0.87816444847E+01  0.14786138684E+02  0.51100000000E-03 0.  1.
         12    1    3    3    0    0 -0.71407577273E+01 -0.60328706621E+01  0.79197352259E+01  0.12251863344E+02  0.00000000000E+00 0. -1.
</event>
<event>
 7    1  0.1476909E-008  0.4614232E+02  0.7816164E-02  0.1320468E+00
        -11   -1    0    0    0    0  0.00000000000E+00  0.00000000000E+00  0.45593999997E+02  0.45594000000E+02  0.51100000000E-03 0.  1.
         11   -1    0    0    0    0 -0.00000000000E+00 -0.00000000000E+00 -0.45593999997E+02  0.45594000000E+02  0.51100000000E-03 0. -1.
    9900012    2    1    2    0    0  0.16451795382E+02 -0.40482916223E+02 -0.10935518207E+02  0.46142316126E+02  0.99999850917E+01 0.  0.
        -12    1    1    2    0    0 -0.16451795382E+02  0.40482916223E+02  0.10935518207E+02  0.45045683874E+02  0.00000000000E+00 0.  1.
         11    1    3    3    0    0  0.54582054327E+01 -0.10859950894E+02 -0.60270399527E+00  0.12169379291E+02  0.51100000000E-03 0.  1.
        -11    1    3    3    0    0  0.96694390929E+01 -0.28647616062E+02 -0.82919020088E+01  0.31351867529E+02  0.51100000000E-03 0. -1.
        -12    1    3    3    0    0  0.13241508565E+01 -0.97534926690E+00 -0.20409122033E+01  0.26210693056E+01  0.00000000000E+00 0.  1.
</event>
<event>
 7    1  0.1476909E-008  0.4614232E+02  0.7816164E-02  0.1320468E+00
        -11   -1    0    0    0    0  0.00000000000E+00  0.00000000000E+00  0.45593999997E+02  0.45594000000E+02  0.51100000000E-03 0.  1.
         11   -1    0    0    0    0 -0.00000000000E+00 -0.00000000000E+00 -0.45593999997E+02  0.45594000000E+02  0.51100000000E-03 0. -1.
    9900012    2    1    2    0    0 -0.13709187076E+02 -0.98220882802E+01 -0.41769587882E+02  0.46142315409E+02  0.99999785496E+01 0.  0.
        -12    1    1    2    0    0  0.13709187076E+02  0.98220882802E+01  0.41769587882E+02  0.45045684591E+02  0.00000000000E+00 0.  1.
         11    1    3    3    0    0 -0.36953146374E+01 -0.36664745213E+01 -0.23269458602E+02  0.23844623913E+02  0.51100000000E-03 0. -1.
        -11    1    3    3    0    0 -0.26263304048E+01  0.39725108366E-01 -0.56686108401E+01  0.62475866218E+01  0.51100000000E-03 0.  1.
         12    1    3    3    0    0 -0.73875420338E+01 -0.61953388673E+01 -0.12831518440E+02  0.16050104874E+02  0.00000000000E+00 0. -1.
</event>
<event>
 7    1  0.1476909E-008  0.4614232E+02  0.7816164E-02  0.1320468E+00
        -11   -1    0    0    0    0  0.00000000000E+00  0.00000000000E+00  0.45593999997E+02  0.45594000000E+02  0.51100000000E-03 0.  1.
         11   -1    0    0    0    0 -0.00000000000E+00 -0.00000000000E+00 -0.45593999997E+02  0.45594000000E+02  0.51100000000E-03 0. -1.
    9900012    2    1    2    0    0 -0.79935638831E+01 -0.27529950243E+02 -0.34746485281E+02  0.46142318040E+02  0.10000002539E+02 0.  0.
        -12    1    1    2    0    0  0.79935638831E+01  0.27529950243E+02  0.34746485281E+02  0.45045681960E+02  0.00000000000E+00 0.  1.
         11    1    3    3    0    0 -0.35260640977E+00 -0.85082837285E+01 -0.16411022639E+02  0.18488831429E+02  0.51100000000E-03 0. -1.
        -11    1    3    3    0    0 -0.60203544263E+01 -0.11335042642E+02 -0.10941565773E+02  0.16865518697E+02  0.51100000000E-03 0.  1.
        -12    1    3    3    0    0 -0.16206030470E+01 -0.76866238724E+01 -0.73938968688E+01  0.10787967913E+02  0.00000000000E+00 0.  1.
</event>
<event>
 7    1  0.1476909E-008  0.4614232E+02  0.7816164E-02  0.1320468E+00
        -11   -1    0    0    0    0  0.00000000000E+00  0.00000000000E+00  0.45593999997E+02  0.45594000000E+02  0.51100000000E-03 0. -1.
         11   -1    0    0    0    0 -0.00000000000E+00 -0.00000000000E+00 -0.45593999997E+02  0.45594000000E+02  0.51100000000E-03 0.  1.
    9900012    2    1    2    0    0  0.19182110499E+02  0.83922259206E+01  0.39883965255E+02  0.46142317592E+02  0.99999984580E+01 0.  0.
        -12    1    1    2    0    0 -0.19182110499E+02 -0.83922259206E+01 -0.39883965255E+02  0.45045682408E+02  0.00000000000E+00 0.  1.
         11    1    3    3    0    0  0.11871189507E+02  0.52617501166E+01  0.26208856681E+02  0.29249193552E+02  0.51100000000E-03 0. -1.
        -11    1    3    3    0    0  0.63806927305E+01  0.13068018444E+00  0.67516070047E+01  0.92905605019E+01  0.51100000000E-03 0.  1.
         12    1    3    3    0    0  0.93022826125E+00  0.29997956195E+01  0.69235015692E+01  0.76025635385E+01  0.00000000000E+00 0. -1.
</event>
<event>
 7    1  0.1476909E-008  0.4614232E+02  0.7816164E-02  0.1320468E+00
        -11   -1    0    0    0    0  0.00000000000E+00  0.00000000000E+00  0.45593999997E+02  0.45594000000E+02  0.51100000000E-03 0.  1.
         11   -1    0    0    0    0 -0.00000000000E+00 -0.00000000000E+00 -0.45593999997E+02  0.45594000000E+02  0.51100000000E-03 0. -1.
    9900012    2    1    2    0    0 -0.24299932670E+02  0.39693232916E+00 -0.37927156688E+02  0.46142317660E+02  0.99999990799E+01 0.  0.
        -12    1    1    2    0    0  0.24299932670E+02 -0.39693232916E+00  0.37927156688E+02  0.45045682340E+02  0.00000000000E+00 0.  1.
         11    1    3    3    0    0 -0.34114868393E+01 -0.86076703375E+00 -0.15420611308E+01  0.38414990737E+01  0.51100000000E-03 0.  1.
        -11    1    3    3    0    0 -0.79544359099E+01  0.29948066134E+01 -0.15363116162E+02  0.17557541279E+02  0.51100000000E-03 0. -1.
        -12    1    3    3    0    0 -0.12934009921E+02 -0.17371072505E+01 -0.21021979394E+02  0.24743277307E+02  0.00000000000E+00 0.  1.
</event>
<event>
 7    1  0.1476909E-008  0.4614232E+02  0.7816164E-02  0.1320468E+00
        -11   -1    0    0    0    0  0.00000000000E+00  0.00000000000E+00  0.45593999997E+02  0.45594000000E+02  0.51100000000E-03 0.  1.
         11   -1    0    0    0    0 -0.00000000000E+00 -0.00000000000E+00 -0.45593999997E+02  0.45594000000E+02  0.51100000000E-03 0. -1.
    9900012    2    1    2    0    0  0.84780605234E+01  0.39874599025E+02 -0.19163829431E+02  0.46142317453E+02  0.99999971912E+01 0.  0.
        -12    1    1    2    0    0 -0.84780605234E+01 -0.39874599025E+02  0.19163829431E+02  0.45045682547E+02  0.00000000000E+00 0.  1.
         11    1    3    3    0    0 -0.35990391651E+00  0.15417101867E+02 -0.95862430639E+01  0.18157990449E+02  0.51100000000E-03 0.  1.
        -11    1    3    3    0    0  0.44472244659E+01  0.13340850240E+02 -0.71969020186E+01  0.15797198787E+02  0.51100000000E-03 0. -1.
         12    1    3    3    0    0  0.43907399740E+01  0.11116646918E+02 -0.23806843487E+01  0.12187128217E+02  0.00000000000E+00 0. -1.
</event>
<event>
 7    1  0.1476909E-008  0.4614232E+02  0.7816164E-02  0.1320468E+00
        -11   -1    0    0    0    0  0.00000000000E+00  0.00000000000E+00  0.45593999997E+02  0.45594000000E+02  0.51100000000E-03 0.  1.
         11   -1    0    0    0    0 -0.00000000000E+00 -0.00000000000E+00 -0.45593999997E+02  0.45594000000E+02  0.51100000000E-03 0. -1.
    9900012    2    1    2    0    0  0.36902108495E+02  0.57867515807E+00 -0.25826595352E+02  0.46142317590E+02  0.99999984419E+01 0.  0.
        -12    1    1    2    0    0 -0.36902108495E+02 -0.57867515807E+00  0.25826595352E+02  0.45045682410E+02  0.00000000000E+00 0.  1.
         11    1    3    3    0    0  0.28593879599E+02 -0.24606262378E+01 -0.19681533254E+02  0.34799818728E+02  0.51100000000E-03 0. -1.
        -11    1    3    3    0    0  0.40099563021E+01  0.11297334176E+01 -0.83492519940E+00  0.42488995621E+01  0.51100000000E-03 0.  1.
         12    1    3    3    0    0  0.42982725938E+01  0.19095679783E+01 -0.53101368984E+01  0.70935993004E+01  0.00000000000E+00 0. -1.
</event>
<event>
 7    1  0.1476909E-008  0.4614232E+02  0.7816164E-02  0.1320468E+00
        -11   -1    0    0    0    0  0.00000000000E+00  0.00000000000E+00  0.45593999997E+02  0.45594000000E+02  0.51100000000E-03 0. -1.
         11   -1    0    0    0    0 -0.00000000000E+00 -0.00000000000E+00 -0.45593999997E+02  0.45594000000E+02  0.51100000000E-03 0.  1.
    9900012    2    1    2    0    0 -0.31822159905E+02  0.40603528579E+00  0.31879439656E+02  0.46142318760E+02  0.10000009105E+02 0.  0.
        -12    1    1    2    0    0  0.31822159905E+02 -0.40603528579E+00 -0.31879439656E+02  0.45045681240E+02  0.00000000000E+00 0.  1.
         11    1    3    3    0    0 -0.17835308153E+02 -0.49198807152E+00  0.20802810773E+02  0.27406152694E+02  0.51100000000E-03 0. -1.
        -11    1    3    3    0    0 -0.37018161065E+01  0.27930418617E+01  0.38033463499E+01  0.59974968983E+01  0.51100000000E-03 0.  1.
        -12    1    3    3    0    0 -0.10285035645E+02 -0.18950185044E+01  0.72732825333E+01  0.12738669167E+02  0.00000000000E+00 0.  1.
</event>
<event>
 7    1  0.1476909E-008  0.4614233E+02  0.7816164E-02  0.1320468E+00
        -11   -1    0    0    0    0  0.00000000000E+00  0.00000000000E+00  0.45593999997E+02  0.45594000000E+02  0.51100000000E-03 0.  1.
         11   -1    0    0    0    0 -0.00000000000E+00 -0.00000000000E+00 -0.45593999997E+02  0.45594000000E+02  0.51100000000E-03 0. -1.
    9900012    2    1    2    0    0 -0.42597420876E+02 -0.57972164132E+01 -0.13452313877E+02  0.46142326156E+02  0.10000076553E+02 0.  0.
        -12    1    1    2    0    0  0.42597420876E+02  0.57972164132E+01  0.13452313877E+02  0.45045673844E+02  0.00000000000E+00 0.  1.
         11    1    3    3    0    0 -0.20494947068E+02 -0.57495647658E+01 -0.52406059173E+01  0.21921776866E+02  0.51100000000E-03 0. -1.
        -11    1    3    3    0    0 -0.22282032072E+02  0.15083757796E+00 -0.84799744283E+01  0.23841595413E+02  0.51100000000E-03 0.  1.
        -12    1    3    3    0    0  0.17955826487E+00 -0.19848922529E+00  0.26826646880E+00  0.37895387757E+00  0.00000000000E+00 0.  1.
</event>
<event>
 7    1  0.1476909E-008  0.4614232E+02  0.7816164E-02  0.1320468E+00
        -11   -1    0    0    0    0  0.00000000000E+00  0.00000000000E+00  0.45593999997E+02  0.45594000000E+02  0.51100000000E-03 0.  1.
         11   -1    0    0    0    0 -0.00000000000E+00 -0.00000000000E+00 -0.45593999997E+02  0.45594000000E+02  0.51100000000E-03 0. -1.
    9900012    2    1    2    0    0  0.35505867497E+02  0.25025827692E+02 -0.11922866586E+02  0.46142318454E+02  0.10000006314E+02 0.  0.
        -12    1    1    2    0    0 -0.35505867497E+02 -0.25025827692E+02  0.11922866586E+02  0.45045681546E+02  0.00000000000E+00 0.  1.
         11    1    3    3    0    0  0.11656058425E+02  0.12899372989E+02 -0.72777582275E+01  0.18847368161E+02  0.51100000000E-03 0. -1.
        -11    1    3    3    0    0  0.25560283334E+01  0.22812797764E+01 -0.33072525074E+00  0.34419322643E+01  0.51100000000E-03 0.  1.
         12    1    3    3    0    0  0.21293780738E+02  0.98451749270E+01 -0.43143831078E+01  0.23853018029E+02  0.00000000000E+00 0. -1.
</event>
<event>
 7    1  0.1476909E-008  0.4614232E+02  0.7816164E-02  0.1320468E+00
        -11   -1    0    0    0    0  0.00000000000E+00  0.00000000000E+00  0.45593999997E+02  0.45594000000E+02  0.51100000000E-03 0.  1.
         11   -1    0    0    0    0 -0.00000000000E+00 -0.00000000000E+00 -0.45593999997E+02  0.45594000000E+02  0.51100000000E-03 0. -1.
    9900012    2    1    2    0    0  0.75648186167E+00 -0.46109964208E+01 -0.44802677740E+02  0.46142317794E+02  0.10000000296E+02 0.  0.
        -12    1    1    2    0    0 -0.75648186167E+00  0.46109964208E+01  0.44802677740E+02  0.45045682206E+02  0.00000000000E+00 0.  1.
         11    1    3    3    0    0 -0.24555851328E+01 -0.22494318185E+01 -0.93405793072E+01  0.99164642845E+01  0.51100000000E-03 0. -1.
        -11    1    3    3    0    0  0.12681945294E+01  0.19474001917E+01 -0.17438145948E+02  0.17592317052E+02  0.51100000000E-03 0.  1.
         12    1    3    3    0    0  0.19438724652E+01 -0.43089647939E+01 -0.18023952484E+02  0.18633536457E+02  0.00000000000E+00 0. -1.
</event>
<event>
 7    1  0.1476909E-008  0.4614231E+02  0.7816164E-02  0.1320468E+00
        -11   -1    0    0    0    0  0.00000000000E+00  0.00000000000E+00  0.45593999997E+02  0.45594000000E+02  0.51100000000E-03 0.  1.
         11   -1    0    0    0    0 -0.00000000000E+00 -0.00000000000E+00 -0.45593999997E+02  0.45594000000E+02  0.51100000000E-03 0. -1.
    9900012    2    1    2    0    0 -0.16399740534E+02 -0.39164361751E+02  0.15043782761E+02  0.46142310742E+02  0.99999359976E+01 0.  0.
        -12    1    1    2    0    0  0.16399740534E+02  0.39164361751E+02 -0.15043782761E+02  0.45045689258E+02  0.00000000000E+00 0.  1.
         11    1    3    3    0    0 -0.12612542746E+02 -0.19960174502E+02  0.61021648413E+01  0.24386906665E+02  0.51100000000E-03 0. -1.
        -11    1    3    3    0    0 -0.42589384549E+01 -0.18307090223E+02  0.82407282481E+01  0.20523101898E+02  0.51100000000E-03 0.  1.
        -12    1    3    3    0    0  0.47174066636E+00 -0.89709702573E+00  0.70088967200E+00  0.12323021797E+01  0.00000000000E+00 0.  1.
</event>
<event>
 7    1  0.1476909E-008  0.4614232E+02  0.7816164E-02  0.1320468E+00
        -11   -1    0    0    0    0  0.00000000000E+00  0.00000000000E+00  0.45593999997E+02  0.45594000000E+02  0.51100000000E-03 0.  1.
         11   -1    0    0    0    0 -0.00000000000E+00 -0.00000000000E+00 -0.45593999997E+02  0.45594000000E+02  0.51100000000E-03 0. -1.
    9900012    2    1    2    0    0  0.14135691840E+02  0.30859934250E+02 -0.29613513962E+02  0.46142317245E+02  0.99999952908E+01 0.  0.
        -12    1    1    2    0    0 -0.14135691840E+02 -0.30859934250E+02  0.29613513962E+02  0.45045682755E+02  0.00000000000E+00 0.  1.
         11    1    3    3    0    0  0.11285788380E+02  0.18946098764E+02 -0.17832283357E+02  0.28360430317E+02  0.51100000000E-03 0. -1.
        -11    1    3    3    0    0 -0.55252418876E+00  0.84084777028E+01 -0.77415741679E+01  0.11442890855E+02  0.51100000000E-03 0.  1.
        -12    1    3    3    0    0  0.34024276481E+01  0.35053577833E+01 -0.40396564369E+01  0.63389960733E+01  0.00000000000E+00 0.  1.
</event>
<event>
 7    1  0.1476909E-008  0.4614232E+02  0.7816164E-02  0.1320468E+00
        -11   -1    0    0    0    0  0.00000000000E+00  0.00000000000E+00  0.45593999997E+02  0.45594000000E+02  0.51100000000E-03 0.  1.
         11   -1    0    0    0    0 -0.00000000000E+00 -0.00000000000E+00 -0.45593999997E+02  0.45594000000E+02  0.51100000000E-03 0. -1.
    9900012    2    1    2    0    0  0.49436022962E+01  0.22615459366E+02 -0.38642144781E+02  0.46142316974E+02  0.99999928236E+01 0.  0.
        -12    1    1    2    0    0 -0.49436022962E+01 -0.22615459366E+02  0.38642144781E+02  0.45045683026E+02  0.00000000000E+00 0.  1.
         11    1    3    3    0    0  0.54025553792E+01  0.14201912955E+02 -0.21500442891E+02  0.26327760652E+02  0.51100000000E-03 0. -1.
        -11    1    3    3    0    0 -0.46568408362E+00  0.14973038741E+00  0.25735487263E+00  0.55273198409E+00  0.51100000000E-03 0.  1.
         12    1    3    3    0    0  0.67310006212E-02  0.82638160230E+01 -0.17399056763E+02  0.19261824338E+02  0.00000000000E+00 0. -1.
</event>
<event>
 7    1  0.1476909E-008  0.4614232E+02  0.7816164E-02  0.1320468E+00
        -11   -1    0    0    0    0  0.00000000000E+00  0.00000000000E+00  0.45593999997E+02  0.45594000000E+02  0.51100000000E-03 0.  1.
         11   -1    0    0    0    0 -0.00000000000E+00 -0.00000000000E+00 -0.45593999997E+02  0.45594000000E+02  0.51100000000E-03 0. -1.
    9900012    2    1    2    0    0  0.13097340800E+02  0.16315889240E+02 -0.39891915776E+02  0.46142317387E+02  0.99999965922E+01 0.  0.
        -12    1    1    2    0    0 -0.13097340800E+02 -0.16315889240E+02  0.39891915776E+02  0.45045682613E+02  0.00000000000E+00 0.  1.
         11    1    3    3    0    0  0.86695255253E+01  0.94429826506E+01 -0.27468683903E+02  0.30312690244E+02  0.51100000000E-03 0. -1.
        -11    1    3    3    0    0  0.30768094163E+01  0.56043589156E+01 -0.48279804032E+01  0.80115535369E+01  0.51100000000E-03 0.  1.
        -12    1    3    3    0    0  0.13510058582E+01  0.12685476739E+01 -0.75952514700E+01  0.78180736068E+01  0.00000000000E+00 0.  1.
</event>
<event>
 7    1  0.1476909E-008  0.4614232E+02  0.7816164E-02  0.1320468E+00
        -11   -1    0    0    0    0  0.00000000000E+00  0.00000000000E+00  0.45593999997E+02  0.45594000000E+02  0.51100000000E-03 0.  1.
         11   -1    0    0    0    0 -0.00000000000E+00 -0.00000000000E+00 -0.45593999997E+02  0.45594000000E+02  0.51100000000E-03 0. -1.
    9900012    2    1    2    0    0 -0.38872968244E+02 -0.93167204894E+01 -0.20765465261E+02  0.46142317762E+02  0.10000000011E+02 0.  0.
        -12    1    1    2    0    0  0.38872968244E+02  0.93167204894E+01  0.20765465261E+02  0.45045682238E+02  0.00000000000E+00 0.  1.
         11    1    3    3    0    0 -0.48393748871E+01 -0.10844495229E+01 -0.27917037628E+00  0.49672443494E+01  0.51100000000E-03 0. -1.
        -11    1    3    3    0    0 -0.15926636233E+02 -0.33724085024E+01 -0.55333533025E+01  0.17194443283E+02  0.51100000000E-03 0.  1.
        -12    1    3    3    0    0 -0.18106957124E+02 -0.48598624640E+01 -0.14952941582E+02  0.23980630130E+02  0.00000000000E+00 0.  1.
</event>
<event>
 7    1  0.1476909E-008  0.4614232E+02  0.7816164E-02  0.1320468E+00
        -11   -1    0    0    0    0  0.00000000000E+00  0.00000000000E+00  0.45593999997E+02  0.45594000000E+02  0.51100000000E-03 0.  1.
         11   -1    0    0    0    0 -0.00000000000E+00 -0.00000000000E+00 -0.45593999997E+02  0.45594000000E+02  0.51100000000E-03 0. -1.
    9900012    2    1    2    0    0 -0.27194738103E+02 -0.18319329680E+02 -0.30886272898E+02  0.46142317921E+02  0.10000001461E+02 0.  0.
        -12    1    1    2    0    0  0.27194738103E+02  0.18319329680E+02  0.30886272898E+02  0.45045682079E+02  0.00000000000E+00 0.  1.
         11    1    3    3    0    0 -0.55458296040E+01 -0.60389187210E+00 -0.27178651458E+01  0.62054574853E+01  0.51100000000E-03 0. -1.
        -11    1    3    3    0    0 -0.67310816426E+01 -0.64937785902E+01 -0.68035886806E+01  0.11565701001E+02  0.51100000000E-03 0.  1.
        -12    1    3    3    0    0 -0.14917826856E+02 -0.11221659218E+02 -0.21364819072E+02  0.28371159435E+02  0.00000000000E+00 0.  1.
</event>
<event>
 7    1  0.1476909E-008  0.4614232E+02  0.7816164E-02  0.1320468E+00
        -11   -1    0    0    0    0  0.00000000000E+00  0.00000000000E+00  0.45593999997E+02  0.45594000000E+02  0.51100000000E-03 0.  1.
         11   -1    0    0    0    0 -0.00000000000E+00 -0.00000000000E+00 -0.45593999997E+02  0.45594000000E+02  0.51100000000E-03 0. -1.
    9900012    2    1    2    0    0  0.14289808009E+02  0.43420397881E+01 -0.42497783541E+02  0.46142317317E+02  0.99999959543E+01 0.  0.
        -12    1    1    2    0    0 -0.14289808009E+02 -0.43420397881E+01  0.42497783541E+02  0.45045682683E+02  0.00000000000E+00 0.  1.
         11    1    3    3    0    0  0.97912451312E+01  0.28535573057E+01 -0.22257464518E+02  0.24482769401E+02  0.51100000000E-03 0. -1.
        -11    1    3    3    0    0  0.24634612775E+01 -0.18154292021E+01 -0.13844281860E+02  0.14178454258E+02  0.51100000000E-03 0.  1.
        -12    1    3    3    0    0  0.20351016001E+01  0.33039116845E+01 -0.63960371625E+01  0.74810936584E+01  0.00000000000E+00 0.  1.
</event>
<event>
 7    1  0.1476909E-008  0.4614232E+02  0.7816164E-02  0.1320468E+00
        -11   -1    0    0    0    0  0.00000000000E+00  0.00000000000E+00  0.45593999997E+02  0.45594000000E+02  0.51100000000E-03 0. -1.
         11   -1    0    0    0    0 -0.00000000000E+00 -0.00000000000E+00 -0.45593999997E+02  0.45594000000E+02  0.51100000000E-03 0.  1.
    9900012    2    1    2    0    0  0.20357174256E+02 -0.38211486633E+02 -0.12433068910E+02  0.46142318110E+02  0.10000003184E+02 0.  0.
        -12    1    1    2    0    0 -0.20357174256E+02  0.38211486633E+02  0.12433068910E+02  0.45045681890E+02  0.00000000000E+00 0.  1.
         11    1    3    3    0    0  0.62996977011E+01 -0.59853463161E+01 -0.29768155113E+01  0.91854228263E+01  0.51100000000E-03 0. -1.
        -11    1    3    3    0    0  0.13439145235E+00 -0.51029314302E+01 -0.25677356100E+00  0.51111547781E+01  0.51100000000E-03 0.  1.
         12    1    3    3    0    0  0.13923085103E+02 -0.27123208887E+02 -0.91994798373E+01  0.31845740506E+02  0.00000000000E+00 0. -1.
</event>
<event>
 7    1  0.1476909E-008  0.4614232E+02  0.7816164E-02  0.1320468E+00
        -11   -1    0    0    0    0  0.00000000000E+00  0.00000000000E+00  0.45593999997E+02  0.45594000000E+02  0.51100000000E-03 0.  1.
         11   -1    0    0    0    0 -0.00000000000E+00 -0.00000000000E+00 -0.45593999997E+02  0.45594000000E+02  0.51100000000E-03 0. -1.
    9900012    2    1    2    0    0 -0.16559288711E+02 -0.40525143154E+02 -0.10612079603E+02  0.46142317590E+02  0.99999984401E+01 0.  0.
        -12    1    1    2    0    0  0.16559288711E+02  0.40525143154E+02  0.10612079603E+02  0.45045682410E+02  0.00000000000E+00 0.  1.
         11    1    3    3    0    0 -0.15190298720E+02 -0.32674275633E+02 -0.73520676892E+01  0.36775078014E+02  0.51100000000E-03 0. -1.
        -11    1    3    3    0    0  0.13502431025E+00 -0.51595107015E+01 -0.35594401266E+01  0.62696408604E+01  0.51100000000E-03 0.  1.
         12    1    3    3    0    0 -0.15040143017E+01 -0.26913568194E+01  0.29942821322E+00  0.30975987158E+01  0.00000000000E+00 0. -1.
</event>
<event>
 7    1  0.1476909E-008  0.4614232E+02  0.7816164E-02  0.1320468E+00
        -11   -1    0    0    0    0  0.00000000000E+00  0.00000000000E+00  0.45593999997E+02  0.45594000000E+02  0.51100000000E-03 0.  1.
         11   -1    0    0    0    0 -0.00000000000E+00 -0.00000000000E+00 -0.45593999997E+02  0.45594000000E+02  0.51100000000E-03 0. -1.
    9900012    2    1    2    0    0 -0.12873222591E+02 -0.42502199716E+02 -0.75469761376E+01  0.46142315530E+02  0.99999796541E+01 0.  0.
        -12    1    1    2    0    0  0.12873222591E+02  0.42502199716E+02  0.75469761376E+01  0.45045684470E+02  0.00000000000E+00 0.  1.
         11    1    3    3    0    0 -0.78678488215E+01 -0.17987569558E+02 -0.36344758427E+01  0.19966600076E+02  0.51100000000E-03 0. -1.
        -11    1    3    3    0    0 -0.45909702158E+01 -0.20660647467E+02 -0.75801648884E+00  0.21178147948E+02  0.51100000000E-03 0.  1.
        -12    1    3    3    0    0 -0.41440355323E+00 -0.38539826907E+01 -0.31544838060E+01  0.49975675050E+01  0.00000000000E+00 0.  1.
</event>
<event>
 7    1  0.1476909E-008  0.4614232E+02  0.7816164E-02  0.1320468E+00
        -11   -1    0    0    0    0  0.00000000000E+00  0.00000000000E+00  0.45593999997E+02  0.45594000000E+02  0.51100000000E-03 0.  1.
         11   -1    0    0    0    0 -0.00000000000E+00 -0.00000000000E+00 -0.45593999997E+02  0.45594000000E+02  0.51100000000E-03 0. -1.
    9900012    2    1    2    0    0  0.13392645260E+02  0.17751556310E+02 -0.39174389072E+02  0.46142318102E+02  0.10000003111E+02 0.  0.
        -12    1    1    2    0    0 -0.13392645260E+02 -0.17751556310E+02  0.39174389072E+02  0.45045681898E+02  0.00000000000E+00 0.  1.
         11    1    3    3    0    0  0.26744095611E+01  0.38876932798E-01 -0.21912824484E+01  0.34577011072E+01  0.51100000000E-03 0. -1.
        -11    1    3    3    0    0  0.61983065135E+01  0.13075872343E+02 -0.21655062608E+02  0.26044945344E+02  0.51100000000E-03 0.  1.
         12    1    3    3    0    0  0.45199291851E+01  0.46368070341E+01 -0.15328044015E+02  0.16639671651E+02  0.00000000000E+00 0. -1.
</event>
<event>
 7    1  0.1476909E-008  0.4614232E+02  0.7816164E-02  0.1320468E+00
        -11   -1    0    0    0    0  0.00000000000E+00  0.00000000000E+00  0.45593999997E+02  0.45594000000E+02  0.51100000000E-03 0.  1.
         11   -1    0    0    0    0 -0.00000000000E+00 -0.00000000000E+00 -0.45593999997E+02  0.45594000000E+02  0.51100000000E-03 0. -1.
    9900012    2    1    2    0    0  0.30693419649E+02  0.95051412517E+01 -0.31570236708E+02  0.46142316902E+02  0.99999921659E+01 0.  0.
        -12    1    1    2    0    0 -0.30693419649E+02 -0.95051412517E+01  0.31570236708E+02  0.45045683098E+02  0.00000000000E+00 0.  1.
         11    1    3    3    0    0  0.15018056047E+02  0.64996376797E+01 -0.14370919937E+02  0.21778673915E+02  0.51100000000E-03 0. -1.
        -11    1    3    3    0    0  0.73648344333E+01  0.44097015500E+01 -0.66364554473E+01  0.10850290095E+02  0.51100000000E-03 0.  1.
         12    1    3    3    0    0  0.83105291682E+01 -0.14041979780E+01 -0.10562861325E+02  0.13513352892E+02  0.00000000000E+00 0. -1.
</event>
<event>
 7    1  0.1476909E-008  0.4614232E+02  0.7816164E-02  0.1320468E+00
        -11   -1    0    0    0    0  0.00000000000E+00  0.00000000000E+00  0.45593999997E+02  0.45594000000E+02  0.51100000000E-03 0. -1.
         11   -1    0    0    0    0 -0.00000000000E+00 -0.00000000000E+00 -0.45593999997E+02  0.45594000000E+02  0.51100000000E-03 0.  1.
    9900012    2    1    2    0    0  0.25740646076E+02  0.19007805350E+02  0.31705455622E+02  0.46142318289E+02  0.10000004812E+02 0.  0.
        -12    1    1    2    0    0 -0.25740646076E+02 -0.19007805350E+02 -0.31705455622E+02  0.45045681711E+02  0.00000000000E+00 0.  1.
         11    1    3    3    0    0  0.71209308127E+00  0.12310365943E+01  0.21489945632E+00  0.14383009735E+01  0.51100000000E-03 0. -1.
        -11    1    3    3    0    0  0.35342026697E+01 -0.40892723969E+00  0.30858754250E+01  0.47096111727E+01  0.51100000000E-03 0.  1.
         12    1    3    3    0    0  0.21494350325E+02  0.18185695996E+02  0.28404680741E+02  0.39994406143E+02  0.00000000000E+00 0. -1.
</event>
<event>
 7    1  0.1476909E-008  0.4614232E+02  0.7816164E-02  0.1320468E+00
        -11   -1    0    0    0    0  0.00000000000E+00  0.00000000000E+00  0.45593999997E+02  0.45594000000E+02  0.51100000000E-03 0. -1.
         11   -1    0    0    0    0 -0.00000000000E+00 -0.00000000000E+00 -0.45593999997E+02  0.45594000000E+02  0.51100000000E-03 0.  1.
    9900012    2    1    2    0    0 -0.38814932504E+02  0.19700109983E+02 -0.11593969991E+02  0.46142318089E+02  0.10000002993E+02 0.  0.
        -12    1    1    2    0    0  0.38814932504E+02 -0.19700109983E+02  0.11593969991E+02  0.45045681911E+02  0.00000000000E+00 0.  1.
         11    1    3    3    0    0 -0.12542701055E+02  0.47348065442E+01 -0.54937415068E+01  0.14488579598E+02  0.51100000000E-03 0. -1.
        -11    1    3    3    0    0 -0.14822640653E+02  0.12031749898E+02 -0.22516537980E+01  0.19223517540E+02  0.51100000000E-03 0.  1.
        -12    1    3    3    0    0 -0.11449590796E+02  0.29335535411E+01 -0.38485746858E+01  0.12430220951E+02  0.00000000000E+00 0.  1.
</event>
<event>
 7    1  0.1476909E-008  0.4614232E+02  0.7816164E-02  0.1320468E+00
        -11   -1    0    0    0    0  0.00000000000E+00  0.00000000000E+00  0.45593999997E+02  0.45594000000E+02  0.51100000000E-03 0. -1.
         11   -1    0    0    0    0 -0.00000000000E+00 -0.00000000000E+00 -0.45593999997E+02  0.45594000000E+02  0.51100000000E-03 0.  1.
    9900012    2    1    2    0    0 -0.34003334928E+02  0.16180593754E+02  0.24719937399E+02  0.46142315351E+02  0.99999780207E+01 0.  0.
        -12    1    1    2    0    0  0.34003334928E+02 -0.16180593754E+02 -0.24719937399E+02  0.45045684649E+02  0.00000000000E+00 0.  1.
         11    1    3    3    0    0 -0.31944547468E+01  0.22663805241E+01  0.51893833801E+01  0.65015937996E+01  0.51100000000E-03 0. -1.
        -11    1    3    3    0    0 -0.11954363153E+02  0.56973645688E+01  0.38902189805E+01  0.13802194224E+02  0.51100000000E-03 0.  1.
         12    1    3    3    0    0 -0.18854517029E+02  0.82168486613E+01  0.15640335039E+02  0.25838527327E+02  0.00000000000E+00 0. -1.
</event>
<event>
 7    1  0.1476909E-008  0.4614232E+02  0.7816164E-02  0.1320468E+00
        -11   -1    0    0    0    0  0.00000000000E+00  0.00000000000E+00  0.45593999997E+02  0.45594000000E+02  0.51100000000E-03 0.  1.
         11   -1    0    0    0    0 -0.00000000000E+00 -0.00000000000E+00 -0.45593999997E+02  0.45594000000E+02  0.51100000000E-03 0. -1.
    9900012    2    1    2    0    0  0.84172181123E+01  0.24643619371E+02 -0.36755352457E+02  0.46142317957E+02  0.10000001790E+02 0.  0.
        -12    1    1    2    0    0 -0.84172181123E+01 -0.24643619371E+02  0.36755352457E+02  0.45045682043E+02  0.00000000000E+00 0.  1.
         11    1    3    3    0    0  0.67277517457E+01  0.15094320832E+02 -0.22690562946E+02  0.28070675304E+02  0.51100000000E-03 0. -1.
        -11    1    3    3    0    0 -0.16515773765E+01  0.67445629435E+01 -0.93777072538E+01  0.11668685904E+02  0.51100000000E-03 0.  1.
        -12    1    3    3    0    0  0.33410437430E+01  0.28047355962E+01 -0.46870822567E+01  0.64029567497E+01  0.00000000000E+00 0.  1.
</event>
<event>
 7    1  0.1476909E-008  0.4614232E+02  0.7816164E-02  0.1320468E+00
        -11   -1    0    0    0    0  0.00000000000E+00  0.00000000000E+00  0.45593999997E+02  0.45594000000E+02  0.51100000000E-03 0.  1.
         11   -1    0    0    0    0 -0.00000000000E+00 -0.00000000000E+00 -0.45593999997E+02  0.45594000000E+02  0.51100000000E-03 0. -1.
    9900012    2    1    2    0    0 -0.10074417989E+02 -0.79294859457E+01 -0.43182668533E+02  0.46142317557E+02  0.99999981350E+01 0.  0.
        -12    1    1    2    0    0  0.10074417989E+02  0.79294859457E+01  0.43182668533E+02  0.45045682443E+02  0.00000000000E+00 0.  1.
         11    1    3    3    0    0 -0.18841925218E+01 -0.37320308381E+01 -0.80890882687E+01  0.91055798780E+01  0.51100000000E-03 0. -1.
        -11    1    3    3    0    0 -0.31003943793E+01  0.26230511147E+00 -0.22732628894E+02  0.22944578139E+02  0.51100000000E-03 0.  1.
        -12    1    3    3    0    0 -0.50898310882E+01 -0.44597602190E+01 -0.12360951370E+02  0.14092159540E+02  0.00000000000E+00 0.  1.
</event>
<event>
 7    1  0.1476909E-008  0.4614232E+02  0.7816164E-02  0.1320468E+00
        -11   -1    0    0    0    0  0.00000000000E+00  0.00000000000E+00  0.45593999997E+02  0.45594000000E+02  0.51100000000E-03 0.  1.
         11   -1    0    0    0    0 -0.00000000000E+00 -0.00000000000E+00 -0.45593999997E+02  0.45594000000E+02  0.51100000000E-03 0. -1.
    9900012    2    1    2    0    0  0.17068289564E+02  0.22087460296E+02 -0.35354364969E+02  0.46142317262E+02  0.99999954517E+01 0.  0.
        -12    1    1    2    0    0 -0.17068289564E+02 -0.22087460296E+02  0.35354364969E+02  0.45045682738E+02  0.00000000000E+00 0.  1.
         11    1    3    3    0    0  0.13945076249E+01  0.22696501159E+01 -0.26052643714E+01  0.37260388981E+01  0.51100000000E-03 0. -1.
        -11    1    3    3    0    0  0.23467932580E+01  0.95634297039E+01 -0.15202973373E+02  0.18113448759E+02  0.51100000000E-03 0.  1.
        -12    1    3    3    0    0  0.13326988681E+02  0.10254380476E+02 -0.17546127224E+02  0.24302829605E+02  0.00000000000E+00 0.  1.
</event>
<event>
 7    1  0.1476909E-008  0.4614232E+02  0.7816164E-02  0.1320468E+00
        -11   -1    0    0    0    0  0.00000000000E+00  0.00000000000E+00  0.45593999997E+02  0.45594000000E+02  0.51100000000E-03 0.  1.
         11   -1    0    0    0    0 -0.00000000000E+00 -0.00000000000E+00 -0.45593999997E+02  0.45594000000E+02  0.51100000000E-03 0. -1.
    9900012    2    1    2    0    0 -0.36773464697E+01 -0.36978389858E+02 -0.25459557495E+02  0.46142320280E+02  0.10000022972E+02 0.  0.
        -12    1    1    2    0    0  0.36773464697E+01  0.36978389858E+02  0.25459557495E+02  0.45045679720E+02  0.00000000000E+00 0.  1.
         11    1    3    3    0    0  0.26462466700E+01 -0.38675288400E+01 -0.33821075955E+01  0.57791913635E+01  0.51100000000E-03 0. -1.
        -11    1    3    3    0    0 -0.19625013058E+00 -0.18248112402E+00 -0.42792805675E-01  0.27137604853E+00  0.51100000000E-03 0.  1.
         12    1    3    3    0    0 -0.61273430091E+01 -0.32928379894E+02 -0.22034657094E+02  0.40091752868E+02  0.00000000000E+00 0. -1.
</event>
<event>
 7    1  0.1476909E-008  0.4614232E+02  0.7816164E-02  0.1320468E+00
        -11   -1    0    0    0    0  0.00000000000E+00  0.00000000000E+00  0.45593999997E+02  0.45594000000E+02  0.51100000000E-03 0.  1.
         11   -1    0    0    0    0 -0.00000000000E+00 -0.00000000000E+00 -0.45593999997E+02  0.45594000000E+02  0.51100000000E-03 0. -1.
    9900012    2    1    2    0    0 -0.17775134835E+02  0.93793398158E+01 -0.40313597748E+02  0.46142316553E+02  0.99999889839E+01 0.  0.
        -12    1    1    2    0    0  0.17775134835E+02 -0.93793398158E+01  0.40313597748E+02  0.45045683447E+02  0.00000000000E+00 0.  1.
         11    1    3    3    0    0 -0.21563140933E+01  0.32889412838E+01 -0.10972424584E+02  0.11655939548E+02  0.51100000000E-03 0. -1.
        -11    1    3    3    0    0 -0.12187278968E+02  0.15760674654E+01 -0.22126404321E+02  0.25309909636E+02  0.51100000000E-03 0.  1.
        -12    1    3    3    0    0 -0.34315417738E+01  0.45143310665E+01 -0.72147688426E+01  0.91764673691E+01  0.00000000000E+00 0.  1.
</event>
<event>
 7    1  0.1476909E-008  0.4614233E+02  0.7816164E-02  0.1320468E+00
        -11   -1    0    0    0    0  0.00000000000E+00  0.00000000000E+00  0.45593999997E+02  0.45594000000E+02  0.51100000000E-03 0.  1.
         11   -1    0    0    0    0 -0.00000000000E+00 -0.00000000000E+00 -0.45593999997E+02  0.45594000000E+02  0.51100000000E-03 0. -1.
    9900012    2    1    2    0    0 -0.59002698528E+01  0.35390166879E+02 -0.27236659185E+02  0.46142326516E+02  0.10000079836E+02 0.  0.
        -12    1    1    2    0    0  0.59002698528E+01 -0.35390166879E+02  0.27236659185E+02  0.45045673484E+02  0.00000000000E+00 0.  1.
         11    1    3    3    0    0 -0.57684290577E+01  0.10120718522E+02 -0.86690408207E+01  0.14520881041E+02  0.51100000000E-03 0. -1.
        -11    1    3    3    0    0  0.99326532152E+00  0.37707336888E+01 -0.16184100579E+01  0.42218787201E+01  0.51100000000E-03 0.  1.
        -12    1    3    3    0    0 -0.11251061167E+01  0.21498714668E+02 -0.16949208306E+02  0.27399566755E+02  0.00000000000E+00 0.  1.
</event>
<event>
 7    1  0.1476909E-008  0.4614232E+02  0.7816164E-02  0.1320468E+00
        -11   -1    0    0    0    0  0.00000000000E+00  0.00000000000E+00  0.45593999997E+02  0.45594000000E+02  0.51100000000E-03 0.  1.
         11   -1    0    0    0    0 -0.00000000000E+00 -0.00000000000E+00 -0.45593999997E+02  0.45594000000E+02  0.51100000000E-03 0. -1.
    9900012    2    1    2    0    0 -0.26046607695E+02  0.36639390495E+02  0.28709735399E+01  0.46142320992E+02  0.10000029458E+02 0.  0.
        -12    1    1    2    0    0  0.26046607695E+02 -0.36639390495E+02 -0.28709735399E+01  0.45045679008E+02  0.00000000000E+00 0.  1.
         11    1    3    3    0    0 -0.45286709198E+01  0.48735324816E+01 -0.50525083517E+00  0.66719905438E+01  0.51100000000E-03 0. -1.
        -11    1    3    3    0    0 -0.18194653036E+02  0.20769884242E+02  0.43044503474E+01  0.27945693471E+02  0.51100000000E-03 0.  1.
        -12    1    3    3    0    0 -0.33232837398E+01  0.10995973771E+02 -0.92822597235E+00  0.11524636977E+02  0.00000000000E+00 0.  1.
</event>
<event>
 7    1  0.1476909E-008  0.4614232E+02  0.7816164E-02  0.1320468E+00
        -11   -1    0    0    0    0  0.00000000000E+00  0.00000000000E+00  0.45593999997E+02  0.45594000000E+02  0.51100000000E-03 0.  1.
         11   -1    0    0    0    0 -0.00000000000E+00 -0.00000000000E+00 -0.45593999997E+02  0.45594000000E+02  0.51100000000E-03 0. -1.
    9900012    2    1    2    0    0  0.32449065874E+01 -0.14941656376E+02 -0.42371347971E+02  0.46142316046E+02  0.99999843571E+01 0.  0.
        -12    1    1    2    0    0 -0.32449065874E+01  0.14941656376E+02  0.42371347971E+02  0.45045683954E+02  0.00000000000E+00 0.  1.
         11    1    3    3    0    0  0.61667462027E+01 -0.10813627658E+02 -0.27003967750E+02  0.29735123614E+02  0.51100000000E-03 0. -1.
        -11    1    3    3    0    0 -0.30320747231E+00 -0.30454704289E+00 -0.53786424977E+01  0.53957834512E+01  0.51100000000E-03 0.  1.
         12    1    3    3    0    0 -0.26186321430E+01 -0.38234816754E+01 -0.99887377234E+01  0.11011408980E+02  0.00000000000E+00 0. -1.
</event>
<event>
 7    1  0.1476909E-008  0.4614232E+02  0.7816164E-02  0.1320468E+00
        -11   -1    0    0    0    0  0.00000000000E+00  0.00000000000E+00  0.45593999997E+02  0.45594000000E+02  0.51100000000E-03 0.  1.
         11   -1    0    0    0    0 -0.00000000000E+00 -0.00000000000E+00 -0.45593999997E+02  0.45594000000E+02  0.51100000000E-03 0. -1.
    9900012    2    1    2    0    0 -0.19598529136E+02  0.40517416198E+02  0.18302301614E+01  0.46142322049E+02  0.10000039097E+02 0.  0.
        -12    1    1    2    0    0  0.19598529136E+02 -0.40517416198E+02 -0.18302301614E+01  0.45045677951E+02  0.00000000000E+00 0.  1.
         11    1    3    3    0    0 -0.83993241452E+01  0.17472908431E+02  0.50670754972E+01  0.20038124400E+02  0.51100000000E-03 0. -1.
        -11    1    3    3    0    0 -0.37290411960E+01  0.44574550726E+01 -0.14686098162E+01  0.59942863645E+01  0.51100000000E-03 0.  1.
         12    1    3    3    0    0 -0.74701637943E+01  0.18587052695E+02 -0.17682355196E+01  0.20109911284E+02  0.00000000000E+00 0. -1.
</event>
<event>
 7    1  0.1476909E-008  0.4614232E+02  0.7816164E-02  0.1320468E+00
        -11   -1    0    0    0    0  0.00000000000E+00  0.00000000000E+00  0.45593999997E+02  0.45594000000E+02  0.51100000000E-03 0.  1.
         11   -1    0    0    0    0 -0.00000000000E+00 -0.00000000000E+00 -0.45593999997E+02  0.45594000000E+02  0.51100000000E-03 0. -1.
    9900012    2    1    2    0    0  0.21598526929E+02  0.72256586148E+01 -0.38863952840E+02  0.46142319428E+02  0.10000015196E+02 0.  0.
        -12    1    1    2    0    0 -0.21598526929E+02 -0.72256586148E+01  0.38863952840E+02  0.45045680572E+02  0.00000000000E+00 0.  1.
         11    1    3    3    0    0  0.13188885864E+02  0.44109566791E+01 -0.18994152503E+02  0.23541050926E+02  0.51100000000E-03 0. -1.
        -11    1    3    3    0    0  0.35792247967E+01 -0.16440144416E+01 -0.99480846567E+01  0.10699440276E+02  0.51100000000E-03 0.  1.
         12    1    3    3    0    0  0.48304162687E+01  0.44587163772E+01 -0.99217156799E+01  0.11901828225E+02  0.00000000000E+00 0. -1.
</event>
<event>
 7    1  0.1476909E-008  0.4614232E+02  0.7816164E-02  0.1320468E+00
        -11   -1    0    0    0    0  0.00000000000E+00  0.00000000000E+00  0.45593999997E+02  0.45594000000E+02  0.51100000000E-03 0.  1.
         11   -1    0    0    0    0 -0.00000000000E+00 -0.00000000000E+00 -0.45593999997E+02  0.45594000000E+02  0.51100000000E-03 0. -1.
    9900012    2    1    2    0    0  0.83156608131E+00  0.43909817609E+02  0.10017476354E+02  0.46142318552E+02  0.10000007211E+02 0.  0.
        -12    1    1    2    0    0 -0.83156608131E+00 -0.43909817609E+02 -0.10017476354E+02  0.45045681448E+02  0.00000000000E+00 0.  1.
         11    1    3    3    0    0 -0.73404202627E+00  0.24472535490E+02  0.34666159052E+01  0.24727742256E+02  0.51100000000E-03 0. -1.
        -11    1    3    3    0    0 -0.21128849828E+00  0.16001590789E+02  0.32501577043E+01  0.16329699200E+02  0.51100000000E-03 0.  1.
        -12    1    3    3    0    0  0.17768966059E+01  0.34356913304E+01  0.33007027448E+01  0.50848770954E+01  0.00000000000E+00 0.  1.
</event>
<event>
 7    1  0.1476909E-008  0.4614232E+02  0.7816164E-02  0.1320468E+00
        -11   -1    0    0    0    0  0.00000000000E+00  0.00000000000E+00  0.45593999997E+02  0.45594000000E+02  0.51100000000E-03 0. -1.
         11   -1    0    0    0    0 -0.00000000000E+00 -0.00000000000E+00 -0.45593999997E+02  0.45594000000E+02  0.51100000000E-03 0.  1.
    9900012    2    1    2    0    0  0.36164930857E+02  0.25143115754E+02  0.94358339710E+01  0.46142318115E+02  0.10000003229E+02 0.  0.
        -12    1    1    2    0    0 -0.36164930857E+02 -0.25143115754E+02 -0.94358339710E+01  0.45045681885E+02  0.00000000000E+00 0.  1.
         11    1    3    3    0    0  0.85201832835E+01  0.26143831492E+01  0.40037838695E+00  0.89212569490E+01  0.51100000000E-03 0.  1.
        -11    1    3    3    0    0  0.23731391972E+02  0.17569908501E+02  0.56827423717E+01  0.30069489699E+02  0.51100000000E-03 0. -1.
         12    1    3    3    0    0  0.39133556019E+01  0.49588241045E+01  0.33527132123E+01  0.71515714672E+01  0.00000000000E+00 0. -1.
</event>
<event>
 7    1  0.1476909E-008  0.4614232E+02  0.7816164E-02  0.1320468E+00
        -11   -1    0    0    0    0  0.00000000000E+00  0.00000000000E+00  0.45593999997E+02  0.45594000000E+02  0.51100000000E-03 0.  1.
         11   -1    0    0    0    0 -0.00000000000E+00 -0.00000000000E+00 -0.45593999997E+02  0.45594000000E+02  0.51100000000E-03 0. -1.
    9900012    2    1    2    0    0 -0.13277450968E+02 -0.40009429441E+02 -0.15876660047E+02  0.46142317824E+02  0.10000000577E+02 0.  0.
        -12    1    1    2    0    0  0.13277450968E+02  0.40009429441E+02  0.15876660047E+02  0.45045682176E+02  0.00000000000E+00 0.  1.
         11    1    3    3    0    0 -0.62229495892E+01 -0.14505574843E+02 -0.25338568637E+01  0.15986157574E+02  0.51100000000E-03 0.  1.
        -11    1    3    3    0    0 -0.72996060322E+01 -0.25705428162E+02 -0.13123781415E+02  0.29770571444E+02  0.51100000000E-03 0. -1.
        -12    1    3    3    0    0  0.24510465355E+00  0.20157356340E+00 -0.21902176867E+00  0.38558880664E+00  0.00000000000E+00 0.  1.
</event>
<event>
 7    1  0.1476909E-008  0.4614232E+02  0.7816164E-02  0.1320468E+00
        -11   -1    0    0    0    0  0.00000000000E+00  0.00000000000E+00  0.45593999997E+02  0.45594000000E+02  0.51100000000E-03 0.  1.
         11   -1    0    0    0    0 -0.00000000000E+00 -0.00000000000E+00 -0.45593999997E+02  0.45594000000E+02  0.51100000000E-03 0. -1.
    9900012    2    1    2    0    0 -0.26664096369E+02 -0.34956463341E+02 -0.98073985424E+01  0.46142318402E+02  0.10000005843E+02 0.  0.
        -12    1    1    2    0    0  0.26664096369E+02  0.34956463341E+02  0.98073985424E+01  0.45045681598E+02  0.00000000000E+00 0.  1.
         11    1    3    3    0    0 -0.94702329156E+01 -0.10829093679E+02 -0.32598392347E+01  0.14750631630E+02  0.51100000000E-03 0. -1.
        -11    1    3    3    0    0 -0.26886908468E+01 -0.40344095443E+01 -0.43485745841E+01  0.65127275404E+01  0.51100000000E-03 0.  1.
        -12    1    3    3    0    0 -0.14505172606E+02 -0.20092960118E+02 -0.21989847235E+01  0.24878959231E+02  0.00000000000E+00 0.  1.
</event>
<event>
 7    1  0.1476909E-008  0.4614232E+02  0.7816164E-02  0.1320468E+00
        -11   -1    0    0    0    0  0.00000000000E+00  0.00000000000E+00  0.45593999997E+02  0.45594000000E+02  0.51100000000E-03 0. -1.
         11   -1    0    0    0    0 -0.00000000000E+00 -0.00000000000E+00 -0.45593999997E+02  0.45594000000E+02  0.51100000000E-03 0.  1.
    9900012    2    1    2    0    0  0.30009314897E+02  0.27482512943E+02 -0.19320091811E+02  0.46142318234E+02  0.10000004310E+02 0.  0.
        -12    1    1    2    0    0 -0.30009314897E+02 -0.27482512943E+02  0.19320091811E+02  0.45045681766E+02  0.00000000000E+00 0.  1.
         11    1    3    3    0    0  0.26892696638E+01  0.20964327840E+01 -0.23970225247E+00  0.34182830739E+01  0.51100000000E-03 0.  1.
        -11    1    3    3    0    0  0.92839209763E+01  0.97386977530E+01 -0.25804630173E+01  0.13700080739E+02  0.51100000000E-03 0. -1.
        -12    1    3    3    0    0  0.18036124257E+02  0.15647382406E+02 -0.16499926541E+02  0.29023954421E+02  0.00000000000E+00 0.  1.
</event>
<event>
 7    1  0.1476909E-008  0.4614232E+02  0.7816164E-02  0.1320468E+00
        -11   -1    0    0    0    0  0.00000000000E+00  0.00000000000E+00  0.45593999997E+02  0.45594000000E+02  0.51100000000E-03 0.  1.
         11   -1    0    0    0    0 -0.00000000000E+00 -0.00000000000E+00 -0.45593999997E+02  0.45594000000E+02  0.51100000000E-03 0. -1.
    9900012    2    1    2    0    0  0.82975286176E+01  0.22820488786E+01 -0.44216023768E+02  0.46142317786E+02  0.10000000226E+02 0.  0.
        -12    1    1    2    0    0 -0.82975286176E+01 -0.22820488786E+01  0.44216023768E+02  0.45045682214E+02  0.00000000000E+00 0.  1.
         11    1    3    3    0    0  0.66246983291E+01 -0.17425569143E+01 -0.32103850917E+02  0.32826519409E+02  0.51100000000E-03 0. -1.
        -11    1    3    3    0    0  0.25180539136E+01  0.38045583536E+01 -0.10946501845E+02  0.11859222685E+02  0.51100000000E-03 0.  1.
         12    1    3    3    0    0 -0.84522362512E+00  0.22004743929E+00 -0.11656710058E+01  0.14565756917E+01  0.00000000000E+00 0. -1.
</event>
<event>
 7    1  0.1476909E-008  0.4614232E+02  0.7816164E-02  0.1320468E+00
        -11   -1    0    0    0    0  0.00000000000E+00  0.00000000000E+00  0.45593999997E+02  0.45594000000E+02  0.51100000000E-03 0. -1.
         11   -1    0    0    0    0 -0.00000000000E+00 -0.00000000000E+00 -0.45593999997E+02  0.45594000000E+02  0.51100000000E-03 0.  1.
    9900012    2    1    2    0    0 -0.44363366748E+02 -0.20009921090E+01  0.75499073222E+01  0.46142318973E+02  0.10000011052E+02 0.  0.
        -12    1    1    2    0    0  0.44363366748E+02  0.20009921090E+01 -0.75499073222E+01  0.45045681027E+02  0.00000000000E+00 0.  1.
         11    1    3    3    0    0 -0.16861363182E+02  0.31423334836E+01 -0.48213084421E-02  0.17151671976E+02  0.51100000000E-03 0. -1.
        -11    1    3    3    0    0 -0.21908537971E+02 -0.39968864310E+01  0.63097045446E+01  0.23146738623E+02  0.51100000000E-03 0.  1.
         12    1    3    3    0    0 -0.55934655944E+01 -0.11464391616E+01  0.12450240860E+01  0.58439083738E+01  0.00000000000E+00 0. -1.
</event>
<event>
 7    1  0.1476909E-008  0.4614232E+02  0.7816164E-02  0.1320468E+00
        -11   -1    0    0    0    0  0.00000000000E+00  0.00000000000E+00  0.45593999997E+02  0.45594000000E+02  0.51100000000E-03 0.  1.
         11   -1    0    0    0    0 -0.00000000000E+00 -0.00000000000E+00 -0.45593999997E+02  0.45594000000E+02  0.51100000000E-03 0. -1.
    9900012    2    1    2    0    0 -0.35735015666E+02 -0.24719773487E+02 -0.11876657080E+02  0.46142317307E+02  0.99999958571E+01 0.  0.
        -12    1    1    2    0    0  0.35735015666E+02  0.24719773487E+02  0.11876657080E+02  0.45045682693E+02  0.00000000000E+00 0.  1.
         11    1    3    3    0    0 -0.28679854693E+02 -0.20401298422E+02 -0.68318866291E+01  0.35852778382E+02  0.51100000000E-03 0. -1.
        -11    1    3    3    0    0 -0.60436317219E+01 -0.25837464197E+01 -0.50379330435E+01  0.82814249718E+01  0.51100000000E-03 0.  1.
        -12    1    3    3    0    0 -0.10115292511E+01 -0.17347286452E+01 -0.68374069568E-02  0.20081139531E+01  0.00000000000E+00 0.  1.
</event>
<event>
 7    1  0.1476909E-008  0.4614232E+02  0.7816164E-02  0.1320468E+00
        -11   -1    0    0    0    0  0.00000000000E+00  0.00000000000E+00  0.45593999997E+02  0.45594000000E+02  0.51100000000E-03 0.  1.
         11   -1    0    0    0    0 -0.00000000000E+00 -0.00000000000E+00 -0.45593999997E+02  0.45594000000E+02  0.51100000000E-03 0. -1.
    9900012    2    1    2    0    0 -0.32902200542E+02  0.26841716871E+02 -0.15035989045E+02  0.46142317281E+02  0.99999956229E+01 0.  0.
        -12    1    1    2    0    0  0.32902200542E+02 -0.26841716871E+02  0.15035989045E+02  0.45045682719E+02  0.00000000000E+00 0.  1.
         11    1    3    3    0    0 -0.12671025989E+02  0.11080227455E+02 -0.88869866309E+01  0.19034307754E+02  0.51100000000E-03 0. -1.
        -11    1    3    3    0    0 -0.10158915282E+02  0.43105812340E+01 -0.13360418707E+01  0.11116189924E+02  0.51100000000E-03 0.  1.
        -12    1    3    3    0    0 -0.10072259271E+02  0.11450908182E+02 -0.48129605438E+01  0.15991819603E+02  0.00000000000E+00 0.  1.
</event>
<event>
 7    1  0.1476909E-008  0.4614232E+02  0.7816164E-02  0.1320468E+00
        -11   -1    0    0    0    0  0.00000000000E+00  0.00000000000E+00  0.45593999997E+02  0.45594000000E+02  0.51100000000E-03 0.  1.
         11   -1    0    0    0    0 -0.00000000000E+00 -0.00000000000E+00 -0.45593999997E+02  0.45594000000E+02  0.51100000000E-03 0. -1.
    9900012    2    1    2    0    0  0.65413338934E+01 -0.82143979434E+01 -0.43804659650E+02  0.46142316636E+02  0.99999897421E+01 0.  0.
        -12    1    1    2    0    0 -0.65413338934E+01  0.82143979434E+01  0.43804659650E+02  0.45045683364E+02  0.00000000000E+00 0.  1.
         11    1    3    3    0    0 -0.71395352702E+00  0.92371009007E+00 -0.37093652854E+01  0.38887480056E+01  0.51100000000E-03 0. -1.
        -11    1    3    3    0    0  0.13949060396E+01 -0.98449694021E+00 -0.16797505430E+02  0.16884051232E+02  0.51100000000E-03 0.  1.
         12    1    3    3    0    0  0.58603813808E+01 -0.81536110932E+01 -0.23297788934E+02  0.25369517398E+02  0.00000000000E+00 0. -1.
</event>
<event>
 7    1  0.1476909E-008  0.4614232E+02  0.7816164E-02  0.1320468E+00
        -11   -1    0    0    0    0  0.00000000000E+00  0.00000000000E+00  0.45593999997E+02  0.45594000000E+02  0.51100000000E-03 0. -1.
         11   -1    0    0    0    0 -0.00000000000E+00 -0.00000000000E+00 -0.45593999997E+02  0.45594000000E+02  0.51100000000E-03 0.  1.
    9900012    2    1    2    0    0  0.30518509777E+02  0.80699885022E+01 -0.32134238578E+02  0.46142318271E+02  0.10000004647E+02 0.  0.
        -12    1    1    2    0    0 -0.30518509777E+02 -0.80699885022E+01  0.32134238578E+02  0.45045681729E+02  0.00000000000E+00 0.  1.
         11    1    3    3    0    0  0.14382070789E+02  0.65403484739E+01 -0.18718095837E+02  0.24494636767E+02  0.51100000000E-03 0.  1.
        -11    1    3    3    0    0  0.61657933053E+01  0.27859854925E+01 -0.39105317664E+01  0.78147924608E+01  0.51100000000E-03 0. -1.
         12    1    3    3    0    0  0.99706456830E+01 -0.12563454642E+01 -0.95056109753E+01  0.13832889043E+02  0.00000000000E+00 0. -1.
</event>
<event>
 7    1  0.1476909E-008  0.4614232E+02  0.7816164E-02  0.1320468E+00
        -11   -1    0    0    0    0  0.00000000000E+00  0.00000000000E+00  0.45593999997E+02  0.45594000000E+02  0.51100000000E-03 0.  1.
         11   -1    0    0    0    0 -0.00000000000E+00 -0.00000000000E+00 -0.45593999997E+02  0.45594000000E+02  0.51100000000E-03 0. -1.
    9900012    2    1    2    0    0 -0.20949681629E+01 -0.76984838949E+01 -0.44333485278E+02  0.46142318045E+02  0.10000002587E+02 0.  0.
        -12    1    1    2    0    0  0.20949681629E+01  0.76984838949E+01  0.44333485278E+02  0.45045681955E+02  0.00000000000E+00 0.  1.
         11    1    3    3    0    0 -0.70643412123E+00 -0.50942310591E+01 -0.38283394797E+02  0.38627303254E+02  0.51100000000E-03 0. -1.
        -11    1    3    3    0    0 -0.19058531694E+01 -0.14024139911E+01 -0.15503365090E+01  0.28288840304E+01  0.51100000000E-03 0.  1.
        -12    1    3    3    0    0  0.51731912768E+00 -0.12018388448E+01 -0.44997539723E+01  0.46861307600E+01  0.00000000000E+00 0.  1.
</event>
<event>
 7    1  0.1476909E-008  0.4614232E+02  0.7816164E-02  0.1320468E+00
        -11   -1    0    0    0    0  0.00000000000E+00  0.00000000000E+00  0.45593999997E+02  0.45594000000E+02  0.51100000000E-03 0.  1.
         11   -1    0    0    0    0 -0.00000000000E+00 -0.00000000000E+00 -0.45593999997E+02  0.45594000000E+02  0.51100000000E-03 0. -1.
    9900012    2    1    2    0    0  0.23716803364E+02  0.28307726564E+02 -0.25793396737E+02  0.46142318073E+02  0.10000002842E+02 0.  0.
        -12    1    1    2    0    0 -0.23716803364E+02 -0.28307726564E+02  0.25793396737E+02  0.45045681927E+02  0.00000000000E+00 0.  1.
         11    1    3    3    0    0  0.17840852545E+02  0.24231625715E+02 -0.22079617822E+02  0.37322610142E+02  0.51100000000E-03 0. -1.
        -11    1    3    3    0    0 -0.43677556828E+00  0.96568211793E-01  0.70148829379E-01  0.45279071982E+00  0.51100000000E-03 0.  1.
         12    1    3    3    0    0  0.63127263869E+01  0.39795326375E+01 -0.37839277441E+01  0.83669172113E+01  0.00000000000E+00 0. -1.
</event>
<event>
 7    1  0.1476909E-008  0.4614232E+02  0.7816164E-02  0.1320468E+00
        -11   -1    0    0    0    0  0.00000000000E+00  0.00000000000E+00  0.45593999997E+02  0.45594000000E+02  0.51100000000E-03 0. -1.
         11   -1    0    0    0    0 -0.00000000000E+00 -0.00000000000E+00 -0.45593999997E+02  0.45594000000E+02  0.51100000000E-03 0.  1.
    9900012    2    1    2    0    0  0.36066169933E+02  0.26861637830E+02  0.26071897823E+01  0.46142316088E+02  0.99999847429E+01 0.  0.
        -12    1    1    2    0    0 -0.36066169933E+02 -0.26861637830E+02 -0.26071897823E+01  0.45045683912E+02  0.00000000000E+00 0.  1.
         11    1    3    3    0    0  0.29402413795E+02  0.23620641666E+02  0.17798819975E+01  0.37757179845E+02  0.51100000000E-03 0. -1.
        -11    1    3    3    0    0  0.29340947590E+01  0.29894297956E+01  0.17422916311E+01  0.45366488674E+01  0.51100000000E-03 0.  1.
         12    1    3    3    0    0  0.37296613791E+01  0.25156636866E+00 -0.91498384617E+00  0.38484873755E+01  0.00000000000E+00 0. -1.
</event>
<event>
 7    1  0.1476909E-008  0.4614232E+02  0.7816164E-02  0.1320468E+00
        -11   -1    0    0    0    0  0.00000000000E+00  0.00000000000E+00  0.45593999997E+02  0.45594000000E+02  0.51100000000E-03 0. -1.
         11   -1    0    0    0    0 -0.00000000000E+00 -0.00000000000E+00 -0.45593999997E+02  0.45594000000E+02  0.51100000000E-03 0.  1.
    9900012    2    1    2    0    0 -0.26421214479E+02  0.17619858639E+02  0.31946416723E+02  0.46142317250E+02  0.99999953373E+01 0.  0.
        -12    1    1    2    0    0  0.26421214479E+02 -0.17619858639E+02 -0.31946416723E+02  0.45045682750E+02  0.00000000000E+00 0.  1.
         11    1    3    3    0    0 -0.17685568572E+02  0.11185683969E+02  0.24328993247E+02  0.32090477937E+02  0.51100000000E-03 0. -1.
        -11    1    3    3    0    0 -0.48631607352E+01  0.54296718358E+01  0.28457459351E+01  0.78249561513E+01  0.51100000000E-03 0.  1.
        -12    1    3    3    0    0 -0.38724851714E+01  0.10045028340E+01  0.47716775412E+01  0.62268831612E+01  0.00000000000E+00 0.  1.
</event>
<event>
 7    1  0.1476909E-008  0.4614232E+02  0.7816164E-02  0.1320468E+00
        -11   -1    0    0    0    0  0.00000000000E+00  0.00000000000E+00  0.45593999997E+02  0.45594000000E+02  0.51100000000E-03 0.  1.
         11   -1    0    0    0    0 -0.00000000000E+00 -0.00000000000E+00 -0.45593999997E+02  0.45594000000E+02  0.51100000000E-03 0. -1.
    9900012    2    1    2    0    0  0.22070724528E+01  0.10401003660E+01 -0.44979557039E+02  0.46142317310E+02  0.99999958877E+01 0.  0.
        -12    1    1    2    0    0 -0.22070724528E+01 -0.10401003660E+01  0.44979557039E+02  0.45045682690E+02  0.00000000000E+00 0.  1.
         11    1    3    3    0    0  0.25803863845E+01  0.31447208432E+01 -0.16134979776E+02  0.16639868861E+02  0.51100000000E-03 0. -1.
        -11    1    3    3    0    0 -0.26949256775E+01 -0.25555599395E+01 -0.20283269709E+02  0.20620488388E+02  0.51100000000E-03 0.  1.
        -12    1    3    3    0    0  0.23216117458E+01  0.45093946223E+00 -0.85613075540E+01  0.88819600613E+01  0.00000000000E+00 0.  1.
</event>
<event>
 7    1  0.1476909E-008  0.4614232E+02  0.7816164E-02  0.1320468E+00
        -11   -1    0    0    0    0  0.00000000000E+00  0.00000000000E+00  0.45593999997E+02  0.45594000000E+02  0.51100000000E-03 0. -1.
         11   -1    0    0    0    0 -0.00000000000E+00 -0.00000000000E+00 -0.45593999997E+02  0.45594000000E+02  0.51100000000E-03 0.  1.
    9900012    2    1    2    0    0  0.12450300242E+01 -0.36935502556E+02  0.25755233847E+02  0.46142317418E+02  0.99999968683E+01 0.  0.
        -12    1    1    2    0    0 -0.12450300242E+01  0.36935502556E+02 -0.25755233847E+02  0.45045682582E+02  0.00000000000E+00 0.  1.
         11    1    3    3    0    0 -0.20925540402E+01 -0.23666558924E+02  0.15554980067E+02  0.28397925961E+02  0.51100000000E-03 0. -1.
        -11    1    3    3    0    0  0.43903312289E+01 -0.12400639201E+02  0.92258352334E+01  0.16067572838E+02  0.51100000000E-03 0.  1.
        -12    1    3    3    0    0 -0.10527471645E+01 -0.86830443002E+00  0.97441854680E+00  0.16768186187E+01  0.00000000000E+00 0.  1.
</event>
<event>
 7    1  0.1476909E-008  0.4614232E+02  0.7816164E-02  0.1320468E+00
        -11   -1    0    0    0    0  0.00000000000E+00  0.00000000000E+00  0.45593999997E+02  0.45594000000E+02  0.51100000000E-03 0. -1.
         11   -1    0    0    0    0 -0.00000000000E+00 -0.00000000000E+00 -0.45593999997E+02  0.45594000000E+02  0.51100000000E-03 0.  1.
    9900012    2    1    2    0    0 -0.37141534059E+02  0.23788007233E+02  0.91515383160E+01  0.46142317700E+02  0.99999994418E+01 0.  0.
        -12    1    1    2    0    0  0.37141534059E+02 -0.23788007233E+02 -0.91515383160E+01  0.45045682300E+02  0.00000000000E+00 0.  1.
         11    1    3    3    0    0 -0.22940675357E+02  0.15494001247E+02  0.76701971806E+01  0.28725782592E+02  0.51100000000E-03 0. -1.
        -11    1    3    3    0    0 -0.84349076847E+00  0.25297399175E+01  0.10384974154E+01  0.28617368624E+01  0.51100000000E-03 0.  1.
        -12    1    3    3    0    0 -0.13357367933E+02  0.57642660689E+01  0.44284371994E+00  0.14554798246E+02  0.00000000000E+00 0.  1.
</event>
<event>
 7    1  0.1476909E-008  0.4614232E+02  0.7816164E-02  0.1320468E+00
        -11   -1    0    0    0    0  0.00000000000E+00  0.00000000000E+00  0.45593999997E+02  0.45594000000E+02  0.51100000000E-03 0. -1.
         11   -1    0    0    0    0 -0.00000000000E+00 -0.00000000000E+00 -0.45593999997E+02  0.45594000000E+02  0.51100000000E-03 0.  1.
    9900012    2    1    2    0    0 -0.17390686619E+02  0.41389789802E+02  0.36827697313E+01  0.46142317923E+02  0.10000001474E+02 0.  0.
        -12    1    1    2    0    0  0.17390686619E+02 -0.41389789802E+02 -0.36827697313E+01  0.45045682077E+02  0.00000000000E+00 0.  1.
         11    1    3    3    0    0 -0.23682580688E+00 -0.45527274103E+00  0.34267305974E+00  0.61707764384E+00  0.51100000000E-03 0.  1.
        -11    1    3    3    0    0 -0.10471800759E+02  0.24093365619E+02  0.28808498388E-01  0.26270700565E+02  0.51100000000E-03 0. -1.
         12    1    3    3    0    0 -0.66820600529E+01  0.17751696924E+02  0.33112881732E+01  0.19254539714E+02  0.00000000000E+00 0. -1.
</event>
<event>
 7    1  0.1476909E-008  0.4614232E+02  0.7816164E-02  0.1320468E+00
        -11   -1    0    0    0    0  0.00000000000E+00  0.00000000000E+00  0.45593999997E+02  0.45594000000E+02  0.51100000000E-03 0. -1.
         11   -1    0    0    0    0 -0.00000000000E+00 -0.00000000000E+00 -0.45593999997E+02  0.45594000000E+02  0.51100000000E-03 0.  1.
    9900012    2    1    2    0    0 -0.15424588722E+02  0.25245304600E+02  0.33968662898E+02  0.46142318734E+02  0.10000008876E+02 0.  0.
        -12    1    1    2    0    0  0.15424588722E+02 -0.25245304600E+02 -0.33968662898E+02  0.45045681266E+02  0.00000000000E+00 0.  1.
         11    1    3    3    0    0 -0.14061665771E+01  0.98691546505E+01  0.13203174555E+02  0.16543921438E+02  0.51100000000E-03 0. -1.
        -11    1    3    3    0    0 -0.51199881884E+01  0.51304775136E+01  0.95755337064E+01  0.12009451469E+02  0.51100000000E-03 0.  1.
         12    1    3    3    0    0 -0.88984339567E+01  0.10245672435E+02  0.11189954637E+02  0.17588945827E+02  0.00000000000E+00 0. -1.
</event>
<event>
 7    1  0.1476909E-008  0.4614232E+02  0.7816164E-02  0.1320468E+00
        -11   -1    0    0    0    0  0.00000000000E+00  0.00000000000E+00  0.45593999997E+02  0.45594000000E+02  0.51100000000E-03 0.  1.
         11   -1    0    0    0    0 -0.00000000000E+00 -0.00000000000E+00 -0.45593999997E+02  0.45594000000E+02  0.51100000000E-03 0. -1.
    9900012    2    1    2    0    0  0.44189997853E+02  0.70104182960E+01 -0.52164743296E+01  0.46142317861E+02  0.10000000913E+02 0.  0.
        -12    1    1    2    0    0 -0.44189997853E+02 -0.70104182960E+01  0.52164743296E+01  0.45045682139E+02  0.00000000000E+00 0.  1.
         11    1    3    3    0    0  0.10749658718E+02  0.12401284143E+01 -0.33566366327E+01  0.11329611237E+02  0.51100000000E-03 0. -1.
        -11    1    3    3    0    0  0.15834106048E+02 -0.84288906721E+00 -0.21604578377E+01  0.16003029546E+02  0.51100000000E-03 0.  1.
        -12    1    3    3    0    0  0.17606233087E+02  0.66131789489E+01  0.30062014080E+00  0.18809677078E+02  0.00000000000E+00 0.  1.
</event>
<event>
 7    1  0.1476909E-008  0.4614232E+02  0.7816164E-02  0.1320468E+00
        -11   -1    0    0    0    0  0.00000000000E+00  0.00000000000E+00  0.45593999997E+02  0.45594000000E+02  0.51100000000E-03 0.  1.
         11   -1    0    0    0    0 -0.00000000000E+00 -0.00000000000E+00 -0.45593999997E+02  0.45594000000E+02  0.51100000000E-03 0. -1.
    9900012    2    1    2    0    0  0.23507178376E+02 -0.15930603772E+02 -0.34967727507E+02  0.46142317202E+02  0.99999948973E+01 0.  0.
        -12    1    1    2    0    0 -0.23507178376E+02  0.15930603772E+02  0.34967727507E+02  0.45045682798E+02  0.00000000000E+00 0.  1.
         11    1    3    3    0    0  0.16972784560E+02 -0.11852033287E+02 -0.27763492204E+02  0.34631742786E+02  0.51100000000E-03 0. -1.
        -11    1    3    3    0    0  0.50932771478E+01 -0.14948923591E+01 -0.66364720328E+01  0.84981725431E+01  0.51100000000E-03 0.  1.
         12    1    3    3    0    0  0.14411166680E+01 -0.25836781263E+01 -0.56776327076E+00  0.30124018727E+01  0.00000000000E+00 0. -1.
</event>
<event>
 7    1  0.1476909E-008  0.4614232E+02  0.7816164E-02  0.1320468E+00
        -11   -1    0    0    0    0  0.00000000000E+00  0.00000000000E+00  0.45593999997E+02  0.45594000000E+02  0.51100000000E-03 0. -1.
         11   -1    0    0    0    0 -0.00000000000E+00 -0.00000000000E+00 -0.45593999997E+02  0.45594000000E+02  0.51100000000E-03 0.  1.
    9900012    2    1    2    0    0  0.32540355476E+02 -0.31091157478E+02 -0.18917524199E+01  0.46142317243E+02  0.99999952787E+01 0.  0.
        -12    1    1    2    0    0 -0.32540355476E+02  0.31091157478E+02  0.18917524199E+01  0.45045682757E+02  0.00000000000E+00 0.  1.
         11    1    3    3    0    0  0.88534866071E+01 -0.89963652956E+01 -0.40698143773E+01  0.13262058775E+02  0.51100000000E-03 0. -1.
        -11    1    3    3    0    0  0.64776246303E+01 -0.92279087695E+01 -0.76620871210E-01  0.11274741333E+02  0.51100000000E-03 0.  1.
         12    1    3    3    0    0  0.17209244238E+02 -0.12866883413E+02  0.22546828286E+01  0.21605517135E+02  0.00000000000E+00 0. -1.
</event>
<event>
 7    1  0.1476909E-008  0.4614232E+02  0.7816164E-02  0.1320468E+00
        -11   -1    0    0    0    0  0.00000000000E+00  0.00000000000E+00  0.45593999997E+02  0.45594000000E+02  0.51100000000E-03 0.  1.
         11   -1    0    0    0    0 -0.00000000000E+00 -0.00000000000E+00 -0.45593999997E+02  0.45594000000E+02  0.51100000000E-03 0. -1.
    9900012    2    1    2    0    0 -0.21425099741E+02  0.34762401108E+02  0.19017198000E+02  0.46142320413E+02  0.10000024184E+02 0.  0.
        -12    1    1    2    0    0  0.21425099741E+02 -0.34762401108E+02 -0.19017198000E+02  0.45045679587E+02  0.00000000000E+00 0.  1.
         11    1    3    3    0    0  0.10513523218E+01  0.11921480717E+01  0.81517676421E+00  0.17863572284E+01  0.51100000000E-03 0. -1.
        -11    1    3    3    0    0 -0.84228635178E+01  0.12349233312E+02  0.77879147631E+01  0.16855260599E+02  0.51100000000E-03 0.  1.
         12    1    3    3    0    0 -0.14053588545E+02  0.21221019723E+02  0.10414106472E+02  0.27500702586E+02  0.00000000000E+00 0. -1.
</event>
<event>
 7    1  0.1476909E-008  0.4614232E+02  0.7816164E-02  0.1320468E+00
        -11   -1    0    0    0    0  0.00000000000E+00  0.00000000000E+00  0.45593999997E+02  0.45594000000E+02  0.51100000000E-03 0.  1.
         11   -1    0    0    0    0 -0.00000000000E+00 -0.00000000000E+00 -0.45593999997E+02  0.45594000000E+02  0.51100000000E-03 0. -1.
    9900012    2    1    2    0    0 -0.17846426409E+02  0.35188257024E+01 -0.41209663132E+02  0.46142318682E+02  0.10000008401E+02 0.  0.
        -12    1    1    2    0    0  0.17846426409E+02 -0.35188257024E+01  0.41209663132E+02  0.45045681318E+02  0.00000000000E+00 0.  1.
         11    1    3    3    0    0 -0.91694675087E+01  0.38694243021E+01 -0.29392613044E+02  0.31031875235E+02  0.51100000000E-03 0. -1.
        -11    1    3    3    0    0 -0.66218104687E+00 -0.10117047117E+01 -0.72510254063E+00  0.14098950734E+01  0.51100000000E-03 0.  1.
         12    1    3    3    0    0 -0.80147778535E+01  0.66110611197E+00 -0.11091947548E+02  0.13700548374E+02  0.00000000000E+00 0. -1.
</event>
<event>
 7    1  0.1476909E-008  0.4614232E+02  0.7816164E-02  0.1320468E+00
        -11   -1    0    0    0    0  0.00000000000E+00  0.00000000000E+00  0.45593999997E+02  0.45594000000E+02  0.51100000000E-03 0. -1.
         11   -1    0    0    0    0 -0.00000000000E+00 -0.00000000000E+00 -0.45593999997E+02  0.45594000000E+02  0.51100000000E-03 0.  1.
    9900012    2    1    2    0    0 -0.27445158092E+02  0.63378544574E+01  0.35152645482E+02  0.46142316675E+02  0.99999900995E+01 0.  0.
        -12    1    1    2    0    0  0.27445158092E+02 -0.63378544574E+01 -0.35152645482E+02  0.45045683325E+02  0.00000000000E+00 0.  1.
         11    1    3    3    0    0 -0.17476244021E+02  0.68930701320E+01  0.19619845593E+02  0.27163796905E+02  0.51100000000E-03 0. -1.
        -11    1    3    3    0    0  0.42172853828E+00  0.56675498365E-01  0.11366996161E+01  0.12137352884E+01  0.51100000000E-03 0.  1.
         12    1    3    3    0    0 -0.10390642610E+02 -0.61189117301E+00  0.14396100272E+02  0.17764784482E+02  0.00000000000E+00 0. -1.
</event>
<event>
 7    1  0.1476909E-008  0.4614232E+02  0.7816164E-02  0.1320468E+00
        -11   -1    0    0    0    0  0.00000000000E+00  0.00000000000E+00  0.45593999997E+02  0.45594000000E+02  0.51100000000E-03 0.  1.
         11   -1    0    0    0    0 -0.00000000000E+00 -0.00000000000E+00 -0.45593999997E+02  0.45594000000E+02  0.51100000000E-03 0. -1.
    9900012    2    1    2    0    0  0.14853741256E+02  0.12455378405E+02 -0.40661326966E+02  0.46142316620E+02  0.99999895955E+01 0.  0.
        -12    1    1    2    0    0 -0.14853741256E+02 -0.12455378405E+02  0.40661326966E+02  0.45045683380E+02  0.00000000000E+00 0.  1.
         11    1    3    3    0    0  0.55057808857E+01  0.77042009677E+01 -0.24939176340E+02  0.26676410037E+02  0.51100000000E-03 0. -1.
        -11    1    3    3    0    0  0.31819308347E+01  0.15264433285E+01 -0.19410045301E+01  0.40276807121E+01  0.51100000000E-03 0.  1.
         12    1    3    3    0    0  0.61660295358E+01  0.32247341085E+01 -0.13781146097E+02  0.15438225871E+02  0.00000000000E+00 0. -1.
</event>
<event>
 7    1  0.1476909E-008  0.4614232E+02  0.7816164E-02  0.1320468E+00
        -11   -1    0    0    0    0  0.00000000000E+00  0.00000000000E+00  0.45593999997E+02  0.45594000000E+02  0.51100000000E-03 0.  1.
         11   -1    0    0    0    0 -0.00000000000E+00 -0.00000000000E+00 -0.45593999997E+02  0.45594000000E+02  0.51100000000E-03 0. -1.
    9900012    2    1    2    0    0 -0.46088270342E+01 -0.12521815391E+02 -0.43024136007E+02  0.46142318449E+02  0.10000006270E+02 0.  0.
        -12    1    1    2    0    0  0.46088270342E+01  0.12521815391E+02  0.43024136007E+02  0.45045681551E+02  0.00000000000E+00 0.  1.
         11    1    3    3    0    0  0.13657210236E+01 -0.59088737908E+00 -0.75363929547E+01  0.76818982574E+01  0.51100000000E-03 0. -1.
        -11    1    3    3    0    0 -0.57841780496E+01 -0.99602962734E+01 -0.22044328444E+02  0.24872005033E+02  0.51100000000E-03 0.  1.
        -12    1    3    3    0    0 -0.19037000814E+00 -0.19706317385E+01 -0.13443414608E+02  0.13588415158E+02  0.00000000000E+00 0.  1.
</event>
<event>
 7    1  0.1476909E-008  0.4614232E+02  0.7816164E-02  0.1320468E+00
        -11   -1    0    0    0    0  0.00000000000E+00  0.00000000000E+00  0.45593999997E+02  0.45594000000E+02  0.51100000000E-03 0. -1.
         11   -1    0    0    0    0 -0.00000000000E+00 -0.00000000000E+00 -0.45593999997E+02  0.45594000000E+02  0.51100000000E-03 0.  1.
    9900012    2    1    2    0    0 -0.28816146098E+02  0.32978725721E+02  0.10542630117E+02  0.46142315679E+02  0.99999810179E+01 0.  0.
        -12    1    1    2    0    0  0.28816146098E+02 -0.32978725721E+02 -0.10542630117E+02  0.45045684321E+02  0.00000000000E+00 0.  1.
         11    1    3    3    0    0 -0.27860946677E+01  0.60972840154E+01  0.32039853223E+01  0.74299877569E+01  0.51100000000E-03 0. -1.
        -11    1    3    3    0    0 -0.23801962563E+02  0.25424124714E+02  0.84336379561E+01  0.35833584649E+02  0.51100000000E-03 0.  1.
        -12    1    3    3    0    0 -0.22280888673E+01  0.14573169911E+01 -0.10949931612E+01  0.28787432738E+01  0.00000000000E+00 0.  1.
</event>
<event>
 7    1  0.1476909E-008  0.4614232E+02  0.7816164E-02  0.1320468E+00
        -11   -1    0    0    0    0  0.00000000000E+00  0.00000000000E+00  0.45593999997E+02  0.45594000000E+02  0.51100000000E-03 0.  1.
         11   -1    0    0    0    0 -0.00000000000E+00 -0.00000000000E+00 -0.45593999997E+02  0.45594000000E+02  0.51100000000E-03 0. -1.
    9900012    2    1    2    0    0 -0.39534432599E+02  0.21130150250E+02  0.44338482830E+01  0.46142316288E+02  0.99999865660E+01 0.  0.
        -12    1    1    2    0    0  0.39534432599E+02 -0.21130150250E+02 -0.44338482830E+01  0.45045683712E+02  0.00000000000E+00 0.  1.
         11    1    3    3    0    0 -0.20183478533E+02  0.13666654289E+02 -0.39382978541E+00  0.24378378685E+02  0.51100000000E-03 0. -1.
        -11    1    3    3    0    0 -0.27029243168E+01 -0.45858861444E+00  0.16420700208E+00  0.27464645601E+01  0.51100000000E-03 0.  1.
         12    1    3    3    0    0 -0.16648029749E+02  0.79220845750E+01  0.46634710663E+01  0.19017473042E+02  0.00000000000E+00 0. -1.
</event>
<event>
 7    1  0.1476909E-008  0.4614232E+02  0.7816164E-02  0.1320468E+00
        -11   -1    0    0    0    0  0.00000000000E+00  0.00000000000E+00  0.45593999997E+02  0.45594000000E+02  0.51100000000E-03 0. -1.
         11   -1    0    0    0    0 -0.00000000000E+00 -0.00000000000E+00 -0.45593999997E+02  0.45594000000E+02  0.51100000000E-03 0.  1.
    9900012    2    1    2    0    0 -0.43850411232E+02 -0.10298212955E+02  0.44914167662E+00  0.46142317815E+02  0.10000000489E+02 0.  0.
        -12    1    1    2    0    0  0.43850411232E+02  0.10298212955E+02 -0.44914167662E+00  0.45045682185E+02  0.00000000000E+00 0.  1.
         11    1    3    3    0    0 -0.37628995987E+02 -0.92979368028E+01 -0.15031306565E+01  0.38789848799E+02  0.51100000000E-03 0. -1.
        -11    1    3    3    0    0 -0.57022215785E+01 -0.18267719524E+01  0.21398469294E+01  0.63585668070E+01  0.51100000000E-03 0.  1.
         12    1    3    3    0    0 -0.51919366624E+00  0.82649580055E+00 -0.18757459632E+00  0.99390220876E+00  0.00000000000E+00 0. -1.
</event>
<event>
 7    1  0.1476909E-008  0.4614232E+02  0.7816164E-02  0.1320468E+00
        -11   -1    0    0    0    0  0.00000000000E+00  0.00000000000E+00  0.45593999997E+02  0.45594000000E+02  0.51100000000E-03 0.  1.
         11   -1    0    0    0    0 -0.00000000000E+00 -0.00000000000E+00 -0.45593999997E+02  0.45594000000E+02  0.51100000000E-03 0. -1.
    9900012    2    1    2    0    0  0.12559326002E+02  0.18849362050E+02 -0.38936851394E+02  0.46142317457E+02  0.99999972229E+01 0.  0.
        -12    1    1    2    0    0 -0.12559326002E+02 -0.18849362050E+02  0.38936851394E+02  0.45045682543E+02  0.00000000000E+00 0.  1.
         11    1    3    3    0    0  0.17336903178E+01  0.69999784389E+01 -0.19269014397E+02  0.20574262960E+02  0.51100000000E-03 0. -1.
        -11    1    3    3    0    0  0.73058730461E+01  0.73669684489E+01 -0.10416128647E+02  0.14701827823E+02  0.51100000000E-03 0.  1.
        -12    1    3    3    0    0  0.35197626377E+01  0.44824151623E+01 -0.92517083503E+01  0.10866226673E+02  0.00000000000E+00 0.  1.
</event>
<event>
 7    1  0.1476909E-008  0.4614232E+02  0.7816164E-02  0.1320468E+00
        -11   -1    0    0    0    0  0.00000000000E+00  0.00000000000E+00  0.45593999997E+02  0.45594000000E+02  0.51100000000E-03 0.  1.
         11   -1    0    0    0    0 -0.00000000000E+00 -0.00000000000E+00 -0.45593999997E+02  0.45594000000E+02  0.51100000000E-03 0. -1.
    9900012    2    1    2    0    0  0.20485392809E+02 -0.22955398849E+02 -0.32901547089E+02  0.46142318124E+02  0.10000003306E+02 0.  0.
        -12    1    1    2    0    0 -0.20485392809E+02  0.22955398849E+02  0.32901547089E+02  0.45045681876E+02  0.00000000000E+00 0.  1.
         11    1    3    3    0    0  0.67746453193E+01 -0.33985643297E+01 -0.77063531421E+01  0.10808974869E+02  0.51100000000E-03 0. -1.
        -11    1    3    3    0    0  0.41912537422E+01 -0.99851011418E+01 -0.14571495223E+02  0.18154815505E+02  0.51100000000E-03 0.  1.
         12    1    3    3    0    0  0.95194937471E+01 -0.95717333772E+01 -0.10623698725E+02  0.17178527749E+02  0.00000000000E+00 0. -1.
</event>
<event>
 7    1  0.1476909E-008  0.4614232E+02  0.7816164E-02  0.1320468E+00
        -11   -1    0    0    0    0  0.00000000000E+00  0.00000000000E+00  0.45593999997E+02  0.45594000000E+02  0.51100000000E-03 0. -1.
         11   -1    0    0    0    0 -0.00000000000E+00 -0.00000000000E+00 -0.45593999997E+02  0.45594000000E+02  0.51100000000E-03 0.  1.
    9900012    2    1    2    0    0  0.11303247121E+02  0.22392811265E+02  0.37415398302E+02  0.46142318498E+02  0.10000006721E+02 0.  0.
        -12    1    1    2    0    0 -0.11303247121E+02 -0.22392811265E+02 -0.37415398302E+02  0.45045681502E+02  0.00000000000E+00 0.  1.
         11    1    3    3    0    0  0.32171248909E+01  0.21572088543E+01  0.98236011014E+01  0.10559667678E+02  0.51100000000E-03 0. -1.
        -11    1    3    3    0    0  0.54850619690E+01  0.16867911283E+02  0.18986030260E+02  0.25982334021E+02  0.51100000000E-03 0.  1.
        -12    1    3    3    0    0  0.26010602615E+01  0.33676911274E+01  0.86057669408E+01  0.96003167996E+01  0.00000000000E+00 0.  1.
</event>
<event>
 7    1  0.1476909E-008  0.4614232E+02  0.7816164E-02  0.1320468E+00
        -11   -1    0    0    0    0  0.00000000000E+00  0.00000000000E+00  0.45593999997E+02  0.45594000000E+02  0.51100000000E-03 0. -1.
         11   -1    0    0    0    0 -0.00000000000E+00 -0.00000000000E+00 -0.45593999997E+02  0.45594000000E+02  0.51100000000E-03 0.  1.
    9900012    2    1    2    0    0  0.11731830224E+02  0.41209296231E+02  0.13902215109E+02  0.46142317396E+02  0.99999966743E+01 0.  0.
        -12    1    1    2    0    0 -0.11731830224E+02 -0.41209296231E+02 -0.13902215109E+02  0.45045682604E+02  0.00000000000E+00 0.  1.
         11    1    3    3    0    0  0.41205903551E+01  0.17185628605E+02  0.15161507694E+01  0.17737638198E+02  0.51100000000E-03 0.  1.
        -11    1    3    3    0    0  0.79392652877E+01  0.21678017286E+02  0.10429802286E+02  0.25332768162E+02  0.51100000000E-03 0. -1.
        -12    1    3    3    0    0 -0.32802541882E+00  0.23456503404E+01  0.19562620532E+01  0.30719110364E+01  0.00000000000E+00 0.  1.
</event>
<event>
 7    1  0.1476909E-008  0.4614232E+02  0.7816164E-02  0.1320468E+00
        -11   -1    0    0    0    0  0.00000000000E+00  0.00000000000E+00  0.45593999997E+02  0.45594000000E+02  0.51100000000E-03 0. -1.
         11   -1    0    0    0    0 -0.00000000000E+00 -0.00000000000E+00 -0.45593999997E+02  0.45594000000E+02  0.51100000000E-03 0.  1.
    9900012    2    1    2    0    0  0.32006727431E+02  0.31668921638E+02  0.13274176931E+01  0.46142320560E+02  0.10000025519E+02 0.  0.
        -12    1    1    2    0    0 -0.32006727431E+02 -0.31668921638E+02 -0.13274176931E+01  0.45045679440E+02  0.00000000000E+00 0.  1.
         11    1    3    3    0    0  0.23241795598E+02  0.23284663706E+02 -0.19878747563E+01  0.32959191022E+02  0.51100000000E-03 0. -1.
        -11    1    3    3    0    0  0.29329570129E+01  0.58646003029E+00  0.11731391846E+01  0.32128535626E+01  0.51100000000E-03 0.  1.
         12    1    3    3    0    0  0.58319748199E+01  0.77977979011E+01  0.21421532648E+01  0.99702759749E+01  0.00000000000E+00 0. -1.
</event>
<event>
 7    1  0.1476909E-008  0.4614232E+02  0.7816164E-02  0.1320468E+00
        -11   -1    0    0    0    0  0.00000000000E+00  0.00000000000E+00  0.45593999997E+02  0.45594000000E+02  0.51100000000E-03 0. -1.
         11   -1    0    0    0    0 -0.00000000000E+00 -0.00000000000E+00 -0.45593999997E+02  0.45594000000E+02  0.51100000000E-03 0.  1.
    9900012    2    1    2    0    0 -0.22865509105E+02  0.38691752354E+02 -0.30381030546E+01  0.46142320107E+02  0.10000021396E+02 0.  0.
        -12    1    1    2    0    0  0.22865509105E+02 -0.38691752354E+02  0.30381030546E+01  0.45045679893E+02  0.00000000000E+00 0.  1.
         11    1    3    3    0    0 -0.72567171428E+01  0.10796241530E+02 -0.26302952927E+01  0.13271670146E+02  0.51100000000E-03 0. -1.
        -11    1    3    3    0    0 -0.85068665613E+01  0.16122595578E+02  0.35318269382E+01  0.18568216626E+02  0.51100000000E-03 0.  1.
        -12    1    3    3    0    0 -0.71019254007E+01  0.11772915245E+02 -0.39396347002E+01  0.14302433336E+02  0.00000000000E+00 0.  1.
</event>
<event>
 7    1  0.1476909E-008  0.4614232E+02  0.7816164E-02  0.1320468E+00
        -11   -1    0    0    0    0  0.00000000000E+00  0.00000000000E+00  0.45593999997E+02  0.45594000000E+02  0.51100000000E-03 0. -1.
         11   -1    0    0    0    0 -0.00000000000E+00 -0.00000000000E+00 -0.45593999997E+02  0.45594000000E+02  0.51100000000E-03 0.  1.
    9900012    2    1    2    0    0  0.30759986231E+02  0.30102360328E+01  0.32770026543E+02  0.46142324141E+02  0.10000058179E+02 0.  0.
        -12    1    1    2    0    0 -0.30759986231E+02 -0.30102360328E+01 -0.32770026543E+02  0.45045675859E+02  0.00000000000E+00 0.  1.
         11    1    3    3    0    0  0.17707000285E+02 -0.12505700532E+01  0.13960197732E+02  0.22582933945E+02  0.51100000000E-03 0. -1.
        -11    1    3    3    0    0  0.39559925851E+01  0.81001917508E+00  0.83433538749E+01  0.92691726999E+01  0.51100000000E-03 0.  1.
         12    1    3    3    0    0  0.90969933608E+01  0.34507869109E+01  0.10466474936E+02  0.14290217497E+02  0.00000000000E+00 0. -1.
</event>
<event>
 7    1  0.1476909E-008  0.4614232E+02  0.7816164E-02  0.1320468E+00
        -11   -1    0    0    0    0  0.00000000000E+00  0.00000000000E+00  0.45593999997E+02  0.45594000000E+02  0.51100000000E-03 0. -1.
         11   -1    0    0    0    0 -0.00000000000E+00 -0.00000000000E+00 -0.45593999997E+02  0.45594000000E+02  0.51100000000E-03 0.  1.
    9900012    2    1    2    0    0  0.77877626351E+01 -0.17782459966E+02  0.40647857597E+02  0.46142318115E+02  0.10000003226E+02 0.  0.
        -12    1    1    2    0    0 -0.77877626351E+01  0.17782459966E+02 -0.40647857597E+02  0.45045681885E+02  0.00000000000E+00 0.  1.
         11    1    3    3    0    0 -0.16029393405E+01 -0.23511761620E+00  0.26333842293E+01  0.30918291646E+01  0.51100000000E-03 0. -1.
        -11    1    3    3    0    0  0.35038204304E+01 -0.10038955993E+02  0.21226457178E+02  0.23740679848E+02  0.51100000000E-03 0.  1.
        -12    1    3    3    0    0  0.58868815451E+01 -0.75083863564E+01  0.16788016189E+02  0.19309809102E+02  0.00000000000E+00 0.  1.
</event>
<event>
 7    1  0.1476909E-008  0.4614232E+02  0.7816164E-02  0.1320468E+00
        -11   -1    0    0    0    0  0.00000000000E+00  0.00000000000E+00  0.45593999997E+02  0.45594000000E+02  0.51100000000E-03 0.  1.
         11   -1    0    0    0    0 -0.00000000000E+00 -0.00000000000E+00 -0.45593999997E+02  0.45594000000E+02  0.51100000000E-03 0. -1.
    9900012    2    1    2    0    0  0.21804380728E+02 -0.27152716417E+02 -0.28572933602E+02  0.46142316939E+02  0.99999925054E+01 0.  0.
        -12    1    1    2    0    0 -0.21804380728E+02  0.27152716417E+02  0.28572933602E+02  0.45045683061E+02  0.00000000000E+00 0.  1.
         11    1    3    3    0    0  0.83951059625E+01 -0.59708244097E+01 -0.40515234174E+01  0.11069931821E+02  0.51100000000E-03 0. -1.
        -11    1    3    3    0    0  0.26162920558E+01 -0.38094336297E+01 -0.43558661297E+01  0.63506171906E+01  0.51100000000E-03 0.  1.
         12    1    3    3    0    0  0.10792982710E+02 -0.17372458378E+02 -0.20165544055E+02  0.28721767928E+02  0.00000000000E+00 0. -1.
</event>
<event>
 7    1  0.1476909E-008  0.4614232E+02  0.7816164E-02  0.1320468E+00
        -11   -1    0    0    0    0  0.00000000000E+00  0.00000000000E+00  0.45593999997E+02  0.45594000000E+02  0.51100000000E-03 0.  1.
         11   -1    0    0    0    0 -0.00000000000E+00 -0.00000000000E+00 -0.45593999997E+02  0.45594000000E+02  0.51100000000E-03 0. -1.
    9900012    2    1    2    0    0 -0.61044699192E+01 -0.40514900538E+02 -0.18718753749E+02  0.46142318070E+02  0.10000002821E+02 0.  0.
        -12    1    1    2    0    0  0.61044699192E+01  0.40514900538E+02  0.18718753749E+02  0.45045681930E+02  0.00000000000E+00 0.  1.
         11    1    3    3    0    0 -0.24572009090E+01 -0.13058113103E+02 -0.11200053010E+02  0.17377955628E+02  0.51100000000E-03 0.  1.
        -11    1    3    3    0    0 -0.28439369353E+01 -0.20894856729E+02 -0.65598813806E+01  0.22084271757E+02  0.51100000000E-03 0. -1.
        -12    1    3    3    0    0 -0.80333207479E+00 -0.65619307053E+01 -0.95881935753E+00  0.66800906853E+01  0.00000000000E+00 0.  1.
</event>
<event>
 7    1  0.1476909E-008  0.4614232E+02  0.7816164E-02  0.1320468E+00
        -11   -1    0    0    0    0  0.00000000000E+00  0.00000000000E+00  0.45593999997E+02  0.45594000000E+02  0.51100000000E-03 0. -1.
         11   -1    0    0    0    0 -0.00000000000E+00 -0.00000000000E+00 -0.45593999997E+02  0.45594000000E+02  0.51100000000E-03 0.  1.
    9900012    2    1    2    0    0 -0.10477907535E+02 -0.16660270107E+02  0.40518666092E+02  0.46142318207E+02  0.10000004064E+02 0.  0.
        -12    1    1    2    0    0  0.10477907535E+02  0.16660270107E+02 -0.40518666092E+02  0.45045681793E+02  0.00000000000E+00 0.  1.
         11    1    3    3    0    0 -0.26329714034E+00 -0.48387628753E+00  0.72504824290E+01  0.72713793299E+01  0.51100000000E-03 0. -1.
        -11    1    3    3    0    0 -0.54907750752E+01 -0.36758393678E+01  0.13185535476E+02  0.14748516943E+02  0.51100000000E-03 0.  1.
        -12    1    3    3    0    0 -0.47238353192E+01 -0.12500554452E+02  0.20082648187E+02  0.24122421933E+02  0.00000000000E+00 0.  1.
</event>
<event>
 7    1  0.1476909E-008  0.4614232E+02  0.7816164E-02  0.1320468E+00
        -11   -1    0    0    0    0  0.00000000000E+00  0.00000000000E+00  0.45593999997E+02  0.45594000000E+02  0.51100000000E-03 0.  1.
         11   -1    0    0    0    0 -0.00000000000E+00 -0.00000000000E+00 -0.45593999997E+02  0.45594000000E+02  0.51100000000E-03 0. -1.
    9900012    2    1    2    0    0 -0.37487255091E+02 -0.25857920066E+01 -0.24842159521E+02  0.46142317585E+02  0.99999983986E+01 0.  0.
        -12    1    1    2    0    0  0.37487255091E+02  0.25857920066E+01  0.24842159521E+02  0.45045682415E+02  0.00000000000E+00 0.  1.
         11    1    3    3    0    0 -0.11181484967E+02 -0.22696956328E+01 -0.99084266457E+01  0.15111387864E+02  0.51100000000E-03 0. -1.
        -11    1    3    3    0    0 -0.13241972084E+02 -0.35598484800E+01 -0.82462887639E+01  0.16000738249E+02  0.51100000000E-03 0.  1.
         12    1    3    3    0    0 -0.13063798040E+02  0.32437521062E+01 -0.66874441112E+01  0.15030191472E+02  0.00000000000E+00 0. -1.
</event>
<event>
 7    1  0.1476909E-008  0.4614232E+02  0.7816164E-02  0.1320468E+00
        -11   -1    0    0    0    0  0.00000000000E+00  0.00000000000E+00  0.45593999997E+02  0.45594000000E+02  0.51100000000E-03 0.  1.
         11   -1    0    0    0    0 -0.00000000000E+00 -0.00000000000E+00 -0.45593999997E+02  0.45594000000E+02  0.51100000000E-03 0. -1.
    9900012    2    1    2    0    0 -0.15858816874E+02  0.42160224689E+02  0.35617825301E+00  0.46142317838E+02  0.10000000701E+02 0.  0.
        -12    1    1    2    0    0  0.15858816874E+02 -0.42160224689E+02 -0.35617825301E+00  0.45045682162E+02  0.00000000000E+00 0.  1.
         11    1    3    3    0    0 -0.22664978550E+01  0.11768624502E+01  0.95867308120E+00  0.27278328561E+01  0.51100000000E-03 0.  1.
        -11    1    3    3    0    0 -0.10826611724E+02  0.31786475648E+02 -0.23144278679E+01  0.33659354304E+02  0.51100000000E-03 0. -1.
         12    1    3    3    0    0 -0.27657072953E+01  0.91968865906E+01  0.17119330397E+01  0.97551306776E+01  0.00000000000E+00 0. -1.
</event>
<event>
 7    1  0.1476909E-008  0.4614232E+02  0.7816164E-02  0.1320468E+00
        -11   -1    0    0    0    0  0.00000000000E+00  0.00000000000E+00  0.45593999997E+02  0.45594000000E+02  0.51100000000E-03 0.  1.
         11   -1    0    0    0    0 -0.00000000000E+00 -0.00000000000E+00 -0.45593999997E+02  0.45594000000E+02  0.51100000000E-03 0. -1.
    9900012    2    1    2    0    0  0.73569948101E+01 -0.42516053510E+02 -0.12937281605E+02  0.46142318364E+02  0.10000005496E+02 0.  0.
        -12    1    1    2    0    0 -0.73569948101E+01  0.42516053510E+02  0.12937281605E+02  0.45045681636E+02  0.00000000000E+00 0.  1.
         11    1    3    3    0    0  0.11710491474E+01 -0.23976369709E+02 -0.74671322548E+01  0.25139525152E+02  0.51100000000E-03 0. -1.
        -11    1    3    3    0    0  0.58905399461E+01 -0.14888628071E+02 -0.23342009946E+01  0.16180797299E+02  0.51100000000E-03 0.  1.
         12    1    3    3    0    0  0.29540571659E+00 -0.36510557304E+01 -0.31359483559E+01  0.48219959120E+01  0.00000000000E+00 0. -1.
</event>
<event>
 7    1  0.1476909E-008  0.4614232E+02  0.7816164E-02  0.1320468E+00
        -11   -1    0    0    0    0  0.00000000000E+00  0.00000000000E+00  0.45593999997E+02  0.45594000000E+02  0.51100000000E-03 0.  1.
         11   -1    0    0    0    0 -0.00000000000E+00 -0.00000000000E+00 -0.45593999997E+02  0.45594000000E+02  0.51100000000E-03 0. -1.
    9900012    2    1    2    0    0  0.20609008682E+02  0.39722018369E+02 -0.51520364936E+01  0.46142318052E+02  0.10000002651E+02 0.  0.
        -12    1    1    2    0    0 -0.20609008682E+02 -0.39722018369E+02  0.51520364936E+01  0.45045681948E+02  0.00000000000E+00 0.  1.
         11    1    3    3    0    0  0.16425790886E+02  0.27676085751E+02 -0.41427874590E+01  0.32448960182E+02  0.51100000000E-03 0. -1.
        -11    1    3    3    0    0  0.20583708531E+01  0.11109372082E+02 -0.46329978460E+00  0.11307947894E+02  0.51100000000E-03 0.  1.
        -12    1    3    3    0    0  0.21248469433E+01  0.93656053651E+00 -0.54594924998E+00  0.23854099762E+01  0.00000000000E+00 0.  1.
</event>
<event>
 7    1  0.1476909E-008  0.4614232E+02  0.7816164E-02  0.1320468E+00
        -11   -1    0    0    0    0  0.00000000000E+00  0.00000000000E+00  0.45593999997E+02  0.45594000000E+02  0.51100000000E-03 0.  1.
         11   -1    0    0    0    0 -0.00000000000E+00 -0.00000000000E+00 -0.45593999997E+02  0.45594000000E+02  0.51100000000E-03 0. -1.
    9900012    2    1    2    0    0 -0.13097601040E+02 -0.28437875552E+02 -0.32386009319E+02  0.46142317426E+02  0.99999969485E+01 0.  0.
        -12    1    1    2    0    0  0.13097601040E+02  0.28437875552E+02  0.32386009319E+02  0.45045682574E+02  0.00000000000E+00 0.  1.
         11    1    3    3    0    0 -0.20793435262E+01 -0.17484963457E+01 -0.66239408792E+00  0.27963682089E+01  0.51100000000E-03 0. -1.
        -11    1    3    3    0    0 -0.24522493100E+01 -0.97871074916E+01 -0.73996609721E+01  0.12512233314E+02  0.51100000000E-03 0.  1.
         12    1    3    3    0    0 -0.85660082038E+01 -0.16902271715E+02 -0.24323954259E+02  0.30833715904E+02  0.00000000000E+00 0. -1.
</event>
<event>
 7    1  0.1476909E-008  0.4614232E+02  0.7816164E-02  0.1320468E+00
        -11   -1    0    0    0    0  0.00000000000E+00  0.00000000000E+00  0.45593999997E+02  0.45594000000E+02  0.51100000000E-03 0. -1.
         11   -1    0    0    0    0 -0.00000000000E+00 -0.00000000000E+00 -0.45593999997E+02  0.45594000000E+02  0.51100000000E-03 0.  1.
    9900012    2    1    2    0    0  0.77542369924E+01 -0.94251415015E+01  0.43360717847E+02  0.46142319454E+02  0.10000015437E+02 0.  0.
        -12    1    1    2    0    0 -0.77542369924E+01  0.94251415015E+01 -0.43360717847E+02  0.45045680546E+02  0.00000000000E+00 0.  1.
         11    1    3    3    0    0  0.36563686244E+01  0.26302266735E+00  0.10848564223E+02  0.11451181529E+02  0.51100000000E-03 0.  1.
        -11    1    3    3    0    0  0.19039439465E+00  0.89172543991E-02  0.84950509217E+01  0.84971889450E+01  0.51100000000E-03 0. -1.
        -12    1    3    3    0    0  0.39074739733E+01 -0.96970814233E+01  0.24017102702E+02  0.26193948980E+02  0.00000000000E+00 0.  1.
</event>
<event>
 7    1  0.1476909E-008  0.4614232E+02  0.7816164E-02  0.1320468E+00
        -11   -1    0    0    0    0  0.00000000000E+00  0.00000000000E+00  0.45593999997E+02  0.45594000000E+02  0.51100000000E-03 0.  1.
         11   -1    0    0    0    0 -0.00000000000E+00 -0.00000000000E+00 -0.45593999997E+02  0.45594000000E+02  0.51100000000E-03 0. -1.
    9900012    2    1    2    0    0  0.11960793243E+02 -0.16376674053E+02 -0.40222599072E+02  0.46142317586E+02  0.99999984064E+01 0.  0.
        -12    1    1    2    0    0 -0.11960793243E+02  0.16376674053E+02  0.40222599072E+02  0.45045682414E+02  0.00000000000E+00 0.  1.
         11    1    3    3    0    0  0.84035152714E+01 -0.62980950633E+01 -0.21940794435E+02  0.24324545855E+02  0.51100000000E-03 0. -1.
        -11    1    3    3    0    0  0.48115395707E+01 -0.84899424177E+01 -0.13817771994E+02  0.16916289736E+02  0.51100000000E-03 0.  1.
        -12    1    3    3    0    0 -0.12542615993E+01 -0.15886365721E+01 -0.44640326426E+01  0.49014819955E+01  0.00000000000E+00 0.  1.
</event>
<event>
 7    1  0.1476909E-008  0.4614232E+02  0.7816164E-02  0.1320468E+00
        -11   -1    0    0    0    0  0.00000000000E+00  0.00000000000E+00  0.45593999997E+02  0.45594000000E+02  0.51100000000E-03 0. -1.
         11   -1    0    0    0    0 -0.00000000000E+00 -0.00000000000E+00 -0.45593999997E+02  0.45594000000E+02  0.51100000000E-03 0.  1.
    9900012    2    1    2    0    0 -0.37177602290E+02  0.54135324858E+01  0.24852226746E+02  0.46142316297E+02  0.99999866508E+01 0.  0.
        -12    1    1    2    0    0  0.37177602290E+02 -0.54135324858E+01 -0.24852226746E+02  0.45045683703E+02  0.00000000000E+00 0.  1.
         11    1    3    3    0    0 -0.49986193293E+01  0.15904636335E+01  0.35490758034E+01  0.63333805419E+01  0.51100000000E-03 0. -1.
        -11    1    3    3    0    0 -0.20355955810E+02  0.32671107524E+01  0.82971303483E+01  0.22223440820E+02  0.51100000000E-03 0.  1.
        -12    1    3    3    0    0 -0.11823027151E+02  0.55595809992E+00  0.13006020594E+02  0.17585494935E+02  0.00000000000E+00 0.  1.
</event>
<event>
 7    1  0.1476909E-008  0.4614232E+02  0.7816164E-02  0.1320468E+00
        -11   -1    0    0    0    0  0.00000000000E+00  0.00000000000E+00  0.45593999997E+02  0.45594000000E+02  0.51100000000E-03 0.  1.
         11   -1    0    0    0    0 -0.00000000000E+00 -0.00000000000E+00 -0.45593999997E+02  0.45594000000E+02  0.51100000000E-03 0. -1.
    9900012    2    1    2    0    0  0.29642673079E+02 -0.16834869190E+02 -0.29445076559E+02  0.46142318503E+02  0.10000006765E+02 0.  0.
        -12    1    1    2    0    0 -0.29642673079E+02  0.16834869190E+02  0.29445076559E+02  0.45045681497E+02  0.00000000000E+00 0.  1.
         11    1    3    3    0    0  0.55471729221E+00  0.43871109232E+00 -0.45042915859E+00  0.83848994319E+00  0.51100000000E-03 0. -1.
        -11    1    3    3    0    0  0.72928607797E+01 -0.54337419555E+00 -0.54613731847E+01  0.91273036102E+01  0.51100000000E-03 0.  1.
        -12    1    3    3    0    0  0.21795095007E+02 -0.16730206087E+02 -0.23533274216E+02  0.36176524950E+02  0.00000000000E+00 0.  1.
</event>
<event>
 7    1  0.1476909E-008  0.4614232E+02  0.7816164E-02  0.1320468E+00
        -11   -1    0    0    0    0  0.00000000000E+00  0.00000000000E+00  0.45593999997E+02  0.45594000000E+02  0.51100000000E-03 0.  1.
         11   -1    0    0    0    0 -0.00000000000E+00 -0.00000000000E+00 -0.45593999997E+02  0.45594000000E+02  0.51100000000E-03 0. -1.
    9900012    2    1    2    0    0  0.93387339269E+01  0.43949538909E+02  0.32155160210E+01  0.46142318021E+02  0.10000002373E+02 0.  0.
        -12    1    1    2    0    0 -0.93387339269E+01 -0.43949538909E+02 -0.32155160210E+01  0.45045681979E+02  0.00000000000E+00 0.  1.
         11    1    3    3    0    0  0.35445147748E+01  0.21815333535E+02 -0.27729053029E+01  0.22274679937E+02  0.51100000000E-03 0. -1.
        -11    1    3    3    0    0  0.14906656967E+01  0.91397362100E+01  0.37791262429E+01  0.10001932695E+02  0.51100000000E-03 0.  1.
         12    1    3    3    0    0  0.43035534554E+01  0.12994469164E+02  0.22092950809E+01  0.13865705390E+02  0.00000000000E+00 0. -1.
</event>
<event>
 7    1  0.1476909E-008  0.4614232E+02  0.7816164E-02  0.1320468E+00
        -11   -1    0    0    0    0  0.00000000000E+00  0.00000000000E+00  0.45593999997E+02  0.45594000000E+02  0.51100000000E-03 0.  1.
         11   -1    0    0    0    0 -0.00000000000E+00 -0.00000000000E+00 -0.45593999997E+02  0.45594000000E+02  0.51100000000E-03 0. -1.
    9900012    2    1    2    0    0 -0.30955078641E+01  0.29909738665E+01 -0.44839551722E+02  0.46142317718E+02  0.99999996069E+01 0.  0.
        -12    1    1    2    0    0  0.30955078641E+01 -0.29909738665E+01  0.44839551722E+02  0.45045682282E+02  0.00000000000E+00 0.  1.
         11    1    3    3    0    0 -0.43267074780E+01  0.44720287916E+01 -0.16782767109E+02  0.17899181859E+02  0.51100000000E-03 0. -1.
        -11    1    3    3    0    0  0.20555145031E+01 -0.10914032899E+01 -0.20140131971E+02  0.20274151451E+02  0.51100000000E-03 0.  1.
         12    1    3    3    0    0 -0.82431488915E+00 -0.38965163523E+00 -0.79166526424E+01  0.79689844079E+01  0.00000000000E+00 0. -1.
</event>
<event>
 7    1  0.1476909E-008  0.4614232E+02  0.7816164E-02  0.1320468E+00
        -11   -1    0    0    0    0  0.00000000000E+00  0.00000000000E+00  0.45593999997E+02  0.45594000000E+02  0.51100000000E-03 0.  1.
         11   -1    0    0    0    0 -0.00000000000E+00 -0.00000000000E+00 -0.45593999997E+02  0.45594000000E+02  0.51100000000E-03 0. -1.
    9900012    2    1    2    0    0 -0.17658636134E+02  0.18411472905E+02 -0.37125514172E+02  0.46142316886E+02  0.99999920227E+01 0.  0.
        -12    1    1    2    0    0  0.17658636134E+02 -0.18411472905E+02  0.37125514172E+02  0.45045683114E+02  0.00000000000E+00 0.  1.
         11    1    3    3    0    0 -0.10902867436E+02  0.10756362675E+02 -0.28920284495E+02  0.32725444411E+02  0.51100000000E-03 0. -1.
        -11    1    3    3    0    0 -0.69498048273E+01  0.76580955987E+01 -0.77536908297E+01  0.12925398914E+02  0.51100000000E-03 0.  1.
         12    1    3    3    0    0  0.19403612920E+00 -0.29853683343E-02 -0.45153884692E+00  0.49147356199E+00  0.00000000000E+00 0. -1.
</event>
<event>
 7    1  0.1476909E-008  0.4614232E+02  0.7816164E-02  0.1320468E+00
        -11   -1    0    0    0    0  0.00000000000E+00  0.00000000000E+00  0.45593999997E+02  0.45594000000E+02  0.51100000000E-03 0. -1.
         11   -1    0    0    0    0 -0.00000000000E+00 -0.00000000000E+00 -0.45593999997E+02  0.45594000000E+02  0.51100000000E-03 0.  1.
    9900012    2    1    2    0    0 -0.10609850378E+01  0.19770317906E+01  0.44989767676E+02  0.46142317193E+02  0.99999948240E+01 0.  0.
        -12    1    1    2    0    0  0.10609850378E+01 -0.19770317906E+01 -0.44989767676E+02  0.45045682807E+02  0.00000000000E+00 0.  1.
         11    1    3    3    0    0 -0.38725246152E+01 -0.49629828337E+00  0.31258734047E+02  0.31501606521E+02  0.51100000000E-03 0. -1.
        -11    1    3    3    0    0  0.30278814651E+01  0.31308682612E+01  0.12357629079E+02  0.13102724868E+02  0.51100000000E-03 0.  1.
        -12    1    3    3    0    0 -0.21634188767E+00 -0.65753818726E+00  0.13734045496E+01  0.15379858052E+01  0.00000000000E+00 0.  1.
</event>
<event>
 7    1  0.1476909E-008  0.4614232E+02  0.7816164E-02  0.1320468E+00
        -11   -1    0    0    0    0  0.00000000000E+00  0.00000000000E+00  0.45593999997E+02  0.45594000000E+02  0.51100000000E-03 0.  1.
         11   -1    0    0    0    0 -0.00000000000E+00 -0.00000000000E+00 -0.45593999997E+02  0.45594000000E+02  0.51100000000E-03 0. -1.
    9900012    2    1    2    0    0  0.71818868131E+01  0.26311209831E+02 -0.35850440793E+02  0.46142319120E+02  0.10000012388E+02 0.  0.
        -12    1    1    2    0    0 -0.71818868131E+01 -0.26311209831E+02  0.35850440793E+02  0.45045680880E+02  0.00000000000E+00 0.  1.
         11    1    3    3    0    0  0.47084583556E+01  0.20511487464E+02 -0.24998047214E+02  0.32677103037E+02  0.51100000000E-03 0. -1.
        -11    1    3    3    0    0  0.26698767704E+01  0.52870142034E+01 -0.11299119360E+02  0.12757384518E+02  0.51100000000E-03 0.  1.
        -12    1    3    3    0    0 -0.19644831278E+00  0.51270816291E+00  0.44672578209E+00  0.70783156491E+00  0.00000000000E+00 0.  1.
</event>
<event>
 7    1  0.1476909E-008  0.4614231E+02  0.7816164E-02  0.1320468E+00
        -11   -1    0    0    0    0  0.00000000000E+00  0.00000000000E+00  0.45593999997E+02  0.45594000000E+02  0.51100000000E-03 0.  1.
         11   -1    0    0    0    0 -0.00000000000E+00 -0.00000000000E+00 -0.45593999997E+02  0.45594000000E+02  0.51100000000E-03 0. -1.
    9900012    2    1    2    0    0 -0.15270498285E+02 -0.63356249061E+01 -0.41902097752E+02  0.46142311451E+02  0.99999424603E+01 0.  0.
        -12    1    1    2    0    0  0.15270498285E+02  0.63356249061E+01  0.41902097752E+02  0.45045688549E+02  0.00000000000E+00 0.  1.
         11    1    3    3    0    0 -0.16641062464E+02 -0.61106451218E+01 -0.39568850642E+02  0.43358492653E+02  0.51100000000E-03 0. -1.
        -11    1    3    3    0    0  0.10657213813E+01 -0.35745502741E+00 -0.14142148469E+01  0.18065270697E+01  0.51100000000E-03 0.  1.
         12    1    3    3    0    0  0.30484279830E+00  0.13247524308E+00 -0.91903226366E+00  0.97729172888E+00  0.00000000000E+00 0. -1.
</event>
<event>
 7    1  0.1476909E-008  0.4614232E+02  0.7816164E-02  0.1320468E+00
        -11   -1    0    0    0    0  0.00000000000E+00  0.00000000000E+00  0.45593999997E+02  0.45594000000E+02  0.51100000000E-03 0.  1.
         11   -1    0    0    0    0 -0.00000000000E+00 -0.00000000000E+00 -0.45593999997E+02  0.45594000000E+02  0.51100000000E-03 0. -1.
    9900012    2    1    2    0    0 -0.11745251948E+02 -0.23949540241E+02 -0.36298513756E+02  0.46142317388E+02  0.99999965933E+01 0.  0.
        -12    1    1    2    0    0  0.11745251948E+02  0.23949540241E+02  0.36298513756E+02  0.45045682612E+02  0.00000000000E+00 0.  1.
         11    1    3    3    0    0 -0.97802316524E+01 -0.18208243682E+02 -0.33113373445E+02  0.39034453631E+02  0.51100000000E-03 0. -1.
        -11    1    3    3    0    0  0.62188155072E-01 -0.25977631399E+01 -0.15490795936E+01  0.30252088434E+01  0.51100000000E-03 0.  1.
        -12    1    3    3    0    0 -0.20272084511E+01 -0.31435334194E+01 -0.16360607182E+01  0.40826549128E+01  0.00000000000E+00 0.  1.
</event>
<event>
 7    1  0.1476909E-008  0.4614232E+02  0.7816164E-02  0.1320468E+00
        -11   -1    0    0    0    0  0.00000000000E+00  0.00000000000E+00  0.45593999997E+02  0.45594000000E+02  0.51100000000E-03 0.  1.
         11   -1    0    0    0    0 -0.00000000000E+00 -0.00000000000E+00 -0.45593999997E+02  0.45594000000E+02  0.51100000000E-03 0. -1.
    9900012    2    1    2    0    0 -0.14438989663E+02 -0.17830500207E+02 -0.38764705025E+02  0.46142317456E+02  0.99999972195E+01 0.  0.
        -12    1    1    2    0    0  0.14438989663E+02  0.17830500207E+02  0.38764705025E+02  0.45045682544E+02  0.00000000000E+00 0.  1.
         11    1    3    3    0    0  0.52459810561E+00 -0.28773253538E+01 -0.29100352280E+01  0.41258344190E+01  0.51100000000E-03 0. -1.
        -11    1    3    3    0    0 -0.14569276223E+02 -0.15241262595E+02 -0.33287424321E+02  0.39403204354E+02  0.51100000000E-03 0.  1.
        -12    1    3    3    0    0 -0.39431154518E+00  0.28808774120E+00 -0.25672454762E+01  0.26132786832E+01  0.00000000000E+00 0.  1.
</event>
<event>
 7    1  0.1476909E-008  0.4614232E+02  0.7816164E-02  0.1320468E+00
        -11   -1    0    0    0    0  0.00000000000E+00  0.00000000000E+00  0.45593999997E+02  0.45594000000E+02  0.51100000000E-03 0. -1.
         11   -1    0    0    0    0 -0.00000000000E+00 -0.00000000000E+00 -0.45593999997E+02  0.45594000000E+02  0.51100000000E-03 0.  1.
    9900012    2    1    2    0    0 -0.31522988847E+02  0.28613482207E+02 -0.14720163174E+02  0.46142318811E+02  0.10000009576E+02 0.  0.
        -12    1    1    2    0    0  0.31522988847E+02 -0.28613482207E+02  0.14720163174E+02  0.45045681189E+02  0.00000000000E+00 0.  1.
         11    1    3    3    0    0 -0.53642117738E+01  0.98603416153E+01 -0.48258882724E+01  0.12218441087E+02  0.51100000000E-03 0.  1.
        -11    1    3    3    0    0 -0.22053423410E+01  0.17365670370E+01  0.30044299489E+00  0.28230242948E+01  0.51100000000E-03 0. -1.
        -12    1    3    3    0    0 -0.23953434732E+02  0.17016573555E+02 -0.10194717897E+02  0.31100853429E+02  0.00000000000E+00 0.  1.
</event>
<event>
 7    1  0.1476909E-008  0.4614232E+02  0.7816164E-02  0.1320468E+00
        -11   -1    0    0    0    0  0.00000000000E+00  0.00000000000E+00  0.45593999997E+02  0.45594000000E+02  0.51100000000E-03 0. -1.
         11   -1    0    0    0    0 -0.00000000000E+00 -0.00000000000E+00 -0.45593999997E+02  0.45594000000E+02  0.51100000000E-03 0.  1.
    9900012    2    1    2    0    0  0.79536802512E+01  0.20295380487E+02  0.39420172645E+02  0.46142317521E+02  0.99999978085E+01 0.  0.
        -12    1    1    2    0    0 -0.79536802512E+01 -0.20295380487E+02 -0.39420172645E+02  0.45045682479E+02  0.00000000000E+00 0.  1.
         11    1    3    3    0    0  0.75154199124E+01  0.17158377246E+02  0.33012165793E+02  0.37956482145E+02  0.51100000000E-03 0. -1.
        -11    1    3    3    0    0 -0.17848678148E+01  0.14705416428E+01  0.30426594943E+01  0.38217826859E+01  0.51100000000E-03 0.  1.
         12    1    3    3    0    0  0.22231281536E+01  0.16664615980E+01  0.33653473577E+01  0.43640526902E+01  0.00000000000E+00 0. -1.
</event>
<event>
 7    1  0.1476909E-008  0.4614232E+02  0.7816164E-02  0.1320468E+00
        -11   -1    0    0    0    0  0.00000000000E+00  0.00000000000E+00  0.45593999997E+02  0.45594000000E+02  0.51100000000E-03 0.  1.
         11   -1    0    0    0    0 -0.00000000000E+00 -0.00000000000E+00 -0.45593999997E+02  0.45594000000E+02  0.51100000000E-03 0. -1.
    9900012    2    1    2    0    0 -0.90340020734E+01  0.41602098610E+02 -0.14722962709E+02  0.46142318374E+02  0.10000005590E+02 0.  0.
        -12    1    1    2    0    0  0.90340020734E+01 -0.41602098610E+02  0.14722962709E+02  0.45045681626E+02  0.00000000000E+00 0.  1.
         11    1    3    3    0    0 -0.40642791013E+01  0.25283580062E+02 -0.88752989656E+01  0.27102559240E+02  0.51100000000E-03 0. -1.
        -11    1    3    3    0    0  0.45816971990E+00  0.21266523224E+00 -0.13755135761E+01  0.14653272168E+01  0.51100000000E-03 0.  1.
        -12    1    3    3    0    0 -0.54278926920E+01  0.16105853316E+02 -0.44721501675E+01  0.17574431918E+02  0.00000000000E+00 0.  1.
</event>
<event>
 7    1  0.1476909E-008  0.4614232E+02  0.7816164E-02  0.1320468E+00
        -11   -1    0    0    0    0  0.00000000000E+00  0.00000000000E+00  0.45593999997E+02  0.45594000000E+02  0.51100000000E-03 0. -1.
         11   -1    0    0    0    0 -0.00000000000E+00 -0.00000000000E+00 -0.45593999997E+02  0.45594000000E+02  0.51100000000E-03 0.  1.
    9900012    2    1    2    0    0  0.16080635158E+02  0.22873699590E+02 -0.35317425520E+02  0.46142317572E+02  0.99999982798E+01 0.  0.
        -12    1    1    2    0    0 -0.16080635158E+02 -0.22873699590E+02  0.35317425520E+02  0.45045682428E+02  0.00000000000E+00 0.  1.
         11    1    3    3    0    0  0.49065535329E+01  0.11689228433E+02 -0.13889146669E+02  0.18804805885E+02  0.51100000000E-03 0. -1.
        -11    1    3    3    0    0  0.18449844990E+01  0.39360565335E+01 -0.99840985250E+01  0.10889386229E+02  0.51100000000E-03 0.  1.
         12    1    3    3    0    0  0.93290971263E+01  0.72484146239E+01 -0.11444180325E+02  0.16448125458E+02  0.00000000000E+00 0. -1.
</event>
<event>
 7    1  0.1476909E-008  0.4614232E+02  0.7816164E-02  0.1320468E+00
        -11   -1    0    0    0    0  0.00000000000E+00  0.00000000000E+00  0.45593999997E+02  0.45594000000E+02  0.51100000000E-03 0. -1.
         11   -1    0    0    0    0 -0.00000000000E+00 -0.00000000000E+00 -0.45593999997E+02  0.45594000000E+02  0.51100000000E-03 0.  1.
    9900012    2    1    2    0    0 -0.36296009600E+02  0.25944499633E+02  0.62125812181E+01  0.46142317194E+02  0.99999948262E+01 0.  0.
        -12    1    1    2    0    0  0.36296009600E+02 -0.25944499633E+02 -0.62125812181E+01  0.45045682806E+02  0.00000000000E+00 0.  1.
         11    1    3    3    0    0 -0.20328021701E+02  0.16384526940E+02  0.14422681498E+01  0.26148830318E+02  0.51100000000E-03 0. -1.
        -11    1    3    3    0    0 -0.69431687782E+01  0.73746023941E+01  0.26182495632E+01  0.10461719944E+02  0.51100000000E-03 0.  1.
         12    1    3    3    0    0 -0.90248191207E+01  0.21853702988E+01  0.21520635052E+01  0.95317669314E+01  0.00000000000E+00 0. -1.
</event>
<event>
 7    1  0.1476909E-008  0.4614232E+02  0.7816164E-02  0.1320468E+00
        -11   -1    0    0    0    0  0.00000000000E+00  0.00000000000E+00  0.45593999997E+02  0.45594000000E+02  0.51100000000E-03 0. -1.
         11   -1    0    0    0    0 -0.00000000000E+00 -0.00000000000E+00 -0.45593999997E+02  0.45594000000E+02  0.51100000000E-03 0.  1.
    9900012    2    1    2    0    0 -0.12089228818E+02 -0.15509493597E+02  0.40526778519E+02  0.46142316276E+02  0.99999864583E+01 0.  0.
        -12    1    1    2    0    0  0.12089228818E+02  0.15509493597E+02 -0.40526778519E+02  0.45045683724E+02  0.00000000000E+00 0.  1.
         11    1    3    3    0    0 -0.11562381560E+01 -0.30797069993E+01  0.28540062454E+01  0.43550928561E+01  0.51100000000E-03 0.  1.
        -11    1    3    3    0    0 -0.37843753443E+01 -0.37411455507E+00  0.54230521723E+01  0.66235151975E+01  0.51100000000E-03 0. -1.
         12    1    3    3    0    0 -0.71486153174E+01 -0.12055672042E+02  0.32249720101E+02  0.35163708223E+02  0.00000000000E+00 0. -1.
</event>
<event>
 7    1  0.1476909E-008  0.4614231E+02  0.7816164E-02  0.1320468E+00
        -11   -1    0    0    0    0  0.00000000000E+00  0.00000000000E+00  0.45593999997E+02  0.45594000000E+02  0.51100000000E-03 0.  1.
         11   -1    0    0    0    0 -0.00000000000E+00 -0.00000000000E+00 -0.45593999997E+02  0.45594000000E+02  0.51100000000E-03 0. -1.
    9900012    2    1    2    0    0 -0.19285891333E+02  0.11884670426E+02 -0.38934853382E+02  0.46142314263E+02  0.99999681055E+01 0.  0.
        -12    1    1    2    0    0  0.19285891333E+02 -0.11884670426E+02  0.38934853382E+02  0.45045685737E+02  0.00000000000E+00 0.  1.
         11    1    3    3    0    0 -0.53730151842E+01  0.13852025232E+01 -0.40155384255E+01  0.68492793276E+01  0.51100000000E-03 0.  1.
        -11    1    3    3    0    0 -0.32063461298E+01  0.26110106617E+01 -0.13132389505E+02  0.13767995008E+02  0.51100000000E-03 0. -1.
        -12    1    3    3    0    0 -0.10706530019E+02  0.78884572409E+01 -0.21786925451E+02  0.25525039927E+02  0.00000000000E+00 0.  1.
</event>
<event>
 7    1  0.1476909E-008  0.4614232E+02  0.7816164E-02  0.1320468E+00
        -11   -1    0    0    0    0  0.00000000000E+00  0.00000000000E+00  0.45593999997E+02  0.45594000000E+02  0.51100000000E-03 0. -1.
         11   -1    0    0    0    0 -0.00000000000E+00 -0.00000000000E+00 -0.45593999997E+02  0.45594000000E+02  0.51100000000E-03 0.  1.
    9900012    2    1    2    0    0  0.23143912107E+02  0.36392496564E+02  0.13002271196E+02  0.46142317299E+02  0.99999957825E+01 0.  0.
        -12    1    1    2    0    0 -0.23143912107E+02 -0.36392496564E+02 -0.13002271196E+02  0.45045682701E+02  0.00000000000E+00 0.  1.
         11    1    3    3    0    0  0.17449091666E+02  0.24802975793E+02  0.95976626142E+01  0.31808387826E+02  0.51100000000E-03 0. -1.
        -11    1    3    3    0    0 -0.71827878426E+00  0.11028420423E+01  0.13240480854E+01  0.18668927596E+01  0.51100000000E-03 0.  1.
         12    1    3    3    0    0  0.64130992262E+01  0.10486678728E+02  0.20805604968E+01  0.12467036713E+02  0.00000000000E+00 0. -1.
</event>
<event>
 7    1  0.1476909E-008  0.4614231E+02  0.7816164E-02  0.1320468E+00
        -11   -1    0    0    0    0  0.00000000000E+00  0.00000000000E+00  0.45593999997E+02  0.45594000000E+02  0.51100000000E-03 0.  1.
         11   -1    0    0    0    0 -0.00000000000E+00 -0.00000000000E+00 -0.45593999997E+02  0.45594000000E+02  0.51100000000E-03 0. -1.
    9900012    2    1    2    0    0  0.22233224812E+02 -0.28164879609E+02 -0.27231179020E+02  0.46142313861E+02  0.99999644349E+01 0.  0.
        -12    1    1    2    0    0 -0.22233224812E+02  0.28164879609E+02  0.27231179020E+02  0.45045686139E+02  0.00000000000E+00 0.  1.
         11    1    3    3    0    0  0.64154290512E+01 -0.69384171421E+01 -0.83929340250E+01  0.12638856917E+02  0.51100000000E-03 0. -1.
        -11    1    3    3    0    0  0.16542171977E+02 -0.19319641881E+02 -0.16147538985E+02  0.30126981788E+02  0.51100000000E-03 0.  1.
        -12    1    3    3    0    0 -0.72437621620E+00 -0.19068205857E+01 -0.26907060098E+01  0.33764751561E+01  0.00000000000E+00 0.  1.
</event>
<event>
 7    1  0.1476909E-008  0.4614232E+02  0.7816164E-02  0.1320468E+00
        -11   -1    0    0    0    0  0.00000000000E+00  0.00000000000E+00  0.45593999997E+02  0.45594000000E+02  0.51100000000E-03 0. -1.
         11   -1    0    0    0    0 -0.00000000000E+00 -0.00000000000E+00 -0.45593999997E+02  0.45594000000E+02  0.51100000000E-03 0.  1.
    9900012    2    1    2    0    0  0.15733646245E+01  0.44897664653E+02  0.32920344923E+01  0.46142320311E+02  0.10000023255E+02 0.  0.
        -12    1    1    2    0    0 -0.15733646245E+01 -0.44897664653E+02 -0.32920344923E+01  0.45045679689E+02  0.00000000000E+00 0.  1.
         11    1    3    3    0    0 -0.17277063340E+01  0.15192234417E+02  0.34417731804E+01  0.15672739347E+02  0.51100000000E-03 0. -1.
        -11    1    3    3    0    0 -0.27603411321E+00 -0.15425460909E+00 -0.23882117079E+00  0.39626396357E+00  0.51100000000E-03 0.  1.
         12    1    3    3    0    0  0.35771050717E+01  0.29859684845E+02  0.89082482685E-01  0.30073317001E+02  0.00000000000E+00 0. -1.
</event>
<event>
 7    1  0.1476909E-008  0.4614232E+02  0.7816164E-02  0.1320468E+00
        -11   -1    0    0    0    0  0.00000000000E+00  0.00000000000E+00  0.45593999997E+02  0.45594000000E+02  0.51100000000E-03 0. -1.
         11   -1    0    0    0    0 -0.00000000000E+00 -0.00000000000E+00 -0.45593999997E+02  0.45594000000E+02  0.51100000000E-03 0.  1.
    9900012    2    1    2    0    0 -0.81668330893E+01  0.44170575604E+02 -0.33729176956E+01  0.46142317791E+02  0.10000000273E+02 0.  0.
        -12    1    1    2    0    0  0.81668330893E+01 -0.44170575604E+02  0.33729176956E+01  0.45045682209E+02  0.00000000000E+00 0.  1.
         11    1    3    3    0    0 -0.29003888638E+01  0.25675503562E+02 -0.61084634233E+01  0.26551027558E+02  0.51100000000E-03 0. -1.
        -11    1    3    3    0    0 -0.15908174736E+01  0.45494089036E+01  0.17800885381E+01  0.51377560346E+01  0.51100000000E-03 0.  1.
         12    1    3    3    0    0 -0.36756267519E+01  0.13945663138E+02  0.95545718959E+00  0.14453534199E+02  0.00000000000E+00 0. -1.
</event>
<event>
 7    1  0.1476909E-008  0.4614232E+02  0.7816164E-02  0.1320468E+00
        -11   -1    0    0    0    0  0.00000000000E+00  0.00000000000E+00  0.45593999997E+02  0.45594000000E+02  0.51100000000E-03 0.  1.
         11   -1    0    0    0    0 -0.00000000000E+00 -0.00000000000E+00 -0.45593999997E+02  0.45594000000E+02  0.51100000000E-03 0. -1.
    9900012    2    1    2    0    0 -0.35211836233E+02 -0.27610355072E+02 -0.51873256697E+01  0.46142318013E+02  0.10000002293E+02 0.  0.
        -12    1    1    2    0    0  0.35211836233E+02  0.27610355072E+02  0.51873256697E+01  0.45045681987E+02  0.00000000000E+00 0.  1.
         11    1    3    3    0    0 -0.25732378310E+02 -0.17769621994E+02 -0.49285958981E+01  0.31657634421E+02  0.51100000000E-03 0. -1.
        -11    1    3    3    0    0 -0.64489406034E+01 -0.64202940574E+01 -0.24393631915E+01  0.94212262329E+01  0.51100000000E-03 0.  1.
         12    1    3    3    0    0 -0.30305173197E+01 -0.34204390202E+01  0.21806334199E+01  0.50634573591E+01  0.00000000000E+00 0. -1.
</event>
<event>
 7    1  0.1476909E-008  0.4614232E+02  0.7816164E-02  0.1320468E+00
        -11   -1    0    0    0    0  0.00000000000E+00  0.00000000000E+00  0.45593999997E+02  0.45594000000E+02  0.51100000000E-03 0. -1.
         11   -1    0    0    0    0 -0.00000000000E+00 -0.00000000000E+00 -0.45593999997E+02  0.45594000000E+02  0.51100000000E-03 0.  1.
    9900012    2    1    2    0    0 -0.41321796140E+02 -0.16324241532E+02  0.74257566420E+01  0.46142316971E+02  0.99999927967E+01 0.  0.
        -12    1    1    2    0    0  0.41321796140E+02  0.16324241532E+02 -0.74257566420E+01  0.45045683029E+02  0.00000000000E+00 0.  1.
         11    1    3    3    0    0 -0.29228352068E+02 -0.12378994406E+02  0.51445710738E+01  0.32155912037E+02  0.51100000000E-03 0. -1.
        -11    1    3    3    0    0 -0.86692472081E+01 -0.23982730532E+00  0.70758801945E+00  0.87013818073E+01  0.51100000000E-03 0.  1.
        -12    1    3    3    0    0 -0.34241968641E+01 -0.37054198205E+01  0.15735975488E+01  0.52850231273E+01  0.00000000000E+00 0.  1.
</event>
<event>
 7    1  0.1476909E-008  0.4614232E+02  0.7816164E-02  0.1320468E+00
        -11   -1    0    0    0    0  0.00000000000E+00  0.00000000000E+00  0.45593999997E+02  0.45594000000E+02  0.51100000000E-03 0.  1.
         11   -1    0    0    0    0 -0.00000000000E+00 -0.00000000000E+00 -0.45593999997E+02  0.45594000000E+02  0.51100000000E-03 0. -1.
    9900012    2    1    2    0    0  0.31992157415E+02 -0.29778512372E+02 -0.10902093281E+02  0.46142316821E+02  0.99999914257E+01 0.  0.
        -12    1    1    2    0    0 -0.31992157415E+02  0.29778512372E+02  0.10902093281E+02  0.45045683179E+02  0.00000000000E+00 0.  1.
         11    1    3    3    0    0  0.21741894809E+02 -0.20285337228E+02 -0.98325631647E+01  0.31319070787E+02  0.51100000000E-03 0. -1.
        -11    1    3    3    0    0  0.54009230812E+01 -0.79410093535E+01  0.77582435345E-01  0.96039376808E+01  0.51100000000E-03 0.  1.
         12    1    3    3    0    0  0.48493395255E+01 -0.15521657901E+01 -0.11471125514E+01  0.52193083526E+01  0.00000000000E+00 0. -1.
</event>
<event>
 7    1  0.1476909E-008  0.4614232E+02  0.7816164E-02  0.1320468E+00
        -11   -1    0    0    0    0  0.00000000000E+00  0.00000000000E+00  0.45593999997E+02  0.45594000000E+02  0.51100000000E-03 0.  1.
         11   -1    0    0    0    0 -0.00000000000E+00 -0.00000000000E+00 -0.45593999997E+02  0.45594000000E+02  0.51100000000E-03 0. -1.
    9900012    2    1    2    0    0 -0.37036339484E+02  0.71611097524E+01 -0.24619941629E+02  0.46142318064E+02  0.10000002760E+02 0.  0.
        -12    1    1    2    0    0  0.37036339484E+02 -0.71611097524E+01  0.24619941629E+02  0.45045681936E+02  0.00000000000E+00 0.  1.
         11    1    3    3    0    0 -0.18896557763E+02  0.78654897669E+01 -0.11312532371E+02  0.23386303972E+02  0.51100000000E-03 0. -1.
        -11    1    3    3    0    0 -0.81710273355E-01 -0.38778494308E+00 -0.33874962796E+00  0.52134950121E+00  0.51100000000E-03 0.  1.
         12    1    3    3    0    0 -0.18058071448E+02 -0.31659507148E+00 -0.12968659630E+02  0.22234664591E+02  0.00000000000E+00 0. -1.
</event>
<event>
 7    1  0.1476909E-008  0.4614232E+02  0.7816164E-02  0.1320468E+00
        -11   -1    0    0    0    0  0.00000000000E+00  0.00000000000E+00  0.45593999997E+02  0.45594000000E+02  0.51100000000E-03 0.  1.
         11   -1    0    0    0    0 -0.00000000000E+00 -0.00000000000E+00 -0.45593999997E+02  0.45594000000E+02  0.51100000000E-03 0. -1.
    9900012    2    1    2    0    0 -0.32270700773E+02 -0.14425148086E+02 -0.27921864810E+02  0.46142316964E+02  0.99999927320E+01 0.  0.
        -12    1    1    2    0    0  0.32270700773E+02  0.14425148086E+02  0.27921864810E+02  0.45045683036E+02  0.00000000000E+00 0.  1.
         11    1    3    3    0    0 -0.26155805567E+02 -0.13368080486E+02 -0.26356550589E+02  0.39465168186E+02  0.51100000000E-03 0. -1.
        -11    1    3    3    0    0 -0.46195254974E+01 -0.14984251788E+01 -0.73836845799E+00  0.49122787053E+01  0.51100000000E-03 0.  1.
         12    1    3    3    0    0 -0.14953697091E+01  0.44135757858E+00 -0.82694576251E+00  0.17648700726E+01  0.00000000000E+00 0. -1.
</event>
<event>
 7    1  0.1476909E-008  0.4614232E+02  0.7816164E-02  0.1320468E+00
        -11   -1    0    0    0    0  0.00000000000E+00  0.00000000000E+00  0.45593999997E+02  0.45594000000E+02  0.51100000000E-03 0. -1.
         11   -1    0    0    0    0 -0.00000000000E+00 -0.00000000000E+00 -0.45593999997E+02  0.45594000000E+02  0.51100000000E-03 0.  1.
    9900012    2    1    2    0    0 -0.31132467712E+02  0.31921886578E+02 -0.63934417751E+01  0.46142317784E+02  0.10000000210E+02 0.  0.
        -12    1    1    2    0    0  0.31132467712E+02 -0.31921886578E+02  0.63934417751E+01  0.45045682216E+02  0.00000000000E+00 0.  1.
         11    1    3    3    0    0 -0.16588117092E+02  0.16015020378E+02 -0.27315924732E+01  0.23218701601E+02  0.51100000000E-03 0. -1.
        -11    1    3    3    0    0 -0.10364423166E+02  0.12079493337E+02 -0.56917018953E+01  0.16903576473E+02  0.51100000000E-03 0.  1.
        -12    1    3    3    0    0 -0.41799274541E+01  0.38273728633E+01  0.20298525934E+01  0.60200397097E+01  0.00000000000E+00 0.  1.
</event>
<event>
 7    1  0.1476909E-008  0.4614232E+02  0.7816164E-02  0.1320468E+00
        -11   -1    0    0    0    0  0.00000000000E+00  0.00000000000E+00  0.45593999997E+02  0.45594000000E+02  0.51100000000E-03 0.  1.
         11   -1    0    0    0    0 -0.00000000000E+00 -0.00000000000E+00 -0.45593999997E+02  0.45594000000E+02  0.51100000000E-03 0. -1.
    9900012    2    1    2    0    0  0.30728748983E+02  0.19480991244E+02 -0.26558395677E+02  0.46142318578E+02  0.10000007445E+02 0.  0.
        -12    1    1    2    0    0 -0.30728748983E+02 -0.19480991244E+02  0.26558395677E+02  0.45045681422E+02  0.00000000000E+00 0.  1.
         11    1    3    3    0    0  0.10803791899E+02  0.10306408102E+02 -0.11848382592E+02  0.19061168318E+02  0.51100000000E-03 0.  1.
        -11    1    3    3    0    0  0.61360482027E+01  0.36515098856E+00 -0.57926329368E+01  0.84462429157E+01  0.51100000000E-03 0. -1.
         12    1    3    3    0    0  0.13788908881E+02  0.88094321533E+01 -0.89173801483E+01  0.18634907343E+02  0.00000000000E+00 0. -1.
</event>
<event>
 7    1  0.1476909E-008  0.4614232E+02  0.7816164E-02  0.1320468E+00
        -11   -1    0    0    0    0  0.00000000000E+00  0.00000000000E+00  0.45593999997E+02  0.45594000000E+02  0.51100000000E-03 0.  1.
         11   -1    0    0    0    0 -0.00000000000E+00 -0.00000000000E+00 -0.45593999997E+02  0.45594000000E+02  0.51100000000E-03 0. -1.
    9900012    2    1    2    0    0 -0.39654196014E+02  0.91047882994E+01 -0.19332900470E+02  0.46142317942E+02  0.10000001653E+02 0.  0.
        -12    1    1    2    0    0  0.39654196014E+02 -0.91047882994E+01  0.19332900470E+02  0.45045682058E+02  0.00000000000E+00 0.  1.
         11    1    3    3    0    0 -0.11633345119E+02  0.18263609175E+01 -0.33705517023E+01  0.12248711439E+02  0.51100000000E-03 0. -1.
        -11    1    3    3    0    0 -0.50683685817E+01  0.21926382234E+00 -0.25943696545E-01  0.50731755381E+01  0.51100000000E-03 0.  1.
         12    1    3    3    0    0 -0.22952482312E+02  0.70591635595E+01 -0.15936405071E+02  0.28820430966E+02  0.00000000000E+00 0. -1.
</event>
<event>
 7    1  0.1476909E-008  0.4614232E+02  0.7816164E-02  0.1320468E+00
        -11   -1    0    0    0    0  0.00000000000E+00  0.00000000000E+00  0.45593999997E+02  0.45594000000E+02  0.51100000000E-03 0.  1.
         11   -1    0    0    0    0 -0.00000000000E+00 -0.00000000000E+00 -0.45593999997E+02  0.45594000000E+02  0.51100000000E-03 0. -1.
    9900012    2    1    2    0    0  0.10979064707E+02  0.43537717046E+02 -0.36112068905E+01  0.46142317825E+02  0.10000000583E+02 0.  0.
        -12    1    1    2    0    0 -0.10979064707E+02 -0.43537717046E+02  0.36112068905E+01  0.45045682175E+02  0.00000000000E+00 0.  1.
         11    1    3    3    0    0  0.12037325532E+02  0.39187485337E+02 -0.51832518913E+01  0.41320966996E+02  0.51100000000E-03 0. -1.
        -11    1    3    3    0    0 -0.68821696174E+00  0.34581057108E+01  0.15595860250E+01  0.38554437519E+01  0.51100000000E-03 0.  1.
         12    1    3    3    0    0 -0.37004386324E+00  0.89212599753E+00  0.12458975800E-01  0.96590707745E+00  0.00000000000E+00 0. -1.
</event>
<event>
 7    1  0.1476909E-008  0.4614232E+02  0.7816164E-02  0.1320468E+00
        -11   -1    0    0    0    0  0.00000000000E+00  0.00000000000E+00  0.45593999997E+02  0.45594000000E+02  0.51100000000E-03 0.  1.
         11   -1    0    0    0    0 -0.00000000000E+00 -0.00000000000E+00 -0.45593999997E+02  0.45594000000E+02  0.51100000000E-03 0. -1.
    9900012    2    1    2    0    0  0.28051818444E+02 -0.13404423290E+02 -0.32596477931E+02  0.46142318128E+02  0.10000003349E+02 0.  0.
        -12    1    1    2    0    0 -0.28051818444E+02  0.13404423290E+02  0.32596477931E+02  0.45045681872E+02  0.00000000000E+00 0.  1.
         11    1    3    3    0    0  0.28588477824E+01 -0.81301427350E+00 -0.75331857968E+01  0.80983264544E+01  0.51100000000E-03 0. -1.
        -11    1    3    3    0    0  0.12833393905E+02 -0.49919776335E+01 -0.92804008750E+01  0.16605471402E+02  0.51100000000E-03 0.  1.
        -12    1    3    3    0    0  0.12359576757E+02 -0.75994313833E+01 -0.15782891260E+02  0.21438520272E+02  0.00000000000E+00 0.  1.
</event>
<event>
 7    1  0.1476909E-008  0.4614232E+02  0.7816164E-02  0.1320468E+00
        -11   -1    0    0    0    0  0.00000000000E+00  0.00000000000E+00  0.45593999997E+02  0.45594000000E+02  0.51100000000E-03 0.  1.
         11   -1    0    0    0    0 -0.00000000000E+00 -0.00000000000E+00 -0.45593999997E+02  0.45594000000E+02  0.51100000000E-03 0. -1.
    9900012    2    1    2    0    0 -0.67053186424E+01  0.52301824680E+00 -0.44540754565E+02  0.46142315819E+02  0.99999822874E+01 0.  0.
        -12    1    1    2    0    0  0.67053186424E+01 -0.52301824680E+00  0.44540754565E+02  0.45045684181E+02  0.00000000000E+00 0.  1.
         11    1    3    3    0    0  0.55220981715E+00  0.21423727979E+01 -0.34698888082E+01  0.41151944656E+01  0.51100000000E-03 0. -1.
        -11    1    3    3    0    0 -0.30284603598E+01 -0.16804008054E+01 -0.84354793556E+01  0.91188064591E+01  0.51100000000E-03 0.  1.
         12    1    3    3    0    0 -0.42290680998E+01  0.61046254270E-01 -0.32635386401E+02  0.32908314894E+02  0.00000000000E+00 0. -1.
</event>
<event>
 7    1  0.1476909E-008  0.4614232E+02  0.7816164E-02  0.1320468E+00
        -11   -1    0    0    0    0  0.00000000000E+00  0.00000000000E+00  0.45593999997E+02  0.45594000000E+02  0.51100000000E-03 0.  1.
         11   -1    0    0    0    0 -0.00000000000E+00 -0.00000000000E+00 -0.45593999997E+02  0.45594000000E+02  0.51100000000E-03 0. -1.
    9900012    2    1    2    0    0 -0.38061367477E+01 -0.31004134582E+02 -0.32455669289E+02  0.46142317552E+02  0.99999980968E+01 0.  0.
        -12    1    1    2    0    0  0.38061367477E+01  0.31004134582E+02  0.32455669289E+02  0.45045682448E+02  0.00000000000E+00 0.  1.
         11    1    3    3    0    0 -0.51875117724E+01 -0.21406210987E+02 -0.27390426605E+02  0.35147853663E+02  0.51100000000E-03 0. -1.
        -11    1    3    3    0    0  0.39957177122E+00 -0.59443010838E+01 -0.27779525301E+01  0.65735373655E+01  0.51100000000E-03 0.  1.
         12    1    3    3    0    0  0.98180325349E+00 -0.36536225112E+01 -0.22872901544E+01  0.44209265243E+01  0.00000000000E+00 0. -1.
</event>
<event>
 7    1  0.1476909E-008  0.4614232E+02  0.7816164E-02  0.1320468E+00
        -11   -1    0    0    0    0  0.00000000000E+00  0.00000000000E+00  0.45593999997E+02  0.45594000000E+02  0.51100000000E-03 0.  1.
         11   -1    0    0    0    0 -0.00000000000E+00 -0.00000000000E+00 -0.45593999997E+02  0.45594000000E+02  0.51100000000E-03 0. -1.
    9900012    2    1    2    0    0  0.60779504274E+01  0.34661690995E+02 -0.28120086176E+02  0.46142317071E+02  0.99999937056E+01 0.  0.
        -12    1    1    2    0    0 -0.60779504274E+01 -0.34661690995E+02  0.28120086176E+02  0.45045682929E+02  0.00000000000E+00 0.  1.
         11    1    3    3    0    0 -0.63492323430E+00  0.69781242771E+00  0.21714532798E+00  0.96810229434E+00  0.51100000000E-03 0. -1.
        -11    1    3    3    0    0 -0.47261807109E+00  0.10035064284E+02 -0.62884329326E+01  0.11852015527E+02  0.51100000000E-03 0.  1.
        -12    1    3    3    0    0  0.71854917328E+01  0.23928814283E+02 -0.22048798571E+02  0.33322199250E+02  0.00000000000E+00 0.  1.
</event>
<event>
 7    1  0.1476909E-008  0.4614232E+02  0.7816164E-02  0.1320468E+00
        -11   -1    0    0    0    0  0.00000000000E+00  0.00000000000E+00  0.45593999997E+02  0.45594000000E+02  0.51100000000E-03 0. -1.
         11   -1    0    0    0    0 -0.00000000000E+00 -0.00000000000E+00 -0.45593999997E+02  0.45594000000E+02  0.51100000000E-03 0.  1.
    9900012    2    1    2    0    0 -0.31858887701E+02 -0.30620934017E+02  0.87454621641E+01  0.46142318364E+02  0.10000005493E+02 0.  0.
        -12    1    1    2    0    0  0.31858887701E+02  0.30620934017E+02 -0.87454621641E+01  0.45045681636E+02  0.00000000000E+00 0.  1.
         11    1    3    3    0    0 -0.14019399880E+02 -0.75411607653E+01  0.41479992738E+01  0.16450488653E+02  0.51100000000E-03 0. -1.
        -11    1    3    3    0    0 -0.62159014200E+01 -0.10524803153E+02  0.20331001529E+01  0.12391223038E+02  0.51100000000E-03 0.  1.
        -12    1    3    3    0    0 -0.11623586401E+02 -0.12554970099E+02  0.25643627374E+01  0.17300606673E+02  0.00000000000E+00 0.  1.
</event>
<event>
 7    1  0.1476909E-008  0.4614232E+02  0.7816164E-02  0.1320468E+00
        -11   -1    0    0    0    0  0.00000000000E+00  0.00000000000E+00  0.45593999997E+02  0.45594000000E+02  0.51100000000E-03 0.  1.
         11   -1    0    0    0    0 -0.00000000000E+00 -0.00000000000E+00 -0.45593999997E+02  0.45594000000E+02  0.51100000000E-03 0. -1.
    9900012    2    1    2    0    0  0.70934340632E+01 -0.29701607784E+02 -0.33115119787E+02  0.46142317962E+02  0.10000001834E+02 0.  0.
        -12    1    1    2    0    0 -0.70934340632E+01  0.29701607784E+02  0.33115119787E+02  0.45045682038E+02  0.00000000000E+00 0.  1.
         11    1    3    3    0    0  0.14657165142E+01 -0.17143370339E+02 -0.12571953702E+02  0.21309563384E+02  0.51100000000E-03 0. -1.
        -11    1    3    3    0    0  0.56890327776E+01 -0.12550483268E+02 -0.20007977700E+02  0.24294009469E+02  0.51100000000E-03 0.  1.
        -12    1    3    3    0    0 -0.61315228567E-01 -0.77541766252E-02 -0.53518838511E+00  0.53874510863E+00  0.00000000000E+00 0.  1.
</event>
<event>
 7    1  0.1476909E-008  0.4614232E+02  0.7816164E-02  0.1320468E+00
        -11   -1    0    0    0    0  0.00000000000E+00  0.00000000000E+00  0.45593999997E+02  0.45594000000E+02  0.51100000000E-03 0.  1.
         11   -1    0    0    0    0 -0.00000000000E+00 -0.00000000000E+00 -0.45593999997E+02  0.45594000000E+02  0.51100000000E-03 0. -1.
    9900012    2    1    2    0    0  0.40529399294E+01 -0.44169343807E+02 -0.78585154160E+01  0.46142317421E+02  0.99999969004E+01 0.  0.
        -12    1    1    2    0    0 -0.40529399294E+01  0.44169343807E+02  0.78585154160E+01  0.45045682579E+02  0.00000000000E+00 0.  1.
         11    1    3    3    0    0  0.84530038888E+00 -0.21682400386E+02 -0.31740893594E+01  0.21929793952E+02  0.51100000000E-03 0. -1.
        -11    1    3    3    0    0 -0.18717623069E+01 -0.25052065262E+01 -0.86313066089E+00  0.32441560800E+01  0.51100000000E-03 0.  1.
         12    1    3    3    0    0  0.50794018474E+01 -0.19981736895E+02 -0.38212953957E+01  0.20968367389E+02  0.00000000000E+00 0. -1.
</event>
<event>
 7    1  0.1476909E-008  0.4614232E+02  0.7816164E-02  0.1320468E+00
        -11   -1    0    0    0    0  0.00000000000E+00  0.00000000000E+00  0.45593999997E+02  0.45594000000E+02  0.51100000000E-03 0. -1.
         11   -1    0    0    0    0 -0.00000000000E+00 -0.00000000000E+00 -0.45593999997E+02  0.45594000000E+02  0.51100000000E-03 0.  1.
    9900012    2    1    2    0    0  0.17766056774E+02 -0.41298808806E+02  0.28087881353E+01  0.46142315713E+02  0.99999813277E+01 0.  0.
        -12    1    1    2    0    0 -0.17766056774E+02  0.41298808806E+02 -0.28087881353E+01  0.45045684287E+02  0.00000000000E+00 0.  1.
         11    1    3    3    0    0  0.83452756614E+01 -0.25031835455E+02  0.26769673113E+01  0.26521737620E+02  0.51100000000E-03 0. -1.
        -11    1    3    3    0    0  0.10229793224E+01 -0.17887608105E+01 -0.18461645637E+01  0.27666723313E+01  0.51100000000E-03 0.  1.
        -12    1    3    3    0    0  0.83978017903E+01 -0.14478212540E+02  0.19779853877E+01  0.16853905762E+02  0.00000000000E+00 0.  1.
</event>
<event>
 7    1  0.1476909E-008  0.4614231E+02  0.7816164E-02  0.1320468E+00
        -11   -1    0    0    0    0  0.00000000000E+00  0.00000000000E+00  0.45593999997E+02  0.45594000000E+02  0.51100000000E-03 0. -1.
         11   -1    0    0    0    0 -0.00000000000E+00 -0.00000000000E+00 -0.45593999997E+02  0.45594000000E+02  0.51100000000E-03 0.  1.
    9900012    2    1    2    0    0 -0.66590173989E+01 -0.25727278415E+01  0.44476427678E+02  0.46142311413E+02  0.99999421161E+01 0.  0.
        -12    1    1    2    0    0  0.66590173989E+01  0.25727278415E+01 -0.44476427678E+02  0.45045688587E+02  0.00000000000E+00 0.  1.
         11    1    3    3    0    0 -0.63912419548E+01  0.80617733403E+00  0.20762594618E+02  0.21738979533E+02  0.51100000000E-03 0. -1.
        -11    1    3    3    0    0 -0.18737376111E+01 -0.29024158473E+01  0.98419751942E+01  0.10430694434E+02  0.51100000000E-03 0.  1.
         12    1    3    3    0    0  0.16059621670E+01 -0.47648932820E+00  0.13871857866E+02  0.13972637447E+02  0.00000000000E+00 0. -1.
</event>
<event>
 7    1  0.1476909E-008  0.4614232E+02  0.7816164E-02  0.1320468E+00
        -11   -1    0    0    0    0  0.00000000000E+00  0.00000000000E+00  0.45593999997E+02  0.45594000000E+02  0.51100000000E-03 0.  1.
         11   -1    0    0    0    0 -0.00000000000E+00 -0.00000000000E+00 -0.45593999997E+02  0.45594000000E+02  0.51100000000E-03 0. -1.
    9900012    2    1    2    0    0 -0.10275101958E+02  0.22868403307E+02 -0.37424211363E+02  0.46142321115E+02  0.10000030584E+02 0.  0.
        -12    1    1    2    0    0  0.10275101958E+02 -0.22868403307E+02  0.37424211363E+02  0.45045678885E+02  0.00000000000E+00 0.  1.
         11    1    3    3    0    0 -0.46228849539E+01  0.11551248157E+02 -0.23836975987E+02  0.26888730423E+02  0.51100000000E-03 0. -1.
        -11    1    3    3    0    0 -0.60396044553E+01  0.68400039802E+01 -0.96181496797E+01  0.13257876148E+02  0.51100000000E-03 0.  1.
        -12    1    3    3    0    0  0.38738745128E+00  0.44771511698E+01 -0.39690856958E+01  0.59957145442E+01  0.00000000000E+00 0.  1.
</event>
<event>
 7    1  0.1476909E-008  0.4614232E+02  0.7816164E-02  0.1320468E+00
        -11   -1    0    0    0    0  0.00000000000E+00  0.00000000000E+00  0.45593999997E+02  0.45594000000E+02  0.51100000000E-03 0.  1.
         11   -1    0    0    0    0 -0.00000000000E+00 -0.00000000000E+00 -0.45593999997E+02  0.45594000000E+02  0.51100000000E-03 0. -1.
    9900012    2    1    2    0    0 -0.39445120733E+02 -0.19716070594E+02  0.91908966824E+01  0.46142316842E+02  0.99999916233E+01 0.  0.
        -12    1    1    2    0    0  0.39445120733E+02  0.19716070594E+02 -0.91908966824E+01  0.45045683158E+02  0.00000000000E+00 0.  1.
         11    1    3    3    0    0 -0.31962946501E+02 -0.15854888696E+02  0.50330208321E+01  0.36032467908E+02  0.51100000000E-03 0. -1.
        -11    1    3    3    0    0 -0.54144015501E+01 -0.76185613449E+00  0.21302517132E+01  0.58680611396E+01  0.51100000000E-03 0.  1.
        -12    1    3    3    0    0 -0.20677726812E+01 -0.30993257640E+01  0.20276241371E+01  0.42417877945E+01  0.00000000000E+00 0.  1.
</event>
<event>
 7    1  0.1476909E-008  0.4614232E+02  0.7816164E-02  0.1320468E+00
        -11   -1    0    0    0    0  0.00000000000E+00  0.00000000000E+00  0.45593999997E+02  0.45594000000E+02  0.51100000000E-03 0. -1.
         11   -1    0    0    0    0 -0.00000000000E+00 -0.00000000000E+00 -0.45593999997E+02  0.45594000000E+02  0.51100000000E-03 0.  1.
    9900012    2    1    2    0    0 -0.28220379759E+02  0.27373796171E+02  0.21986336365E+02  0.46142317218E+02  0.99999950458E+01 0.  0.
        -12    1    1    2    0    0  0.28220379759E+02 -0.27373796171E+02 -0.21986336365E+02  0.45045682782E+02  0.00000000000E+00 0.  1.
         11    1    3    3    0    0 -0.62947309452E+01  0.82183344277E+01  0.32822206833E+01  0.10859909360E+02  0.51100000000E-03 0. -1.
        -11    1    3    3    0    0 -0.28213423877E+01  0.26339162012E+01  0.10587177436E-01  0.38597408946E+01  0.51100000000E-03 0.  1.
         12    1    3    3    0    0 -0.19104306426E+02  0.16521545542E+02  0.18693528505E+02  0.31422666963E+02  0.00000000000E+00 0. -1.
</event>
<event>
 7    1  0.1476909E-008  0.4614232E+02  0.7816164E-02  0.1320468E+00
        -11   -1    0    0    0    0  0.00000000000E+00  0.00000000000E+00  0.45593999997E+02  0.45594000000E+02  0.51100000000E-03 0.  1.
         11   -1    0    0    0    0 -0.00000000000E+00 -0.00000000000E+00 -0.45593999997E+02  0.45594000000E+02  0.51100000000E-03 0. -1.
    9900012    2    1    2    0    0  0.22017881810E+02  0.36772949850E+01 -0.39125490731E+02  0.46142316047E+02  0.99999843707E+01 0.  0.
        -12    1    1    2    0    0 -0.22017881810E+02 -0.36772949850E+01  0.39125490731E+02  0.45045683953E+02  0.00000000000E+00 0.  1.
         11    1    3    3    0    0  0.45259450727E+01 -0.15609952624E+01 -0.51366443553E+01  0.70218231610E+01  0.51100000000E-03 0. -1.
        -11    1    3    3    0    0  0.33380774447E+01  0.29245482047E+01 -0.44534541599E+01  0.62872090345E+01  0.51100000000E-03 0.  1.
         12    1    3    3    0    0  0.14153859293E+02  0.23137420427E+01 -0.29535392216E+02  0.32833283852E+02  0.00000000000E+00 0. -1.
</event>
<event>
 7    1  0.1476909E-008  0.4614232E+02  0.7816164E-02  0.1320468E+00
        -11   -1    0    0    0    0  0.00000000000E+00  0.00000000000E+00  0.45593999997E+02  0.45594000000E+02  0.51100000000E-03 0.  1.
         11   -1    0    0    0    0 -0.00000000000E+00 -0.00000000000E+00 -0.45593999997E+02  0.45594000000E+02  0.51100000000E-03 0. -1.
    9900012    2    1    2    0    0 -0.17540016284E+02 -0.96276160129E+01 -0.40358026993E+02  0.46142317586E+02  0.99999984075E+01 0.  0.
        -12    1    1    2    0    0  0.17540016284E+02  0.96276160129E+01  0.40358026993E+02  0.45045682414E+02  0.00000000000E+00 0.  1.
         11    1    3    3    0    0  0.11916542231E+00  0.46511262411E+00 -0.38486633063E+01  0.38784970875E+01  0.51100000000E-03 0. -1.
        -11    1    3    3    0    0 -0.10037075619E+02 -0.32562239272E+01 -0.13965271354E+02  0.17503562080E+02  0.51100000000E-03 0.  1.
         12    1    3    3    0    0 -0.76221060868E+01 -0.68365047099E+01 -0.22544092333E+02  0.24760258419E+02  0.00000000000E+00 0. -1.
</event>
<event>
 7    1  0.1476909E-008  0.4614232E+02  0.7816164E-02  0.1320468E+00
        -11   -1    0    0    0    0  0.00000000000E+00  0.00000000000E+00  0.45593999997E+02  0.45594000000E+02  0.51100000000E-03 0.  1.
         11   -1    0    0    0    0 -0.00000000000E+00 -0.00000000000E+00 -0.45593999997E+02  0.45594000000E+02  0.51100000000E-03 0. -1.
    9900012    2    1    2    0    0  0.15692410256E+02  0.10641859989E+02 -0.40860894896E+02  0.46142315908E+02  0.99999830999E+01 0.  0.
        -12    1    1    2    0    0 -0.15692410256E+02 -0.10641859989E+02  0.40860894896E+02  0.45045684092E+02  0.00000000000E+00 0.  1.
         11    1    3    3    0    0  0.11428537763E+01  0.15819617876E+00 -0.50816358537E+00  0.12607026912E+01  0.51100000000E-03 0.  1.
        -11    1    3    3    0    0  0.15161451629E+02  0.84667538152E+01 -0.33827106619E+02  0.38024053942E+02  0.51100000000E-03 0. -1.
        -12    1    3    3    0    0 -0.61189514938E+00  0.20169099947E+01 -0.65256246909E+01  0.68575592747E+01  0.00000000000E+00 0.  1.
</event>
<event>
 7    1  0.1476909E-008  0.4614232E+02  0.7816164E-02  0.1320468E+00
        -11   -1    0    0    0    0  0.00000000000E+00  0.00000000000E+00  0.45593999997E+02  0.45594000000E+02  0.51100000000E-03 0.  1.
         11   -1    0    0    0    0 -0.00000000000E+00 -0.00000000000E+00 -0.45593999997E+02  0.45594000000E+02  0.51100000000E-03 0. -1.
    9900012    2    1    2    0    0 -0.69188632564E+01 -0.43241313979E+02 -0.10556113371E+02  0.46142318377E+02  0.10000005617E+02 0.  0.
        -12    1    1    2    0    0  0.69188632564E+01  0.43241313979E+02  0.10556113371E+02  0.45045681623E+02  0.00000000000E+00 0.  1.
         11    1    3    3    0    0  0.85895458318E-03 -0.21568154573E+02 -0.88380641292E+01  0.23308725196E+02  0.51100000000E-03 0. -1.
        -11    1    3    3    0    0 -0.47739480875E+01 -0.15005379535E+02 -0.77146126182E+00  0.15765378146E+02  0.51100000000E-03 0.  1.
        -12    1    3    3    0    0 -0.21457741235E+01 -0.66677798701E+01 -0.94658797966E+00  0.70682150355E+01  0.00000000000E+00 0.  1.
</event>
<event>
 7    1  0.1476909E-008  0.4614232E+02  0.7816164E-02  0.1320468E+00
        -11   -1    0    0    0    0  0.00000000000E+00  0.00000000000E+00  0.45593999997E+02  0.45594000000E+02  0.51100000000E-03 0.  1.
         11   -1    0    0    0    0 -0.00000000000E+00 -0.00000000000E+00 -0.45593999997E+02  0.45594000000E+02  0.51100000000E-03 0. -1.
    9900012    2    1    2    0    0 -0.29299675123E+02  0.22924371009E+02 -0.25399126557E+02  0.46142318983E+02  0.10000011138E+02 0.  0.
        -12    1    1    2    0    0  0.29299675123E+02 -0.22924371009E+02  0.25399126557E+02  0.45045681017E+02  0.00000000000E+00 0.  1.
         11    1    3    3    0    0 -0.91505850792E+01  0.73092145996E+01 -0.36169849547E+01  0.12257259309E+02  0.51100000000E-03 0. -1.
        -11    1    3    3    0    0 -0.20254427662E+02  0.14808522765E+02 -0.21437725462E+02  0.33001670559E+02  0.51100000000E-03 0.  1.
        -12    1    3    3    0    0  0.10533761868E+00  0.80663364417E+00 -0.34441614033E+00  0.88338911446E+00  0.00000000000E+00 0.  1.
</event>
<event>
 7    1  0.1476909E-008  0.4614232E+02  0.7816164E-02  0.1320468E+00
        -11   -1    0    0    0    0  0.00000000000E+00  0.00000000000E+00  0.45593999997E+02  0.45594000000E+02  0.51100000000E-03 0.  1.
         11   -1    0    0    0    0 -0.00000000000E+00 -0.00000000000E+00 -0.45593999997E+02  0.45594000000E+02  0.51100000000E-03 0. -1.
    9900012    2    1    2    0    0 -0.14023772097E+02 -0.22769303672E+02 -0.36249223359E+02  0.46142316881E+02  0.99999919763E+01 0.  0.
        -12    1    1    2    0    0  0.14023772097E+02  0.22769303672E+02  0.36249223359E+02  0.45045683119E+02  0.00000000000E+00 0.  1.
         11    1    3    3    0    0 -0.15024050768E+01 -0.48047642167E+01 -0.45224922011E+01  0.67672679985E+01  0.51100000000E-03 0. -1.
        -11    1    3    3    0    0 -0.88086388717E+01 -0.14709836295E+02 -0.29117788873E+02  0.33790783236E+02  0.51100000000E-03 0.  1.
        -12    1    3    3    0    0 -0.37127281487E+01 -0.32547031601E+01 -0.26089422844E+01  0.55842656464E+01  0.00000000000E+00 0.  1.
</event>
<event>
 7    1  0.1476909E-008  0.4614232E+02  0.7816164E-02  0.1320468E+00
        -11   -1    0    0    0    0  0.00000000000E+00  0.00000000000E+00  0.45593999997E+02  0.45594000000E+02  0.51100000000E-03 0. -1.
         11   -1    0    0    0    0 -0.00000000000E+00 -0.00000000000E+00 -0.45593999997E+02  0.45594000000E+02  0.51100000000E-03 0.  1.
    9900012    2    1    2    0    0 -0.32553237015E+02 -0.31120415831E+02  0.95914594424E+00  0.46142317825E+02  0.10000000581E+02 0.  0.
        -12    1    1    2    0    0  0.32553237015E+02  0.31120415831E+02 -0.95914594424E+00  0.45045682175E+02  0.00000000000E+00 0.  1.
         11    1    3    3    0    0 -0.31497916419E+01 -0.20867757060E+01 -0.17381136010E+00  0.37823314086E+01  0.51100000000E-03 0. -1.
        -11    1    3    3    0    0 -0.21839335340E+01 -0.54557673379E+01 -0.20120747871E+01  0.62115544058E+01  0.51100000000E-03 0.  1.
        -12    1    3    3    0    0 -0.27219511839E+02 -0.23577872788E+02  0.31450320915E+01  0.36148432010E+02  0.00000000000E+00 0.  1.
</event>
<event>
 7    1  0.1476909E-008  0.4614232E+02  0.7816164E-02  0.1320468E+00
        -11   -1    0    0    0    0  0.00000000000E+00  0.00000000000E+00  0.45593999997E+02  0.45594000000E+02  0.51100000000E-03 0.  1.
         11   -1    0    0    0    0 -0.00000000000E+00 -0.00000000000E+00 -0.45593999997E+02  0.45594000000E+02  0.51100000000E-03 0. -1.
    9900012    2    1    2    0    0  0.86450010593E+01 -0.54582243919E+01 -0.43870095311E+02  0.46142317416E+02  0.99999968568E+01 0.  0.
        -12    1    1    2    0    0 -0.86450010593E+01  0.54582243919E+01  0.43870095311E+02  0.45045682584E+02  0.00000000000E+00 0.  1.
         11    1    3    3    0    0  0.43404796620E+01 -0.19027076269E+01 -0.13306807625E+02  0.14125550943E+02  0.51100000000E-03 0. -1.
        -11    1    3    3    0    0  0.15608330079E+01 -0.53628158093E+01 -0.13003671398E+02  0.14152436651E+02  0.51100000000E-03 0.  1.
        -12    1    3    3    0    0  0.27436883893E+01  0.18072990444E+01 -0.17559616288E+02  0.17864329822E+02  0.00000000000E+00 0.  1.
</event>
<event>
 7    1  0.1476909E-008  0.4614232E+02  0.7816164E-02  0.1320468E+00
        -11   -1    0    0    0    0  0.00000000000E+00  0.00000000000E+00  0.45593999997E+02  0.45594000000E+02  0.51100000000E-03 0.  1.
         11   -1    0    0    0    0 -0.00000000000E+00 -0.00000000000E+00 -0.45593999997E+02  0.45594000000E+02  0.51100000000E-03 0. -1.
    9900012    2    1    2    0    0 -0.28276061585E+02  0.28705576123E+02 -0.20138715761E+02  0.46142316169E+02  0.99999854834E+01 0.  0.
        -12    1    1    2    0    0  0.28276061585E+02 -0.28705576123E+02  0.20138715761E+02  0.45045683831E+02  0.00000000000E+00 0.  1.
         11    1    3    3    0    0 -0.23949709825E+01  0.68913561104E+01 -0.21659725829E+01  0.76103950317E+01  0.51100000000E-03 0. -1.
        -11    1    3    3    0    0 -0.24927347472E+02  0.20378014157E+02 -0.16140174405E+02  0.36015848498E+02  0.51100000000E-03 0.  1.
        -12    1    3    3    0    0 -0.95374313037E+00  0.14362058561E+01 -0.18325687731E+01  0.25160726396E+01  0.00000000000E+00 0.  1.
</event>
<event>
 7    1  0.1476909E-008  0.4614232E+02  0.7816164E-02  0.1320468E+00
        -11   -1    0    0    0    0  0.00000000000E+00  0.00000000000E+00  0.45593999997E+02  0.45594000000E+02  0.51100000000E-03 0. -1.
         11   -1    0    0    0    0 -0.00000000000E+00 -0.00000000000E+00 -0.45593999997E+02  0.45594000000E+02  0.51100000000E-03 0.  1.
    9900012    2    1    2    0    0  0.33392214083E+02  0.13048836494E+02  0.27272722083E+02  0.46142318020E+02  0.10000002361E+02 0.  0.
        -12    1    1    2    0    0 -0.33392214083E+02 -0.13048836494E+02 -0.27272722083E+02  0.45045681980E+02  0.00000000000E+00 0.  1.
         11    1    3    3    0    0  0.39252567959E+01  0.12691515250E+01  0.39895304592E+01  0.57388796862E+01  0.51100000000E-03 0. -1.
        -11    1    3    3    0    0  0.16906817095E+02  0.22558381987E+01  0.14318225410E+02  0.22269729442E+02  0.51100000000E-03 0.  1.
        -12    1    3    3    0    0  0.12560140191E+02  0.95238467708E+01  0.89649662139E+01  0.18133708891E+02  0.00000000000E+00 0.  1.
</event>
<event>
 7    1  0.1476909E-008  0.4614232E+02  0.7816164E-02  0.1320468E+00
        -11   -1    0    0    0    0  0.00000000000E+00  0.00000000000E+00  0.45593999997E+02  0.45594000000E+02  0.51100000000E-03 0.  1.
         11   -1    0    0    0    0 -0.00000000000E+00 -0.00000000000E+00 -0.45593999997E+02  0.45594000000E+02  0.51100000000E-03 0. -1.
    9900012    2    1    2    0    0 -0.13322500979E+02  0.41858135136E+02 -0.99760180150E+01  0.46142318245E+02  0.10000004408E+02 0.  0.
        -12    1    1    2    0    0  0.13322500979E+02 -0.41858135136E+02  0.99760180150E+01  0.45045681755E+02  0.00000000000E+00 0.  1.
         11    1    3    3    0    0 -0.93464965684E+00  0.16273664802E+02 -0.61000663608E+01  0.17404497865E+02  0.51100000000E-03 0. -1.
        -11    1    3    3    0    0 -0.10988239880E+02  0.21921973617E+02 -0.28630725024E+01  0.24688287250E+02  0.51100000000E-03 0.  1.
         12    1    3    3    0    0 -0.13996114425E+01  0.36624967162E+01 -0.10128791518E+01  0.40495331289E+01  0.00000000000E+00 0. -1.
</event>
<event>
 7    1  0.1476909E-008  0.4614232E+02  0.7816164E-02  0.1320468E+00
        -11   -1    0    0    0    0  0.00000000000E+00  0.00000000000E+00  0.45593999997E+02  0.45594000000E+02  0.51100000000E-03 0.  1.
         11   -1    0    0    0    0 -0.00000000000E+00 -0.00000000000E+00 -0.45593999997E+02  0.45594000000E+02  0.51100000000E-03 0. -1.
    9900012    2    1    2    0    0 -0.42016910816E+01 -0.41093904434E+02 -0.17965249230E+02  0.46142319081E+02  0.10000012031E+02 0.  0.
        -12    1    1    2    0    0  0.42016910816E+01  0.41093904434E+02  0.17965249230E+02  0.45045680919E+02  0.00000000000E+00 0.  1.
         11    1    3    3    0    0 -0.88197631681E+00 -0.94843200725E+01 -0.78474867706E+01  0.12341525770E+02  0.51100000000E-03 0. -1.
        -11    1    3    3    0    0 -0.21504784053E+01 -0.88650451112E+01 -0.67773848481E+00  0.91472898670E+01  0.51100000000E-03 0.  1.
        -12    1    3    3    0    0 -0.11692363594E+01 -0.22744539250E+02 -0.94400239749E+01  0.24653503443E+02  0.00000000000E+00 0.  1.
</event>
<event>
 7    1  0.1476909E-008  0.4614232E+02  0.7816164E-02  0.1320468E+00
        -11   -1    0    0    0    0  0.00000000000E+00  0.00000000000E+00  0.45593999997E+02  0.45594000000E+02  0.51100000000E-03 0.  1.
         11   -1    0    0    0    0 -0.00000000000E+00 -0.00000000000E+00 -0.45593999997E+02  0.45594000000E+02  0.51100000000E-03 0. -1.
    9900012    2    1    2    0    0  0.30424273244E+02 -0.32044003113E+02 -0.87555217522E+01  0.46142315422E+02  0.99999786663E+01 0.  0.
        -12    1    1    2    0    0 -0.30424273244E+02  0.32044003113E+02  0.87555217522E+01  0.45045684578E+02  0.00000000000E+00 0.  1.
         11    1    3    3    0    0  0.74395589423E+01 -0.62351250871E+01 -0.19147805540E+01  0.98939479955E+01  0.51100000000E-03 0. -1.
        -11    1    3    3    0    0  0.56517139892E+01 -0.17788522604E+01 -0.48091657422E+00  0.59445325630E+01  0.51100000000E-03 0.  1.
        -12    1    3    3    0    0  0.17333000313E+02 -0.24030025766E+02 -0.63598246240E+01  0.30303834863E+02  0.00000000000E+00 0.  1.
</event>
<event>
 7    1  0.1476909E-008  0.4614232E+02  0.7816164E-02  0.1320468E+00
        -11   -1    0    0    0    0  0.00000000000E+00  0.00000000000E+00  0.45593999997E+02  0.45594000000E+02  0.51100000000E-03 0. -1.
         11   -1    0    0    0    0 -0.00000000000E+00 -0.00000000000E+00 -0.45593999997E+02  0.45594000000E+02  0.51100000000E-03 0.  1.
    9900012    2    1    2    0    0 -0.44644887687E+02  0.58042901899E+01  0.15025793670E+01  0.46142317344E+02  0.99999961974E+01 0.  0.
        -12    1    1    2    0    0  0.44644887687E+02 -0.58042901899E+01 -0.15025793670E+01  0.45045682656E+02  0.00000000000E+00 0.  1.
         11    1    3    3    0    0 -0.12465527989E+02  0.13085920779E+01 -0.38140421860E+01  0.13101477754E+02  0.51100000000E-03 0.  1.
        -11    1    3    3    0    0 -0.20406290477E+02  0.40604388070E+01  0.27995880441E+01  0.20993845475E+02  0.51100000000E-03 0. -1.
        -12    1    3    3    0    0 -0.11773069220E+02  0.43525930505E+00  0.25170335089E+01  0.12046994115E+02  0.00000000000E+00 0.  1.
</event>
<event>
 7    1  0.1476909E-008  0.4614232E+02  0.7816164E-02  0.1320468E+00
        -11   -1    0    0    0    0  0.00000000000E+00  0.00000000000E+00  0.45593999997E+02  0.45594000000E+02  0.51100000000E-03 0.  1.
         11   -1    0    0    0    0 -0.00000000000E+00 -0.00000000000E+00 -0.45593999997E+02  0.45594000000E+02  0.51100000000E-03 0. -1.
    9900012    2    1    2    0    0 -0.55783362312E+01  0.31297323231E+02 -0.31913530357E+02  0.46142315452E+02  0.99999789463E+01 0.  0.
        -12    1    1    2    0    0  0.55783362312E+01 -0.31297323231E+02  0.31913530357E+02  0.45045684548E+02  0.00000000000E+00 0.  1.
         11    1    3    3    0    0 -0.19200716257E+01  0.17697695509E+02 -0.20980794723E+02  0.27515247570E+02  0.51100000000E-03 0. -1.
        -11    1    3    3    0    0 -0.24137814524E+01  0.13635023213E+01 -0.22742446576E+01  0.35857591251E+01  0.51100000000E-03 0.  1.
        -12    1    3    3    0    0 -0.12444831531E+01  0.12236125400E+02 -0.86584909765E+01  0.15041308757E+02  0.00000000000E+00 0.  1.
</event>
<event>
 7    1  0.1476909E-008  0.4614232E+02  0.7816164E-02  0.1320468E+00
        -11   -1    0    0    0    0  0.00000000000E+00  0.00000000000E+00  0.45593999997E+02  0.45594000000E+02  0.51100000000E-03 0.  1.
         11   -1    0    0    0    0 -0.00000000000E+00 -0.00000000000E+00 -0.45593999997E+02  0.45594000000E+02  0.51100000000E-03 0. -1.
    9900012    2    1    2    0    0  0.75170820145E+01 -0.39786691887E+02 -0.19738949096E+02  0.46142317801E+02  0.10000000364E+02 0.  0.
        -12    1    1    2    0    0 -0.75170820145E+01  0.39786691887E+02  0.19738949096E+02  0.45045682199E+02  0.00000000000E+00 0.  1.
         11    1    3    3    0    0  0.11568525760E+01 -0.15379627234E+02 -0.79423627136E+01  0.17347978772E+02  0.51100000000E-03 0. -1.
        -11    1    3    3    0    0  0.24768857273E+01 -0.20836812276E+02 -0.91337822096E+01  0.22885228565E+02  0.51100000000E-03 0.  1.
         12    1    3    3    0    0  0.38833437111E+01 -0.35702523768E+01 -0.26628041729E+01  0.59091104640E+01  0.00000000000E+00 0. -1.
</event>
<event>
 7    1  0.1476909E-008  0.4614232E+02  0.7816164E-02  0.1320468E+00
        -11   -1    0    0    0    0  0.00000000000E+00  0.00000000000E+00  0.45593999997E+02  0.45594000000E+02  0.51100000000E-03 0.  1.
         11   -1    0    0    0    0 -0.00000000000E+00 -0.00000000000E+00 -0.45593999997E+02  0.45594000000E+02  0.51100000000E-03 0. -1.
    9900012    2    1    2    0    0  0.19486714089E+01 -0.28873687827E+02 -0.34519940578E+02  0.46142318004E+02  0.10000002213E+02 0.  0.
        -12    1    1    2    0    0 -0.19486714089E+01  0.28873687827E+02  0.34519940578E+02  0.45045681996E+02  0.00000000000E+00 0.  1.
         11    1    3    3    0    0  0.76762738986E+00 -0.46454288173E+01 -0.12093448754E+02  0.12977702560E+02  0.51100000000E-03 0. -1.
        -11    1    3    3    0    0  0.24460957027E-01 -0.19751409384E+02 -0.17249441473E+02  0.26223310286E+02  0.51100000000E-03 0.  1.
        -12    1    3    3    0    0  0.11565830620E+01 -0.44768496261E+01 -0.51770503510E+01  0.69413051576E+01  0.00000000000E+00 0.  1.
</event>
<event>
 7    1  0.1476909E-008  0.4614232E+02  0.7816164E-02  0.1320468E+00
        -11   -1    0    0    0    0  0.00000000000E+00  0.00000000000E+00  0.45593999997E+02  0.45594000000E+02  0.51100000000E-03 0.  1.
         11   -1    0    0    0    0 -0.00000000000E+00 -0.00000000000E+00 -0.45593999997E+02  0.45594000000E+02  0.51100000000E-03 0. -1.
    9900012    2    1    2    0    0  0.41032099368E+02 -0.18315287534E+02  0.31671080104E+01  0.46142317530E+02  0.99999978968E+01 0.  0.
        -12    1    1    2    0    0 -0.41032099368E+02  0.18315287534E+02 -0.31671080104E+01  0.45045682470E+02  0.00000000000E+00 0.  1.
         11    1    3    3    0    0  0.25711954095E+02 -0.11739978053E+02 -0.69378987626E+00  0.28273892776E+02  0.51100000000E-03 0. -1.
        -11    1    3    3    0    0  0.15578467681E+01 -0.30823388560E+00  0.21165635058E+01  0.26460793670E+01  0.51100000000E-03 0.  1.
        -12    1    3    3    0    0  0.13762298505E+02 -0.62670755951E+01  0.17443343809E+01  0.15222345387E+02  0.00000000000E+00 0.  1.
</event>
<event>
 7    1  0.1476909E-008  0.4614232E+02  0.7816164E-02  0.1320468E+00
        -11   -1    0    0    0    0  0.00000000000E+00  0.00000000000E+00  0.45593999997E+02  0.45594000000E+02  0.51100000000E-03 0.  1.
         11   -1    0    0    0    0 -0.00000000000E+00 -0.00000000000E+00 -0.45593999997E+02  0.45594000000E+02  0.51100000000E-03 0. -1.
    9900012    2    1    2    0    0 -0.37161629099E+02  0.24916742309E+02  0.52232800174E+01  0.46142318978E+02  0.10000011095E+02 0.  0.
        -12    1    1    2    0    0  0.37161629099E+02 -0.24916742309E+02 -0.52232800174E+01  0.45045681022E+02  0.00000000000E+00 0.  1.
         11    1    3    3    0    0 -0.29506105793E+02  0.14594800636E+02  0.27057534615E+01  0.33029374604E+02  0.51100000000E-03 0. -1.
        -11    1    3    3    0    0 -0.43302265954E+01  0.59826121086E+01  0.11151619730E+01  0.74690090706E+01  0.51100000000E-03 0.  1.
         12    1    3    3    0    0 -0.33252967109E+01  0.43393295640E+01  0.14023645830E+01  0.56439353030E+01  0.00000000000E+00 0. -1.
</event>
<event>
 7    1  0.1476909E-008  0.4614232E+02  0.7816164E-02  0.1320468E+00
        -11   -1    0    0    0    0  0.00000000000E+00  0.00000000000E+00  0.45593999997E+02  0.45594000000E+02  0.51100000000E-03 0.  1.
         11   -1    0    0    0    0 -0.00000000000E+00 -0.00000000000E+00 -0.45593999997E+02  0.45594000000E+02  0.51100000000E-03 0. -1.
    9900012    2    1    2    0    0  0.29900282447E+02 -0.28694832750E+02 -0.17654834849E+02  0.46142317515E+02  0.99999977532E+01 0.  0.
        -12    1    1    2    0    0 -0.29900282447E+02  0.28694832750E+02  0.17654834849E+02  0.45045682485E+02  0.00000000000E+00 0.  1.
         11    1    3    3    0    0  0.15382382371E+02 -0.18705336336E+02 -0.12482553801E+02  0.27245576604E+02  0.51100000000E-03 0. -1.
        -11    1    3    3    0    0  0.72320837331E+01 -0.43545553832E+01 -0.23247182808E+00  0.84450714100E+01  0.51100000000E-03 0.  1.
        -12    1    3    3    0    0  0.72858163430E+01 -0.56349410316E+01 -0.49398092201E+01  0.10451669500E+02  0.00000000000E+00 0.  1.
</event>
<event>
 7    1  0.1476909E-008  0.4614232E+02  0.7816164E-02  0.1320468E+00
        -11   -1    0    0    0    0  0.00000000000E+00  0.00000000000E+00  0.45593999997E+02  0.45594000000E+02  0.51100000000E-03 0.  1.
         11   -1    0    0    0    0 -0.00000000000E+00 -0.00000000000E+00 -0.45593999997E+02  0.45594000000E+02  0.51100000000E-03 0. -1.
    9900012    2    1    2    0    0  0.35658664391E+02  0.70644918361E+01 -0.26601995289E+02  0.46142317139E+02  0.99999943305E+01 0.  0.
        -12    1    1    2    0    0 -0.35658664391E+02 -0.70644918361E+01  0.26601995289E+02  0.45045682861E+02  0.00000000000E+00 0.  1.
         11    1    3    3    0    0  0.38022319531E+01 -0.12814057821E+01 -0.12204346380E+01  0.41938561695E+01  0.51100000000E-03 0. -1.
        -11    1    3    3    0    0  0.17656564043E+02  0.60045859441E+01 -0.11257461445E+02  0.21783933176E+02  0.51100000000E-03 0.  1.
        -12    1    3    3    0    0  0.14199868395E+02  0.23413116740E+01 -0.14124099206E+02  0.20164527794E+02  0.00000000000E+00 0.  1.
</event>
<event>
 7    1  0.1476909E-008  0.4614232E+02  0.7816164E-02  0.1320468E+00
        -11   -1    0    0    0    0  0.00000000000E+00  0.00000000000E+00  0.45593999997E+02  0.45594000000E+02  0.51100000000E-03 0. -1.
         11   -1    0    0    0    0 -0.00000000000E+00 -0.00000000000E+00 -0.45593999997E+02  0.45594000000E+02  0.51100000000E-03 0.  1.
    9900012    2    1    2    0    0  0.40174561053E+02 -0.66140012766E+01  0.19271043725E+02  0.46142317688E+02  0.99999993361E+01 0.  0.
        -12    1    1    2    0    0 -0.40174561053E+02  0.66140012766E+01 -0.19271043725E+02  0.45045682312E+02  0.00000000000E+00 0.  1.
         11    1    3    3    0    0  0.17440013197E+02 -0.52008714698E+01  0.13334741540E+02  0.22561437378E+02  0.51100000000E-03 0. -1.
        -11    1    3    3    0    0  0.19676605548E+02 -0.14794337572E+01  0.55507947535E+01  0.20498020704E+02  0.51100000000E-03 0.  1.
         12    1    3    3    0    0  0.30579423079E+01  0.66303950320E-01  0.38550743132E+00  0.30828596063E+01  0.00000000000E+00 0. -1.
</event>
<event>
 7    1  0.1476909E-008  0.4614232E+02  0.7816164E-02  0.1320468E+00
        -11   -1    0    0    0    0  0.00000000000E+00  0.00000000000E+00  0.45593999997E+02  0.45594000000E+02  0.51100000000E-03 0.  1.
         11   -1    0    0    0    0 -0.00000000000E+00 -0.00000000000E+00 -0.45593999997E+02  0.45594000000E+02  0.51100000000E-03 0. -1.
    9900012    2    1    2    0    0  0.18847834430E+02  0.16781280949E+02 -0.37313016160E+02  0.46142318432E+02  0.10000006116E+02 0.  0.
        -12    1    1    2    0    0 -0.18847834430E+02 -0.16781280949E+02  0.37313016160E+02  0.45045681568E+02  0.00000000000E+00 0.  1.
         11    1    3    3    0    0  0.11280034723E+02  0.92222827391E+01 -0.21216981134E+02  0.25738103485E+02  0.51100000000E-03 0. -1.
        -11    1    3    3    0    0  0.87706997076E+00  0.50254055941E+01 -0.46297583400E+01  0.68890213867E+01  0.51100000000E-03 0.  1.
        -12    1    3    3    0    0  0.66907297365E+01  0.25335926159E+01 -0.11466276685E+02  0.13515193560E+02  0.00000000000E+00 0.  1.
</event>
<event>
 7    1  0.1476909E-008  0.4614232E+02  0.7816164E-02  0.1320468E+00
        -11   -1    0    0    0    0  0.00000000000E+00  0.00000000000E+00  0.45593999997E+02  0.45594000000E+02  0.51100000000E-03 0. -1.
         11   -1    0    0    0    0 -0.00000000000E+00 -0.00000000000E+00 -0.45593999997E+02  0.45594000000E+02  0.51100000000E-03 0.  1.
    9900012    2    1    2    0    0  0.18072945501E+02  0.19088666747E+02  0.36580115337E+02  0.46142318794E+02  0.10000009415E+02 0.  0.
        -12    1    1    2    0    0 -0.18072945501E+02 -0.19088666747E+02 -0.36580115337E+02  0.45045681206E+02  0.00000000000E+00 0.  1.
         11    1    3    3    0    0  0.96414375094E+01  0.36398976663E+01  0.13629558061E+02  0.17087159667E+02  0.51100000000E-03 0. -1.
        -11    1    3    3    0    0  0.48994641914E+01  0.11534305056E+02  0.16665860160E+02  0.20851758621E+02  0.51100000000E-03 0.  1.
         12    1    3    3    0    0  0.35320438007E+01  0.39144640248E+01  0.62846971160E+01  0.82034005053E+01  0.00000000000E+00 0. -1.
</event>
<event>
 7    1  0.1476909E-008  0.4614232E+02  0.7816164E-02  0.1320468E+00
        -11   -1    0    0    0    0  0.00000000000E+00  0.00000000000E+00  0.45593999997E+02  0.45594000000E+02  0.51100000000E-03 0.  1.
         11   -1    0    0    0    0 -0.00000000000E+00 -0.00000000000E+00 -0.45593999997E+02  0.45594000000E+02  0.51100000000E-03 0. -1.
    9900012    2    1    2    0    0 -0.42728324116E+02  0.14014691647E+02 -0.26442868101E+01  0.46142317449E+02  0.99999971567E+01 0.  0.
        -12    1    1    2    0    0  0.42728324116E+02 -0.14014691647E+02  0.26442868101E+01  0.45045682551E+02  0.00000000000E+00 0.  1.
         11    1    3    3    0    0 -0.38721963531E+02  0.13116320292E+02 -0.28881938439E+01  0.40984997031E+02  0.51100000000E-03 0. -1.
        -11    1    3    3    0    0 -0.13570373389E+00 -0.82933265617E+00 -0.28123115094E+00  0.88617119078E+00  0.51100000000E-03 0.  1.
         12    1    3    3    0    0 -0.38706568508E+01  0.17277040114E+01  0.52513818479E+00  0.42711492272E+01  0.00000000000E+00 0. -1.
</event>
<event>
 7    1  0.1476909E-008  0.4614232E+02  0.7816164E-02  0.1320468E+00
        -11   -1    0    0    0    0  0.00000000000E+00  0.00000000000E+00  0.45593999997E+02  0.45594000000E+02  0.51100000000E-03 0.  1.
         11   -1    0    0    0    0 -0.00000000000E+00 -0.00000000000E+00 -0.45593999997E+02  0.45594000000E+02  0.51100000000E-03 0. -1.
    9900012    2    1    2    0    0  0.66386489515E+01 -0.58668501870E+01 -0.44165840565E+02  0.46142322474E+02  0.10000042975E+02 0.  0.
        -12    1    1    2    0    0 -0.66386489515E+01  0.58668501870E+01  0.44165840565E+02  0.45045677526E+02  0.00000000000E+00 0.  1.
         11    1    3    3    0    0  0.48522783688E+01 -0.63451753805E+01 -0.22875687742E+02  0.24230207302E+02  0.51100000000E-03 0. -1.
        -11    1    3    3    0    0 -0.11458793966E+01 -0.73702042969E+00 -0.24226120786E+01  0.27794402763E+01  0.51100000000E-03 0.  1.
         12    1    3    3    0    0  0.29322499793E+01  0.12153456232E+01 -0.18867540744E+02  0.19132674896E+02  0.00000000000E+00 0. -1.
</event>
<event>
 7    1  0.1476909E-008  0.4614232E+02  0.7816164E-02  0.1320468E+00
        -11   -1    0    0    0    0  0.00000000000E+00  0.00000000000E+00  0.45593999997E+02  0.45594000000E+02  0.51100000000E-03 0. -1.
         11   -1    0    0    0    0 -0.00000000000E+00 -0.00000000000E+00 -0.45593999997E+02  0.45594000000E+02  0.51100000000E-03 0.  1.
    9900012    2    1    2    0    0 -0.11920085315E+02  0.41447040668E+02  0.13006455158E+02  0.46142317745E+02  0.99999998548E+01 0.  0.
        -12    1    1    2    0    0  0.11920085315E+02 -0.41447040668E+02 -0.13006455158E+02  0.45045682255E+02  0.00000000000E+00 0.  1.
         11    1    3    3    0    0 -0.76537165349E+01  0.22327828093E+02  0.41235420211E+01  0.23960694548E+02  0.51100000000E-03 0. -1.
        -11    1    3    3    0    0 -0.48733314428E+01  0.14350879853E+02  0.84578796704E+01  0.17356060633E+02  0.51100000000E-03 0.  1.
        -12    1    3    3    0    0  0.60696266294E+00  0.47683327216E+01  0.42503346653E+00  0.48255625646E+01  0.00000000000E+00 0.  1.
</event>
<event>
 7    1  0.1476909E-008  0.4614232E+02  0.7816164E-02  0.1320468E+00
        -11   -1    0    0    0    0  0.00000000000E+00  0.00000000000E+00  0.45593999997E+02  0.45594000000E+02  0.51100000000E-03 0.  1.
         11   -1    0    0    0    0 -0.00000000000E+00 -0.00000000000E+00 -0.45593999997E+02  0.45594000000E+02  0.51100000000E-03 0. -1.
    9900012    2    1    2    0    0 -0.22008501242E+02 -0.18329819200E+02 -0.34767184662E+02  0.46142317319E+02  0.99999959729E+01 0.  0.
        -12    1    1    2    0    0  0.22008501242E+02  0.18329819200E+02  0.34767184662E+02  0.45045682681E+02  0.00000000000E+00 0.  1.
         11    1    3    3    0    0 -0.28799331260E+01 -0.72013058962E+01 -0.81277589152E+01  0.11234468686E+02  0.51100000000E-03 0. -1.
        -11    1    3    3    0    0 -0.14988098683E+02 -0.10616266985E+02 -0.22260687354E+02  0.28859771804E+02  0.51100000000E-03 0.  1.
        -12    1    3    3    0    0 -0.41404694337E+01 -0.51224631822E+00 -0.43787383928E+01  0.60480768295E+01  0.00000000000E+00 0.  1.
</event>
<event>
 7    1  0.1476909E-008  0.4614232E+02  0.7816164E-02  0.1320468E+00
        -11   -1    0    0    0    0  0.00000000000E+00  0.00000000000E+00  0.45593999997E+02  0.45594000000E+02  0.51100000000E-03 0. -1.
         11   -1    0    0    0    0 -0.00000000000E+00 -0.00000000000E+00 -0.45593999997E+02  0.45594000000E+02  0.51100000000E-03 0.  1.
    9900012    2    1    2    0    0 -0.15860623505E+02 -0.38876758690E+02  0.16314158847E+02  0.46142317376E+02  0.99999964847E+01 0.  0.
        -12    1    1    2    0    0  0.15860623505E+02  0.38876758690E+02 -0.16314158847E+02  0.45045682624E+02  0.00000000000E+00 0.  1.
         11    1    3    3    0    0 -0.38713947082E+01 -0.50713977800E+01  0.33178117508E+01  0.71912896969E+01  0.51100000000E-03 0. -1.
        -11    1    3    3    0    0 -0.11413454631E+02 -0.26078295710E+02  0.12768942659E+02  0.31199204327E+02  0.51100000000E-03 0.  1.
        -12    1    3    3    0    0 -0.57577416558E+00 -0.77270652001E+01  0.22740443717E+00  0.77518233516E+01  0.00000000000E+00 0.  1.
</event>
<event>
 7    1  0.1476909E-008  0.4614232E+02  0.7816164E-02  0.1320468E+00
        -11   -1    0    0    0    0  0.00000000000E+00  0.00000000000E+00  0.45593999997E+02  0.45594000000E+02  0.51100000000E-03 0.  1.
         11   -1    0    0    0    0 -0.00000000000E+00 -0.00000000000E+00 -0.45593999997E+02  0.45594000000E+02  0.51100000000E-03 0. -1.
    9900012    2    1    2    0    0  0.91506853293E+01 -0.38289643038E+02 -0.21892507061E+02  0.46142315729E+02  0.99999814722E+01 0.  0.
        -12    1    1    2    0    0 -0.91506853293E+01  0.38289643038E+02  0.21892507061E+02  0.45045684271E+02  0.00000000000E+00 0.  1.
         11    1    3    3    0    0  0.56254136089E+00 -0.16388012057E+01 -0.15016730337E+01  0.22928463393E+01  0.51100000000E-03 0. -1.
        -11    1    3    3    0    0  0.10583527313E+02 -0.32931388645E+02 -0.17878836701E+02  0.38937645159E+02  0.51100000000E-03 0.  1.
        -12    1    3    3    0    0 -0.19953833450E+01 -0.37194531878E+01 -0.25119973269E+01  0.49118242314E+01  0.00000000000E+00 0.  1.
</event>
<event>
 7    1  0.1476909E-008  0.4614232E+02  0.7816164E-02  0.1320468E+00
        -11   -1    0    0    0    0  0.00000000000E+00  0.00000000000E+00  0.45593999997E+02  0.45594000000E+02  0.51100000000E-03 0.  1.
         11   -1    0    0    0    0 -0.00000000000E+00 -0.00000000000E+00 -0.45593999997E+02  0.45594000000E+02  0.51100000000E-03 0. -1.
    9900012    2    1    2    0    0  0.31579367424E+02  0.16103194347E+02 -0.27794677415E+02  0.46142318657E+02  0.10000008170E+02 0.  0.
        -12    1    1    2    0    0 -0.31579367424E+02 -0.16103194347E+02  0.27794677415E+02  0.45045681343E+02  0.00000000000E+00 0.  1.
         11    1    3    3    0    0  0.11711280977E+02  0.20378636212E+01 -0.55777319197E+01  0.13130806673E+02  0.51100000000E-03 0. -1.
        -11    1    3    3    0    0  0.46854024942E+01  0.40761261046E+01 -0.49346721932E+01  0.79321365639E+01  0.51100000000E-03 0.  1.
         12    1    3    3    0    0  0.15182683952E+02  0.99892046207E+01 -0.17282273302E+02  0.25079375420E+02  0.00000000000E+00 0. -1.
</event>
<event>
 7    1  0.1476909E-008  0.4614232E+02  0.7816164E-02  0.1320468E+00
        -11   -1    0    0    0    0  0.00000000000E+00  0.00000000000E+00  0.45593999997E+02  0.45594000000E+02  0.51100000000E-03 0. -1.
         11   -1    0    0    0    0 -0.00000000000E+00 -0.00000000000E+00 -0.45593999997E+02  0.45594000000E+02  0.51100000000E-03 0.  1.
    9900012    2    1    2    0    0 -0.73579950338E+01 -0.34803243037E+02  0.27635262289E+02  0.46142317204E+02  0.99999949157E+01 0.  0.
        -12    1    1    2    0    0  0.73579950338E+01  0.34803243037E+02 -0.27635262289E+02  0.45045682796E+02  0.00000000000E+00 0.  1.
         11    1    3    3    0    0 -0.78690352647E+01 -0.21657356133E+02  0.19768685741E+02  0.30360562031E+02  0.51100000000E-03 0. -1.
        -11    1    3    3    0    0  0.10608447430E+01 -0.11250876705E+02  0.79333815026E+01  0.13807467564E+02  0.51100000000E-03 0.  1.
        -12    1    3    3    0    0 -0.54980451213E+00 -0.18950101999E+01 -0.66804955327E-01  0.19742876086E+01  0.00000000000E+00 0.  1.
</event>
<event>
 7    1  0.1476909E-008  0.4614232E+02  0.7816164E-02  0.1320468E+00
        -11   -1    0    0    0    0  0.00000000000E+00  0.00000000000E+00  0.45593999997E+02  0.45594000000E+02  0.51100000000E-03 0. -1.
         11   -1    0    0    0    0 -0.00000000000E+00 -0.00000000000E+00 -0.45593999997E+02  0.45594000000E+02  0.51100000000E-03 0.  1.
    9900012    2    1    2    0    0  0.80175867450E+01  0.32521917717E+02  0.30119042338E+02  0.46142317182E+02  0.99999947189E+01 0.  0.
        -12    1    1    2    0    0 -0.80175867450E+01 -0.32521917717E+02 -0.30119042338E+02  0.45045682818E+02  0.00000000000E+00 0.  1.
         11    1    3    3    0    0  0.66417405399E+01  0.23853406873E+02  0.24492061062E+02  0.34827557941E+02  0.51100000000E-03 0. -1.
        -11    1    3    3    0    0 -0.16036121659E+01  0.29528956774E+01  0.16812199652E+01  0.37573482262E+01  0.51100000000E-03 0.  1.
         12    1    3    3    0    0  0.29794583711E+01  0.57156151669E+01  0.39457613103E+01  0.75574110143E+01  0.00000000000E+00 0. -1.
</event>
<event>
 7    1  0.1476909E-008  0.4614232E+02  0.7816164E-02  0.1320468E+00
        -11   -1    0    0    0    0  0.00000000000E+00  0.00000000000E+00  0.45593999997E+02  0.45594000000E+02  0.51100000000E-03 0.  1.
         11   -1    0    0    0    0 -0.00000000000E+00 -0.00000000000E+00 -0.45593999997E+02  0.45594000000E+02  0.51100000000E-03 0. -1.
    9900012    2    1    2    0    0  0.33545615469E+02  0.29390190808E+02 -0.63262818157E+01  0.46142317915E+02  0.10000001400E+02 0.  0.
        -12    1    1    2    0    0 -0.33545615469E+02 -0.29390190808E+02  0.63262818157E+01  0.45045682085E+02  0.00000000000E+00 0.  1.
         11    1    3    3    0    0  0.27572187021E+01  0.23098024268E+01  0.15304302300E+01  0.39089204612E+01  0.51100000000E-03 0.  1.
        -11    1    3    3    0    0  0.19307853772E+02  0.13667535281E+02 -0.64656281627E+01  0.24523439517E+02  0.51100000000E-03 0. -1.
         12    1    3    3    0    0  0.11480542995E+02  0.13412853100E+02 -0.13910838830E+01  0.17709957936E+02  0.00000000000E+00 0. -1.
</event>
<event>
 7    1  0.1476909E-008  0.4614232E+02  0.7816164E-02  0.1320468E+00
        -11   -1    0    0    0    0  0.00000000000E+00  0.00000000000E+00  0.45593999997E+02  0.45594000000E+02  0.51100000000E-03 0.  1.
         11   -1    0    0    0    0 -0.00000000000E+00 -0.00000000000E+00 -0.45593999997E+02  0.45594000000E+02  0.51100000000E-03 0. -1.
    9900012    2    1    2    0    0 -0.12507174364E+02  0.15252686914E+02 -0.40497403487E+02  0.46142316990E+02  0.99999929683E+01 0.  0.
        -12    1    1    2    0    0  0.12507174364E+02 -0.15252686914E+02  0.40497403487E+02  0.45045683010E+02  0.00000000000E+00 0.  1.
         11    1    3    3    0    0 -0.12370043238E+02  0.11912288007E+02 -0.28556111088E+02  0.33322245663E+02  0.51100000000E-03 0. -1.
        -11    1    3    3    0    0  0.25130824052E+00 -0.62797067360E+00 -0.16396955457E+01  0.17737262310E+01  0.51100000000E-03 0.  1.
         12    1    3    3    0    0 -0.38843936722E+00  0.39683695802E+01 -0.10301596853E+02  0.11046345096E+02  0.00000000000E+00 0. -1.
</event>
<event>
 7    1  0.1476909E-008  0.4614232E+02  0.7816164E-02  0.1320468E+00
        -11   -1    0    0    0    0  0.00000000000E+00  0.00000000000E+00  0.45593999997E+02  0.45594000000E+02  0.51100000000E-03 0. -1.
         11   -1    0    0    0    0 -0.00000000000E+00 -0.00000000000E+00 -0.45593999997E+02  0.45594000000E+02  0.51100000000E-03 0.  1.
    9900012    2    1    2    0    0  0.90922868046E+01  0.16401509575E+02  0.40956493334E+02  0.46142317167E+02  0.99999945802E+01 0.  0.
        -12    1    1    2    0    0 -0.90922868046E+01 -0.16401509575E+02 -0.40956493334E+02  0.45045682833E+02  0.00000000000E+00 0.  1.
         11    1    3    3    0    0  0.10266386164E+00 -0.80673570524E+00  0.30312148067E+01  0.31384113548E+01  0.51100000000E-03 0.  1.
        -11    1    3    3    0    0  0.90476814354E+01  0.12612036044E+02  0.26867400570E+02  0.31028715832E+02  0.51100000000E-03 0. -1.
         12    1    3    3    0    0 -0.58058492433E-01  0.45962092367E+01  0.11057877958E+02  0.11975189980E+02  0.00000000000E+00 0. -1.
</event>
<event>
 7    1  0.1476909E-008  0.4614232E+02  0.7816164E-02  0.1320468E+00
        -11   -1    0    0    0    0  0.00000000000E+00  0.00000000000E+00  0.45593999997E+02  0.45594000000E+02  0.51100000000E-03 0. -1.
         11   -1    0    0    0    0 -0.00000000000E+00 -0.00000000000E+00 -0.45593999997E+02  0.45594000000E+02  0.51100000000E-03 0.  1.
    9900012    2    1    2    0    0  0.31471581943E+02  0.32071788475E+02 -0.31707063980E+01  0.46142318020E+02  0.10000002358E+02 0.  0.
        -12    1    1    2    0    0 -0.31471581943E+02 -0.32071788475E+02  0.31707063980E+01  0.45045681980E+02  0.00000000000E+00 0.  1.
         11    1    3    3    0    0  0.76864519499E+01  0.93015770244E+01  0.17984167743E+01  0.12199802534E+02  0.51100000000E-03 0. -1.
        -11    1    3    3    0    0  0.23548265587E+02  0.20489128156E+02 -0.51737684262E+01  0.31640054753E+02  0.51100000000E-03 0.  1.
        -12    1    3    3    0    0  0.23686440596E+00  0.22810832952E+01  0.20464525382E+00  0.23024607329E+01  0.00000000000E+00 0.  1.
</event>
<event>
 7    1  0.1476909E-008  0.4614232E+02  0.7816164E-02  0.1320468E+00
        -11   -1    0    0    0    0  0.00000000000E+00  0.00000000000E+00  0.45593999997E+02  0.45594000000E+02  0.51100000000E-03 0. -1.
         11   -1    0    0    0    0 -0.00000000000E+00 -0.00000000000E+00 -0.45593999997E+02  0.45594000000E+02  0.51100000000E-03 0.  1.
    9900012    2    1    2    0    0  0.33511603289E+01  0.16427134726E+02  0.41809471395E+02  0.46142323968E+02  0.10000056602E+02 0.  0.
        -12    1    1    2    0    0 -0.33511603289E+01 -0.16427134726E+02 -0.41809471395E+02  0.45045676032E+02  0.00000000000E+00 0.  1.
         11    1    3    3    0    0 -0.25568548362E-01  0.19640935494E+00 -0.36345401483E+00  0.41391963881E+00  0.51100000000E-03 0.  1.
        -11    1    3    3    0    0  0.51716554409E+00 -0.48614144202E+00  0.20027694271E+01  0.21248245435E+01  0.51100000000E-03 0. -1.
         12    1    3    3    0    0  0.28595633332E+01  0.16716866813E+02  0.40170155982E+02  0.43603579786E+02  0.00000000000E+00 0. -1.
</event>
<event>
 7    1  0.1476909E-008  0.4614232E+02  0.7816164E-02  0.1320468E+00
        -11   -1    0    0    0    0  0.00000000000E+00  0.00000000000E+00  0.45593999997E+02  0.45594000000E+02  0.51100000000E-03 0.  1.
         11   -1    0    0    0    0 -0.00000000000E+00 -0.00000000000E+00 -0.45593999997E+02  0.45594000000E+02  0.51100000000E-03 0. -1.
    9900012    2    1    2    0    0 -0.10556575440E+02 -0.17834408610E+02 -0.39995075372E+02  0.46142317971E+02  0.10000001915E+02 0.  0.
        -12    1    1    2    0    0  0.10556575440E+02  0.17834408610E+02  0.39995075372E+02  0.45045682029E+02  0.00000000000E+00 0.  1.
         11    1    3    3    0    0 -0.22732826079E+01 -0.83994851429E+01 -0.13995273126E+02  0.16479891826E+02  0.51100000000E-03 0. -1.
        -11    1    3    3    0    0 -0.16546470059E+01 -0.67364021361E+01 -0.10423952393E+02  0.12521012508E+02  0.51100000000E-03 0.  1.
         12    1    3    3    0    0 -0.66286458259E+01 -0.26985213305E+01 -0.15575849852E+02  0.17141413637E+02  0.00000000000E+00 0. -1.
</event>
<event>
 7    1  0.1476909E-008  0.4614232E+02  0.7816164E-02  0.1320468E+00
        -11   -1    0    0    0    0  0.00000000000E+00  0.00000000000E+00  0.45593999997E+02  0.45594000000E+02  0.51100000000E-03 0.  1.
         11   -1    0    0    0    0 -0.00000000000E+00 -0.00000000000E+00 -0.45593999997E+02  0.45594000000E+02  0.51100000000E-03 0. -1.
    9900012    2    1    2    0    0  0.26476525912E+02  0.23252883056E+02 -0.28060825156E+02  0.46142324256E+02  0.10000059229E+02 0.  0.
        -12    1    1    2    0    0 -0.26476525912E+02 -0.23252883056E+02  0.28060825156E+02  0.45045675744E+02  0.00000000000E+00 0.  1.
         11    1    3    3    0    0  0.11689620170E+02  0.76681188666E+01 -0.12638028394E+02  0.18845875639E+02  0.51100000000E-03 0. -1.
        -11    1    3    3    0    0  0.11983521673E+02  0.94270446519E+01 -0.78771218624E+01  0.17161672753E+02  0.51100000000E-03 0.  1.
         12    1    3    3    0    0  0.28033840687E+01  0.61577195377E+01 -0.75456748996E+01  0.10134775865E+02  0.00000000000E+00 0. -1.
</event>
<event>
 7    1  0.1476909E-008  0.4614232E+02  0.7816164E-02  0.1320468E+00
        -11   -1    0    0    0    0  0.00000000000E+00  0.00000000000E+00  0.45593999997E+02  0.45594000000E+02  0.51100000000E-03 0.  1.
         11   -1    0    0    0    0 -0.00000000000E+00 -0.00000000000E+00 -0.45593999997E+02  0.45594000000E+02  0.51100000000E-03 0. -1.
    9900012    2    1    2    0    0  0.89704708982E+01 -0.41841182704E+02 -0.14069805057E+02  0.46142319491E+02  0.10000015774E+02 0.  0.
        -12    1    1    2    0    0 -0.89704708982E+01  0.41841182704E+02  0.14069805057E+02  0.45045680509E+02  0.00000000000E+00 0.  1.
         11    1    3    3    0    0  0.40905079004E+01 -0.49747146265E+01 -0.30781755959E+01  0.71382915154E+01  0.51100000000E-03 0. -1.
        -11    1    3    3    0    0  0.30991671172E+01 -0.29179459431E+02 -0.10234621209E+02  0.31077212891E+02  0.51100000000E-03 0.  1.
        -12    1    3    3    0    0  0.17807958806E+01 -0.76870086458E+01 -0.75700825189E+00  0.79268150844E+01  0.00000000000E+00 0.  1.
</event>
<event>
 7    1  0.1476909E-008  0.4614232E+02  0.7816164E-02  0.1320468E+00
        -11   -1    0    0    0    0  0.00000000000E+00  0.00000000000E+00  0.45593999997E+02  0.45594000000E+02  0.51100000000E-03 0. -1.
         11   -1    0    0    0    0 -0.00000000000E+00 -0.00000000000E+00 -0.45593999997E+02  0.45594000000E+02  0.51100000000E-03 0.  1.
    9900012    2    1    2    0    0  0.39194806134E+02  0.22052469122E+02  0.25630662234E+01  0.46142317291E+02  0.99999957097E+01 0.  0.
        -12    1    1    2    0    0 -0.39194806134E+02 -0.22052469122E+02 -0.25630662234E+01  0.45045682709E+02  0.00000000000E+00 0.  1.
         11    1    3    3    0    0  0.21322000006E+02  0.13375972831E+02  0.42917702785E+01  0.25533578398E+02  0.51100000000E-03 0. -1.
        -11    1    3    3    0    0  0.87369187177E+01  0.40677571354E+01 -0.34421922036E+01  0.10233722892E+02  0.51100000000E-03 0.  1.
         12    1    3    3    0    0  0.91358874104E+01  0.46087391558E+01  0.17134881486E+01  0.10375016001E+02  0.00000000000E+00 0. -1.
</event>
<event>
 7    1  0.1476909E-008  0.4614232E+02  0.7816164E-02  0.1320468E+00
        -11   -1    0    0    0    0  0.00000000000E+00  0.00000000000E+00  0.45593999997E+02  0.45594000000E+02  0.51100000000E-03 0.  1.
         11   -1    0    0    0    0 -0.00000000000E+00 -0.00000000000E+00 -0.45593999997E+02  0.45594000000E+02  0.51100000000E-03 0. -1.
    9900012    2    1    2    0    0  0.32728929511E+02  0.69750672145E+01 -0.30154254311E+02  0.46142318269E+02  0.10000004630E+02 0.  0.
        -12    1    1    2    0    0 -0.32728929511E+02 -0.69750672145E+01  0.30154254311E+02  0.45045681731E+02  0.00000000000E+00 0.  1.
         11    1    3    3    0    0  0.18187940069E+02  0.39855598596E+01 -0.18188220312E+02  0.26028776570E+02  0.51100000000E-03 0. -1.
        -11    1    3    3    0    0  0.13190971647E+02  0.35721084683E+01 -0.78894560153E+01  0.15779898871E+02  0.51100000000E-03 0.  1.
         12    1    3    3    0    0  0.13500177948E+01 -0.58260111337E+00 -0.40765779838E+01  0.43336428281E+01  0.00000000000E+00 0. -1.
</event>
<event>
 7    1  0.1476909E-008  0.4614232E+02  0.7816164E-02  0.1320468E+00
        -11   -1    0    0    0    0  0.00000000000E+00  0.00000000000E+00  0.45593999997E+02  0.45594000000E+02  0.51100000000E-03 0.  1.
         11   -1    0    0    0    0 -0.00000000000E+00 -0.00000000000E+00 -0.45593999997E+02  0.45594000000E+02  0.51100000000E-03 0. -1.
    9900012    2    1    2    0    0 -0.13826465527E+02  0.82621828856E+01 -0.42067548260E+02  0.46142318391E+02  0.10000005743E+02 0.  0.
        -12    1    1    2    0    0  0.13826465527E+02 -0.82621828856E+01  0.42067548260E+02  0.45045681609E+02  0.00000000000E+00 0.  1.
         11    1    3    3    0    0 -0.94685643619E+01  0.78404275023E+01 -0.22302183849E+02  0.25465926632E+02  0.51100000000E-03 0. -1.
        -11    1    3    3    0    0  0.34117754694E+00 -0.10067625995E+01 -0.23030730706E+01  0.25365565004E+01  0.51100000000E-03 0.  1.
         12    1    3    3    0    0 -0.46990787119E+01  0.14285179829E+01 -0.17462291340E+02  0.18139835259E+02  0.00000000000E+00 0. -1.
</event>
<event>
 7    1  0.1476909E-008  0.4614232E+02  0.7816164E-02  0.1320468E+00
        -11   -1    0    0    0    0  0.00000000000E+00  0.00000000000E+00  0.45593999997E+02  0.45594000000E+02  0.51100000000E-03 0. -1.
         11   -1    0    0    0    0 -0.00000000000E+00 -0.00000000000E+00 -0.45593999997E+02  0.45594000000E+02  0.51100000000E-03 0.  1.
    9900012    2    1    2    0    0 -0.79586350434E+01  0.26142606422E+02  0.35809744297E+02  0.46142317311E+02  0.99999958965E+01 0.  0.
        -12    1    1    2    0    0  0.79586350434E+01 -0.26142606422E+02 -0.35809744297E+02  0.45045682689E+02  0.00000000000E+00 0.  1.
         11    1    3    3    0    0 -0.64351273469E+01  0.25337063983E+02  0.32240247029E+02  0.41506760944E+02  0.51100000000E-03 0. -1.
        -11    1    3    3    0    0  0.56311311974E+00  0.25729896306E+00  0.15951125023E+01  0.17110474272E+01  0.51100000000E-03 0.  1.
         12    1    3    3    0    0 -0.20866208162E+01  0.54824347555E+00  0.19743847655E+01  0.29245089402E+01  0.00000000000E+00 0. -1.
</event>
<event>
 7    1  0.1476909E-008  0.4614232E+02  0.7816164E-02  0.1320468E+00
        -11   -1    0    0    0    0  0.00000000000E+00  0.00000000000E+00  0.45593999997E+02  0.45594000000E+02  0.51100000000E-03 0.  1.
         11   -1    0    0    0    0 -0.00000000000E+00 -0.00000000000E+00 -0.45593999997E+02  0.45594000000E+02  0.51100000000E-03 0. -1.
    9900012    2    1    2    0    0  0.39278313337E+01  0.30562681057E+02 -0.32857391028E+02  0.46142317881E+02  0.10000001097E+02 0.  0.
        -12    1    1    2    0    0 -0.39278313337E+01 -0.30562681057E+02  0.32857391028E+02  0.45045682119E+02  0.00000000000E+00 0.  1.
         11    1    3    3    0    0 -0.18048358398E+00  0.22659638349E+02 -0.22425074689E+02  0.31880648668E+02  0.51100000000E-03 0. -1.
        -11    1    3    3    0    0  0.49090321972E+00  0.39026957715E+01 -0.24700298608E+01  0.46446816931E+01  0.51100000000E-03 0.  1.
         12    1    3    3    0    0  0.36174116980E+01  0.40003469363E+01 -0.79622864777E+01  0.96169875198E+01  0.00000000000E+00 0. -1.
</event>
<event>
 7    1  0.1476909E-008  0.4614232E+02  0.7816164E-02  0.1320468E+00
        -11   -1    0    0    0    0  0.00000000000E+00  0.00000000000E+00  0.45593999997E+02  0.45594000000E+02  0.51100000000E-03 0.  1.
         11   -1    0    0    0    0 -0.00000000000E+00 -0.00000000000E+00 -0.45593999997E+02  0.45594000000E+02  0.51100000000E-03 0. -1.
    9900012    2    1    2    0    0  0.41024080979E+01 -0.10460804405E+02 -0.43621729926E+02  0.46142317602E+02  0.99999985490E+01 0.  0.
        -12    1    1    2    0    0 -0.41024080979E+01  0.10460804405E+02  0.43621729926E+02  0.45045682398E+02  0.00000000000E+00 0.  1.
         11    1    3    3    0    0  0.45219164913E-01  0.95886372273E+00 -0.14282450723E+01  0.17208569549E+01  0.51100000000E-03 0.  1.
        -11    1    3    3    0    0  0.14671099178E+01 -0.66483234281E+01 -0.33401793831E+02  0.34088597027E+02  0.51100000000E-03 0. -1.
        -12    1    3    3    0    0  0.25900790152E+01 -0.47713446999E+01 -0.87916910224E+01  0.10332863620E+02  0.00000000000E+00 0.  1.
</event>
<event>
 7    1  0.1476909E-008  0.4614232E+02  0.7816164E-02  0.1320468E+00
        -11   -1    0    0    0    0  0.00000000000E+00  0.00000000000E+00  0.45593999997E+02  0.45594000000E+02  0.51100000000E-03 0.  1.
         11   -1    0    0    0    0 -0.00000000000E+00 -0.00000000000E+00 -0.45593999997E+02  0.45594000000E+02  0.51100000000E-03 0. -1.
    9900012    2    1    2    0    0 -0.17539034272E+02 -0.29029805136E+02 -0.29643990475E+02  0.46142317847E+02  0.10000000781E+02 0.  0.
        -12    1    1    2    0    0  0.17539034272E+02  0.29029805136E+02  0.29643990475E+02  0.45045682153E+02  0.00000000000E+00 0.  1.
         11    1    3    3    0    0 -0.87643177277E+01 -0.18743822725E+02 -0.23260802934E+02  0.31132123426E+02  0.51100000000E-03 0. -1.
        -11    1    3    3    0    0 -0.13558732569E+01 -0.22795012208E+01 -0.94816469466E+00  0.28166530943E+01  0.51100000000E-03 0.  1.
         12    1    3    3    0    0 -0.74188432869E+01 -0.80064811894E+01 -0.54350228457E+01  0.12193541327E+02  0.00000000000E+00 0. -1.
</event>
<event>
 7    1  0.1476909E-008  0.4614232E+02  0.7816164E-02  0.1320468E+00
        -11   -1    0    0    0    0  0.00000000000E+00  0.00000000000E+00  0.45593999997E+02  0.45594000000E+02  0.51100000000E-03 0.  1.
         11   -1    0    0    0    0 -0.00000000000E+00 -0.00000000000E+00 -0.45593999997E+02  0.45594000000E+02  0.51100000000E-03 0. -1.
    9900012    2    1    2    0    0  0.29385296496E+02 -0.33995735986E+02  0.31476618091E+01  0.46142317740E+02  0.99999998049E+01 0.  0.
        -12    1    1    2    0    0 -0.29385296496E+02  0.33995735986E+02 -0.31476618091E+01  0.45045682260E+02  0.00000000000E+00 0.  1.
         11    1    3    3    0    0  0.55189264300E+00 -0.28942502882E+01 -0.68390279064E+00  0.30247303200E+01  0.51100000000E-03 0. -1.
        -11    1    3    3    0    0  0.28328457834E+02 -0.31326708763E+02  0.42136932193E+01  0.42445487581E+02  0.51100000000E-03 0.  1.
        -12    1    3    3    0    0  0.50494601935E+00  0.22522306492E+00 -0.38212861958E+00  0.67209983881E+00  0.00000000000E+00 0.  1.
</event>
<event>
 7    1  0.1476909E-008  0.4614232E+02  0.7816164E-02  0.1320468E+00
        -11   -1    0    0    0    0  0.00000000000E+00  0.00000000000E+00  0.45593999997E+02  0.45594000000E+02  0.51100000000E-03 0.  1.
         11   -1    0    0    0    0 -0.00000000000E+00 -0.00000000000E+00 -0.45593999997E+02  0.45594000000E+02  0.51100000000E-03 0. -1.
    9900012    2    1    2    0    0 -0.31431838079E+01  0.27279088669E+02 -0.35708331444E+02  0.46142320767E+02  0.10000027408E+02 0.  0.
        -12    1    1    2    0    0  0.31431838079E+01 -0.27279088669E+02  0.35708331444E+02  0.45045679233E+02  0.00000000000E+00 0.  1.
         11    1    3    3    0    0 -0.37829096149E+01  0.17491257475E+02 -0.27407143991E+02  0.32732339287E+02  0.51100000000E-03 0. -1.
        -11    1    3    3    0    0 -0.70697871320E+00  0.51922294796E+01 -0.22749365330E+01  0.57126528304E+01  0.51100000000E-03 0.  1.
        -12    1    3    3    0    0  0.13467045202E+01  0.45956017138E+01 -0.60262509204E+01  0.76973286491E+01  0.00000000000E+00 0.  1.
</event>
<event>
 7    1  0.1476909E-008  0.4614231E+02  0.7816164E-02  0.1320468E+00
        -11   -1    0    0    0    0  0.00000000000E+00  0.00000000000E+00  0.45593999997E+02  0.45594000000E+02  0.51100000000E-03 0. -1.
         11   -1    0    0    0    0 -0.00000000000E+00 -0.00000000000E+00 -0.45593999997E+02  0.45594000000E+02  0.51100000000E-03 0.  1.
    9900012    2    1    2    0    0  0.29684008683E+02 -0.11924774429E+02  0.31713932721E+02  0.46142310469E+02  0.99999335045E+01 0.  0.
        -12    1    1    2    0    0 -0.29684008683E+02  0.11924774429E+02 -0.31713932721E+02  0.45045689531E+02  0.00000000000E+00 0.  1.
         11    1    3    3    0    0  0.13999888311E+02 -0.73625229103E+01  0.14591027136E+02  0.21519797617E+02  0.51100000000E-03 0. -1.
        -11    1    3    3    0    0  0.23347588028E+01  0.11809947186E+01  0.52148652049E+01  0.58344379814E+01  0.51100000000E-03 0.  1.
        -12    1    3    3    0    0  0.13349361569E+02 -0.57432462376E+01  0.11908040380E+02  0.18788074871E+02  0.00000000000E+00 0.  1.
</event>
<event>
 7    1  0.1476909E-008  0.4614231E+02  0.7816164E-02  0.1320468E+00
        -11   -1    0    0    0    0  0.00000000000E+00  0.00000000000E+00  0.45593999997E+02  0.45594000000E+02  0.51100000000E-03 0.  1.
         11   -1    0    0    0    0 -0.00000000000E+00 -0.00000000000E+00 -0.45593999997E+02  0.45594000000E+02  0.51100000000E-03 0. -1.
    9900012    2    1    2    0    0  0.82072270063E+01 -0.39795568687E+02 -0.19443986598E+02  0.46142306787E+02  0.99998999257E+01 0.  0.
        -12    1    1    2    0    0 -0.82072270063E+01  0.39795568687E+02  0.19443986598E+02  0.45045693213E+02  0.00000000000E+00 0.  1.
         11    1    3    3    0    0 -0.45103052847E+00 -0.21974997000E+00  0.25111309711E+00  0.56104958389E+00  0.51100000000E-03 0. -1.
        -11    1    3    3    0    0  0.75958889350E+01 -0.20578793781E+02 -0.86408641414E+01  0.23576446203E+02  0.51100000000E-03 0.  1.
         12    1    3    3    0    0  0.10623685998E+01 -0.18997024936E+02 -0.11054235554E+02  0.22004811000E+02  0.00000000000E+00 0. -1.
</event>
<event>
 7    1  0.1476909E-008  0.4614232E+02  0.7816164E-02  0.1320468E+00
        -11   -1    0    0    0    0  0.00000000000E+00  0.00000000000E+00  0.45593999997E+02  0.45594000000E+02  0.51100000000E-03 0.  1.
         11   -1    0    0    0    0 -0.00000000000E+00 -0.00000000000E+00 -0.45593999997E+02  0.45594000000E+02  0.51100000000E-03 0. -1.
    9900012    2    1    2    0    0  0.86686746739E+01 -0.39714628262E+02 -0.19409172400E+02  0.46142316612E+02  0.99999895246E+01 0.  0.
        -12    1    1    2    0    0 -0.86686746739E+01  0.39714628262E+02  0.19409172400E+02  0.45045683388E+02  0.00000000000E+00 0.  1.
         11    1    3    3    0    0  0.77028575938E-03 -0.25922394005E+01 -0.15452929609E+01  0.30178860646E+01  0.51100000000E-03 0. -1.
        -11    1    3    3    0    0  0.90042864418E+00 -0.87554225292E+01 -0.17434611716E+00  0.88033284750E+01  0.51100000000E-03 0.  1.
        -12    1    3    3    0    0  0.77674757440E+01 -0.28366966333E+02 -0.17689533322E+02  0.34321102073E+02  0.00000000000E+00 0.  1.
</event>
<event>
 7    1  0.1476909E-008  0.4614232E+02  0.7816164E-02  0.1320468E+00
        -11   -1    0    0    0    0  0.00000000000E+00  0.00000000000E+00  0.45593999997E+02  0.45594000000E+02  0.51100000000E-03 0.  1.
         11   -1    0    0    0    0 -0.00000000000E+00 -0.00000000000E+00 -0.45593999997E+02  0.45594000000E+02  0.51100000000E-03 0. -1.
    9900012    2    1    2    0    0 -0.19506777999E+01  0.20593785965E+02 -0.40015050070E+02  0.46142318782E+02  0.10000009312E+02 0.  0.
        -12    1    1    2    0    0  0.19506777999E+01 -0.20593785965E+02  0.40015050070E+02  0.45045681218E+02  0.00000000000E+00 0.  1.
         11    1    3    3    0    0 -0.19293083889E+01  0.49233982955E+01 -0.15802991547E+02  0.16664231867E+02  0.51100000000E-03 0. -1.
        -11    1    3    3    0    0 -0.19101944961E-01  0.11963804705E+02 -0.12990889911E+02  0.17660583480E+02  0.51100000000E-03 0.  1.
         12    1    3    3    0    0 -0.22674660287E-02  0.37065829646E+01 -0.11221168613E+02  0.11817503436E+02  0.00000000000E+00 0. -1.
</event>
<event>
 7    1  0.1476909E-008  0.4614232E+02  0.7816164E-02  0.1320468E+00
        -11   -1    0    0    0    0  0.00000000000E+00  0.00000000000E+00  0.45593999997E+02  0.45594000000E+02  0.51100000000E-03 0. -1.
         11   -1    0    0    0    0 -0.00000000000E+00 -0.00000000000E+00 -0.45593999997E+02  0.45594000000E+02  0.51100000000E-03 0.  1.
    9900012    2    1    2    0    0  0.38739627086E+02  0.13537611604E+02  0.18576538497E+02  0.46142318551E+02  0.10000007203E+02 0.  0.
        -12    1    1    2    0    0 -0.38739627086E+02 -0.13537611604E+02 -0.18576538497E+02  0.45045681449E+02  0.00000000000E+00 0.  1.
         11    1    3    3    0    0  0.22005828667E+02  0.84334349661E+01  0.93503219491E+01  0.25353655387E+02  0.51100000000E-03 0. -1.
        -11    1    3    3    0    0  0.73456139861E+01 -0.88088430739E+00  0.47319668190E+01  0.87821131986E+01  0.51100000000E-03 0.  1.
         12    1    3    3    0    0  0.93881844325E+01  0.59850609448E+01  0.44942497289E+01  0.12006549966E+02  0.00000000000E+00 0. -1.
</event>
<event>
 7    1  0.1476909E-008  0.4614232E+02  0.7816164E-02  0.1320468E+00
        -11   -1    0    0    0    0  0.00000000000E+00  0.00000000000E+00  0.45593999997E+02  0.45594000000E+02  0.51100000000E-03 0.  1.
         11   -1    0    0    0    0 -0.00000000000E+00 -0.00000000000E+00 -0.45593999997E+02  0.45594000000E+02  0.51100000000E-03 0. -1.
    9900012    2    1    2    0    0  0.78251212769E+01 -0.22831151672E+02 -0.38034450058E+02  0.46142318732E+02  0.10000008854E+02 0.  0.
        -12    1    1    2    0    0 -0.78251212769E+01  0.22831151672E+02  0.38034450058E+02  0.45045681268E+02  0.00000000000E+00 0.  1.
         11    1    3    3    0    0  0.16539005896E+01 -0.12194170914E+02 -0.18645735082E+02  0.22340470641E+02  0.51100000000E-03 0. -1.
        -11    1    3    3    0    0  0.37365801323E+01 -0.54453686457E+01 -0.49110357677E+01  0.82299661814E+01  0.51100000000E-03 0.  1.
        -12    1    3    3    0    0  0.24346405550E+01 -0.51916121120E+01 -0.14477679209E+02  0.15571881910E+02  0.00000000000E+00 0.  1.
</event>
<event>
 7    1  0.1476909E-008  0.4614232E+02  0.7816164E-02  0.1320468E+00
        -11   -1    0    0    0    0  0.00000000000E+00  0.00000000000E+00  0.45593999997E+02  0.45594000000E+02  0.51100000000E-03 0.  1.
         11   -1    0    0    0    0 -0.00000000000E+00 -0.00000000000E+00 -0.45593999997E+02  0.45594000000E+02  0.51100000000E-03 0. -1.
    9900012    2    1    2    0    0 -0.29505447167E+02 -0.60268716305E+01 -0.33499534566E+02  0.46142318628E+02  0.10000007901E+02 0.  0.
        -12    1    1    2    0    0  0.29505447167E+02  0.60268716305E+01  0.33499534566E+02  0.45045681372E+02  0.00000000000E+00 0.  1.
         11    1    3    3    0    0 -0.22191539688E+02 -0.27149436410E+01 -0.20294995529E+02  0.30194737894E+02  0.51100000000E-03 0. -1.
        -11    1    3    3    0    0 -0.77713463946E+00 -0.19103193367E+01 -0.18469586923E+01  0.27684860282E+01  0.51100000000E-03 0.  1.
         12    1    3    3    0    0 -0.65367728392E+01 -0.14016086527E+01 -0.11357580344E+02  0.13179094705E+02  0.00000000000E+00 0. -1.
</event>
<event>
 7    1  0.1476909E-008  0.4614231E+02  0.7816164E-02  0.1320468E+00
        -11   -1    0    0    0    0  0.00000000000E+00  0.00000000000E+00  0.45593999997E+02  0.45594000000E+02  0.51100000000E-03 0. -1.
         11   -1    0    0    0    0 -0.00000000000E+00 -0.00000000000E+00 -0.45593999997E+02  0.45594000000E+02  0.51100000000E-03 0.  1.
    9900012    2    1    2    0    0  0.12592191011E+02  0.30552085417E+02  0.30612424887E+02  0.46142314799E+02  0.99999729871E+01 0.  0.
        -12    1    1    2    0    0 -0.12592191011E+02 -0.30552085417E+02 -0.30612424887E+02  0.45045685201E+02  0.00000000000E+00 0.  1.
         11    1    3    3    0    0 -0.34484461321E+00  0.65821997186E+01  0.68084274786E+01  0.94762311039E+01  0.51100000000E-03 0. -1.
        -11    1    3    3    0    0  0.18243458890E+01  0.78684107812E+01  0.92636627220E+01  0.12290466770E+02  0.51100000000E-03 0.  1.
         12    1    3    3    0    0  0.11112689735E+02  0.16101474917E+02  0.14540334687E+02  0.24375616925E+02  0.00000000000E+00 0. -1.
</event>
<event>
 7    1  0.1476909E-008  0.4614232E+02  0.7816164E-02  0.1320468E+00
        -11   -1    0    0    0    0  0.00000000000E+00  0.00000000000E+00  0.45593999997E+02  0.45594000000E+02  0.51100000000E-03 0.  1.
         11   -1    0    0    0    0 -0.00000000000E+00 -0.00000000000E+00 -0.45593999997E+02  0.45594000000E+02  0.51100000000E-03 0. -1.
    9900012    2    1    2    0    0 -0.40908336458E+02  0.41031940157E+01 -0.18406121087E+02  0.46142317783E+02  0.10000000203E+02 0.  0.
        -12    1    1    2    0    0  0.40908336458E+02 -0.41031940157E+01  0.18406121087E+02  0.45045682217E+02  0.00000000000E+00 0.  1.
         11    1    3    3    0    0 -0.13230620250E+02  0.42200712631E+01 -0.47899065238E+01  0.14690184425E+02  0.51100000000E-03 0. -1.
        -11    1    3    3    0    0 -0.98753462638E+01  0.25126416000E+01 -0.33088160318E+01  0.10713733963E+02  0.51100000000E-03 0.  1.
         12    1    3    3    0    0 -0.17802369944E+02 -0.26295188475E+01 -0.10307398531E+02  0.20738399395E+02  0.00000000000E+00 0. -1.
</event>
<event>
 7    1  0.1476909E-008  0.4614232E+02  0.7816164E-02  0.1320468E+00
        -11   -1    0    0    0    0  0.00000000000E+00  0.00000000000E+00  0.45593999997E+02  0.45594000000E+02  0.51100000000E-03 0. -1.
         11   -1    0    0    0    0 -0.00000000000E+00 -0.00000000000E+00 -0.45593999997E+02  0.45594000000E+02  0.51100000000E-03 0.  1.
    9900012    2    1    2    0    0 -0.16457046128E+02 -0.41485135292E+02  0.61043149819E+01  0.46142317866E+02  0.10000000960E+02 0.  0.
        -12    1    1    2    0    0  0.16457046128E+02  0.41485135292E+02 -0.61043149819E+01  0.45045682134E+02  0.00000000000E+00 0.  1.
         11    1    3    3    0    0 -0.68396927810E+01 -0.25763794890E+02  0.72126174574E+01  0.27614785447E+02  0.51100000000E-03 0. -1.
        -11    1    3    3    0    0 -0.82918251230E+01 -0.14260030592E+02 -0.12920544247E+01  0.16546064222E+02  0.51100000000E-03 0.  1.
         12    1    3    3    0    0 -0.13255282239E+01 -0.14613098109E+01  0.18375194910E+00  0.19814681967E+01  0.00000000000E+00 0. -1.
</event>
<event>
 7    1  0.1476909E-008  0.4614232E+02  0.7816164E-02  0.1320468E+00
        -11   -1    0    0    0    0  0.00000000000E+00  0.00000000000E+00  0.45593999997E+02  0.45594000000E+02  0.51100000000E-03 0. -1.
         11   -1    0    0    0    0 -0.00000000000E+00 -0.00000000000E+00 -0.45593999997E+02  0.45594000000E+02  0.51100000000E-03 0.  1.
    9900012    2    1    2    0    0 -0.22423953335E+02 -0.23913834395E+02  0.30893501302E+02  0.46142316729E+02  0.99999905878E+01 0.  0.
        -12    1    1    2    0    0  0.22423953335E+02  0.23913834395E+02 -0.30893501302E+02  0.45045683271E+02  0.00000000000E+00 0.  1.
         11    1    3    3    0    0 -0.88407008473E+01 -0.10146339942E+02  0.63797859924E+01  0.14893215746E+02  0.51100000000E-03 0. -1.
        -11    1    3    3    0    0 -0.49569227406E+01 -0.42077641149E+01  0.84123877095E+01  0.10632244784E+02  0.51100000000E-03 0.  1.
         12    1    3    3    0    0 -0.86263297471E+01 -0.95597303381E+01  0.16101327600E+02  0.20616856199E+02  0.00000000000E+00 0. -1.
</event>
<event>
 7    1  0.1476909E-008  0.4614232E+02  0.7816164E-02  0.1320468E+00
        -11   -1    0    0    0    0  0.00000000000E+00  0.00000000000E+00  0.45593999997E+02  0.45594000000E+02  0.51100000000E-03 0. -1.
         11   -1    0    0    0    0 -0.00000000000E+00 -0.00000000000E+00 -0.45593999997E+02  0.45594000000E+02  0.51100000000E-03 0.  1.
    9900012    2    1    2    0    0  0.28722669476E+02 -0.28059858049E+02  0.20414848384E+02  0.46142318630E+02  0.10000007921E+02 0.  0.
        -12    1    1    2    0    0 -0.28722669476E+02  0.28059858049E+02 -0.20414848384E+02  0.45045681370E+02  0.00000000000E+00 0.  1.
         11    1    3    3    0    0  0.55096272597E+01 -0.82763874210E+01  0.32325661001E+01  0.10454858447E+02  0.51100000000E-03 0. -1.
        -11    1    3    3    0    0  0.33159308300E+01 -0.14010255514E+00  0.18289774189E+01  0.37894834285E+01  0.51100000000E-03 0.  1.
        -12    1    3    3    0    0  0.19897111386E+02 -0.19643368073E+02  0.15353304865E+02  0.31897976755E+02  0.00000000000E+00 0.  1.
</event>
<event>
 7    1  0.1476909E-008  0.4614232E+02  0.7816164E-02  0.1320468E+00
        -11   -1    0    0    0    0  0.00000000000E+00  0.00000000000E+00  0.45593999997E+02  0.45594000000E+02  0.51100000000E-03 0.  1.
         11   -1    0    0    0    0 -0.00000000000E+00 -0.00000000000E+00 -0.45593999997E+02  0.45594000000E+02  0.51100000000E-03 0. -1.
    9900012    2    1    2    0    0  0.21736052580E+01 -0.11026177409E+02 -0.43621237852E+02  0.46142317190E+02  0.99999947945E+01 0.  0.
        -12    1    1    2    0    0 -0.21736052580E+01  0.11026177409E+02  0.43621237852E+02  0.45045682810E+02  0.00000000000E+00 0.  1.
         11    1    3    3    0    0  0.26025333260E+01 -0.26626721538E+01 -0.19610730480E+02  0.19961055908E+02  0.51100000000E-03 0. -1.
        -11    1    3    3    0    0  0.13822989388E+01  0.27541846260E+00 -0.18366370918E+01  0.23151332044E+01  0.51100000000E-03 0.  1.
        -12    1    3    3    0    0 -0.18112270068E+01 -0.86389237179E+01 -0.22173870280E+02  0.23866128078E+02  0.00000000000E+00 0.  1.
</event>
<event>
 7    1  0.1476909E-008  0.4614232E+02  0.7816164E-02  0.1320468E+00
        -11   -1    0    0    0    0  0.00000000000E+00  0.00000000000E+00  0.45593999997E+02  0.45594000000E+02  0.51100000000E-03 0.  1.
         11   -1    0    0    0    0 -0.00000000000E+00 -0.00000000000E+00 -0.45593999997E+02  0.45594000000E+02  0.51100000000E-03 0. -1.
    9900012    2    1    2    0    0 -0.37129632167E+02 -0.25240867433E+02 -0.36609379833E+01  0.46142318292E+02  0.10000004839E+02 0.  0.
        -12    1    1    2    0    0  0.37129632167E+02  0.25240867433E+02  0.36609379833E+01  0.45045681708E+02  0.00000000000E+00 0.  1.
         11    1    3    3    0    0 -0.13619138823E+02 -0.14901891225E+02 -0.33155922193E+00  0.20190523424E+02  0.51100000000E-03 0. -1.
        -11    1    3    3    0    0 -0.19282200306E+02 -0.83089899518E+01 -0.33474385852E+01  0.21261418297E+02  0.51100000000E-03 0.  1.
        -12    1    3    3    0    0 -0.42282930378E+01 -0.20299862566E+01  0.18059823858E-01  0.46903765705E+01  0.00000000000E+00 0.  1.
</event>
<event>
 7    1  0.1476909E-008  0.4614232E+02  0.7816164E-02  0.1320468E+00
        -11   -1    0    0    0    0  0.00000000000E+00  0.00000000000E+00  0.45593999997E+02  0.45594000000E+02  0.51100000000E-03 0.  1.
         11   -1    0    0    0    0 -0.00000000000E+00 -0.00000000000E+00 -0.45593999997E+02  0.45594000000E+02  0.51100000000E-03 0. -1.
    9900012    2    1    2    0    0 -0.32346975716E+02  0.68203479443E+01 -0.30598520720E+02  0.46142318139E+02  0.10000003448E+02 0.  0.
        -12    1    1    2    0    0  0.32346975716E+02 -0.68203479443E+01  0.30598520720E+02  0.45045681861E+02  0.00000000000E+00 0.  1.
         11    1    3    3    0    0 -0.69593265639E+01  0.47732019059E+01 -0.93927042929E+01  0.12626898940E+02  0.51100000000E-03 0. -1.
        -11    1    3    3    0    0 -0.20548664493E+01  0.58392955244E+00 -0.30831546729E+00  0.21583578330E+01  0.51100000000E-03 0.  1.
         12    1    3    3    0    0 -0.23332782703E+02  0.14632164859E+01 -0.20897500960E+02  0.31357061366E+02  0.00000000000E+00 0. -1.
</event>
<event>
 7    1  0.1476909E-008  0.4614232E+02  0.7816164E-02  0.1320468E+00
        -11   -1    0    0    0    0  0.00000000000E+00  0.00000000000E+00  0.45593999997E+02  0.45594000000E+02  0.51100000000E-03 0.  1.
         11   -1    0    0    0    0 -0.00000000000E+00 -0.00000000000E+00 -0.45593999997E+02  0.45594000000E+02  0.51100000000E-03 0. -1.
    9900012    2    1    2    0    0  0.82726959686E+01  0.14099934438E+02 -0.41974606733E+02  0.46142320294E+02  0.10000023098E+02 0.  0.
        -12    1    1    2    0    0 -0.82726959686E+01 -0.14099934438E+02  0.41974606733E+02  0.45045679706E+02  0.00000000000E+00 0.  1.
         11    1    3    3    0    0  0.58197348314E+00  0.72434910404E+01 -0.22369741420E+02  0.23520463156E+02  0.51100000000E-03 0. -1.
        -11    1    3    3    0    0  0.81704769474E+00  0.26073435090E+01 -0.24969925220E+01  0.37014563385E+01  0.51100000000E-03 0.  1.
        -12    1    3    3    0    0  0.68736747908E+01  0.42490998884E+01 -0.17107872791E+02  0.18920400800E+02  0.00000000000E+00 0.  1.
</event>
<event>
 7    1  0.1476909E-008  0.4614232E+02  0.7816164E-02  0.1320468E+00
        -11   -1    0    0    0    0  0.00000000000E+00  0.00000000000E+00  0.45593999997E+02  0.45594000000E+02  0.51100000000E-03 0.  1.
         11   -1    0    0    0    0 -0.00000000000E+00 -0.00000000000E+00 -0.45593999997E+02  0.45594000000E+02  0.51100000000E-03 0. -1.
    9900012    2    1    2    0    0  0.10182517450E+02 -0.25733710680E+02 -0.35541609139E+02  0.46142317552E+02  0.99999980924E+01 0.  0.
        -12    1    1    2    0    0 -0.10182517450E+02  0.25733710680E+02  0.35541609139E+02  0.45045682448E+02  0.00000000000E+00 0.  1.
         11    1    3    3    0    0  0.54940821792E+01 -0.13579522477E+02 -0.23392008757E+02  0.27600261659E+02  0.51100000000E-03 0. -1.
        -11    1    3    3    0    0  0.83929517268E+00 -0.24557413861E+00 -0.27625128167E+01  0.28976197763E+01  0.51100000000E-03 0.  1.
         12    1    3    3    0    0  0.38491400985E+01 -0.11908614065E+02 -0.93870875652E+01  0.15644436116E+02  0.00000000000E+00 0. -1.
</event>
<event>
 7    1  0.1476909E-008  0.4614232E+02  0.7816164E-02  0.1320468E+00
        -11   -1    0    0    0    0  0.00000000000E+00  0.00000000000E+00  0.45593999997E+02  0.45594000000E+02  0.51100000000E-03 0. -1.
         11   -1    0    0    0    0 -0.00000000000E+00 -0.00000000000E+00 -0.45593999997E+02  0.45594000000E+02  0.51100000000E-03 0.  1.
    9900012    2    1    2    0    0 -0.10321345413E+02 -0.46672046097E+01  0.43598170976E+02  0.46142317826E+02  0.10000000596E+02 0.  0.
        -12    1    1    2    0    0  0.10321345413E+02  0.46672046097E+01 -0.43598170976E+02  0.45045682174E+02  0.00000000000E+00 0.  1.
         11    1    3    3    0    0 -0.78979610789E+01 -0.39687920986E+01  0.18224266002E+02  0.20254702454E+02  0.51100000000E-03 0. -1.
        -11    1    3    3    0    0 -0.74929280345E+00  0.17745468083E+01  0.13838737286E+02  0.13972154666E+02  0.51100000000E-03 0.  1.
         12    1    3    3    0    0 -0.16740915311E+01 -0.24729593194E+01  0.11535167689E+02  0.11915460707E+02  0.00000000000E+00 0. -1.
</event>
<event>
 7    1  0.1476909E-008  0.4614232E+02  0.7816164E-02  0.1320468E+00
        -11   -1    0    0    0    0  0.00000000000E+00  0.00000000000E+00  0.45593999997E+02  0.45594000000E+02  0.51100000000E-03 0.  1.
         11   -1    0    0    0    0 -0.00000000000E+00 -0.00000000000E+00 -0.45593999997E+02  0.45594000000E+02  0.51100000000E-03 0. -1.
    9900012    2    1    2    0    0  0.41022175970E+02 -0.44667658540E+01 -0.18064947473E+02  0.46142320454E+02  0.10000024559E+02 0.  0.
        -12    1    1    2    0    0 -0.41022175970E+02  0.44667658540E+01  0.18064947473E+02  0.45045679546E+02  0.00000000000E+00 0.  1.
         11    1    3    3    0    0  0.11964209728E+01  0.59980660267E+00 -0.13569758554E+01  0.19059314883E+01  0.51100000000E-03 0. -1.
        -11    1    3    3    0    0  0.32653238718E+02 -0.93200450612E+00 -0.12855836551E+02  0.35105201393E+02  0.51100000000E-03 0.  1.
        -12    1    3    3    0    0  0.71725162794E+01 -0.41345679506E+01 -0.38521350662E+01  0.91311875725E+01  0.00000000000E+00 0.  1.
</event>
<event>
 7    1  0.1476909E-008  0.4614232E+02  0.7816164E-02  0.1320468E+00
        -11   -1    0    0    0    0  0.00000000000E+00  0.00000000000E+00  0.45593999997E+02  0.45594000000E+02  0.51100000000E-03 0.  1.
         11   -1    0    0    0    0 -0.00000000000E+00 -0.00000000000E+00 -0.45593999997E+02  0.45594000000E+02  0.51100000000E-03 0. -1.
    9900012    2    1    2    0    0  0.17245877843E+02 -0.23979536539E+02 -0.34009925775E+02  0.46142317339E+02  0.99999961477E+01 0.  0.
        -12    1    1    2    0    0 -0.17245877843E+02  0.23979536539E+02  0.34009925775E+02  0.45045682661E+02  0.00000000000E+00 0.  1.
         11    1    3    3    0    0  0.20530189096E+01 -0.34480276486E+01 -0.95372709638E+01  0.10347140620E+02  0.51100000000E-03 0. -1.
        -11    1    3    3    0    0  0.18230718630E+01 -0.23980337925E+01 -0.80292810390E+00  0.31175071594E+01  0.51100000000E-03 0.  1.
         12    1    3    3    0    0  0.13369787070E+02 -0.18133475098E+02 -0.23669726708E+02  0.32677669559E+02  0.00000000000E+00 0. -1.
</event>
<event>
 7    1  0.1476909E-008  0.4614232E+02  0.7816164E-02  0.1320468E+00
        -11   -1    0    0    0    0  0.00000000000E+00  0.00000000000E+00  0.45593999997E+02  0.45594000000E+02  0.51100000000E-03 0.  1.
         11   -1    0    0    0    0 -0.00000000000E+00 -0.00000000000E+00 -0.45593999997E+02  0.45594000000E+02  0.51100000000E-03 0. -1.
    9900012    2    1    2    0    0 -0.19265438412E+02  0.11365816573E+02 -0.39099547054E+02  0.46142317816E+02  0.10000000498E+02 0.  0.
        -12    1    1    2    0    0  0.19265438412E+02 -0.11365816573E+02  0.39099547054E+02  0.45045682184E+02  0.00000000000E+00 0.  1.
         11    1    3    3    0    0 -0.60022784968E+01  0.47186035555E+01 -0.97727977000E+01  0.12401618516E+02  0.51100000000E-03 0. -1.
        -11    1    3    3    0    0 -0.48480001947E+01 -0.13464275468E+01 -0.10057969588E+02  0.11246276073E+02  0.51100000000E-03 0.  1.
        -12    1    3    3    0    0 -0.84151597207E+01  0.79936405646E+01 -0.19268779766E+02  0.22494423226E+02  0.00000000000E+00 0.  1.
</event>
<event>
 7    1  0.1476909E-008  0.4614232E+02  0.7816164E-02  0.1320468E+00
        -11   -1    0    0    0    0  0.00000000000E+00  0.00000000000E+00  0.45593999997E+02  0.45594000000E+02  0.51100000000E-03 0.  1.
         11   -1    0    0    0    0 -0.00000000000E+00 -0.00000000000E+00 -0.45593999997E+02  0.45594000000E+02  0.51100000000E-03 0. -1.
    9900012    2    1    2    0    0  0.12727387861E+02  0.16227343533E+02 -0.40047477893E+02  0.46142316905E+02  0.99999921895E+01 0.  0.
        -12    1    1    2    0    0 -0.12727387861E+02 -0.16227343533E+02  0.40047477893E+02  0.45045683095E+02  0.00000000000E+00 0.  1.
         11    1    3    3    0    0  0.73944083425E+01  0.26525411932E+01 -0.14687386904E+02  0.16656307629E+02  0.51100000000E-03 0. -1.
        -11    1    3    3    0    0  0.12275759591E+01  0.41959012995E+01 -0.46434658341E+01  0.63776410736E+01  0.51100000000E-03 0.  1.
         12    1    3    3    0    0  0.41054035597E+01  0.93789010402E+01 -0.20716625156E+02  0.23108368202E+02  0.00000000000E+00 0. -1.
</event>
<event>
 7    1  0.1476909E-008  0.4614232E+02  0.7816164E-02  0.1320468E+00
        -11   -1    0    0    0    0  0.00000000000E+00  0.00000000000E+00  0.45593999997E+02  0.45594000000E+02  0.51100000000E-03 0.  1.
         11   -1    0    0    0    0 -0.00000000000E+00 -0.00000000000E+00 -0.45593999997E+02  0.45594000000E+02  0.51100000000E-03 0. -1.
    9900012    2    1    2    0    0  0.14867451254E+02  0.59566947248E+01 -0.42102138683E+02  0.46142318736E+02  0.10000008892E+02 0.  0.
        -12    1    1    2    0    0 -0.14867451254E+02 -0.59566947248E+01  0.42102138683E+02  0.45045681264E+02  0.00000000000E+00 0.  1.
         11    1    3    3    0    0  0.12660075520E+02  0.43019637644E+01 -0.31084865959E+02  0.33838636148E+02  0.51100000000E-03 0. -1.
        -11    1    3    3    0    0 -0.14221046435E+01 -0.87161867834E-01 -0.23719993668E+01  0.27670128416E+01  0.51100000000E-03 0.  1.
        -12    1    3    3    0    0  0.36294803781E+01  0.17418928282E+01 -0.86452733568E+01  0.95366697465E+01  0.00000000000E+00 0.  1.
</event>
<event>
 7    1  0.1476909E-008  0.4614232E+02  0.7816164E-02  0.1320468E+00
        -11   -1    0    0    0    0  0.00000000000E+00  0.00000000000E+00  0.45593999997E+02  0.45594000000E+02  0.51100000000E-03 0.  1.
         11   -1    0    0    0    0 -0.00000000000E+00 -0.00000000000E+00 -0.45593999997E+02  0.45594000000E+02  0.51100000000E-03 0. -1.
    9900012    2    1    2    0    0 -0.34580013674E+02 -0.24255621920E+02 -0.15652505921E+02  0.46142317831E+02  0.10000000638E+02 0.  0.
        -12    1    1    2    0    0  0.34580013674E+02  0.24255621920E+02  0.15652505921E+02  0.45045682169E+02  0.00000000000E+00 0.  1.
         11    1    3    3    0    0 -0.11358070062E+02 -0.10012145442E+02 -0.96969865216E+01  0.17979998881E+02  0.51100000000E-03 0. -1.
        -11    1    3    3    0    0 -0.22363837568E+02 -0.13598670481E+02 -0.48460140133E+01  0.26618582263E+02  0.51100000000E-03 0.  1.
        -12    1    3    3    0    0 -0.85810604433E+00 -0.64480599632E+00 -0.11095053864E+01  0.15437366870E+01  0.00000000000E+00 0.  1.
</event>
<event>
 7    1  0.1476909E-008  0.4614232E+02  0.7816164E-02  0.1320468E+00
        -11   -1    0    0    0    0  0.00000000000E+00  0.00000000000E+00  0.45593999997E+02  0.45594000000E+02  0.51100000000E-03 0. -1.
         11   -1    0    0    0    0 -0.00000000000E+00 -0.00000000000E+00 -0.45593999997E+02  0.45594000000E+02  0.51100000000E-03 0.  1.
    9900012    2    1    2    0    0 -0.62236139917E+01  0.34805349266E+01  0.44477702022E+02  0.46142317946E+02  0.10000001689E+02 0.  0.
        -12    1    1    2    0    0  0.62236139917E+01 -0.34805349266E+01 -0.44477702022E+02  0.45045682054E+02  0.00000000000E+00 0.  1.
         11    1    3    3    0    0 -0.62048578836E+00 -0.13674617329E+01  0.15572385231E+01  0.21633183499E+01  0.51100000000E-03 0. -1.
        -11    1    3    3    0    0 -0.23579914068E+01 -0.76351470537E+00  0.59668519589E+01  0.64611454666E+01  0.51100000000E-03 0.  1.
         12    1    3    3    0    0 -0.32451367966E+01  0.56115113648E+01  0.36953611540E+02  0.37517854130E+02  0.00000000000E+00 0. -1.
</event>
<event>
 7    1  0.1476909E-008  0.4614232E+02  0.7816164E-02  0.1320468E+00
        -11   -1    0    0    0    0  0.00000000000E+00  0.00000000000E+00  0.45593999997E+02  0.45594000000E+02  0.51100000000E-03 0. -1.
         11   -1    0    0    0    0 -0.00000000000E+00 -0.00000000000E+00 -0.45593999997E+02  0.45594000000E+02  0.51100000000E-03 0.  1.
    9900012    2    1    2    0    0 -0.29393474509E+02  0.53640192170E+01  0.33710000113E+02  0.46142321478E+02  0.10000033893E+02 0.  0.
        -12    1    1    2    0    0  0.29393474509E+02 -0.53640192170E+01 -0.33710000113E+02  0.45045678522E+02  0.00000000000E+00 0.  1.
         11    1    3    3    0    0 -0.38153755419E+01 -0.15811393806E+01  0.66343619005E+01  0.78148480699E+01  0.51100000000E-03 0. -1.
        -11    1    3    3    0    0 -0.23011123163E+02  0.79258560353E+01  0.23651741348E+02  0.33937234009E+02  0.51100000000E-03 0.  1.
        -12    1    3    3    0    0 -0.25669758045E+01 -0.98069743762E+00  0.34238968645E+01  0.43902393993E+01  0.00000000000E+00 0.  1.
</event>
<event>
 7    1  0.1476909E-008  0.4614232E+02  0.7816164E-02  0.1320468E+00
        -11   -1    0    0    0    0  0.00000000000E+00  0.00000000000E+00  0.45593999997E+02  0.45594000000E+02  0.51100000000E-03 0. -1.
         11   -1    0    0    0    0 -0.00000000000E+00 -0.00000000000E+00 -0.45593999997E+02  0.45594000000E+02  0.51100000000E-03 0.  1.
    9900012    2    1    2    0    0  0.36128338970E+02  0.23736944683E+02  0.12665466758E+02  0.46142317989E+02  0.10000002081E+02 0.  0.
        -12    1    1    2    0    0 -0.36128338970E+02 -0.23736944683E+02 -0.12665466758E+02  0.45045682011E+02  0.00000000000E+00 0.  1.
         11    1    3    3    0    0 -0.55506613117E+00  0.49983981899E+00  0.96197976514E-01  0.75312188019E+00  0.51100000000E-03 0. -1.
        -11    1    3    3    0    0  0.39709529770E+01  0.12337795127E+01  0.69576151649E+00  0.42160127823E+01  0.51100000000E-03 0.  1.
         12    1    3    3    0    0  0.32712452124E+02  0.22003325352E+02  0.11873507265E+02  0.41173183327E+02  0.00000000000E+00 0. -1.
</event>
<event>
 7    1  0.1476909E-008  0.4614232E+02  0.7816164E-02  0.1320468E+00
        -11   -1    0    0    0    0  0.00000000000E+00  0.00000000000E+00  0.45593999997E+02  0.45594000000E+02  0.51100000000E-03 0.  1.
         11   -1    0    0    0    0 -0.00000000000E+00 -0.00000000000E+00 -0.45593999997E+02  0.45594000000E+02  0.51100000000E-03 0. -1.
    9900012    2    1    2    0    0 -0.24904049406E+02  0.11509641353E+02 -0.35727159236E+02  0.46142318432E+02  0.10000006113E+02 0.  0.
        -12    1    1    2    0    0  0.24904049406E+02 -0.11509641353E+02  0.35727159236E+02  0.45045681568E+02  0.00000000000E+00 0.  1.
         11    1    3    3    0    0 -0.27351899359E+01  0.22386560771E+01 -0.44842439044E+01  0.57097538188E+01  0.51100000000E-03 0. -1.
        -11    1    3    3    0    0 -0.15399392515E+02  0.10682407096E+02 -0.22376383462E+02  0.29188313557E+02  0.51100000000E-03 0.  1.
        -12    1    3    3    0    0 -0.67694669551E+01 -0.14114218199E+01 -0.88665318699E+01  0.11244251056E+02  0.00000000000E+00 0.  1.
</event>
<event>
 7    1  0.1476909E-008  0.4614232E+02  0.7816164E-02  0.1320468E+00
        -11   -1    0    0    0    0  0.00000000000E+00  0.00000000000E+00  0.45593999997E+02  0.45594000000E+02  0.51100000000E-03 0.  1.
         11   -1    0    0    0    0 -0.00000000000E+00 -0.00000000000E+00 -0.45593999997E+02  0.45594000000E+02  0.51100000000E-03 0. -1.
    9900012    2    1    2    0    0  0.77076790248E+01 -0.11820026862E+02 -0.42778407991E+02  0.46142317175E+02  0.99999946527E+01 0.  0.
        -12    1    1    2    0    0 -0.77076790248E+01  0.11820026862E+02  0.42778407991E+02  0.45045682825E+02  0.00000000000E+00 0.  1.
         11    1    3    3    0    0  0.20871215381E+01 -0.60610068679E+01 -0.13541512615E+02  0.14982137522E+02  0.51100000000E-03 0. -1.
        -11    1    3    3    0    0  0.12502253509E+01 -0.24084635351E+01 -0.21460371618E+02  0.21631257714E+02  0.51100000000E-03 0.  1.
        -12    1    3    3    0    0  0.43703321358E+01 -0.33505564594E+01 -0.77765237571E+01  0.95289219385E+01  0.00000000000E+00 0.  1.
</event>
<event>
 7    1  0.1476909E-008  0.4614232E+02  0.7816164E-02  0.1320468E+00
        -11   -1    0    0    0    0  0.00000000000E+00  0.00000000000E+00  0.45593999997E+02  0.45594000000E+02  0.51100000000E-03 0.  1.
         11   -1    0    0    0    0 -0.00000000000E+00 -0.00000000000E+00 -0.45593999997E+02  0.45594000000E+02  0.51100000000E-03 0. -1.
    9900012    2    1    2    0    0  0.21053149754E+02  0.35306232226E+02 -0.18421409726E+02  0.46142317800E+02  0.10000000357E+02 0.  0.
        -12    1    1    2    0    0 -0.21053149754E+02 -0.35306232226E+02  0.18421409726E+02  0.45045682200E+02  0.00000000000E+00 0.  1.
         11    1    3    3    0    0  0.94434171352E+00  0.20806213528E+00  0.75788558612E+00  0.12286016225E+01  0.51100000000E-03 0.  1.
        -11    1    3    3    0    0  0.75869399165E+01  0.13230596226E+02 -0.53060757087E+01  0.16148212702E+02  0.51100000000E-03 0. -1.
         12    1    3    3    0    0  0.12521868124E+02  0.21867573864E+02 -0.13873219604E+02  0.28765503475E+02  0.00000000000E+00 0. -1.
</event>
<event>
 7    1  0.1476909E-008  0.4614232E+02  0.7816164E-02  0.1320468E+00
        -11   -1    0    0    0    0  0.00000000000E+00  0.00000000000E+00  0.45593999997E+02  0.45594000000E+02  0.51100000000E-03 0. -1.
         11   -1    0    0    0    0 -0.00000000000E+00 -0.00000000000E+00 -0.45593999997E+02  0.45594000000E+02  0.51100000000E-03 0.  1.
    9900012    2    1    2    0    0  0.47411295694E+01 -0.21229863960E+02  0.39445254155E+02  0.46142317536E+02  0.99999979437E+01 0.  0.
        -12    1    1    2    0    0 -0.47411295694E+01  0.21229863960E+02 -0.39445254155E+02  0.45045682464E+02  0.00000000000E+00 0.  1.
         11    1    3    3    0    0 -0.17841922087E+00 -0.19447370939E+01  0.66151161853E+01  0.68973616832E+01  0.51100000000E-03 0.  1.
        -11    1    3    3    0    0  0.49187525203E+01 -0.12231148685E+02  0.14462348041E+02  0.19569226751E+02  0.51100000000E-03 0. -1.
         12    1    3    3    0    0  0.79626996147E-03 -0.70539781803E+01  0.18367789929E+02  0.19675729101E+02  0.00000000000E+00 0. -1.
</event>
<event>
 7    1  0.1476909E-008  0.4614232E+02  0.7816164E-02  0.1320468E+00
        -11   -1    0    0    0    0  0.00000000000E+00  0.00000000000E+00  0.45593999997E+02  0.45594000000E+02  0.51100000000E-03 0.  1.
         11   -1    0    0    0    0 -0.00000000000E+00 -0.00000000000E+00 -0.45593999997E+02  0.45594000000E+02  0.51100000000E-03 0. -1.
    9900012    2    1    2    0    0  0.54504964889E+01 -0.35437338084E+02 -0.27269044841E+02  0.46142315978E+02  0.99999837410E+01 0.  0.
        -12    1    1    2    0    0 -0.54504964889E+01  0.35437338084E+02  0.27269044841E+02  0.45045684022E+02  0.00000000000E+00 0.  1.
         11    1    3    3    0    0 -0.19016406986E-01 -0.26997140512E+01  0.71924485159E-01  0.27007389683E+01  0.51100000000E-03 0. -1.
        -11    1    3    3    0    0  0.11501442608E+01 -0.16753470618E+02 -0.17132174086E+02  0.23989851995E+02  0.51100000000E-03 0.  1.
         12    1    3    3    0    0  0.43193686351E+01 -0.15984153415E+02 -0.10208795240E+02  0.19451725015E+02  0.00000000000E+00 0. -1.
</event>
<event>
 7    1  0.1476909E-008  0.4614232E+02  0.7816164E-02  0.1320468E+00
        -11   -1    0    0    0    0  0.00000000000E+00  0.00000000000E+00  0.45593999997E+02  0.45594000000E+02  0.51100000000E-03 0. -1.
         11   -1    0    0    0    0 -0.00000000000E+00 -0.00000000000E+00 -0.45593999997E+02  0.45594000000E+02  0.51100000000E-03 0.  1.
    9900012    2    1    2    0    0 -0.30271060585E+02  0.28256039555E+02  0.17730556672E+02  0.46142317408E+02  0.99999967823E+01 0.  0.
        -12    1    1    2    0    0  0.30271060585E+02 -0.28256039555E+02 -0.17730556672E+02  0.45045682592E+02  0.00000000000E+00 0.  1.
         11    1    3    3    0    0 -0.75091654002E+01  0.49520948001E+01  0.59878554469E+00  0.90149515976E+01  0.51100000000E-03 0.  1.
        -11    1    3    3    0    0 -0.12640625607E+02  0.12903830755E+02  0.12210625259E+02  0.21803523417E+02  0.51100000000E-03 0. -1.
         12    1    3    3    0    0 -0.10121269578E+02  0.10400113999E+02  0.49211458682E+01  0.15323842394E+02  0.00000000000E+00 0. -1.
</event>
<event>
 7    1  0.1476909E-008  0.4614232E+02  0.7816164E-02  0.1320468E+00
        -11   -1    0    0    0    0  0.00000000000E+00  0.00000000000E+00  0.45593999997E+02  0.45594000000E+02  0.51100000000E-03 0. -1.
         11   -1    0    0    0    0 -0.00000000000E+00 -0.00000000000E+00 -0.45593999997E+02  0.45594000000E+02  0.51100000000E-03 0.  1.
    9900012    2    1    2    0    0 -0.35896125511E+02 -0.18079844510E+02 -0.20339637483E+02  0.46142318107E+02  0.10000003159E+02 0.  0.
        -12    1    1    2    0    0  0.35896125511E+02  0.18079844510E+02  0.20339637483E+02  0.45045681893E+02  0.00000000000E+00 0.  1.
         11    1    3    3    0    0 -0.60706139190E+01 -0.51927611338E+01 -0.14710993491E+01  0.81228846540E+01  0.51100000000E-03 0. -1.
        -11    1    3    3    0    0 -0.11197874375E+01 -0.18630069978E+01 -0.19632914769E+01  0.29290327181E+01  0.51100000000E-03 0.  1.
         12    1    3    3    0    0 -0.28705724155E+02 -0.11024076379E+02 -0.16905246657E+02  0.35090400735E+02  0.00000000000E+00 0. -1.
</event>
<event>
 7    1  0.1476909E-008  0.4614232E+02  0.7816164E-02  0.1320468E+00
        -11   -1    0    0    0    0  0.00000000000E+00  0.00000000000E+00  0.45593999997E+02  0.45594000000E+02  0.51100000000E-03 0. -1.
         11   -1    0    0    0    0 -0.00000000000E+00 -0.00000000000E+00 -0.45593999997E+02  0.45594000000E+02  0.51100000000E-03 0.  1.
    9900012    2    1    2    0    0  0.34812534943E+02  0.26733964907E+02  0.10124033322E+02  0.46142317415E+02  0.99999968479E+01 0.  0.
        -12    1    1    2    0    0 -0.34812534943E+02 -0.26733964907E+02 -0.10124033322E+02  0.45045682585E+02  0.00000000000E+00 0.  1.
         11    1    3    3    0    0  0.50811335195E+01  0.71467268821E+01  0.42121508973E+01  0.97280953127E+01  0.51100000000E-03 0.  1.
        -11    1    3    3    0    0  0.15698052003E+02  0.79870758495E+01  0.14781165395E+01  0.17675040200E+02  0.51100000000E-03 0. -1.
        -12    1    3    3    0    0  0.14033349421E+02  0.11600162175E+02  0.44337658856E+01  0.18739181903E+02  0.00000000000E+00 0.  1.
</event>
<event>
 7    1  0.1476909E-008  0.4614232E+02  0.7816164E-02  0.1320468E+00
        -11   -1    0    0    0    0  0.00000000000E+00  0.00000000000E+00  0.45593999997E+02  0.45594000000E+02  0.51100000000E-03 0.  1.
         11   -1    0    0    0    0 -0.00000000000E+00 -0.00000000000E+00 -0.45593999997E+02  0.45594000000E+02  0.51100000000E-03 0. -1.
    9900012    2    1    2    0    0  0.87841337473E-02  0.40723689634E+02 -0.19253430762E+02  0.46142316848E+02  0.99999916731E+01 0.  0.
        -12    1    1    2    0    0 -0.87841337473E-02 -0.40723689634E+02  0.19253430762E+02  0.45045683152E+02  0.00000000000E+00 0.  1.
         11    1    3    3    0    0 -0.11392394997E+01  0.17605307478E+01  0.23930880798E+00  0.21105933095E+01  0.51100000000E-03 0. -1.
        -11    1    3    3    0    0  0.21269300990E+01  0.10192026032E+02 -0.29153292821E+01  0.10812047510E+02  0.51100000000E-03 0.  1.
         12    1    3    3    0    0 -0.97890646560E+00  0.28771132854E+02 -0.16577410288E+02  0.33219676028E+02  0.00000000000E+00 0. -1.
</event>
<event>
 7    1  0.1476909E-008  0.4614232E+02  0.7816164E-02  0.1320468E+00
        -11   -1    0    0    0    0  0.00000000000E+00  0.00000000000E+00  0.45593999997E+02  0.45594000000E+02  0.51100000000E-03 0. -1.
         11   -1    0    0    0    0 -0.00000000000E+00 -0.00000000000E+00 -0.45593999997E+02  0.45594000000E+02  0.51100000000E-03 0.  1.
    9900012    2    1    2    0    0  0.30493521278E+02  0.21912552369E+02  0.24881694159E+02  0.46142317682E+02  0.99999992807E+01 0.  0.
        -12    1    1    2    0    0 -0.30493521278E+02 -0.21912552369E+02 -0.24881694159E+02  0.45045682318E+02  0.00000000000E+00 0.  1.
         11    1    3    3    0    0  0.10103655945E+02  0.75226748472E+01  0.12869667953E+02  0.18008410641E+02  0.51100000000E-03 0. -1.
        -11    1    3    3    0    0  0.87667594282E+01  0.86626845211E+01  0.42904536210E+01  0.13050140479E+02  0.51100000000E-03 0.  1.
        -12    1    3    3    0    0  0.11623105905E+02  0.57271930007E+01  0.77215725846E+01  0.15083766563E+02  0.00000000000E+00 0.  1.
</event>
<event>
 7    1  0.1476909E-008  0.4614232E+02  0.7816164E-02  0.1320468E+00
        -11   -1    0    0    0    0  0.00000000000E+00  0.00000000000E+00  0.45593999997E+02  0.45594000000E+02  0.51100000000E-03 0. -1.
         11   -1    0    0    0    0 -0.00000000000E+00 -0.00000000000E+00 -0.45593999997E+02  0.45594000000E+02  0.51100000000E-03 0.  1.
    9900012    2    1    2    0    0  0.65040488775E+00  0.24315442060E+00  0.45040330364E+02  0.46142317522E+02  0.99999978204E+01 0.  0.
        -12    1    1    2    0    0 -0.65040488775E+00 -0.24315442060E+00 -0.45040330364E+02  0.45045682478E+02  0.00000000000E+00 0.  1.
         11    1    3    3    0    0  0.12300236206E+01 -0.10035335580E+01  0.13097289934E+02  0.13193143734E+02  0.51100000000E-03 0. -1.
        -11    1    3    3    0    0  0.60855597263E+00  0.25854234713E+01  0.32363447683E+01  0.41867269577E+01  0.51100000000E-03 0.  1.
        -12    1    3    3    0    0 -0.11881747055E+01 -0.13387354927E+01  0.28706695661E+02  0.28762446830E+02  0.00000000000E+00 0.  1.
</event>
<event>
 7    1  0.1476909E-008  0.4614232E+02  0.7816164E-02  0.1320468E+00
        -11   -1    0    0    0    0  0.00000000000E+00  0.00000000000E+00  0.45593999997E+02  0.45594000000E+02  0.51100000000E-03 0.  1.
         11   -1    0    0    0    0 -0.00000000000E+00 -0.00000000000E+00 -0.45593999997E+02  0.45594000000E+02  0.51100000000E-03 0. -1.
    9900012    2    1    2    0    0  0.98742149323E+01  0.14501833396E+02 -0.41488674978E+02  0.46142318256E+02  0.10000004513E+02 0.  0.
        -12    1    1    2    0    0 -0.98742149323E+01 -0.14501833396E+02  0.41488674978E+02  0.45045681744E+02  0.00000000000E+00 0.  1.
         11    1    3    3    0    0  0.10027588552E+02  0.13981909950E+02 -0.37172932633E+02  0.40961851262E+02  0.51100000000E-03 0. -1.
        -11    1    3    3    0    0  0.32840634276E+00 -0.10413243813E+01 -0.25544172373E+01  0.27779947581E+01  0.51100000000E-03 0.  1.
         12    1    3    3    0    0 -0.48177996208E+00  0.15612478275E+01 -0.17613251074E+01  0.24024722360E+01  0.00000000000E+00 0. -1.
</event>
<event>
 7    1  0.1476909E-008  0.4614232E+02  0.7816164E-02  0.1320468E+00
        -11   -1    0    0    0    0  0.00000000000E+00  0.00000000000E+00  0.45593999997E+02  0.45594000000E+02  0.51100000000E-03 0.  1.
         11   -1    0    0    0    0 -0.00000000000E+00 -0.00000000000E+00 -0.45593999997E+02  0.45594000000E+02  0.51100000000E-03 0. -1.
    9900012    2    1    2    0    0  0.11615908072E+02 -0.27215195974E+02 -0.33963466201E+02  0.46142320422E+02  0.10000024262E+02 0.  0.
        -12    1    1    2    0    0 -0.11615908072E+02  0.27215195974E+02  0.33963466201E+02  0.45045679578E+02  0.00000000000E+00 0.  1.
         11    1    3    3    0    0  0.64638206129E+00 -0.66176516656E+01 -0.47419732395E+01  0.81668496865E+01  0.51100000000E-03 0. -1.
        -11    1    3    3    0    0  0.11057931427E-01 -0.73855767804E+00  0.25579875444E+00  0.78167959263E+00  0.51100000000E-03 0.  1.
         12    1    3    3    0    0  0.10958468080E+02 -0.19858986630E+02 -0.29477291716E+02  0.37193791143E+02  0.00000000000E+00 0. -1.
</event>
<event>
 7    1  0.1476909E-008  0.4614232E+02  0.7816164E-02  0.1320468E+00
        -11   -1    0    0    0    0  0.00000000000E+00  0.00000000000E+00  0.45593999997E+02  0.45594000000E+02  0.51100000000E-03 0. -1.
         11   -1    0    0    0    0 -0.00000000000E+00 -0.00000000000E+00 -0.45593999997E+02  0.45594000000E+02  0.51100000000E-03 0.  1.
    9900012    2    1    2    0    0  0.10393682809E+02  0.43829939002E+02  0.14575769915E+00  0.46142318292E+02  0.10000004842E+02 0.  0.
        -12    1    1    2    0    0 -0.10393682809E+02 -0.43829939002E+02 -0.14575769915E+00  0.45045681708E+02  0.00000000000E+00 0.  1.
         11    1    3    3    0    0  0.75243232279E+01  0.24261132073E+02  0.29861563474E+01  0.25576064973E+02  0.51100000000E-03 0.  1.
        -11    1    3    3    0    0  0.25390470424E+01  0.41614684335E+01 -0.14841525670E+01  0.50958108785E+01  0.51100000000E-03 0. -1.
         12    1    3    3    0    0  0.33031253876E+00  0.15407338495E+02 -0.13562460813E+01  0.15470442440E+02  0.00000000000E+00 0. -1.
</event>
<event>
 7    1  0.1476909E-008  0.4614232E+02  0.7816164E-02  0.1320468E+00
        -11   -1    0    0    0    0  0.00000000000E+00  0.00000000000E+00  0.45593999997E+02  0.45594000000E+02  0.51100000000E-03 0. -1.
         11   -1    0    0    0    0 -0.00000000000E+00 -0.00000000000E+00 -0.45593999997E+02  0.45594000000E+02  0.51100000000E-03 0.  1.
    9900012    2    1    2    0    0 -0.28245641845E+01 -0.41787519441E+02  0.16581269185E+02  0.46142318391E+02  0.10000005741E+02 0.  0.
        -12    1    1    2    0    0  0.28245641845E+01  0.41787519441E+02 -0.16581269185E+02  0.45045681609E+02  0.00000000000E+00 0.  1.
         11    1    3    3    0    0 -0.18778904583E+01 -0.33286323938E+02  0.11937787149E+02  0.35412096749E+02  0.51100000000E-03 0. -1.
        -11    1    3    3    0    0  0.12063258251E+01 -0.20960631556E+01 -0.18440060250E+00  0.24254291562E+01  0.51100000000E-03 0.  1.
         12    1    3    3    0    0 -0.21529995513E+01 -0.64051323474E+01  0.48278826385E+01  0.83047924855E+01  0.00000000000E+00 0. -1.
</event>
<event>
 7    1  0.1476909E-008  0.4614231E+02  0.7816164E-02  0.1320468E+00
        -11   -1    0    0    0    0  0.00000000000E+00  0.00000000000E+00  0.45593999997E+02  0.45594000000E+02  0.51100000000E-03 0.  1.
         11   -1    0    0    0    0 -0.00000000000E+00 -0.00000000000E+00 -0.45593999997E+02  0.45594000000E+02  0.51100000000E-03 0. -1.
    9900012    2    1    2    0    0  0.13486995881E+02 -0.26650106608E+02 -0.33719237971E+02  0.46142309313E+02  0.99999229609E+01 0.  0.
        -12    1    1    2    0    0 -0.13486995881E+02  0.26650106608E+02  0.33719237971E+02  0.45045690687E+02  0.00000000000E+00 0.  1.
         11    1    3    3    0    0  0.41403143723E+01 -0.17212349888E+02 -0.16439146506E+02  0.24158905809E+02  0.51100000000E-03 0. -1.
        -11    1    3    3    0    0  0.40465077905E+01 -0.32274189106E+01 -0.88169342723E+01  0.10223932137E+02  0.51100000000E-03 0.  1.
         12    1    3    3    0    0  0.53001737186E+01 -0.62103378098E+01 -0.84631571926E+01  0.11759471367E+02  0.00000000000E+00 0. -1.
</event>
<event>
 7    1  0.1476909E-008  0.4614232E+02  0.7816164E-02  0.1320468E+00
        -11   -1    0    0    0    0  0.00000000000E+00  0.00000000000E+00  0.45593999997E+02  0.45594000000E+02  0.51100000000E-03 0.  1.
         11   -1    0    0    0    0 -0.00000000000E+00 -0.00000000000E+00 -0.45593999997E+02  0.45594000000E+02  0.51100000000E-03 0. -1.
    9900012    2    1    2    0    0  0.24929600337E+02 -0.40013258940E+01 -0.37304393449E+02  0.46142319270E+02  0.10000013757E+02 0.  0.
        -12    1    1    2    0    0 -0.24929600337E+02  0.40013258940E+01  0.37304393449E+02  0.45045680730E+02  0.00000000000E+00 0.  1.
         11    1    3    3    0    0  0.11636485580E+02 -0.19959753320E+01 -0.21007687614E+02  0.24098021772E+02  0.51100000000E-03 0. -1.
        -11    1    3    3    0    0  0.11556946812E+01 -0.24383177897E+01 -0.30774381662E+01  0.40928779322E+01  0.51100000000E-03 0.  1.
        -12    1    3    3    0    0  0.12137420076E+02  0.43296722778E+00 -0.13219267668E+02  0.17951419565E+02  0.00000000000E+00 0.  1.
</event>
<event>
 7    1  0.1476909E-008  0.4614232E+02  0.7816164E-02  0.1320468E+00
        -11   -1    0    0    0    0  0.00000000000E+00  0.00000000000E+00  0.45593999997E+02  0.45594000000E+02  0.51100000000E-03 0. -1.
         11   -1    0    0    0    0 -0.00000000000E+00 -0.00000000000E+00 -0.45593999997E+02  0.45594000000E+02  0.51100000000E-03 0.  1.
    9900012    2    1    2    0    0  0.12703588582E+02 -0.34434445386E+02  0.26115156348E+02  0.46142316711E+02  0.99999904267E+01 0.  0.
        -12    1    1    2    0    0 -0.12703588582E+02  0.34434445386E+02 -0.26115156348E+02  0.45045683289E+02  0.00000000000E+00 0.  1.
         11    1    3    3    0    0  0.82346633558E+00  0.28134172715E+00 -0.21716179541E+00  0.89688877782E+00  0.51100000000E-03 0. -1.
        -11    1    3    3    0    0  0.60733642856E+01 -0.13671436887E+02  0.10987604589E+02  0.18561287540E+02  0.51100000000E-03 0.  1.
         12    1    3    3    0    0  0.58067579608E+01 -0.21044350226E+02  0.15344713554E+02  0.26684140393E+02  0.00000000000E+00 0. -1.
</event>
<event>
 7    1  0.1476909E-008  0.4614232E+02  0.7816164E-02  0.1320468E+00
        -11   -1    0    0    0    0  0.00000000000E+00  0.00000000000E+00  0.45593999997E+02  0.45594000000E+02  0.51100000000E-03 0. -1.
         11   -1    0    0    0    0 -0.00000000000E+00 -0.00000000000E+00 -0.45593999997E+02  0.45594000000E+02  0.51100000000E-03 0.  1.
    9900012    2    1    2    0    0 -0.12151100602E+02  0.36168400111E+02  0.23943909806E+02  0.46142320638E+02  0.10000026233E+02 0.  0.
        -12    1    1    2    0    0  0.12151100602E+02 -0.36168400111E+02 -0.23943909806E+02  0.45045679362E+02  0.00000000000E+00 0.  1.
         11    1    3    3    0    0 -0.92427003001E+01  0.23030756558E+02  0.19323440515E+02  0.31452163838E+02  0.51100000000E-03 0. -1.
        -11    1    3    3    0    0 -0.30882129665E+01  0.11850337137E+02  0.29915935385E+01  0.12606235828E+02  0.51100000000E-03 0.  1.
        -12    1    3    3    0    0  0.17981266470E+00  0.12873064151E+01  0.16288757526E+01  0.20839209721E+01  0.00000000000E+00 0.  1.
</event>
<event>
 7    1  0.1476909E-008  0.4614232E+02  0.7816164E-02  0.1320468E+00
        -11   -1    0    0    0    0  0.00000000000E+00  0.00000000000E+00  0.45593999997E+02  0.45594000000E+02  0.51100000000E-03 0.  1.
         11   -1    0    0    0    0 -0.00000000000E+00 -0.00000000000E+00 -0.45593999997E+02  0.45594000000E+02  0.51100000000E-03 0. -1.
    9900012    2    1    2    0    0  0.43320419099E+02  0.15935316823E+01 -0.12243995300E+02  0.46142317909E+02  0.10000001350E+02 0.  0.
        -12    1    1    2    0    0 -0.43320419099E+02 -0.15935316823E+01  0.12243995300E+02  0.45045682091E+02  0.00000000000E+00 0.  1.
         11    1    3    3    0    0  0.36761929527E+01  0.19968075790E+01 -0.19750811557E+01  0.46262923562E+01  0.51100000000E-03 0. -1.
        -11    1    3    3    0    0  0.20089384843E+02 -0.31015884487E+01 -0.70495705459E+01  0.21515103519E+02  0.51100000000E-03 0.  1.
         12    1    3    3    0    0  0.19554841303E+02  0.26983125520E+01 -0.32193435989E+01  0.20000922034E+02  0.00000000000E+00 0. -1.
</event>
<event>
 7    1  0.1476909E-008  0.4614232E+02  0.7816164E-02  0.1320468E+00
        -11   -1    0    0    0    0  0.00000000000E+00  0.00000000000E+00  0.45593999997E+02  0.45594000000E+02  0.51100000000E-03 0.  1.
         11   -1    0    0    0    0 -0.00000000000E+00 -0.00000000000E+00 -0.45593999997E+02  0.45594000000E+02  0.51100000000E-03 0. -1.
    9900012    2    1    2    0    0  0.13164718148E+02 -0.19593940178E+02 -0.38365103737E+02  0.46142317849E+02  0.10000000806E+02 0.  0.
        -12    1    1    2    0    0 -0.13164718148E+02  0.19593940178E+02  0.38365103737E+02  0.45045682151E+02  0.00000000000E+00 0.  1.
         11    1    3    3    0    0  0.82403796514E+00 -0.57979569839E+01 -0.92189023027E+01  0.10921698754E+02  0.51100000000E-03 0. -1.
        -11    1    3    3    0    0  0.12061664838E+02 -0.11927298145E+02 -0.21726866946E+02  0.27564487067E+02  0.51100000000E-03 0.  1.
        -12    1    3    3    0    0  0.27901534434E+00 -0.18686850495E+01 -0.74193344890E+01  0.76561320284E+01  0.00000000000E+00 0.  1.
</event>
<event>
 7    1  0.1476909E-008  0.4614232E+02  0.7816164E-02  0.1320468E+00
        -11   -1    0    0    0    0  0.00000000000E+00  0.00000000000E+00  0.45593999997E+02  0.45594000000E+02  0.51100000000E-03 0. -1.
         11   -1    0    0    0    0 -0.00000000000E+00 -0.00000000000E+00 -0.45593999997E+02  0.45594000000E+02  0.51100000000E-03 0.  1.
    9900012    2    1    2    0    0  0.32229332414E+02 -0.22368515875E+02  0.22136694001E+02  0.46142316615E+02  0.99999895479E+01 0.  0.
        -12    1    1    2    0    0 -0.32229332414E+02  0.22368515875E+02 -0.22136694001E+02  0.45045683385E+02  0.00000000000E+00 0.  1.
         11    1    3    3    0    0  0.23434053600E+02 -0.13918966869E+02  0.18478325232E+02  0.32929333587E+02  0.51100000000E-03 0. -1.
        -11    1    3    3    0    0  0.21514821159E+01 -0.43666165580E+01  0.96310207863E+00  0.49622355178E+01  0.51100000000E-03 0.  1.
         12    1    3    3    0    0  0.66437966981E+01 -0.40829324480E+01  0.26952666904E+01  0.82507475099E+01  0.00000000000E+00 0. -1.
</event>
<event>
 7    1  0.1476909E-008  0.4614232E+02  0.7816164E-02  0.1320468E+00
        -11   -1    0    0    0    0  0.00000000000E+00  0.00000000000E+00  0.45593999997E+02  0.45594000000E+02  0.51100000000E-03 0.  1.
         11   -1    0    0    0    0 -0.00000000000E+00 -0.00000000000E+00 -0.45593999997E+02  0.45594000000E+02  0.51100000000E-03 0. -1.
    9900012    2    1    2    0    0 -0.13109275371E+02 -0.36471655661E+02 -0.22958196700E+02  0.46142316931E+02  0.99999924334E+01 0.  0.
        -12    1    1    2    0    0  0.13109275371E+02  0.36471655661E+02  0.22958196700E+02  0.45045683069E+02  0.00000000000E+00 0.  1.
         11    1    3    3    0    0 -0.82962191256E+01 -0.31458691258E+02 -0.20081324689E+02  0.38232657624E+02  0.51100000000E-03 0. -1.
        -11    1    3    3    0    0 -0.78927710205E+00  0.69248707109E-01 -0.74036430404E+00  0.10843861356E+01  0.51100000000E-03 0.  1.
        -12    1    3    3    0    0 -0.40237791435E+01 -0.50822131097E+01 -0.21365077075E+01  0.68252731720E+01  0.00000000000E+00 0.  1.
</event>
<event>
 7    1  0.1476909E-008  0.4614232E+02  0.7816164E-02  0.1320468E+00
        -11   -1    0    0    0    0  0.00000000000E+00  0.00000000000E+00  0.45593999997E+02  0.45594000000E+02  0.51100000000E-03 0.  1.
         11   -1    0    0    0    0 -0.00000000000E+00 -0.00000000000E+00 -0.45593999997E+02  0.45594000000E+02  0.51100000000E-03 0. -1.
    9900012    2    1    2    0    0  0.44676664778E+02  0.46017308163E+01  0.34544464333E+01  0.46142317606E+02  0.99999985837E+01 0.  0.
        -12    1    1    2    0    0 -0.44676664778E+02 -0.46017308163E+01 -0.34544464333E+01  0.45045682394E+02  0.00000000000E+00 0.  1.
         11    1    3    3    0    0  0.28137079437E+02 -0.56535695000E+00  0.53904675475E+01  0.28654354091E+02  0.51100000000E-03 0.  1.
        -11    1    3    3    0    0  0.13577732618E+02  0.46697951439E+01 -0.19077528552E+01  0.14484520390E+02  0.51100000000E-03 0. -1.
         12    1    3    3    0    0  0.29618527232E+01  0.49729262236E+00 -0.28268258960E-01  0.30034431243E+01  0.00000000000E+00 0. -1.
</event>
<event>
 7    1  0.1476909E-008  0.4614231E+02  0.7816164E-02  0.1320468E+00
        -11   -1    0    0    0    0  0.00000000000E+00  0.00000000000E+00  0.45593999997E+02  0.45594000000E+02  0.51100000000E-03 0.  1.
         11   -1    0    0    0    0 -0.00000000000E+00 -0.00000000000E+00 -0.45593999997E+02  0.45594000000E+02  0.51100000000E-03 0. -1.
    9900012    2    1    2    0    0  0.29481872413E+01  0.33812272287E+02 -0.29616758035E+02  0.46142312951E+02  0.99999561361E+01 0.  0.
        -12    1    1    2    0    0 -0.29481872413E+01 -0.33812272287E+02  0.29616758035E+02  0.45045687049E+02  0.00000000000E+00 0.  1.
         11    1    3    3    0    0  0.16786381909E+01  0.82945482298E+01 -0.11162540570E+02  0.14007843116E+02  0.51100000000E-03 0. -1.
        -11    1    3    3    0    0  0.30868386128E+01  0.73405543122E+01 -0.67474850575E+01  0.10437474076E+02  0.51100000000E-03 0.  1.
         12    1    3    3    0    0 -0.18172895623E+01  0.18177169745E+02 -0.11706732407E+02  0.21696995759E+02  0.00000000000E+00 0. -1.
</event>
<event>
 7    1  0.1476909E-008  0.4614232E+02  0.7816164E-02  0.1320468E+00
        -11   -1    0    0    0    0  0.00000000000E+00  0.00000000000E+00  0.45593999997E+02  0.45594000000E+02  0.51100000000E-03 0.  1.
         11   -1    0    0    0    0 -0.00000000000E+00 -0.00000000000E+00 -0.45593999997E+02  0.45594000000E+02  0.51100000000E-03 0. -1.
    9900012    2    1    2    0    0 -0.22078182126E+02  0.38498785270E+01 -0.39074874508E+02  0.46142317538E+02  0.99999979634E+01 0.  0.
        -12    1    1    2    0    0  0.22078182126E+02 -0.38498785270E+01  0.39074874508E+02  0.45045682462E+02  0.00000000000E+00 0.  1.
         11    1    3    3    0    0 -0.34311972706E+01 -0.12701462725E+01 -0.46687383682E+01  0.59315684667E+01  0.51100000000E-03 0.  1.
        -11    1    3    3    0    0 -0.13882174858E+02  0.37791200074E+01 -0.31075978908E+02  0.34244897316E+02  0.51100000000E-03 0. -1.
        -12    1    3    3    0    0 -0.47648099977E+01  0.13409047921E+01 -0.33301572312E+01  0.59658517548E+01  0.00000000000E+00 0.  1.
</event>
<event>
 7    1  0.1476909E-008  0.4614232E+02  0.7816164E-02  0.1320468E+00
        -11   -1    0    0    0    0  0.00000000000E+00  0.00000000000E+00  0.45593999997E+02  0.45594000000E+02  0.51100000000E-03 0.  1.
         11   -1    0    0    0    0 -0.00000000000E+00 -0.00000000000E+00 -0.45593999997E+02  0.45594000000E+02  0.51100000000E-03 0. -1.
    9900012    2    1    2    0    0  0.29877555386E+02 -0.23414279722E+02 -0.24253180884E+02  0.46142316592E+02  0.99999893389E+01 0.  0.
        -12    1    1    2    0    0 -0.29877555386E+02  0.23414279722E+02  0.24253180884E+02  0.45045683408E+02  0.00000000000E+00 0.  1.
         11    1    3    3    0    0  0.19445315124E+02 -0.17268506783E+02 -0.15232100754E+02  0.30138654589E+02  0.51100000000E-03 0. -1.
        -11    1    3    3    0    0  0.54319998607E+01 -0.20740744080E+01 -0.13256503844E+01  0.59637032404E+01  0.51100000000E-03 0.  1.
        -12    1    3    3    0    0  0.50002404014E+01 -0.40716985310E+01 -0.76954297453E+01  0.10039958763E+02  0.00000000000E+00 0.  1.
</event>
<event>
 7    1  0.1476909E-008  0.4614232E+02  0.7816164E-02  0.1320468E+00
        -11   -1    0    0    0    0  0.00000000000E+00  0.00000000000E+00  0.45593999997E+02  0.45594000000E+02  0.51100000000E-03 0.  1.
         11   -1    0    0    0    0 -0.00000000000E+00 -0.00000000000E+00 -0.45593999997E+02  0.45594000000E+02  0.51100000000E-03 0. -1.
    9900012    2    1    2    0    0 -0.40656505345E+02  0.15343529869E+02  0.11863310514E+02  0.46142317942E+02  0.10000001650E+02 0.  0.
        -12    1    1    2    0    0  0.40656505345E+02 -0.15343529869E+02 -0.11863310514E+02  0.45045682058E+02  0.00000000000E+00 0.  1.
         11    1    3    3    0    0 -0.13475430335E+01  0.13255184053E+01  0.44883886540E+00  0.19427629444E+01  0.51100000000E-03 0. -1.
        -11    1    3    3    0    0 -0.12337769718E+02  0.38649338031E+01 -0.67729495279E+00  0.12946698561E+02  0.51100000000E-03 0.  1.
        -12    1    3    3    0    0 -0.26971192594E+02  0.10153077661E+02  0.12091766602E+02  0.31252856437E+02  0.00000000000E+00 0.  1.
</event>
<event>
 7    1  0.1476909E-008  0.4614232E+02  0.7816164E-02  0.1320468E+00
        -11   -1    0    0    0    0  0.00000000000E+00  0.00000000000E+00  0.45593999997E+02  0.45594000000E+02  0.51100000000E-03 0.  1.
         11   -1    0    0    0    0 -0.00000000000E+00 -0.00000000000E+00 -0.45593999997E+02  0.45594000000E+02  0.51100000000E-03 0. -1.
    9900012    2    1    2    0    0  0.41887838640E+02  0.12099062159E+02  0.11319682070E+02  0.46142317263E+02  0.99999954617E+01 0.  0.
        -12    1    1    2    0    0 -0.41887838640E+02 -0.12099062159E+02 -0.11319682070E+02  0.45045682737E+02  0.00000000000E+00 0.  1.
         11    1    3    3    0    0  0.30518546111E+02  0.12136910120E+02  0.86904187558E+01  0.33973660715E+02  0.51100000000E-03 0. -1.
        -11    1    3    3    0    0  0.83884965849E+01 -0.15597638073E+01  0.17856208523E+01  0.87171199475E+01  0.51100000000E-03 0.  1.
         12    1    3    3    0    0  0.29807959442E+01  0.15219158461E+01  0.84364246189E+00  0.34515366008E+01  0.00000000000E+00 0. -1.
</event>
<event>
 7    1  0.1476909E-008  0.4614232E+02  0.7816164E-02  0.1320468E+00
        -11   -1    0    0    0    0  0.00000000000E+00  0.00000000000E+00  0.45593999997E+02  0.45594000000E+02  0.51100000000E-03 0. -1.
         11   -1    0    0    0    0 -0.00000000000E+00 -0.00000000000E+00 -0.45593999997E+02  0.45594000000E+02  0.51100000000E-03 0.  1.
    9900012    2    1    2    0    0 -0.80629241518E+01 -0.42872595687E+02  0.11226903041E+02  0.46142316981E+02  0.99999928818E+01 0.  0.
        -12    1    1    2    0    0  0.80629241518E+01  0.42872595687E+02 -0.11226903041E+02  0.45045683019E+02  0.00000000000E+00 0.  1.
         11    1    3    3    0    0 -0.20264538112E+00 -0.13066564142E+02 -0.60102971139E+00  0.13081949419E+02  0.51100000000E-03 0. -1.
        -11    1    3    3    0    0 -0.25787294100E+01 -0.73162330260E+01  0.33934826766E+01  0.84671622164E+01  0.51100000000E-03 0.  1.
         12    1    3    3    0    0 -0.52815493607E+01 -0.22489798519E+02  0.84344500760E+01  0.24593205346E+02  0.00000000000E+00 0. -1.
</event>
<event>
 7    1  0.1476909E-008  0.4614232E+02  0.7816164E-02  0.1320468E+00
        -11   -1    0    0    0    0  0.00000000000E+00  0.00000000000E+00  0.45593999997E+02  0.45594000000E+02  0.51100000000E-03 0.  1.
         11   -1    0    0    0    0 -0.00000000000E+00 -0.00000000000E+00 -0.45593999997E+02  0.45594000000E+02  0.51100000000E-03 0. -1.
    9900012    2    1    2    0    0  0.17765414622E+02 -0.38836261018E+02 -0.14326493097E+02  0.46142317288E+02  0.99999956848E+01 0.  0.
        -12    1    1    2    0    0 -0.17765414622E+02  0.38836261018E+02  0.14326493097E+02  0.45045682712E+02  0.00000000000E+00 0.  1.
         11    1    3    3    0    0  0.40181378981E+01 -0.69552798525E+01 -0.59554019352E+01  0.99994081057E+01  0.51100000000E-03 0. -1.
        -11    1    3    3    0    0  0.58897297556E+01 -0.10072200608E+02 -0.56034822408E+00  0.11681272708E+02  0.51100000000E-03 0.  1.
         12    1    3    3    0    0  0.78575469682E+01 -0.21808780558E+02 -0.78107429376E+01  0.24461636474E+02  0.00000000000E+00 0. -1.
</event>
<event>
 7    1  0.1476909E-008  0.4614232E+02  0.7816164E-02  0.1320468E+00
        -11   -1    0    0    0    0  0.00000000000E+00  0.00000000000E+00  0.45593999997E+02  0.45594000000E+02  0.51100000000E-03 0. -1.
         11   -1    0    0    0    0 -0.00000000000E+00 -0.00000000000E+00 -0.45593999997E+02  0.45594000000E+02  0.51100000000E-03 0.  1.
    9900012    2    1    2    0    0  0.33117978712E+02  0.65010456416E+01  0.29833696781E+02  0.46142316833E+02  0.99999915366E+01 0.  0.
        -12    1    1    2    0    0 -0.33117978712E+02 -0.65010456416E+01 -0.29833696781E+02  0.45045683167E+02  0.00000000000E+00 0.  1.
         11    1    3    3    0    0  0.18128425906E+01 -0.11275086737E+01  0.30252131098E+01  0.37026461738E+01  0.51100000000E-03 0. -1.
        -11    1    3    3    0    0  0.18658038140E+02  0.73927083177E+01  0.14240421843E+02  0.24608212816E+02  0.51100000000E-03 0.  1.
         12    1    3    3    0    0  0.12647097981E+02  0.23584599770E+00  0.12568061828E+02  0.17831457843E+02  0.00000000000E+00 0. -1.
</event>
<event>
 7    1  0.1476909E-008  0.4614232E+02  0.7816164E-02  0.1320468E+00
        -11   -1    0    0    0    0  0.00000000000E+00  0.00000000000E+00  0.45593999997E+02  0.45594000000E+02  0.51100000000E-03 0.  1.
         11   -1    0    0    0    0 -0.00000000000E+00 -0.00000000000E+00 -0.45593999997E+02  0.45594000000E+02  0.51100000000E-03 0. -1.
    9900012    2    1    2    0    0 -0.22568509236E+02  0.20926801172E+01 -0.38928096775E+02  0.46142316103E+02  0.99999848782E+01 0.  0.
        -12    1    1    2    0    0  0.22568509236E+02 -0.20926801172E+01  0.38928096775E+02  0.45045683897E+02  0.00000000000E+00 0.  1.
         11    1    3    3    0    0 -0.19530277369E+01 -0.16643364442E+01 -0.11763642675E+01  0.28227940576E+01  0.51100000000E-03 0.  1.
        -11    1    3    3    0    0 -0.19220260939E+02  0.30501767242E+01 -0.32931309864E+02  0.38251708174E+02  0.51100000000E-03 0. -1.
        -12    1    3    3    0    0 -0.13952205601E+01  0.70683983724E+00 -0.48204226435E+01  0.50678138708E+01  0.00000000000E+00 0.  1.
</event>
<event>
 7    1  0.1476909E-008  0.4614232E+02  0.7816164E-02  0.1320468E+00
        -11   -1    0    0    0    0  0.00000000000E+00  0.00000000000E+00  0.45593999997E+02  0.45594000000E+02  0.51100000000E-03 0.  1.
         11   -1    0    0    0    0 -0.00000000000E+00 -0.00000000000E+00 -0.45593999997E+02  0.45594000000E+02  0.51100000000E-03 0. -1.
    9900012    2    1    2    0    0  0.38117736834E+02 -0.84361688651E+01 -0.22471818638E+02  0.46142318305E+02  0.10000004958E+02 0.  0.
        -12    1    1    2    0    0 -0.38117736834E+02  0.84361688651E+01  0.22471818638E+02  0.45045681695E+02  0.00000000000E+00 0.  1.
         11    1    3    3    0    0  0.46579528650E+01 -0.91295226844E+00 -0.35394638353E+01  0.59209637087E+01  0.51100000000E-03 0. -1.
        -11    1    3    3    0    0  0.33870912185E+02 -0.67716950894E+01 -0.17980845933E+02  0.38941049900E+02  0.51100000000E-03 0.  1.
        -12    1    3    3    0    0 -0.41112821554E+00 -0.75152150727E+00 -0.95150886934E+00  0.12803046957E+01  0.00000000000E+00 0.  1.
</event>
<event>
 7    1  0.1476909E-008  0.4614232E+02  0.7816164E-02  0.1320468E+00
        -11   -1    0    0    0    0  0.00000000000E+00  0.00000000000E+00  0.45593999997E+02  0.45594000000E+02  0.51100000000E-03 0.  1.
         11   -1    0    0    0    0 -0.00000000000E+00 -0.00000000000E+00 -0.45593999997E+02  0.45594000000E+02  0.51100000000E-03 0. -1.
    9900012    2    1    2    0    0 -0.51953931778E+01 -0.29386941051E+02 -0.33742096075E+02  0.46142318052E+02  0.10000002653E+02 0.  0.
        -12    1    1    2    0    0  0.51953931778E+01  0.29386941051E+02  0.33742096075E+02  0.45045681948E+02  0.00000000000E+00 0.  1.
         11    1    3    3    0    0 -0.15748682825E+01 -0.78531835532E+01 -0.68443638279E+01  0.10535559714E+02  0.51100000000E-03 0. -1.
        -11    1    3    3    0    0 -0.38967103876E+01 -0.22036424350E+02 -0.26951139702E+02  0.35030733385E+02  0.51100000000E-03 0.  1.
        -12    1    3    3    0    0  0.27618549229E+00  0.50266685166E+00  0.53407455163E-01  0.57602495273E+00  0.00000000000E+00 0.  1.
</event>
<event>
 7    1  0.1476909E-008  0.4614232E+02  0.7816164E-02  0.1320468E+00
        -11   -1    0    0    0    0  0.00000000000E+00  0.00000000000E+00  0.45593999997E+02  0.45594000000E+02  0.51100000000E-03 0. -1.
         11   -1    0    0    0    0 -0.00000000000E+00 -0.00000000000E+00 -0.45593999997E+02  0.45594000000E+02  0.51100000000E-03 0.  1.
    9900012    2    1    2    0    0  0.52663449363E+01 -0.30369506162E+02  0.32849236000E+02  0.46142316530E+02  0.99999887712E+01 0.  0.
        -12    1    1    2    0    0 -0.52663449363E+01  0.30369506162E+02 -0.32849236000E+02  0.45045683470E+02  0.00000000000E+00 0.  1.
         11    1    3    3    0    0 -0.92428209695E+00 -0.73963624073E+01  0.10516458654E+02  0.12890165908E+02  0.51100000000E-03 0. -1.
        -11    1    3    3    0    0  0.18258689095E+01 -0.67517008009E+01  0.10832536774E+02  0.12894305495E+02  0.51100000000E-03 0.  1.
         12    1    3    3    0    0  0.43647581238E+01 -0.16221442953E+02  0.11500240572E+02  0.20357845126E+02  0.00000000000E+00 0. -1.
</event>
<event>
 7    1  0.1476909E-008  0.4614232E+02  0.7816164E-02  0.1320468E+00
        -11   -1    0    0    0    0  0.00000000000E+00  0.00000000000E+00  0.45593999997E+02  0.45594000000E+02  0.51100000000E-03 0. -1.
         11   -1    0    0    0    0 -0.00000000000E+00 -0.00000000000E+00 -0.45593999997E+02  0.45594000000E+02  0.51100000000E-03 0.  1.
    9900012    2    1    2    0    0  0.22537365512E+02  0.32909404470E+02  0.20932073598E+02  0.46142318166E+02  0.10000003692E+02 0.  0.
        -12    1    1    2    0    0 -0.22537365512E+02 -0.32909404470E+02 -0.20932073598E+02  0.45045681834E+02  0.00000000000E+00 0.  1.
         11    1    3    3    0    0  0.66709128139E+01  0.13983335942E+02  0.10615718312E+02  0.18781060603E+02  0.51100000000E-03 0. -1.
        -11    1    3    3    0    0  0.13558365082E+02  0.15534537539E+02  0.10719363009E+02  0.23239102044E+02  0.51100000000E-03 0.  1.
         12    1    3    3    0    0  0.23080876159E+01  0.33915309892E+01 -0.40300772330E+00  0.41221555184E+01  0.00000000000E+00 0. -1.
</event>
<event>
 7    1  0.1476909E-008  0.4614232E+02  0.7816164E-02  0.1320468E+00
        -11   -1    0    0    0    0  0.00000000000E+00  0.00000000000E+00  0.45593999997E+02  0.45594000000E+02  0.51100000000E-03 0.  1.
         11   -1    0    0    0    0 -0.00000000000E+00 -0.00000000000E+00 -0.45593999997E+02  0.45594000000E+02  0.51100000000E-03 0. -1.
    9900012    2    1    2    0    0 -0.14125769066E+02  0.23828672894E+02 -0.35521409017E+02  0.46142317608E+02  0.99999986046E+01 0.  0.
        -12    1    1    2    0    0  0.14125769066E+02 -0.23828672894E+02  0.35521409017E+02  0.45045682392E+02  0.00000000000E+00 0.  1.
         11    1    3    3    0    0 -0.72396987993E+01  0.14107802203E+02 -0.24311344681E+02  0.29025588748E+02  0.51100000000E-03 0. -1.
        -11    1    3    3    0    0 -0.49952989550E+01  0.38812489754E+01 -0.33950029882E+01  0.71793558771E+01  0.51100000000E-03 0.  1.
        -12    1    3    3    0    0 -0.18907713116E+01  0.58396217153E+01 -0.78150613484E+01  0.99373729833E+01  0.00000000000E+00 0.  1.
</event>
<event>
 7    1  0.1476909E-008  0.4614232E+02  0.7816164E-02  0.1320468E+00
        -11   -1    0    0    0    0  0.00000000000E+00  0.00000000000E+00  0.45593999997E+02  0.45594000000E+02  0.51100000000E-03 0. -1.
         11   -1    0    0    0    0 -0.00000000000E+00 -0.00000000000E+00 -0.45593999997E+02  0.45594000000E+02  0.51100000000E-03 0.  1.
    9900012    2    1    2    0    0  0.31810368708E+02  0.27858319353E+02 -0.15528298186E+02  0.46142316977E+02  0.99999928475E+01 0.  0.
        -12    1    1    2    0    0 -0.31810368708E+02 -0.27858319353E+02  0.15528298186E+02  0.45045683023E+02  0.00000000000E+00 0.  1.
         11    1    3    3    0    0  0.25321078204E+02  0.18281411845E+02 -0.11398229563E+02  0.33245851739E+02  0.51100000000E-03 0. -1.
        -11    1    3    3    0    0 -0.49921464490E+00  0.23844354314E+00 -0.17428623238E+00  0.58004011660E+00  0.51100000000E-03 0.  1.
         12    1    3    3    0    0  0.69885051487E+01  0.93384639644E+01 -0.39557823912E+01  0.12316425121E+02  0.00000000000E+00 0. -1.
</event>
<event>
 7    1  0.1476909E-008  0.4614232E+02  0.7816164E-02  0.1320468E+00
        -11   -1    0    0    0    0  0.00000000000E+00  0.00000000000E+00  0.45593999997E+02  0.45594000000E+02  0.51100000000E-03 0.  1.
         11   -1    0    0    0    0 -0.00000000000E+00 -0.00000000000E+00 -0.45593999997E+02  0.45594000000E+02  0.51100000000E-03 0. -1.
    9900012    2    1    2    0    0  0.31939727074E+01 -0.23443209928E+02 -0.38331813418E+02  0.46142317928E+02  0.10000001525E+02 0.  0.
        -12    1    1    2    0    0 -0.31939727074E+01  0.23443209928E+02  0.38331813418E+02  0.45045682072E+02  0.00000000000E+00 0.  1.
         11    1    3    3    0    0  0.39381314884E+01 -0.57196834739E+01 -0.11981941164E+02  0.13848847352E+02  0.51100000000E-03 0. -1.
        -11    1    3    3    0    0 -0.19273878335E+01 -0.93014175289E+01 -0.95841539647E+01  0.13493969001E+02  0.51100000000E-03 0.  1.
         12    1    3    3    0    0  0.11832290526E+01 -0.84221089256E+01 -0.16765718289E+02  0.18799501576E+02  0.00000000000E+00 0. -1.
</event>
<event>
 7    1  0.1476909E-008  0.4614232E+02  0.7816164E-02  0.1320468E+00
        -11   -1    0    0    0    0  0.00000000000E+00  0.00000000000E+00  0.45593999997E+02  0.45594000000E+02  0.51100000000E-03 0.  1.
         11   -1    0    0    0    0 -0.00000000000E+00 -0.00000000000E+00 -0.45593999997E+02  0.45594000000E+02  0.51100000000E-03 0. -1.
    9900012    2    1    2    0    0 -0.84900675619E+01 -0.23309267687E+02 -0.37599333718E+02  0.46142322035E+02  0.10000038972E+02 0.  0.
        -12    1    1    2    0    0  0.84900675619E+01  0.23309267687E+02  0.37599333718E+02  0.45045677965E+02  0.00000000000E+00 0.  1.
         11    1    3    3    0    0 -0.48186865306E+01 -0.52583561190E+01 -0.84820980451E+01  0.11082239686E+02  0.51100000000E-03 0. -1.
        -11    1    3    3    0    0 -0.10734528439E+01 -0.38358143045E+01 -0.23059532412E+01  0.46025202877E+01  0.51100000000E-03 0.  1.
        -12    1    3    3    0    0 -0.25979281875E+01 -0.14215097264E+02 -0.26811282431E+02  0.30457562061E+02  0.00000000000E+00 0.  1.
</event>
<event>
 7    1  0.1476909E-008  0.4614232E+02  0.7816164E-02  0.1320468E+00
        -11   -1    0    0    0    0  0.00000000000E+00  0.00000000000E+00  0.45593999997E+02  0.45594000000E+02  0.51100000000E-03 0. -1.
         11   -1    0    0    0    0 -0.00000000000E+00 -0.00000000000E+00 -0.45593999997E+02  0.45594000000E+02  0.51100000000E-03 0.  1.
    9900012    2    1    2    0    0 -0.58006316292E+01  0.43812997758E+02  0.87113403682E+01  0.46142317068E+02  0.99999936782E+01 0.  0.
        -12    1    1    2    0    0  0.58006316292E+01 -0.43812997758E+02 -0.87113403682E+01  0.45045682932E+02  0.00000000000E+00 0.  1.
         11    1    3    3    0    0  0.67436622215E-01  0.27790565188E+02  0.73889901411E+01  0.28756168673E+02  0.51100000000E-03 0. -1.
        -11    1    3    3    0    0 -0.22882161689E+01  0.87338185845E+01 -0.57584946638E+00  0.90469399894E+01  0.51100000000E-03 0.  1.
         12    1    3    3    0    0 -0.35798520825E+01  0.72886139849E+01  0.18981996935E+01  0.83392084055E+01  0.00000000000E+00 0. -1.
</event>
<event>
 7    1  0.1476909E-008  0.4614232E+02  0.7816164E-02  0.1320468E+00
        -11   -1    0    0    0    0  0.00000000000E+00  0.00000000000E+00  0.45593999997E+02  0.45594000000E+02  0.51100000000E-03 0.  1.
         11   -1    0    0    0    0 -0.00000000000E+00 -0.00000000000E+00 -0.45593999997E+02  0.45594000000E+02  0.51100000000E-03 0. -1.
    9900012    2    1    2    0    0  0.25099515002E+02  0.29331334637E+01 -0.37289736647E+02  0.46142318914E+02  0.10000010513E+02 0.  0.
        -12    1    1    2    0    0 -0.25099515002E+02 -0.29331334637E+01  0.37289736647E+02  0.45045681086E+02  0.00000000000E+00 0.  1.
         11    1    3    3    0    0  0.23718988573E+02  0.22901947114E+01 -0.32179958204E+02  0.40042291655E+02  0.51100000000E-03 0. -1.
        -11    1    3    3    0    0 -0.73178315405E+00 -0.54090241204E+00 -0.14335780794E+01  0.16980071775E+01  0.51100000000E-03 0.  1.
         12    1    3    3    0    0  0.21123095839E+01  0.11838411644E+01 -0.36762003639E+01  0.44020200813E+01  0.00000000000E+00 0. -1.
</event>
<event>
 7    1  0.1476909E-008  0.4614232E+02  0.7816164E-02  0.1320468E+00
        -11   -1    0    0    0    0  0.00000000000E+00  0.00000000000E+00  0.45593999997E+02  0.45594000000E+02  0.51100000000E-03 0.  1.
         11   -1    0    0    0    0 -0.00000000000E+00 -0.00000000000E+00 -0.45593999997E+02  0.45594000000E+02  0.51100000000E-03 0. -1.
    9900012    2    1    2    0    0  0.41599244609E+02 -0.93273268192E+01 -0.14547071827E+02  0.46142317894E+02  0.10000001213E+02 0.  0.
        -12    1    1    2    0    0 -0.41599244609E+02  0.93273268192E+01  0.14547071827E+02  0.45045682106E+02  0.00000000000E+00 0.  1.
         11    1    3    3    0    0  0.21280966331E+02 -0.27376752754E+00 -0.79460583739E+01  0.22717709405E+02  0.51100000000E-03 0. -1.
        -11    1    3    3    0    0  0.94109188662E+01 -0.42453693719E+01 -0.47392537440E+01  0.11359977171E+02  0.51100000000E-03 0.  1.
         12    1    3    3    0    0  0.10907359411E+02 -0.48081899198E+01 -0.18617597094E+01  0.12064631318E+02  0.00000000000E+00 0. -1.
</event>
<event>
 7    1  0.1476909E-008  0.4614232E+02  0.7816164E-02  0.1320468E+00
        -11   -1    0    0    0    0  0.00000000000E+00  0.00000000000E+00  0.45593999997E+02  0.45594000000E+02  0.51100000000E-03 0. -1.
         11   -1    0    0    0    0 -0.00000000000E+00 -0.00000000000E+00 -0.45593999997E+02  0.45594000000E+02  0.51100000000E-03 0.  1.
    9900012    2    1    2    0    0 -0.20152825084E+02  0.33356326192E+02 -0.22590537373E+02  0.46142320577E+02  0.10000025676E+02 0.  0.
        -12    1    1    2    0    0  0.20152825084E+02 -0.33356326192E+02  0.22590537373E+02  0.45045679423E+02  0.00000000000E+00 0.  1.
         11    1    3    3    0    0 -0.12476861558E+01  0.29736099583E+01  0.53361470334E+00  0.32686116074E+01  0.51100000000E-03 0. -1.
        -11    1    3    3    0    0 -0.58949757163E+01  0.60929969048E+01 -0.66016111909E+01  0.10745074246E+02  0.51100000000E-03 0.  1.
        -12    1    3    3    0    0 -0.13010163212E+02  0.24289719329E+02 -0.16522540885E+02  0.32128634723E+02  0.00000000000E+00 0.  1.
</event>
<event>
 7    1  0.1476909E-008  0.4614232E+02  0.7816164E-02  0.1320468E+00
        -11   -1    0    0    0    0  0.00000000000E+00  0.00000000000E+00  0.45593999997E+02  0.45594000000E+02  0.51100000000E-03 0. -1.
         11   -1    0    0    0    0 -0.00000000000E+00 -0.00000000000E+00 -0.45593999997E+02  0.45594000000E+02  0.51100000000E-03 0.  1.
    9900012    2    1    2    0    0  0.40083139299E+02 -0.19238495275E+02  0.72343399178E+01  0.46142318403E+02  0.10000005852E+02 0.  0.
        -12    1    1    2    0    0 -0.40083139299E+02  0.19238495275E+02 -0.72343399178E+01  0.45045681597E+02  0.00000000000E+00 0.  1.
         11    1    3    3    0    0  0.16682495532E+02 -0.10285362483E+02  0.26275818366E+01  0.19773682640E+02  0.51100000000E-03 0. -1.
        -11    1    3    3    0    0  0.18337770832E+02 -0.44290040575E+01  0.51553575595E+01  0.19556779588E+02  0.51100000000E-03 0.  1.
        -12    1    3    3    0    0  0.50628729355E+01 -0.45241287337E+01 -0.54859947825E+00  0.68118561749E+01  0.00000000000E+00 0.  1.
</event>
<event>
 7    1  0.1476909E-008  0.4614232E+02  0.7816164E-02  0.1320468E+00
        -11   -1    0    0    0    0  0.00000000000E+00  0.00000000000E+00  0.45593999997E+02  0.45594000000E+02  0.51100000000E-03 0.  1.
         11   -1    0    0    0    0 -0.00000000000E+00 -0.00000000000E+00 -0.45593999997E+02  0.45594000000E+02  0.51100000000E-03 0. -1.
    9900012    2    1    2    0    0 -0.20568701612E+02 -0.28646978396E+02 -0.28024856851E+02  0.46142318090E+02  0.10000003002E+02 0.  0.
        -12    1    1    2    0    0  0.20568701612E+02  0.28646978396E+02  0.28024856851E+02  0.45045681910E+02  0.00000000000E+00 0.  1.
         11    1    3    3    0    0 -0.15194198028E+02 -0.24889412470E+02 -0.24334966742E+02  0.37980746615E+02  0.51100000000E-03 0. -1.
        -11    1    3    3    0    0 -0.49510892751E+00  0.56374716868E+00 -0.52670492853E+00  0.91671263936E+00  0.51100000000E-03 0.  1.
         12    1    3    3    0    0 -0.48793946565E+01 -0.43213130940E+01 -0.31631851803E+01  0.72448588361E+01  0.00000000000E+00 0. -1.
</event>
<event>
 7    1  0.1476909E-008  0.4614232E+02  0.7816164E-02  0.1320468E+00
        -11   -1    0    0    0    0  0.00000000000E+00  0.00000000000E+00  0.45593999997E+02  0.45594000000E+02  0.51100000000E-03 0. -1.
         11   -1    0    0    0    0 -0.00000000000E+00 -0.00000000000E+00 -0.45593999997E+02  0.45594000000E+02  0.51100000000E-03 0.  1.
    9900012    2    1    2    0    0  0.20420956539E+02  0.30950824520E+01  0.40031468767E+02  0.46142317710E+02  0.99999995301E+01 0.  0.
        -12    1    1    2    0    0 -0.20420956539E+02 -0.30950824520E+01 -0.40031468767E+02  0.45045682290E+02  0.00000000000E+00 0.  1.
         11    1    3    3    0    0  0.72825417670E+01 -0.25436388670E+01  0.20407211572E+02  0.21816502874E+02  0.51100000000E-03 0. -1.
        -11    1    3    3    0    0  0.63858168762E+01  0.29876404397E+01  0.84725765294E+01  0.11022214200E+02  0.51100000000E-03 0.  1.
         12    1    3    3    0    0  0.67525978959E+01  0.26510808792E+01  0.11151680666E+02  0.13303600635E+02  0.00000000000E+00 0. -1.
</event>
<event>
 7    1  0.1476909E-008  0.4614232E+02  0.7816164E-02  0.1320468E+00
        -11   -1    0    0    0    0  0.00000000000E+00  0.00000000000E+00  0.45593999997E+02  0.45594000000E+02  0.51100000000E-03 0.  1.
         11   -1    0    0    0    0 -0.00000000000E+00 -0.00000000000E+00 -0.45593999997E+02  0.45594000000E+02  0.51100000000E-03 0. -1.
    9900012    2    1    2    0    0 -0.26178970130E+02  0.35333668491E+02 -0.97625234802E+01  0.46142317956E+02  0.10000001776E+02 0.  0.
        -12    1    1    2    0    0  0.26178970130E+02 -0.35333668491E+02  0.97625234802E+01  0.45045682044E+02  0.00000000000E+00 0.  1.
         11    1    3    3    0    0 -0.11833988949E+02  0.18593671708E+02 -0.11092635118E+01  0.22068039963E+02  0.51100000000E-03 0. -1.
        -11    1    3    3    0    0 -0.53266130477E+01  0.32579241330E+01 -0.22971934691E+01  0.66531176385E+01  0.51100000000E-03 0.  1.
         12    1    3    3    0    0 -0.90183681327E+01  0.13482072651E+02 -0.63560664993E+01  0.17421160354E+02  0.00000000000E+00 0. -1.
</event>
<event>
 7    1  0.1476909E-008  0.4614232E+02  0.7816164E-02  0.1320468E+00
        -11   -1    0    0    0    0  0.00000000000E+00  0.00000000000E+00  0.45593999997E+02  0.45594000000E+02  0.51100000000E-03 0. -1.
         11   -1    0    0    0    0 -0.00000000000E+00 -0.00000000000E+00 -0.45593999997E+02  0.45594000000E+02  0.51100000000E-03 0.  1.
    9900012    2    1    2    0    0 -0.21198478440E+02 -0.20134607136E+02  0.34268580713E+02  0.46142317446E+02  0.99999971265E+01 0.  0.
        -12    1    1    2    0    0  0.21198478440E+02  0.20134607136E+02 -0.34268580713E+02  0.45045682554E+02  0.00000000000E+00 0.  1.
         11    1    3    3    0    0 -0.74613722333E+01 -0.72068252010E+01  0.87362455463E+01  0.13562167658E+02  0.51100000000E-03 0. -1.
        -11    1    3    3    0    0 -0.50335923576E+01 -0.17873266750E+01  0.11406107753E+02  0.12594875268E+02  0.51100000000E-03 0.  1.
        -12    1    3    3    0    0 -0.87035138489E+01 -0.11140455260E+02  0.14126227413E+02  0.19985274520E+02  0.00000000000E+00 0.  1.
</event>
<event>
 7    1  0.1476909E-008  0.4614232E+02  0.7816164E-02  0.1320468E+00
        -11   -1    0    0    0    0  0.00000000000E+00  0.00000000000E+00  0.45593999997E+02  0.45594000000E+02  0.51100000000E-03 0.  1.
         11   -1    0    0    0    0 -0.00000000000E+00 -0.00000000000E+00 -0.45593999997E+02  0.45594000000E+02  0.51100000000E-03 0. -1.
    9900012    2    1    2    0    0  0.20612557192E+02 -0.39061063074E+02 -0.88582883545E+01  0.46142318353E+02  0.10000005395E+02 0.  0.
        -12    1    1    2    0    0 -0.20612557192E+02  0.39061063074E+02  0.88582883545E+01  0.45045681647E+02  0.00000000000E+00 0.  1.
         11    1    3    3    0    0  0.47014704188E+01 -0.41177125591E+01 -0.18470167743E+01  0.65169664756E+01  0.51100000000E-03 0. -1.
        -11    1    3    3    0    0  0.11627880232E+02 -0.27058977088E+02 -0.82061122251E+01  0.30573454464E+02  0.51100000000E-03 0.  1.
         12    1    3    3    0    0  0.42832065410E+01 -0.78843734272E+01  0.11948406448E+01  0.90518974132E+01  0.00000000000E+00 0. -1.
</event>
<event>
 7    1  0.1476909E-008  0.4614232E+02  0.7816164E-02  0.1320468E+00
        -11   -1    0    0    0    0  0.00000000000E+00  0.00000000000E+00  0.45593999997E+02  0.45594000000E+02  0.51100000000E-03 0. -1.
         11   -1    0    0    0    0 -0.00000000000E+00 -0.00000000000E+00 -0.45593999997E+02  0.45594000000E+02  0.51100000000E-03 0.  1.
    9900012    2    1    2    0    0 -0.12768536782E+02  0.38549862228E+02 -0.19493227932E+02  0.46142319357E+02  0.10000014554E+02 0.  0.
        -12    1    1    2    0    0  0.12768536782E+02 -0.38549862228E+02  0.19493227932E+02  0.45045680643E+02  0.00000000000E+00 0.  1.
         11    1    3    3    0    0 -0.62364656056E+01  0.11894731827E+02 -0.64989072881E+01  0.14920252836E+02  0.51100000000E-03 0.  1.
        -11    1    3    3    0    0 -0.81334261267E+01  0.22911254744E+02 -0.10913826097E+02  0.26649386763E+02  0.51100000000E-03 0. -1.
        -12    1    3    3    0    0  0.16013549502E+01  0.37438756567E+01 -0.20804945468E+01  0.45726797579E+01  0.00000000000E+00 0.  1.
</event>
<event>
 7    1  0.1476909E-008  0.4614232E+02  0.7816164E-02  0.1320468E+00
        -11   -1    0    0    0    0  0.00000000000E+00  0.00000000000E+00  0.45593999997E+02  0.45594000000E+02  0.51100000000E-03 0. -1.
         11   -1    0    0    0    0 -0.00000000000E+00 -0.00000000000E+00 -0.45593999997E+02  0.45594000000E+02  0.51100000000E-03 0.  1.
    9900012    2    1    2    0    0  0.19287807694E+02  0.15214863738E+02  0.37757144918E+02  0.46142316561E+02  0.99999890521E+01 0.  0.
        -12    1    1    2    0    0 -0.19287807694E+02 -0.15214863738E+02 -0.37757144918E+02  0.45045683439E+02  0.00000000000E+00 0.  1.
         11    1    3    3    0    0  0.11171193315E+02  0.68627716808E+01  0.26115041844E+02  0.29221372418E+02  0.51100000000E-03 0. -1.
        -11    1    3    3    0    0  0.40260112834E-01  0.13712550546E+01  0.42536027955E+00  0.14362774558E+01  0.51100000000E-03 0.  1.
         12    1    3    3    0    0  0.80763542664E+01  0.69808370022E+01  0.11216742794E+02  0.15484666687E+02  0.00000000000E+00 0. -1.
</event>
<event>
 7    1  0.1476909E-008  0.4614232E+02  0.7816164E-02  0.1320468E+00
        -11   -1    0    0    0    0  0.00000000000E+00  0.00000000000E+00  0.45593999997E+02  0.45594000000E+02  0.51100000000E-03 0. -1.
         11   -1    0    0    0    0 -0.00000000000E+00 -0.00000000000E+00 -0.45593999997E+02  0.45594000000E+02  0.51100000000E-03 0.  1.
    9900012    2    1    2    0    0  0.38050558659E+02 -0.15466435467E+02  0.18494805515E+02  0.46142317950E+02  0.10000001721E+02 0.  0.
        -12    1    1    2    0    0 -0.38050558659E+02  0.15466435467E+02 -0.18494805515E+02  0.45045682050E+02  0.00000000000E+00 0.  1.
         11    1    3    3    0    0  0.75624998108E+01 -0.45046569760E+01  0.38460321405E+01  0.96060034014E+01  0.51100000000E-03 0. -1.
        -11    1    3    3    0    0  0.93420554844E+01  0.51037759377E-01  0.63303518129E+01  0.11284943946E+02  0.51100000000E-03 0.  1.
        -12    1    3    3    0    0  0.21146003364E+02 -0.11012816251E+02  0.83184215620E+01  0.25251370603E+02  0.00000000000E+00 0.  1.
</event>
<event>
 7    1  0.1607496E-008  0.4614232E+02  0.7816164E-02  0.1320468E+00
        -11   -1    0    0    0    0  0.00000000000E+00  0.00000000000E+00  0.45593999997E+02  0.45594000000E+02  0.51100000000E-03 0. -1.
         11   -1    0    0    0    0 -0.00000000000E+00 -0.00000000000E+00 -0.45593999997E+02  0.45594000000E+02  0.51100000000E-03 0.  1.
    9900012    2    1    2    0    0  0.19370544039E-02 -0.42099648307E+02  0.16022891898E+02  0.46142318119E+02  0.10000003264E+02 0.  0.
        -12    1    1    2    0    0 -0.19370544039E-02  0.42099648307E+02 -0.16022891898E+02  0.45045681881E+02  0.00000000000E+00 0.  1.
         11    1    3    3    0    0 -0.37909883260E+01 -0.32963298137E+02  0.11588480351E+02  0.35146030980E+02  0.51100000000E-03 0. -1.
        -11    1    3    3    0    0  0.13483840401E+01 -0.15665594585E+01  0.52373089143E+00  0.21322622645E+01  0.51100000000E-03 0.  1.
         12    1    3    3    0    0  0.24445413403E+01 -0.75697907116E+01  0.39106806556E+01  0.88640248743E+01  0.00000000000E+00 0. -1.
</event>
<event>
 7    1  0.1476909E-008  0.4614232E+02  0.7816164E-02  0.1320468E+00
        -11   -1    0    0    0    0  0.00000000000E+00  0.00000000000E+00  0.45593999997E+02  0.45594000000E+02  0.51100000000E-03 0.  1.
         11   -1    0    0    0    0 -0.00000000000E+00 -0.00000000000E+00 -0.45593999997E+02  0.45594000000E+02  0.51100000000E-03 0. -1.
    9900012    2    1    2    0    0  0.26777263212E+02  0.34899566862E+02 -0.97011355443E+01  0.46142316266E+02  0.99999863623E+01 0.  0.
        -12    1    1    2    0    0 -0.26777263212E+02 -0.34899566862E+02  0.97011355443E+01  0.45045683734E+02  0.00000000000E+00 0.  1.
         11    1    3    3    0    0  0.20442945413E+02  0.31731365056E+02 -0.66449713789E+01  0.38326872953E+02  0.51100000000E-03 0. -1.
        -11    1    3    3    0    0  0.32376066877E+01  0.16078551339E+01 -0.87626987708E+00  0.37195623875E+01  0.51100000000E-03 0.  1.
         12    1    3    3    0    0  0.30967111113E+01  0.15603466717E+01 -0.21798942883E+01  0.40958809249E+01  0.00000000000E+00 0. -1.
</event>
<event>
 7    1  0.1476909E-008  0.4614232E+02  0.7816164E-02  0.1320468E+00
        -11   -1    0    0    0    0  0.00000000000E+00  0.00000000000E+00  0.45593999997E+02  0.45594000000E+02  0.51100000000E-03 0. -1.
         11   -1    0    0    0    0 -0.00000000000E+00 -0.00000000000E+00 -0.45593999997E+02  0.45594000000E+02  0.51100000000E-03 0.  1.
    9900012    2    1    2    0    0 -0.33235661585E+02  0.21914434689E+02  0.21077518851E+02  0.46142318191E+02  0.10000003920E+02 0.  0.
        -12    1    1    2    0    0  0.33235661585E+02 -0.21914434689E+02 -0.21077518851E+02  0.45045681809E+02  0.00000000000E+00 0.  1.
         11    1    3    3    0    0 -0.14069574359E+02  0.92767767567E+01  0.60838424616E+01  0.17917160741E+02  0.51100000000E-03 0.  1.
        -11    1    3    3    0    0 -0.16127968277E+02  0.11534399744E+02  0.98244202401E+01  0.22128555568E+02  0.51100000000E-03 0. -1.
        -12    1    3    3    0    0 -0.30381189488E+01  0.11032581880E+01  0.51692561497E+01  0.60966018828E+01  0.00000000000E+00 0.  1.
</event>
<event>
 7    1  0.1476909E-008  0.4614232E+02  0.7816164E-02  0.1320468E+00
        -11   -1    0    0    0    0  0.00000000000E+00  0.00000000000E+00  0.45593999997E+02  0.45594000000E+02  0.51100000000E-03 0.  1.
         11   -1    0    0    0    0 -0.00000000000E+00 -0.00000000000E+00 -0.45593999997E+02  0.45594000000E+02  0.51100000000E-03 0. -1.
    9900012    2    1    2    0    0 -0.15570387314E+02  0.28074780043E+02 -0.31598783010E+02  0.46142319593E+02  0.10000016707E+02 0.  0.
        -12    1    1    2    0    0  0.15570387314E+02 -0.28074780043E+02  0.31598783010E+02  0.45045680407E+02  0.00000000000E+00 0.  1.
         11    1    3    3    0    0 -0.47655450356E+01  0.11517115794E+02 -0.77930878439E+01  0.14699884153E+02  0.51100000000E-03 0. -1.
        -11    1    3    3    0    0 -0.37749915838E+01  0.19597524561E+01 -0.38464085610E+01  0.57346360151E+01  0.51100000000E-03 0.  1.
         12    1    3    3    0    0 -0.70298506950E+01  0.14597911793E+02 -0.19959286605E+02  0.25707799425E+02  0.00000000000E+00 0. -1.
</event>
<event>
 7    1  0.1476909E-008  0.4614232E+02  0.7816164E-02  0.1320468E+00
        -11   -1    0    0    0    0  0.00000000000E+00  0.00000000000E+00  0.45593999997E+02  0.45594000000E+02  0.51100000000E-03 0.  1.
         11   -1    0    0    0    0 -0.00000000000E+00 -0.00000000000E+00 -0.45593999997E+02  0.45594000000E+02  0.51100000000E-03 0. -1.
    9900012    2    1    2    0    0 -0.40170924393E+02  0.18679489452E+02 -0.81539560324E+01  0.46142317724E+02  0.99999996592E+01 0.  0.
        -12    1    1    2    0    0  0.40170924393E+02 -0.18679489452E+02  0.81539560324E+01  0.45045682276E+02  0.00000000000E+00 0.  1.
         11    1    3    3    0    0 -0.36234415640E+02  0.13549639237E+02 -0.72584416516E+01  0.39360012394E+02  0.51100000000E-03 0. -1.
        -11    1    3    3    0    0 -0.13960688707E+01  0.32422065808E+01 -0.16350108382E+00  0.35337861664E+01  0.51100000000E-03 0.  1.
         12    1    3    3    0    0 -0.25404398821E+01  0.18876436345E+01 -0.73201329698E+00  0.32485191630E+01  0.00000000000E+00 0. -1.
</event>
<event>
 7    1  0.1476909E-008  0.4614232E+02  0.7816164E-02  0.1320468E+00
        -11   -1    0    0    0    0  0.00000000000E+00  0.00000000000E+00  0.45593999997E+02  0.45594000000E+02  0.51100000000E-03 0. -1.
         11   -1    0    0    0    0 -0.00000000000E+00 -0.00000000000E+00 -0.45593999997E+02  0.45594000000E+02  0.51100000000E-03 0.  1.
    9900012    2    1    2    0    0 -0.30331102806E+02  0.21452473883E+02  0.25474087264E+02  0.46142317021E+02  0.99999932509E+01 0.  0.
        -12    1    1    2    0    0  0.30331102806E+02 -0.21452473883E+02 -0.25474087264E+02  0.45045682979E+02  0.00000000000E+00 0.  1.
         11    1    3    3    0    0 -0.27650806456E+02  0.22263297773E+02  0.24408112641E+02  0.43081057187E+02  0.51100000000E-03 0. -1.
        -11    1    3    3    0    0 -0.21837116543E+01 -0.48915221236E+00  0.62538614371E+00  0.23235693590E+01  0.51100000000E-03 0.  1.
         12    1    3    3    0    0 -0.49658469533E+00 -0.32167167826E+00  0.44058847948E+00  0.73769047471E+00  0.00000000000E+00 0. -1.
</event>
<event>
 7    1  0.1476909E-008  0.4614232E+02  0.7816164E-02  0.1320468E+00
        -11   -1    0    0    0    0  0.00000000000E+00  0.00000000000E+00  0.45593999997E+02  0.45594000000E+02  0.51100000000E-03 0. -1.
         11   -1    0    0    0    0 -0.00000000000E+00 -0.00000000000E+00 -0.45593999997E+02  0.45594000000E+02  0.51100000000E-03 0.  1.
    9900012    2    1    2    0    0 -0.17556028536E+02  0.19567236051E+02  0.36578992186E+02  0.46142317255E+02  0.99999953807E+01 0.  0.
        -12    1    1    2    0    0  0.17556028536E+02 -0.19567236051E+02 -0.36578992186E+02  0.45045682745E+02  0.00000000000E+00 0.  1.
         11    1    3    3    0    0 -0.12085455573E+02  0.12547962424E+02  0.20601401694E+02  0.26980128788E+02  0.51100000000E-03 0. -1.
        -11    1    3    3    0    0 -0.72165655125E+00 -0.86101110981E+00  0.68676568389E+00  0.13167291577E+01  0.51100000000E-03 0.  1.
         12    1    3    3    0    0 -0.47489164121E+01  0.78802847370E+01  0.15290824808E+02  0.17845459309E+02  0.00000000000E+00 0. -1.
</event>
<event>
 7    1  0.1476909E-008  0.4614232E+02  0.7816164E-02  0.1320468E+00
        -11   -1    0    0    0    0  0.00000000000E+00  0.00000000000E+00  0.45593999997E+02  0.45594000000E+02  0.51100000000E-03 0. -1.
         11   -1    0    0    0    0 -0.00000000000E+00 -0.00000000000E+00 -0.45593999997E+02  0.45594000000E+02  0.51100000000E-03 0.  1.
    9900012    2    1    2    0    0 -0.37891649706E+02  0.14928368371E+01  0.24312711357E+02  0.46142316380E+02  0.99999874056E+01 0.  0.
        -12    1    1    2    0    0  0.37891649706E+02 -0.14928368371E+01 -0.24312711357E+02  0.45045683620E+02  0.00000000000E+00 0.  1.
         11    1    3    3    0    0 -0.14775833449E+02  0.40440188534E+00  0.88889376782E+01  0.17248246528E+02  0.51100000000E-03 0. -1.
        -11    1    3    3    0    0 -0.72389350720E+01 -0.63967694064E+00  0.92860549277E+00  0.73262320457E+01  0.51100000000E-03 0.  1.
         12    1    3    3    0    0 -0.15876881185E+02  0.17281118924E+01  0.14495168186E+02  0.21567837806E+02  0.00000000000E+00 0. -1.
</event>
<event>
 7    1  0.1476909E-008  0.4614232E+02  0.7816164E-02  0.1320468E+00
        -11   -1    0    0    0    0  0.00000000000E+00  0.00000000000E+00  0.45593999997E+02  0.45594000000E+02  0.51100000000E-03 0.  1.
         11   -1    0    0    0    0 -0.00000000000E+00 -0.00000000000E+00 -0.45593999997E+02  0.45594000000E+02  0.51100000000E-03 0. -1.
    9900012    2    1    2    0    0 -0.22620512987E+01 -0.14134770964E+02 -0.42710711840E+02  0.46142317275E+02  0.99999955706E+01 0.  0.
        -12    1    1    2    0    0  0.22620512987E+01  0.14134770964E+02  0.42710711840E+02  0.45045682725E+02  0.00000000000E+00 0.  1.
         11    1    3    3    0    0 -0.15802733258E+01 -0.12623818255E+01 -0.88448014966E+01  0.90731133263E+01  0.51100000000E-03 0.  1.
        -11    1    3    3    0    0 -0.26985816501E+01 -0.12533832340E+02 -0.26725590590E+02  0.29641803061E+02  0.51100000000E-03 0. -1.
        -12    1    3    3    0    0  0.20168036773E+01 -0.33855679828E+00 -0.71403197529E+01  0.74274008881E+01  0.00000000000E+00 0.  1.
</event>
<event>
 7    1  0.1476909E-008  0.4614232E+02  0.7816164E-02  0.1320468E+00
        -11   -1    0    0    0    0  0.00000000000E+00  0.00000000000E+00  0.45593999997E+02  0.45594000000E+02  0.51100000000E-03 0. -1.
         11   -1    0    0    0    0 -0.00000000000E+00 -0.00000000000E+00 -0.45593999997E+02  0.45594000000E+02  0.51100000000E-03 0.  1.
    9900012    2    1    2    0    0  0.42716427513E+02 -0.32720744313E+01  0.13918110993E+02  0.46142318030E+02  0.10000002450E+02 0.  0.
        -12    1    1    2    0    0 -0.42716427513E+02  0.32720744313E+01 -0.13918110993E+02  0.45045681970E+02  0.00000000000E+00 0.  1.
         11    1    3    3    0    0  0.13525038417E+02  0.19573459572E+00  0.43691292910E+01  0.14214579390E+02  0.51100000000E-03 0. -1.
        -11    1    3    3    0    0 -0.30093310775E+00  0.61500306923E+00  0.10787869813E+00  0.69312883733E+00  0.51100000000E-03 0.  1.
        -12    1    3    3    0    0  0.29492322203E+02 -0.40828120962E+01  0.94411030040E+01  0.31234609802E+02  0.00000000000E+00 0.  1.
</event>
<event>
 7    1  0.1476909E-008  0.4614232E+02  0.7816164E-02  0.1320468E+00
        -11   -1    0    0    0    0  0.00000000000E+00  0.00000000000E+00  0.45593999997E+02  0.45594000000E+02  0.51100000000E-03 0. -1.
         11   -1    0    0    0    0 -0.00000000000E+00 -0.00000000000E+00 -0.45593999997E+02  0.45594000000E+02  0.51100000000E-03 0.  1.
    9900012    2    1    2    0    0  0.40216022586E+02  0.36496553194E+01  0.19961581533E+02  0.46142321030E+02  0.10000029806E+02 0.  0.
        -12    1    1    2    0    0 -0.40216022586E+02 -0.36496553194E+01 -0.19961581533E+02  0.45045678970E+02  0.00000000000E+00 0.  1.
         11    1    3    3    0    0  0.19774983485E+02  0.33362916797E+01  0.14563551687E+02  0.24784629350E+02  0.51100000000E-03 0. -1.
        -11    1    3    3    0    0  0.55206832477E+01 -0.82309926502E+00  0.46105108974E+00  0.56007146231E+01  0.51100000000E-03 0.  1.
         12    1    3    3    0    0  0.14920355853E+02  0.11364629047E+01  0.49369787561E+01  0.15756977057E+02  0.00000000000E+00 0. -1.
</event>
<event>
 7    1  0.1476909E-008  0.4614232E+02  0.7816164E-02  0.1320468E+00
        -11   -1    0    0    0    0  0.00000000000E+00  0.00000000000E+00  0.45593999997E+02  0.45594000000E+02  0.51100000000E-03 0. -1.
         11   -1    0    0    0    0 -0.00000000000E+00 -0.00000000000E+00 -0.45593999997E+02  0.45594000000E+02  0.51100000000E-03 0.  1.
    9900012    2    1    2    0    0  0.41867359999E+02 -0.64404922984E+01  0.15321796919E+02  0.46142320572E+02  0.10000025632E+02 0.  0.
        -12    1    1    2    0    0 -0.41867359999E+02  0.64404922984E+01 -0.15321796919E+02  0.45045679428E+02  0.00000000000E+00 0.  1.
         11    1    3    3    0    0  0.10941879596E+02  0.15261327364E+01  0.55771227300E+01  0.12375706381E+02  0.51100000000E-03 0. -1.
        -11    1    3    3    0    0  0.19772677957E+02 -0.39567540541E+01  0.83796490077E+01  0.21836511031E+02  0.51100000000E-03 0.  1.
         12    1    3    3    0    0  0.11152802445E+02 -0.40098709807E+01  0.13650251817E+01  0.11930103160E+02  0.00000000000E+00 0. -1.
</event>
<event>
 7    1  0.1476909E-008  0.4614232E+02  0.7816164E-02  0.1320468E+00
        -11   -1    0    0    0    0  0.00000000000E+00  0.00000000000E+00  0.45593999997E+02  0.45594000000E+02  0.51100000000E-03 0. -1.
         11   -1    0    0    0    0 -0.00000000000E+00 -0.00000000000E+00 -0.45593999997E+02  0.45594000000E+02  0.51100000000E-03 0.  1.
    9900012    2    1    2    0    0  0.40172243497E+02 -0.20326624342E+02  0.14603738989E+01  0.46142317669E+02  0.99999991626E+01 0.  0.
        -12    1    1    2    0    0 -0.40172243497E+02  0.20326624342E+02 -0.14603738989E+01  0.45045682331E+02  0.00000000000E+00 0.  1.
         11    1    3    3    0    0  0.14239453613E+02 -0.25754481766E+01  0.13345216922E+01  0.14531893232E+02  0.51100000000E-03 0. -1.
        -11    1    3    3    0    0  0.25497565430E+01 -0.78579216978E+00 -0.49915349415E+00  0.27143843196E+01  0.51100000000E-03 0.  1.
         12    1    3    3    0    0  0.23383033341E+02 -0.16965383996E+02  0.62500570089E+00  0.28896040118E+02  0.00000000000E+00 0. -1.
</event>
<event>
 7    1  0.1476909E-008  0.4614232E+02  0.7816164E-02  0.1320468E+00
        -11   -1    0    0    0    0  0.00000000000E+00  0.00000000000E+00  0.45593999997E+02  0.45594000000E+02  0.51100000000E-03 0. -1.
         11   -1    0    0    0    0 -0.00000000000E+00 -0.00000000000E+00 -0.45593999997E+02  0.45594000000E+02  0.51100000000E-03 0.  1.
    9900012    2    1    2    0    0 -0.20811370345E+02  0.27627746205E+02  0.28856680197E+02  0.46142317766E+02  0.10000000041E+02 0.  0.
        -12    1    1    2    0    0  0.20811370345E+02 -0.27627746205E+02 -0.28856680197E+02  0.45045682234E+02  0.00000000000E+00 0.  1.
         11    1    3    3    0    0 -0.11009696039E+02  0.20523723132E+02  0.15190960507E+02  0.27806508221E+02  0.51100000000E-03 0. -1.
        -11    1    3    3    0    0 -0.53790983276E+01  0.29354210964E+01  0.63430810542E+01  0.88196413392E+01  0.51100000000E-03 0.  1.
         12    1    3    3    0    0 -0.44225759779E+01  0.41686019767E+01  0.73226386362E+01  0.95161682056E+01  0.00000000000E+00 0. -1.
</event>
<event>
 7    1  0.1476909E-008  0.4614232E+02  0.7816164E-02  0.1320468E+00
        -11   -1    0    0    0    0  0.00000000000E+00  0.00000000000E+00  0.45593999997E+02  0.45594000000E+02  0.51100000000E-03 0.  1.
         11   -1    0    0    0    0 -0.00000000000E+00 -0.00000000000E+00 -0.45593999997E+02  0.45594000000E+02  0.51100000000E-03 0. -1.
    9900012    2    1    2    0    0 -0.42202347561E+02  0.34945200949E+00  0.15746528837E+02  0.46142318445E+02  0.10000006232E+02 0.  0.
        -12    1    1    2    0    0  0.42202347561E+02 -0.34945200949E+00 -0.15746528837E+02  0.45045681555E+02  0.00000000000E+00 0.  1.
         11    1    3    3    0    0 -0.11424828547E+02  0.34451110038E+01  0.20717687813E+01  0.12111470732E+02  0.51100000000E-03 0. -1.
        -11    1    3    3    0    0 -0.23884002583E+01 -0.11040889030E+01  0.53536335397E+00  0.26851596380E+01  0.51100000000E-03 0.  1.
         12    1    3    3    0    0 -0.28389118756E+02 -0.19915700913E+01  0.13139396702E+02  0.31345688075E+02  0.00000000000E+00 0. -1.
</event>
<event>
 7    1  0.1476909E-008  0.4614232E+02  0.7816164E-02  0.1320468E+00
        -11   -1    0    0    0    0  0.00000000000E+00  0.00000000000E+00  0.45593999997E+02  0.45594000000E+02  0.51100000000E-03 0. -1.
         11   -1    0    0    0    0 -0.00000000000E+00 -0.00000000000E+00 -0.45593999997E+02  0.45594000000E+02  0.51100000000E-03 0.  1.
    9900012    2    1    2    0    0 -0.34547242258E+02  0.78149635800E+01  0.27830341357E+02  0.46142317593E+02  0.99999984708E+01 0.  0.
        -12    1    1    2    0    0  0.34547242258E+02 -0.78149635800E+01 -0.27830341357E+02  0.45045682407E+02  0.00000000000E+00 0.  1.
         11    1    3    3    0    0 -0.12580229668E+02  0.46371300145E+01  0.14664740445E+02  0.19870072115E+02  0.51100000000E-03 0. -1.
        -11    1    3    3    0    0 -0.15304273250E+01 -0.38049561833E+00 -0.20833018929E+00  0.15907188443E+01  0.51100000000E-03 0.  1.
         12    1    3    3    0    0 -0.20436585265E+02  0.35583291838E+01  0.13373931101E+02  0.24681526634E+02  0.00000000000E+00 0. -1.
</event>
<event>
 7    1  0.1476909E-008  0.4614232E+02  0.7816164E-02  0.1320468E+00
        -11   -1    0    0    0    0  0.00000000000E+00  0.00000000000E+00  0.45593999997E+02  0.45594000000E+02  0.51100000000E-03 0.  1.
         11   -1    0    0    0    0 -0.00000000000E+00 -0.00000000000E+00 -0.45593999997E+02  0.45594000000E+02  0.51100000000E-03 0. -1.
    9900012    2    1    2    0    0  0.22105740178E+02 -0.17850303768E+02 -0.34954489898E+02  0.46142318104E+02  0.10000003131E+02 0.  0.
        -12    1    1    2    0    0 -0.22105740178E+02  0.17850303768E+02  0.34954489898E+02  0.45045681896E+02  0.00000000000E+00 0.  1.
         11    1    3    3    0    0  0.91937954334E+01 -0.98118603432E+01 -0.94902135813E+01  0.16457904847E+02  0.51100000000E-03 0. -1.
        -11    1    3    3    0    0  0.98916098406E+01 -0.67096152888E+01 -0.19693927264E+02  0.23037223225E+02  0.51100000000E-03 0.  1.
         12    1    3    3    0    0  0.30203349039E+01 -0.13288281359E+01 -0.57703490522E+01  0.66471900327E+01  0.00000000000E+00 0. -1.
</event>
<event>
 7    1  0.1476909E-008  0.4614232E+02  0.7816164E-02  0.1320468E+00
        -11   -1    0    0    0    0  0.00000000000E+00  0.00000000000E+00  0.45593999997E+02  0.45594000000E+02  0.51100000000E-03 0.  1.
         11   -1    0    0    0    0 -0.00000000000E+00 -0.00000000000E+00 -0.45593999997E+02  0.45594000000E+02  0.51100000000E-03 0. -1.
    9900012    2    1    2    0    0 -0.12195888586E+02 -0.39015678122E+02 -0.18924868777E+02  0.46142317677E+02  0.99999992357E+01 0.  0.
        -12    1    1    2    0    0  0.12195888586E+02  0.39015678122E+02  0.18924868777E+02  0.45045682323E+02  0.00000000000E+00 0.  1.
         11    1    3    3    0    0 -0.24706497295E+01 -0.12188478847E+02 -0.89494479786E+01  0.15321740960E+02  0.51100000000E-03 0. -1.
        -11    1    3    3    0    0 -0.18538591169E+01 -0.17317850329E+01 -0.22955723214E+01  0.34213338875E+01  0.51100000000E-03 0.  1.
        -12    1    3    3    0    0 -0.78713797391E+01 -0.25095414242E+02 -0.76798484769E+01  0.27399242829E+02  0.00000000000E+00 0.  1.
</event>
<event>
 7    1  0.1476909E-008  0.4614232E+02  0.7816164E-02  0.1320468E+00
        -11   -1    0    0    0    0  0.00000000000E+00  0.00000000000E+00  0.45593999997E+02  0.45594000000E+02  0.51100000000E-03 0.  1.
         11   -1    0    0    0    0 -0.00000000000E+00 -0.00000000000E+00 -0.45593999997E+02  0.45594000000E+02  0.51100000000E-03 0. -1.
    9900012    2    1    2    0    0  0.11310454812E+02 -0.38031192527E+02 -0.21326401968E+02  0.46142318587E+02  0.10000007527E+02 0.  0.
        -12    1    1    2    0    0 -0.11310454812E+02  0.38031192527E+02  0.21326401968E+02  0.45045681413E+02  0.00000000000E+00 0.  1.
         11    1    3    3    0    0  0.39445106485E+01 -0.61674261432E+01 -0.17127512759E+01  0.75186319688E+01  0.51100000000E-03 0. -1.
        -11    1    3    3    0    0  0.19611476846E+00 -0.14860881793E+01  0.39316068558E+00  0.15496756645E+01  0.51100000000E-03 0.  1.
         12    1    3    3    0    0  0.71698293952E+01 -0.30377678204E+02 -0.20006811378E+02  0.37074010953E+02  0.00000000000E+00 0. -1.
</event>
<event>
 7    1  0.1476909E-008  0.4614231E+02  0.7816164E-02  0.1320468E+00
        -11   -1    0    0    0    0  0.00000000000E+00  0.00000000000E+00  0.45593999997E+02  0.45594000000E+02  0.51100000000E-03 0.  1.
         11   -1    0    0    0    0 -0.00000000000E+00 -0.00000000000E+00 -0.45593999997E+02  0.45594000000E+02  0.51100000000E-03 0. -1.
    9900012    2    1    2    0    0  0.10990796973E+02  0.19482373547E+02 -0.39099277711E+02  0.46142311919E+02  0.99999467291E+01 0.  0.
        -12    1    1    2    0    0 -0.10990796973E+02 -0.19482373547E+02  0.39099277711E+02  0.45045688081E+02  0.00000000000E+00 0.  1.
         11    1    3    3    0    0  0.76195400443E+01  0.72075247775E+01 -0.20677939508E+02  0.23185835902E+02  0.51100000000E-03 0. -1.
        -11    1    3    3    0    0  0.42543607017E+00 -0.42557061687E+00 -0.13329756740E+01  0.14625083276E+01  0.51100000000E-03 0.  1.
        -12    1    3    3    0    0  0.29458208582E+01  0.12700419386E+02 -0.17088362529E+02  0.21493967689E+02  0.00000000000E+00 0.  1.
</event>
<event>
 7    1  0.1476909E-008  0.4614232E+02  0.7816164E-02  0.1320468E+00
        -11   -1    0    0    0    0  0.00000000000E+00  0.00000000000E+00  0.45593999997E+02  0.45594000000E+02  0.51100000000E-03 0.  1.
         11   -1    0    0    0    0 -0.00000000000E+00 -0.00000000000E+00 -0.45593999997E+02  0.45594000000E+02  0.51100000000E-03 0. -1.
    9900012    2    1    2    0    0 -0.21262040193E+02 -0.34151927134E+02 -0.20265365305E+02  0.46142317509E+02  0.99999977027E+01 0.  0.
        -12    1    1    2    0    0  0.21262040193E+02  0.34151927134E+02  0.20265365305E+02  0.45045682491E+02  0.00000000000E+00 0.  1.
         11    1    3    3    0    0 -0.10370674505E+02 -0.17891655681E+02 -0.95825237009E+01  0.22792257313E+02  0.51100000000E-03 0. -1.
        -11    1    3    3    0    0 -0.37967559426E+00 -0.52659331831E+00 -0.27616096031E+01  0.28368894834E+01  0.51100000000E-03 0.  1.
        -12    1    3    3    0    0 -0.10511690094E+02 -0.15733678135E+02 -0.79212320007E+01  0.20513170713E+02  0.00000000000E+00 0.  1.
</event>
<event>
 7    1  0.1476909E-008  0.4614232E+02  0.7816164E-02  0.1320468E+00
        -11   -1    0    0    0    0  0.00000000000E+00  0.00000000000E+00  0.45593999997E+02  0.45594000000E+02  0.51100000000E-03 0.  1.
         11   -1    0    0    0    0 -0.00000000000E+00 -0.00000000000E+00 -0.45593999997E+02  0.45594000000E+02  0.51100000000E-03 0. -1.
    9900012    2    1    2    0    0 -0.43561573953E+01  0.32814915870E+00 -0.44833355119E+02  0.46142317406E+02  0.99999967593E+01 0.  0.
        -12    1    1    2    0    0  0.43561573953E+01 -0.32814915870E+00  0.44833355119E+02  0.45045682594E+02  0.00000000000E+00 0.  1.
         11    1    3    3    0    0 -0.53859367079E+01 -0.10190835049E+01 -0.29021082508E+02  0.29534218724E+02  0.51100000000E-03 0. -1.
        -11    1    3    3    0    0  0.89198986383E+00 -0.26842149334E+00 -0.25394032760E+00  0.96549571018E+00  0.51100000000E-03 0.  1.
         12    1    3    3    0    0  0.13778944881E+00  0.16156541570E+01 -0.15558332284E+02  0.15642602972E+02  0.00000000000E+00 0. -1.
</event>
<event>
 7    1  0.1476909E-008  0.4614232E+02  0.7816164E-02  0.1320468E+00
        -11   -1    0    0    0    0  0.00000000000E+00  0.00000000000E+00  0.45593999997E+02  0.45594000000E+02  0.51100000000E-03 0.  1.
         11   -1    0    0    0    0 -0.00000000000E+00 -0.00000000000E+00 -0.45593999997E+02  0.45594000000E+02  0.51100000000E-03 0. -1.
    9900012    2    1    2    0    0 -0.34127317374E+02 -0.20272233212E+02 -0.21294981999E+02  0.46142317755E+02  0.99999999461E+01 0.  0.
        -12    1    1    2    0    0  0.34127317374E+02  0.20272233212E+02  0.21294981999E+02  0.45045682245E+02  0.00000000000E+00 0.  1.
         11    1    3    3    0    0 -0.51253266089E+01 -0.17860583004E+01 -0.57263994399E+01  0.78899067109E+01  0.51100000000E-03 0. -1.
        -11    1    3    3    0    0 -0.23313267760E+02 -0.13699861607E+02 -0.95173894643E+01  0.28666624569E+02  0.51100000000E-03 0.  1.
         12    1    3    3    0    0 -0.56887230055E+01 -0.47863133044E+01 -0.60511930950E+01  0.95857864755E+01  0.00000000000E+00 0. -1.
</event>
<event>
 7    1  0.1476909E-008  0.4614232E+02  0.7816164E-02  0.1320468E+00
        -11   -1    0    0    0    0  0.00000000000E+00  0.00000000000E+00  0.45593999997E+02  0.45594000000E+02  0.51100000000E-03 0.  1.
         11   -1    0    0    0    0 -0.00000000000E+00 -0.00000000000E+00 -0.45593999997E+02  0.45594000000E+02  0.51100000000E-03 0. -1.
    9900012    2    1    2    0    0 -0.13782753335E+02  0.28098315254E+02 -0.32398053005E+02  0.46142318208E+02  0.10000004073E+02 0.  0.
        -12    1    1    2    0    0  0.13782753335E+02 -0.28098315254E+02  0.32398053005E+02  0.45045681792E+02  0.00000000000E+00 0.  1.
         11    1    3    3    0    0 -0.36474841423E+01  0.96097521871E+01 -0.89026446162E+01  0.13598108658E+02  0.51100000000E-03 0. -1.
        -11    1    3    3    0    0 -0.40068882347E+01  0.12190602809E+01 -0.40870972000E+01  0.58519761685E+01  0.51100000000E-03 0.  1.
        -12    1    3    3    0    0 -0.61283809579E+01  0.17269502786E+02 -0.19408311189E+02  0.26692233381E+02  0.00000000000E+00 0.  1.
</event>
<event>
 7    1  0.1476909E-008  0.4614232E+02  0.7816164E-02  0.1320468E+00
        -11   -1    0    0    0    0  0.00000000000E+00  0.00000000000E+00  0.45593999997E+02  0.45594000000E+02  0.51100000000E-03 0. -1.
         11   -1    0    0    0    0 -0.00000000000E+00 -0.00000000000E+00 -0.45593999997E+02  0.45594000000E+02  0.51100000000E-03 0.  1.
    9900012    2    1    2    0    0 -0.36472229359E+02  0.13008840676E+01  0.26404503002E+02  0.46142316604E+02  0.99999894527E+01 0.  0.
        -12    1    1    2    0    0  0.36472229359E+02 -0.13008840676E+01 -0.26404503002E+02  0.45045683396E+02  0.00000000000E+00 0.  1.
         11    1    3    3    0    0 -0.10475010539E+02 -0.64602385950E+00  0.88490113589E+01  0.13727643458E+02  0.51100000000E-03 0. -1.
        -11    1    3    3    0    0 -0.46824503575E+01  0.34932446709E+01  0.30937041049E+01  0.66105298601E+01  0.51100000000E-03 0.  1.
        -12    1    3    3    0    0 -0.21314768462E+02 -0.15463367438E+01  0.14461787538E+02  0.25804143286E+02  0.00000000000E+00 0.  1.
</event>
<event>
 7    1  0.1476909E-008  0.4614232E+02  0.7816164E-02  0.1320468E+00
        -11   -1    0    0    0    0  0.00000000000E+00  0.00000000000E+00  0.45593999997E+02  0.45594000000E+02  0.51100000000E-03 0.  1.
         11   -1    0    0    0    0 -0.00000000000E+00 -0.00000000000E+00 -0.45593999997E+02  0.45594000000E+02  0.51100000000E-03 0. -1.
    9900012    2    1    2    0    0  0.12170741446E+02  0.18757205903E+02 -0.39104395995E+02  0.46142317557E+02  0.99999981407E+01 0.  0.
        -12    1    1    2    0    0 -0.12170741446E+02 -0.18757205903E+02  0.39104395995E+02  0.45045682443E+02  0.00000000000E+00 0.  1.
         11    1    3    3    0    0  0.97886276811E+01  0.11655153288E+02 -0.23077844276E+02  0.27645012692E+02  0.51100000000E-03 0. -1.
        -11    1    3    3    0    0  0.22826424691E+01  0.58327559231E+01 -0.70482311650E+01  0.94291601490E+01  0.51100000000E-03 0.  1.
         12    1    3    3    0    0  0.99471296058E-01  0.12692966913E+01 -0.89783205533E+01  0.90681447158E+01  0.00000000000E+00 0. -1.
</event>
<event>
 7    1  0.1476909E-008  0.4614232E+02  0.7816164E-02  0.1320468E+00
        -11   -1    0    0    0    0  0.00000000000E+00  0.00000000000E+00  0.45593999997E+02  0.45594000000E+02  0.51100000000E-03 0.  1.
         11   -1    0    0    0    0 -0.00000000000E+00 -0.00000000000E+00 -0.45593999997E+02  0.45594000000E+02  0.51100000000E-03 0. -1.
    9900012    2    1    2    0    0 -0.10729613421E+02 -0.37181810982E+02 -0.23054322641E+02  0.46142318026E+02  0.10000002413E+02 0.  0.
        -12    1    1    2    0    0  0.10729613421E+02  0.37181810982E+02  0.23054322641E+02  0.45045681974E+02  0.00000000000E+00 0.  1.
         11    1    3    3    0    0 -0.14211096817E+01  0.92685968599E-01 -0.24343939432E+00  0.14447859413E+01  0.51100000000E-03 0.  1.
        -11    1    3    3    0    0 -0.67092879417E+01 -0.28759117729E+02 -0.17250345198E+02  0.34200523489E+02  0.51100000000E-03 0. -1.
        -12    1    3    3    0    0 -0.25992157975E+01 -0.85153792224E+01 -0.55605380491E+01  0.10497008596E+02  0.00000000000E+00 0.  1.
</event>
<event>
 7    1  0.1476909E-008  0.4614233E+02  0.7816164E-02  0.1320468E+00
        -11   -1    0    0    0    0  0.00000000000E+00  0.00000000000E+00  0.45593999997E+02  0.45594000000E+02  0.51100000000E-03 0.  1.
         11   -1    0    0    0    0 -0.00000000000E+00 -0.00000000000E+00 -0.45593999997E+02  0.45594000000E+02  0.51100000000E-03 0. -1.
    9900012    2    1    2    0    0 -0.39477799094E+02 -0.15952038088E+02 -0.14701991435E+02  0.46142326594E+02  0.10000080543E+02 0.  0.
        -12    1    1    2    0    0  0.39477799094E+02  0.15952038088E+02  0.14701991435E+02  0.45045673406E+02  0.00000000000E+00 0.  1.
         11    1    3    3    0    0 -0.22644630250E+02 -0.84162188039E+01 -0.92898482761E+01  0.25882683388E+02  0.51100000000E-03 0. -1.
        -11    1    3    3    0    0 -0.56343349914E+01 -0.51877126532E+01 -0.42484218962E+01  0.87582636542E+01  0.51100000000E-03 0.  1.
         12    1    3    3    0    0 -0.11198833853E+02 -0.23481066306E+01 -0.11637212626E+01  0.11501379552E+02  0.00000000000E+00 0. -1.
</event>
<event>
 7    1  0.1476909E-008  0.4614232E+02  0.7816164E-02  0.1320468E+00
        -11   -1    0    0    0    0  0.00000000000E+00  0.00000000000E+00  0.45593999997E+02  0.45594000000E+02  0.51100000000E-03 0. -1.
         11   -1    0    0    0    0 -0.00000000000E+00 -0.00000000000E+00 -0.45593999997E+02  0.45594000000E+02  0.51100000000E-03 0.  1.
    9900012    2    1    2    0    0 -0.16244077926E+02  0.37118103127E+02  0.19684761138E+02  0.46142317982E+02  0.10000002013E+02 0.  0.
        -12    1    1    2    0    0  0.16244077926E+02 -0.37118103127E+02 -0.19684761138E+02  0.45045682018E+02  0.00000000000E+00 0.  1.
         11    1    3    3    0    0 -0.63612507003E+01  0.14449630926E+02  0.11580257743E+02  0.19579573898E+02  0.51100000000E-03 0. -1.
        -11    1    3    3    0    0 -0.43361546979E+00  0.65565625269E+01  0.14063614461E+01  0.67197014311E+01  0.51100000000E-03 0.  1.
         12    1    3    3    0    0 -0.94492117559E+01  0.16111909674E+02  0.66981419493E+01  0.19843042653E+02  0.00000000000E+00 0. -1.
</event>
<event>
 7    1  0.1476909E-008  0.4614232E+02  0.7816164E-02  0.1320468E+00
        -11   -1    0    0    0    0  0.00000000000E+00  0.00000000000E+00  0.45593999997E+02  0.45594000000E+02  0.51100000000E-03 0.  1.
         11   -1    0    0    0    0 -0.00000000000E+00 -0.00000000000E+00 -0.45593999997E+02  0.45594000000E+02  0.51100000000E-03 0. -1.
    9900012    2    1    2    0    0  0.10513780839E+02  0.40513236435E+02 -0.16650874918E+02  0.46142317083E+02  0.99999938142E+01 0.  0.
        -12    1    1    2    0    0 -0.10513780839E+02 -0.40513236435E+02  0.16650874918E+02  0.45045682917E+02  0.00000000000E+00 0.  1.
         11    1    3    3    0    0  0.21567598734E+01  0.51541123895E+01 -0.17535617381E+01  0.58558916235E+01  0.51100000000E-03 0. -1.
        -11    1    3    3    0    0  0.10092896957E+02  0.31878961571E+02 -0.14230392530E+02  0.36340594817E+02  0.51100000000E-03 0.  1.
        -12    1    3    3    0    0 -0.17358759914E+01  0.34801624743E+01 -0.66692064960E+00  0.39458306424E+01  0.00000000000E+00 0.  1.
</event>
<event>
 7    1  0.1476909E-008  0.4614232E+02  0.7816164E-02  0.1320468E+00
        -11   -1    0    0    0    0  0.00000000000E+00  0.00000000000E+00  0.45593999997E+02  0.45594000000E+02  0.51100000000E-03 0.  1.
         11   -1    0    0    0    0 -0.00000000000E+00 -0.00000000000E+00 -0.45593999997E+02  0.45594000000E+02  0.51100000000E-03 0. -1.
    9900012    2    1    2    0    0 -0.35412943764E+02 -0.27742751836E+02 -0.23187836532E+01  0.46142316265E+02  0.99999863607E+01 0.  0.
        -12    1    1    2    0    0  0.35412943764E+02  0.27742751836E+02  0.23187836532E+01  0.45045683735E+02  0.00000000000E+00 0.  1.
         11    1    3    3    0    0 -0.25042025203E+02 -0.21245404144E+02  0.11839074817E+01  0.32861403815E+02  0.51100000000E-03 0. -1.
        -11    1    3    3    0    0 -0.70587078036E+01 -0.36221807635E+01 -0.39670794856E+01  0.88703590258E+01  0.51100000000E-03 0.  1.
         12    1    3    3    0    0 -0.33122107573E+01 -0.28751669284E+01  0.46438835065E+00  0.44105534242E+01  0.00000000000E+00 0. -1.
</event>
<event>
 7    1  0.1476909E-008  0.4614232E+02  0.7816164E-02  0.1320468E+00
        -11   -1    0    0    0    0  0.00000000000E+00  0.00000000000E+00  0.45593999997E+02  0.45594000000E+02  0.51100000000E-03 0.  1.
         11   -1    0    0    0    0 -0.00000000000E+00 -0.00000000000E+00 -0.45593999997E+02  0.45594000000E+02  0.51100000000E-03 0. -1.
    9900012    2    1    2    0    0  0.20237632818E+01  0.22443636600E+01 -0.44944195996E+02  0.46142317190E+02  0.99999947955E+01 0.  0.
        -12    1    1    2    0    0 -0.20237632818E+01 -0.22443636600E+01  0.44944195996E+02  0.45045682810E+02  0.00000000000E+00 0.  1.
         11    1    3    3    0    0 -0.21505185912E+01  0.30970687975E+01 -0.20159957482E+02  0.20509520991E+02  0.51100000000E-03 0. -1.
        -11    1    3    3    0    0  0.23301194849E+00 -0.11361773119E+01 -0.10269498590E+01  0.15491351543E+01  0.51100000000E-03 0.  1.
         12    1    3    3    0    0  0.39412699245E+01  0.28347217443E+00 -0.23757288655E+02  0.24083661045E+02  0.00000000000E+00 0. -1.
</event>
<event>
 7    1  0.1476909E-008  0.4614232E+02  0.7816164E-02  0.1320468E+00
        -11   -1    0    0    0    0  0.00000000000E+00  0.00000000000E+00  0.45593999997E+02  0.45594000000E+02  0.51100000000E-03 0.  1.
         11   -1    0    0    0    0 -0.00000000000E+00 -0.00000000000E+00 -0.45593999997E+02  0.45594000000E+02  0.51100000000E-03 0. -1.
    9900012    2    1    2    0    0 -0.68740167724E+01 -0.31562272963E+02 -0.31395610256E+02  0.46142317360E+02  0.99999963417E+01 0.  0.
        -12    1    1    2    0    0  0.68740167724E+01  0.31562272963E+02  0.31395610256E+02  0.45045682640E+02  0.00000000000E+00 0.  1.
         11    1    3    3    0    0 -0.94916612031E+00 -0.16918908268E+02 -0.14611596465E+02  0.22375189940E+02  0.51100000000E-03 0. -1.
        -11    1    3    3    0    0 -0.24124423043E+01 -0.44352827819E+01 -0.19314706702E+01  0.54057553069E+01  0.51100000000E-03 0.  1.
         12    1    3    3    0    0 -0.35124083478E+01 -0.10208081912E+02 -0.14852543120E+02  0.18361372113E+02  0.00000000000E+00 0. -1.
</event>
<event>
 7    1  0.1476909E-008  0.4614232E+02  0.7816164E-02  0.1320468E+00
        -11   -1    0    0    0    0  0.00000000000E+00  0.00000000000E+00  0.45593999997E+02  0.45594000000E+02  0.51100000000E-03 0. -1.
         11   -1    0    0    0    0 -0.00000000000E+00 -0.00000000000E+00 -0.45593999997E+02  0.45594000000E+02  0.51100000000E-03 0.  1.
    9900012    2    1    2    0    0 -0.87370738751E+01 -0.30552228235E+02  0.31927081112E+02  0.46142316318E+02  0.99999868446E+01 0.  0.
        -12    1    1    2    0    0  0.87370738751E+01  0.30552228235E+02 -0.31927081112E+02  0.45045683682E+02  0.00000000000E+00 0.  1.
         11    1    3    3    0    0 -0.21761579425E+01 -0.11742261603E+02  0.86536917169E+01  0.14747974489E+02  0.51100000000E-03 0. -1.
        -11    1    3    3    0    0  0.64651870130E+00 -0.48276041869E+01  0.29504979409E+01  0.56946630258E+01  0.51100000000E-03 0.  1.
        -12    1    3    3    0    0 -0.72074346339E+01 -0.13982362445E+02  0.20322891454E+02  0.25699678804E+02  0.00000000000E+00 0.  1.
</event>
<event>
 7    1  0.1476909E-008  0.4614232E+02  0.7816164E-02  0.1320468E+00
        -11   -1    0    0    0    0  0.00000000000E+00  0.00000000000E+00  0.45593999997E+02  0.45594000000E+02  0.51100000000E-03 0.  1.
         11   -1    0    0    0    0 -0.00000000000E+00 -0.00000000000E+00 -0.45593999997E+02  0.45594000000E+02  0.51100000000E-03 0. -1.
    9900012    2    1    2    0    0  0.33501780256E+02  0.23274469361E+02 -0.19106106292E+02  0.46142317610E+02  0.99999986236E+01 0.  0.
        -12    1    1    2    0    0 -0.33501780256E+02 -0.23274469361E+02  0.19106106292E+02  0.45045682390E+02  0.00000000000E+00 0.  1.
         11    1    3    3    0    0  0.16513041967E+02  0.81537556021E+01 -0.10044706336E+02  0.20977616907E+02  0.51100000000E-03 0. -1.
        -11    1    3    3    0    0  0.62992097947E-01  0.53821476388E+00  0.61352073501E+00  0.81856648470E+00  0.51100000000E-03 0.  1.
         12    1    3    3    0    0  0.16925746191E+02  0.14582498995E+02 -0.96749206903E+01  0.24346134219E+02  0.00000000000E+00 0. -1.
</event>
<event>
 7    1  0.1476909E-008  0.4614232E+02  0.7816164E-02  0.1320468E+00
        -11   -1    0    0    0    0  0.00000000000E+00  0.00000000000E+00  0.45593999997E+02  0.45594000000E+02  0.51100000000E-03 0. -1.
         11   -1    0    0    0    0 -0.00000000000E+00 -0.00000000000E+00 -0.45593999997E+02  0.45594000000E+02  0.51100000000E-03 0.  1.
    9900012    2    1    2    0    0 -0.72343775245E+01  0.38314267383E+02  0.22556469775E+02  0.46142316167E+02  0.99999854634E+01 0.  0.
        -12    1    1    2    0    0  0.72343775245E+01 -0.38314267383E+02 -0.22556469775E+02  0.45045683833E+02  0.00000000000E+00 0.  1.
         11    1    3    3    0    0 -0.67662977971E+01  0.28610201055E+02  0.19761759246E+02  0.35423911684E+02  0.51100000000E-03 0. -1.
        -11    1    3    3    0    0  0.12003111069E+01  0.42438537684E+01  0.11608366627E+00  0.44118609724E+01  0.51100000000E-03 0.  1.
        -12    1    3    3    0    0 -0.16683908343E+01  0.54602125596E+01  0.26786268634E+01  0.63065435102E+01  0.00000000000E+00 0.  1.
</event>
<event>
 7    1  0.1476909E-008  0.4614232E+02  0.7816164E-02  0.1320468E+00
        -11   -1    0    0    0    0  0.00000000000E+00  0.00000000000E+00  0.45593999997E+02  0.45594000000E+02  0.51100000000E-03 0. -1.
         11   -1    0    0    0    0 -0.00000000000E+00 -0.00000000000E+00 -0.45593999997E+02  0.45594000000E+02  0.51100000000E-03 0.  1.
    9900012    2    1    2    0    0 -0.75592168426E+01 -0.38564690600E+02  0.22016728542E+02  0.46142318120E+02  0.10000003273E+02 0.  0.
        -12    1    1    2    0    0  0.75592168426E+01  0.38564690600E+02 -0.22016728542E+02  0.45045681880E+02  0.00000000000E+00 0.  1.
         11    1    3    3    0    0 -0.52030566520E+01 -0.12132227651E+02  0.78874313920E+01  0.15377721565E+02  0.51100000000E-03 0. -1.
        -11    1    3    3    0    0 -0.65432198886E+00 -0.22554131497E+02  0.13945441261E+02  0.26525314646E+02  0.51100000000E-03 0.  1.
        -12    1    3    3    0    0 -0.17018382017E+01 -0.38783314518E+01  0.18385588871E+00  0.42392819088E+01  0.00000000000E+00 0.  1.
</event>
<event>
 7    1  0.1476909E-008  0.4614232E+02  0.7816164E-02  0.1320468E+00
        -11   -1    0    0    0    0  0.00000000000E+00  0.00000000000E+00  0.45593999997E+02  0.45594000000E+02  0.51100000000E-03 0. -1.
         11   -1    0    0    0    0 -0.00000000000E+00 -0.00000000000E+00 -0.45593999997E+02  0.45594000000E+02  0.51100000000E-03 0.  1.
    9900012    2    1    2    0    0  0.43486451938E+02 -0.99544630120E+01 -0.62410375369E+01  0.46142318902E+02  0.10000010403E+02 0.  0.
        -12    1    1    2    0    0 -0.43486451938E+02  0.99544630120E+01  0.62410375369E+01  0.45045681098E+02  0.00000000000E+00 0.  1.
         11    1    3    3    0    0  0.24432967991E+02 -0.88496793040E+01 -0.20139600676E+01  0.26064205034E+02  0.51100000000E-03 0. -1.
        -11    1    3    3    0    0  0.30491158645E+01  0.77104963554E+00  0.71114268984E+00  0.32244920968E+01  0.51100000000E-03 0.  1.
         12    1    3    3    0    0  0.16004368083E+02 -0.18758333436E+01 -0.49382201592E+01  0.16853621771E+02  0.00000000000E+00 0. -1.
</event>
<event>
 7    1  0.1476909E-008  0.4614232E+02  0.7816164E-02  0.1320468E+00
        -11   -1    0    0    0    0  0.00000000000E+00  0.00000000000E+00  0.45593999997E+02  0.45594000000E+02  0.51100000000E-03 0.  1.
         11   -1    0    0    0    0 -0.00000000000E+00 -0.00000000000E+00 -0.45593999997E+02  0.45594000000E+02  0.51100000000E-03 0. -1.
    9900012    2    1    2    0    0 -0.21247144377E+02  0.65449196828E+01 -0.39176988698E+02  0.46142316952E+02  0.99999926252E+01 0.  0.
        -12    1    1    2    0    0  0.21247144377E+02 -0.65449196828E+01  0.39176988698E+02  0.45045683048E+02  0.00000000000E+00 0.  1.
         11    1    3    3    0    0 -0.11072222647E+02  0.11414708643E+01 -0.20987773736E+02  0.23756761495E+02  0.51100000000E-03 0. -1.
        -11    1    3    3    0    0 -0.81363276577E+00 -0.11904642710E+01 -0.10946043071E+01  0.18103486704E+01  0.51100000000E-03 0.  1.
         12    1    3    3    0    0 -0.93612889636E+01  0.65939130895E+01 -0.17094610654E+02  0.20575206787E+02  0.00000000000E+00 0. -1.
</event>
<event>
 7    1  0.1476909E-008  0.4614232E+02  0.7816164E-02  0.1320468E+00
        -11   -1    0    0    0    0  0.00000000000E+00  0.00000000000E+00  0.45593999997E+02  0.45594000000E+02  0.51100000000E-03 0.  1.
         11   -1    0    0    0    0 -0.00000000000E+00 -0.00000000000E+00 -0.45593999997E+02  0.45594000000E+02  0.51100000000E-03 0. -1.
    9900012    2    1    2    0    0 -0.11929565976E+01  0.16433636883E+02 -0.41924049282E+02  0.46142317911E+02  0.10000001368E+02 0.  0.
        -12    1    1    2    0    0  0.11929565976E+01 -0.16433636883E+02  0.41924049282E+02  0.45045682089E+02  0.00000000000E+00 0.  1.
         11    1    3    3    0    0 -0.12901643355E+01  0.91001599810E+01 -0.12755728670E+02  0.15722151566E+02  0.51100000000E-03 0. -1.
        -11    1    3    3    0    0 -0.17978032168E+01  0.22809290180E+01 -0.65153635124E+01  0.71333509343E+01  0.51100000000E-03 0.  1.
         12    1    3    3    0    0  0.18950109547E+01  0.50525478843E+01 -0.22652957099E+02  0.23286815411E+02  0.00000000000E+00 0. -1.
</event>
<event>
 7    1  0.1476909E-008  0.4614232E+02  0.7816164E-02  0.1320468E+00
        -11   -1    0    0    0    0  0.00000000000E+00  0.00000000000E+00  0.45593999997E+02  0.45594000000E+02  0.51100000000E-03 0. -1.
         11   -1    0    0    0    0 -0.00000000000E+00 -0.00000000000E+00 -0.45593999997E+02  0.45594000000E+02  0.51100000000E-03 0.  1.
    9900012    2    1    2    0    0 -0.44794985806E+02 -0.45442719781E+01  0.13681987862E+01  0.46142321749E+02  0.10000036367E+02 0.  0.
        -12    1    1    2    0    0  0.44794985806E+02  0.45442719781E+01 -0.13681987862E+01  0.45045678251E+02  0.00000000000E+00 0.  1.
         11    1    3    3    0    0 -0.35878024179E+02 -0.65321575897E+01 -0.39823287927E+00  0.36469991657E+02  0.51100000000E-03 0.  1.
        -11    1    3    3    0    0 -0.68323771866E+01  0.45939296795E+00  0.18247515412E+01  0.70867579588E+01  0.51100000000E-03 0. -1.
        -12    1    3    3    0    0 -0.20845844404E+01  0.15284926436E+01 -0.58319875811E-01  0.25855721337E+01  0.00000000000E+00 0.  1.
</event>
<event>
 7    1  0.1476909E-008  0.4614232E+02  0.7816164E-02  0.1320468E+00
        -11   -1    0    0    0    0  0.00000000000E+00  0.00000000000E+00  0.45593999997E+02  0.45594000000E+02  0.51100000000E-03 0. -1.
         11   -1    0    0    0    0 -0.00000000000E+00 -0.00000000000E+00 -0.45593999997E+02  0.45594000000E+02  0.51100000000E-03 0.  1.
    9900012    2    1    2    0    0  0.30138654949E+02 -0.30895409376E+02  0.12893742554E+02  0.46142318301E+02  0.10000004925E+02 0.  0.
        -12    1    1    2    0    0 -0.30138654949E+02  0.30895409376E+02 -0.12893742554E+02  0.45045681699E+02  0.00000000000E+00 0.  1.
         11    1    3    3    0    0  0.22335004567E+02 -0.17757575208E+02  0.11059204790E+02  0.30602122755E+02  0.51100000000E-03 0. -1.
        -11    1    3    3    0    0  0.30921869012E+01 -0.34790221581E+01  0.10879855600E+00  0.46558621539E+01  0.51100000000E-03 0.  1.
         12    1    3    3    0    0  0.47114634808E+01 -0.96588120106E+01  0.17257392089E+01  0.10884333393E+02  0.00000000000E+00 0. -1.
</event>
<event>
 7    1  0.1476909E-008  0.4614232E+02  0.7816164E-02  0.1320468E+00
        -11   -1    0    0    0    0  0.00000000000E+00  0.00000000000E+00  0.45593999997E+02  0.45594000000E+02  0.51100000000E-03 0.  1.
         11   -1    0    0    0    0 -0.00000000000E+00 -0.00000000000E+00 -0.45593999997E+02  0.45594000000E+02  0.51100000000E-03 0. -1.
    9900012    2    1    2    0    0 -0.38058002110E+02 -0.23549774460E+02  0.51098035519E+01  0.46142317698E+02  0.99999994227E+01 0.  0.
        -12    1    1    2    0    0  0.38058002110E+02  0.23549774460E+02 -0.51098035519E+01  0.45045682302E+02  0.00000000000E+00 0.  1.
         11    1    3    3    0    0 -0.20204257119E+02 -0.11742929885E+02  0.41284416539E+00  0.23372608938E+02  0.51100000000E-03 0. -1.
        -11    1    3    3    0    0 -0.15947916532E+02 -0.12339626338E+02  0.35260766362E+01  0.20470359953E+02  0.51100000000E-03 0.  1.
         12    1    3    3    0    0 -0.19058284593E+01  0.53278176292E+00  0.11708827503E+01  0.22993488074E+01  0.00000000000E+00 0. -1.
</event>
<event>
 7    1  0.1476909E-008  0.4614232E+02  0.7816164E-02  0.1320468E+00
        -11   -1    0    0    0    0  0.00000000000E+00  0.00000000000E+00  0.45593999997E+02  0.45594000000E+02  0.51100000000E-03 0.  1.
         11   -1    0    0    0    0 -0.00000000000E+00 -0.00000000000E+00 -0.45593999997E+02  0.45594000000E+02  0.51100000000E-03 0. -1.
    9900012    2    1    2    0    0  0.30780740841E+02 -0.30350155238E+02 -0.12669948832E+02  0.46142317265E+02  0.99999954751E+01 0.  0.
        -12    1    1    2    0    0 -0.30780740841E+02  0.30350155238E+02  0.12669948832E+02  0.45045682735E+02  0.00000000000E+00 0.  1.
         11    1    3    3    0    0  0.42417717492E+01 -0.37113525742E+01 -0.50383291162E+01  0.75598628325E+01  0.51100000000E-03 0. -1.
        -11    1    3    3    0    0  0.13735616914E+02 -0.16024504659E+02 -0.29944381557E+01  0.21317095996E+02  0.51100000000E-03 0.  1.
        -12    1    3    3    0    0  0.12803352177E+02 -0.10614298005E+02 -0.46371815597E+01  0.17265358436E+02  0.00000000000E+00 0.  1.
</event>
<event>
 7    1  0.1476909E-008  0.4614232E+02  0.7816164E-02  0.1320468E+00
        -11   -1    0    0    0    0  0.00000000000E+00  0.00000000000E+00  0.45593999997E+02  0.45594000000E+02  0.51100000000E-03 0.  1.
         11   -1    0    0    0    0 -0.00000000000E+00 -0.00000000000E+00 -0.45593999997E+02  0.45594000000E+02  0.51100000000E-03 0. -1.
    9900012    2    1    2    0    0  0.98521233407E+01  0.42278221979E+02 -0.12025020836E+02  0.46142317475E+02  0.99999973907E+01 0.  0.
        -12    1    1    2    0    0 -0.98521233407E+01 -0.42278221979E+02  0.12025020836E+02  0.45045682525E+02  0.00000000000E+00 0.  1.
         11    1    3    3    0    0  0.41897596350E+00  0.66740221649E+01 -0.30424040931E+01  0.73467227824E+01  0.51100000000E-03 0. -1.
        -11    1    3    3    0    0  0.62881922671E+01  0.20334199891E+02 -0.10677277609E+01  0.21311055582E+02  0.51100000000E-03 0.  1.
        -12    1    3    3    0    0  0.31449551101E+01  0.15269999923E+02 -0.79148889822E+01  0.17484539110E+02  0.00000000000E+00 0.  1.
</event>
<event>
 7    1  0.1476909E-008  0.4614232E+02  0.7816164E-02  0.1320468E+00
        -11   -1    0    0    0    0  0.00000000000E+00  0.00000000000E+00  0.45593999997E+02  0.45594000000E+02  0.51100000000E-03 0. -1.
         11   -1    0    0    0    0 -0.00000000000E+00 -0.00000000000E+00 -0.45593999997E+02  0.45594000000E+02  0.51100000000E-03 0.  1.
    9900012    2    1    2    0    0  0.40642564428E+02 -0.19312216669E+02  0.20817637640E+01  0.46142317673E+02  0.99999991935E+01 0.  0.
        -12    1    1    2    0    0 -0.40642564428E+02  0.19312216669E+02 -0.20817637640E+01  0.45045682327E+02  0.00000000000E+00 0.  1.
         11    1    3    3    0    0  0.15811353535E+02 -0.34604223228E+01  0.18816609393E+01  0.16294602524E+02  0.51100000000E-03 0. -1.
        -11    1    3    3    0    0  0.11730329545E+01 -0.30218811486E+00  0.93059329803E+00  0.15275235241E+01  0.51100000000E-03 0.  1.
         12    1    3    3    0    0  0.23658177939E+02 -0.15549606232E+02 -0.73049047338E+00  0.28320191625E+02  0.00000000000E+00 0. -1.
</event>
<event>
 7    1  0.1476909E-008  0.4614232E+02  0.7816164E-02  0.1320468E+00
        -11   -1    0    0    0    0  0.00000000000E+00  0.00000000000E+00  0.45593999997E+02  0.45594000000E+02  0.51100000000E-03 0. -1.
         11   -1    0    0    0    0 -0.00000000000E+00 -0.00000000000E+00 -0.45593999997E+02  0.45594000000E+02  0.51100000000E-03 0.  1.
    9900012    2    1    2    0    0  0.14448472299E+02  0.64018467136E+01  0.42182598153E+02  0.46142316743E+02  0.99999907151E+01 0.  0.
        -12    1    1    2    0    0 -0.14448472299E+02 -0.64018467136E+01 -0.42182598153E+02  0.45045683257E+02  0.00000000000E+00 0.  1.
         11    1    3    3    0    0 -0.35949784721E+00  0.64013426365E+00  0.28130559335E+00  0.78622113659E+00  0.51100000000E-03 0. -1.
        -11    1    3    3    0    0  0.95528876801E+01  0.83994781714E+00  0.18017108743E+02  0.20410276409E+02  0.51100000000E-03 0.  1.
         12    1    3    3    0    0  0.52550824663E+01  0.49217646328E+01  0.23884183817E+02  0.24945819197E+02  0.00000000000E+00 0. -1.
</event>
<event>
 7    1  0.1476909E-008  0.4614232E+02  0.7816164E-02  0.1320468E+00
        -11   -1    0    0    0    0  0.00000000000E+00  0.00000000000E+00  0.45593999997E+02  0.45594000000E+02  0.51100000000E-03 0.  1.
         11   -1    0    0    0    0 -0.00000000000E+00 -0.00000000000E+00 -0.45593999997E+02  0.45594000000E+02  0.51100000000E-03 0. -1.
    9900012    2    1    2    0    0 -0.15649333708E+02  0.42098352701E+02 -0.34555078894E+01  0.46142317850E+02  0.10000000806E+02 0.  0.
        -12    1    1    2    0    0  0.15649333708E+02 -0.42098352701E+02  0.34555078894E+01  0.45045682150E+02  0.00000000000E+00 0.  1.
         11    1    3    3    0    0 -0.10119691821E+02  0.37294549762E+02 -0.33688690628E+01  0.38789700740E+02  0.51100000000E-03 0. -1.
        -11    1    3    3    0    0 -0.37526191625E+01  0.36262690238E+01 -0.13777135401E+00  0.52202450918E+01  0.51100000000E-03 0.  1.
         12    1    3    3    0    0 -0.17770227249E+01  0.11775339151E+01  0.51132527384E-01  0.21323720175E+01  0.00000000000E+00 0. -1.
</event>
<event>
 7    1  0.1476909E-008  0.4614231E+02  0.7816164E-02  0.1320468E+00
        -11   -1    0    0    0    0  0.00000000000E+00  0.00000000000E+00  0.45593999997E+02  0.45594000000E+02  0.51100000000E-03 0. -1.
         11   -1    0    0    0    0 -0.00000000000E+00 -0.00000000000E+00 -0.45593999997E+02  0.45594000000E+02  0.51100000000E-03 0.  1.
    9900012    2    1    2    0    0  0.15920740655E+02 -0.32498541528E+02  0.26823283808E+02  0.46142314982E+02  0.99999746602E+01 0.  0.
        -12    1    1    2    0    0 -0.15920740655E+02  0.32498541528E+02 -0.26823283808E+02  0.45045685018E+02  0.00000000000E+00 0.  1.
         11    1    3    3    0    0  0.22607024439E+01 -0.11215112795E+02  0.11870940137E+02  0.16486623382E+02  0.51100000000E-03 0. -1.
        -11    1    3    3    0    0  0.90991264264E+01 -0.13187209868E+02  0.11586907900E+02  0.19772532482E+02  0.51100000000E-03 0.  1.
         12    1    3    3    0    0  0.45609117844E+01 -0.80962188654E+01  0.33654357719E+01  0.98831591183E+01  0.00000000000E+00 0. -1.
</event>
<event>
 7    1  0.1476909E-008  0.4614232E+02  0.7816164E-02  0.1320468E+00
        -11   -1    0    0    0    0  0.00000000000E+00  0.00000000000E+00  0.45593999997E+02  0.45594000000E+02  0.51100000000E-03 0.  1.
         11   -1    0    0    0    0 -0.00000000000E+00 -0.00000000000E+00 -0.45593999997E+02  0.45594000000E+02  0.51100000000E-03 0. -1.
    9900012    2    1    2    0    0 -0.13887403954E+02 -0.25145330249E+02 -0.34698211144E+02  0.46142317871E+02  0.10000001001E+02 0.  0.
        -12    1    1    2    0    0  0.13887403954E+02  0.25145330249E+02  0.34698211144E+02  0.45045682129E+02  0.00000000000E+00 0.  1.
         11    1    3    3    0    0 -0.79968769098E+00 -0.49044489471E+01 -0.80227346181E+01  0.94370223530E+01  0.51100000000E-03 0. -1.
        -11    1    3    3    0    0 -0.93443903301E+01 -0.11785680543E+02 -0.21085537561E+02  0.25900189015E+02  0.51100000000E-03 0.  1.
         12    1    3    3    0    0 -0.37433259331E+01 -0.84552007590E+01 -0.55899389640E+01  0.10805106503E+02  0.00000000000E+00 0. -1.
</event>
<event>
 7    1  0.1476909E-008  0.4614230E+02  0.7816164E-02  0.1320468E+00
        -11   -1    0    0    0    0  0.00000000000E+00  0.00000000000E+00  0.45593999997E+02  0.45594000000E+02  0.51100000000E-03 0.  1.
         11   -1    0    0    0    0 -0.00000000000E+00 -0.00000000000E+00 -0.45593999997E+02  0.45594000000E+02  0.51100000000E-03 0. -1.
    9900012    2    1    2    0    0 -0.43096585257E+02 -0.57404323805E+00 -0.13094645403E+02  0.46142301818E+02  0.99998546146E+01 0.  0.
        -12    1    1    2    0    0  0.43096585257E+02  0.57404323805E+00  0.13094645403E+02  0.45045698182E+02  0.00000000000E+00 0.  1.
         11    1    3    3    0    0 -0.33821224355E+02  0.64270580971E+00 -0.94485712284E+01  0.35122126732E+02  0.51100000000E-03 0. -1.
        -11    1    3    3    0    0 -0.51038274109E+00  0.11576246254E+01 -0.91726247110E-01  0.12684633543E+01  0.51100000000E-03 0.  1.
        -12    1    3    3    0    0 -0.87649781610E+01 -0.23743736732E+01 -0.35543479279E+01  0.97517117315E+01  0.00000000000E+00 0.  1.
</event>
<event>
 7    1  0.1476909E-008  0.4614232E+02  0.7816164E-02  0.1320468E+00
        -11   -1    0    0    0    0  0.00000000000E+00  0.00000000000E+00  0.45593999997E+02  0.45594000000E+02  0.51100000000E-03 0.  1.
         11   -1    0    0    0    0 -0.00000000000E+00 -0.00000000000E+00 -0.45593999997E+02  0.45594000000E+02  0.51100000000E-03 0. -1.
    9900012    2    1    2    0    0 -0.10448459515E+02 -0.93995127590E+01 -0.42797107016E+02  0.46142317462E+02  0.99999972731E+01 0.  0.
        -12    1    1    2    0    0  0.10448459515E+02  0.93995127590E+01  0.42797107016E+02  0.45045682538E+02  0.00000000000E+00 0.  1.
         11    1    3    3    0    0 -0.45062555163E+01 -0.98469460075E+00 -0.66154962706E+01  0.80647847710E+01  0.51100000000E-03 0.  1.
        -11    1    3    3    0    0 -0.16931919550E+01 -0.43187262679E+01 -0.76876096690E+01  0.89787325530E+01  0.51100000000E-03 0. -1.
         12    1    3    3    0    0 -0.42490120442E+01 -0.40960918903E+01 -0.28494001077E+02  0.29098800138E+02  0.00000000000E+00 0. -1.
</event>
<event>
 7    1  0.1476909E-008  0.4614232E+02  0.7816164E-02  0.1320468E+00
        -11   -1    0    0    0    0  0.00000000000E+00  0.00000000000E+00  0.45593999997E+02  0.45594000000E+02  0.51100000000E-03 0. -1.
         11   -1    0    0    0    0 -0.00000000000E+00 -0.00000000000E+00 -0.45593999997E+02  0.45594000000E+02  0.51100000000E-03 0.  1.
    9900012    2    1    2    0    0 -0.49763225407E+01  0.14332069106E+02  0.42413930521E+02  0.46142317709E+02  0.99999995222E+01 0.  0.
        -12    1    1    2    0    0  0.49763225407E+01 -0.14332069106E+02 -0.42413930521E+02  0.45045682291E+02  0.00000000000E+00 0.  1.
         11    1    3    3    0    0  0.36213746276E+00 -0.46055895977E+00  0.28504347772E+01  0.29100235012E+01  0.51100000000E-03 0. -1.
        -11    1    3    3    0    0 -0.13168727478E+01 -0.14233127900E-01  0.79569166765E+00  0.15386623759E+01  0.51100000000E-03 0.  1.
        -12    1    3    3    0    0 -0.40215872557E+01  0.14806861193E+02  0.38767804076E+02  0.41693631832E+02  0.00000000000E+00 0.  1.
</event>
<event>
 7    1  0.1476909E-008  0.4614232E+02  0.7816164E-02  0.1320468E+00
        -11   -1    0    0    0    0  0.00000000000E+00  0.00000000000E+00  0.45593999997E+02  0.45594000000E+02  0.51100000000E-03 0.  1.
         11   -1    0    0    0    0 -0.00000000000E+00 -0.00000000000E+00 -0.45593999997E+02  0.45594000000E+02  0.51100000000E-03 0. -1.
    9900012    2    1    2    0    0 -0.39310544405E+02  0.33219068810E+01 -0.21743032612E+02  0.46142318366E+02  0.10000005512E+02 0.  0.
        -12    1    1    2    0    0  0.39310544405E+02 -0.33219068810E+01  0.21743032612E+02  0.45045681634E+02  0.00000000000E+00 0.  1.
         11    1    3    3    0    0 -0.12941539602E+02  0.99608071987E+00 -0.69771026317E+01  0.14736199831E+02  0.51100000000E-03 0. -1.
        -11    1    3    3    0    0 -0.54977057410E+01  0.38210133493E+01 -0.24711848984E+01  0.71366425225E+01  0.51100000000E-03 0.  1.
        -12    1    3    3    0    0 -0.20871299062E+02 -0.14951871882E+01 -0.12294745082E+02  0.24269476012E+02  0.00000000000E+00 0.  1.
</event>
<event>
 7    1  0.1476909E-008  0.4614232E+02  0.7816164E-02  0.1320468E+00
        -11   -1    0    0    0    0  0.00000000000E+00  0.00000000000E+00  0.45593999997E+02  0.45594000000E+02  0.51100000000E-03 0.  1.
         11   -1    0    0    0    0 -0.00000000000E+00 -0.00000000000E+00 -0.45593999997E+02  0.45594000000E+02  0.51100000000E-03 0. -1.
    9900012    2    1    2    0    0  0.21403526172E+02  0.39046466599E+02 -0.68099922884E+01  0.46142317838E+02  0.10000000700E+02 0.  0.
        -12    1    1    2    0    0 -0.21403526172E+02 -0.39046466599E+02  0.68099922884E+01  0.45045682162E+02  0.00000000000E+00 0.  1.
         11    1    3    3    0    0  0.66909245258E+01  0.11234040261E+02  0.14083336220E+01  0.13151256040E+02  0.51100000000E-03 0. -1.
        -11    1    3    3    0    0  0.14595834590E+02  0.23731310363E+02 -0.69253376063E+01  0.28708426988E+02  0.51100000000E-03 0.  1.
        -12    1    3    3    0    0  0.11676705562E+00  0.40811159760E+01 -0.12929883041E+01  0.42826348092E+01  0.00000000000E+00 0.  1.
</event>
<event>
 7    1  0.1476909E-008  0.4614232E+02  0.7816164E-02  0.1320468E+00
        -11   -1    0    0    0    0  0.00000000000E+00  0.00000000000E+00  0.45593999997E+02  0.45594000000E+02  0.51100000000E-03 0.  1.
         11   -1    0    0    0    0 -0.00000000000E+00 -0.00000000000E+00 -0.45593999997E+02  0.45594000000E+02  0.51100000000E-03 0. -1.
    9900012    2    1    2    0    0  0.13998493361E+02  0.68743439029E+01 -0.42259898768E+02  0.46142318028E+02  0.10000002430E+02 0.  0.
        -12    1    1    2    0    0 -0.13998493361E+02 -0.68743439029E+01  0.42259898768E+02  0.45045681972E+02  0.00000000000E+00 0.  1.
         11    1    3    3    0    0  0.11118698486E+02  0.51772851819E+01 -0.38645915866E+02  0.40545487434E+02  0.51100000000E-03 0. -1.
        -11    1    3    3    0    0  0.32170186413E+01  0.20201900390E+01 -0.31071886256E+01  0.49076469054E+01  0.51100000000E-03 0.  1.
        -12    1    3    3    0    0 -0.33722376658E+00 -0.32313131800E+00 -0.50679427656E+00  0.68918368827E+00  0.00000000000E+00 0.  1.
</event>
<event>
 7    1  0.1476909E-008  0.4614231E+02  0.7816164E-02  0.1320468E+00
        -11   -1    0    0    0    0  0.00000000000E+00  0.00000000000E+00  0.45593999997E+02  0.45594000000E+02  0.51100000000E-03 0.  1.
         11   -1    0    0    0    0 -0.00000000000E+00 -0.00000000000E+00 -0.45593999997E+02  0.45594000000E+02  0.51100000000E-03 0. -1.
    9900012    2    1    2    0    0  0.16753132434E+02  0.20510262396E+02 -0.36438660277E+02  0.46142309055E+02  0.99999206115E+01 0.  0.
        -12    1    1    2    0    0 -0.16753132434E+02 -0.20510262396E+02  0.36438660277E+02  0.45045690945E+02  0.00000000000E+00 0.  1.
         11    1    3    3    0    0  0.10466046237E+02  0.88680139320E+01 -0.16355065981E+02  0.21346380921E+02  0.51100000000E-03 0. -1.
        -11    1    3    3    0    0  0.30276838611E+01  0.71441792792E+01 -0.16364979370E+02  0.18111287010E+02  0.51100000000E-03 0.  1.
        -12    1    3    3    0    0  0.32594023360E+01  0.44980691850E+01 -0.37186149267E+01  0.66846411238E+01  0.00000000000E+00 0.  1.
</event>
<event>
 7    1  0.1476909E-008  0.4614232E+02  0.7816164E-02  0.1320468E+00
        -11   -1    0    0    0    0  0.00000000000E+00  0.00000000000E+00  0.45593999997E+02  0.45594000000E+02  0.51100000000E-03 0.  1.
         11   -1    0    0    0    0 -0.00000000000E+00 -0.00000000000E+00 -0.45593999997E+02  0.45594000000E+02  0.51100000000E-03 0. -1.
    9900012    2    1    2    0    0 -0.49342607045E+01  0.27793457596E+02 -0.35103992327E+02  0.46142317730E+02  0.99999997205E+01 0.  0.
        -12    1    1    2    0    0  0.49342607045E+01 -0.27793457596E+02  0.35103992327E+02  0.45045682270E+02  0.00000000000E+00 0.  1.
         11    1    3    3    0    0 -0.17465565411E+01  0.20144248740E+02 -0.28701782551E+02  0.35108881197E+02  0.51100000000E-03 0. -1.
        -11    1    3    3    0    0  0.72781545563E-01 -0.25355914122E+00  0.11084429312E+00  0.28614001802E+00  0.51100000000E-03 0.  1.
         12    1    3    3    0    0 -0.32604857089E+01  0.79027679982E+01 -0.65130540685E+01  0.10747296515E+02  0.00000000000E+00 0. -1.
</event>
<event>
 7    1  0.1476909E-008  0.4614232E+02  0.7816164E-02  0.1320468E+00
        -11   -1    0    0    0    0  0.00000000000E+00  0.00000000000E+00  0.45593999997E+02  0.45594000000E+02  0.51100000000E-03 0. -1.
         11   -1    0    0    0    0 -0.00000000000E+00 -0.00000000000E+00 -0.45593999997E+02  0.45594000000E+02  0.51100000000E-03 0.  1.
    9900012    2    1    2    0    0 -0.29541599372E+02 -0.19108949309E+02  0.28129265174E+02  0.46142316563E+02  0.99999890719E+01 0.  0.
        -12    1    1    2    0    0  0.29541599372E+02  0.19108949309E+02 -0.28129265174E+02  0.45045683437E+02  0.00000000000E+00 0.  1.
         11    1    3    3    0    0 -0.42173521608E-01 -0.10467236644E+01  0.15358005930E+01  0.18590569540E+01  0.51100000000E-03 0. -1.
        -11    1    3    3    0    0 -0.14582946457E+01  0.73715750493E+00  0.15106662839E+01  0.22253398264E+01  0.51100000000E-03 0.  1.
        -12    1    3    3    0    0 -0.28041131205E+02 -0.18799383149E+02  0.25082798297E+02  0.42057919782E+02  0.00000000000E+00 0.  1.
</event>
<event>
 7    1  0.1476909E-008  0.4614232E+02  0.7816164E-02  0.1320468E+00
        -11   -1    0    0    0    0  0.00000000000E+00  0.00000000000E+00  0.45593999997E+02  0.45594000000E+02  0.51100000000E-03 0.  1.
         11   -1    0    0    0    0 -0.00000000000E+00 -0.00000000000E+00 -0.45593999997E+02  0.45594000000E+02  0.51100000000E-03 0. -1.
    9900012    2    1    2    0    0 -0.34969509520E+01 -0.85399177603E-01 -0.44909655012E+02  0.46142322379E+02  0.10000042112E+02 0.  0.
        -12    1    1    2    0    0  0.34969509520E+01  0.85399177603E-01  0.44909655012E+02  0.45045677621E+02  0.00000000000E+00 0.  1.
         11    1    3    3    0    0  0.15139890089E+01 -0.11311719631E+01 -0.16396640050E+02  0.16505196694E+02  0.51100000000E-03 0. -1.
        -11    1    3    3    0    0 -0.31741803905E+01 -0.21094606564E+01 -0.88148207018E+01  0.96034530081E+01  0.51100000000E-03 0.  1.
         12    1    3    3    0    0 -0.18367595705E+01  0.31552334419E+01 -0.19698194261E+02  0.20033672677E+02  0.00000000000E+00 0. -1.
</event>
<event>
 7    1  0.1476909E-008  0.4614232E+02  0.7816164E-02  0.1320468E+00
        -11   -1    0    0    0    0  0.00000000000E+00  0.00000000000E+00  0.45593999997E+02  0.45594000000E+02  0.51100000000E-03 0.  1.
         11   -1    0    0    0    0 -0.00000000000E+00 -0.00000000000E+00 -0.45593999997E+02  0.45594000000E+02  0.51100000000E-03 0. -1.
    9900012    2    1    2    0    0 -0.11509156971E+01 -0.85450004961E+01 -0.44212801134E+02  0.46142318470E+02  0.10000006461E+02 0.  0.
        -12    1    1    2    0    0  0.11509156971E+01  0.85450004961E+01  0.44212801134E+02  0.45045681530E+02  0.00000000000E+00 0.  1.
         11    1    3    3    0    0 -0.12410964174E+01 -0.99546062289E+01 -0.35713428646E+02  0.37095599354E+02  0.51100000000E-03 0. -1.
        -11    1    3    3    0    0 -0.98407727321E+00  0.23049665668E+00 -0.11714531429E+01  0.15472037731E+01  0.51100000000E-03 0.  1.
         12    1    3    3    0    0  0.10742579934E+01  0.11791090761E+01 -0.73279193448E+01  0.74995153426E+01  0.00000000000E+00 0. -1.
</event>
<event>
 7    1  0.1476909E-008  0.4614232E+02  0.7816164E-02  0.1320468E+00
        -11   -1    0    0    0    0  0.00000000000E+00  0.00000000000E+00  0.45593999997E+02  0.45594000000E+02  0.51100000000E-03 0. -1.
         11   -1    0    0    0    0 -0.00000000000E+00 -0.00000000000E+00 -0.45593999997E+02  0.45594000000E+02  0.51100000000E-03 0.  1.
    9900012    2    1    2    0    0 -0.25489255007E+02  0.16350175696E+02  0.33347910894E+02  0.46142317331E+02  0.99999960782E+01 0.  0.
        -12    1    1    2    0    0  0.25489255007E+02 -0.16350175696E+02 -0.33347910894E+02  0.45045682669E+02  0.00000000000E+00 0.  1.
         11    1    3    3    0    0 -0.90413777954E+01  0.20873961543E+01  0.14639737065E+02  0.17332790795E+02  0.51100000000E-03 0. -1.
        -11    1    3    3    0    0 -0.70826409748E+01  0.62544336029E+01  0.65377989025E+01  0.11490193977E+02  0.51100000000E-03 0.  1.
         12    1    3    3    0    0 -0.93652362371E+01  0.80083459391E+01  0.12170374926E+02  0.17319332559E+02  0.00000000000E+00 0. -1.
</event>
<event>
 7    1  0.1476909E-008  0.4614232E+02  0.7816164E-02  0.1320468E+00
        -11   -1    0    0    0    0  0.00000000000E+00  0.00000000000E+00  0.45593999997E+02  0.45594000000E+02  0.51100000000E-03 0.  1.
         11   -1    0    0    0    0 -0.00000000000E+00 -0.00000000000E+00 -0.45593999997E+02  0.45594000000E+02  0.51100000000E-03 0. -1.
    9900012    2    1    2    0    0 -0.19426449056E+02  0.14084348086E+02 -0.38122928521E+02  0.46142318043E+02  0.10000002574E+02 0.  0.
        -12    1    1    2    0    0  0.19426449056E+02 -0.14084348086E+02  0.38122928521E+02  0.45045681957E+02  0.00000000000E+00 0.  1.
         11    1    3    3    0    0 -0.12599083856E+02  0.47809427327E+01 -0.20299238962E+02  0.24365004210E+02  0.51100000000E-03 0. -1.
        -11    1    3    3    0    0 -0.40907541280E+01  0.87146276852E+01 -0.12670274700E+02  0.15912726550E+02  0.51100000000E-03 0.  1.
         12    1    3    3    0    0 -0.27366110711E+01  0.58877766839E+00 -0.51534148591E+01  0.58645872836E+01  0.00000000000E+00 0. -1.
</event>
<event>
 7    1  0.1476909E-008  0.4614232E+02  0.7816164E-02  0.1320468E+00
        -11   -1    0    0    0    0  0.00000000000E+00  0.00000000000E+00  0.45593999997E+02  0.45594000000E+02  0.51100000000E-03 0.  1.
         11   -1    0    0    0    0 -0.00000000000E+00 -0.00000000000E+00 -0.45593999997E+02  0.45594000000E+02  0.51100000000E-03 0. -1.
    9900012    2    1    2    0    0  0.14734346476E+02  0.35658163533E+02  0.23248828190E+02  0.46142316468E+02  0.99999882085E+01 0.  0.
        -12    1    1    2    0    0 -0.14734346476E+02 -0.35658163533E+02 -0.23248828190E+02  0.45045683532E+02  0.00000000000E+00 0.  1.
         11    1    3    3    0    0 -0.99796392596E+00  0.19151517416E+01  0.15240367102E+01  0.26431848868E+01  0.51100000000E-03 0. -1.
        -11    1    3    3    0    0  0.86001554205E+01  0.19806452079E+02  0.92921862012E+01  0.23507508202E+02  0.51100000000E-03 0.  1.
         12    1    3    3    0    0  0.71321549814E+01  0.13936559712E+02  0.12432605279E+02  0.19991623379E+02  0.00000000000E+00 0. -1.
</event>
<event>
 7    1  0.1476909E-008  0.4614232E+02  0.7816164E-02  0.1320468E+00
        -11   -1    0    0    0    0  0.00000000000E+00  0.00000000000E+00  0.45593999997E+02  0.45594000000E+02  0.51100000000E-03 0.  1.
         11   -1    0    0    0    0 -0.00000000000E+00 -0.00000000000E+00 -0.45593999997E+02  0.45594000000E+02  0.51100000000E-03 0. -1.
    9900012    2    1    2    0    0 -0.17916577298E+02 -0.36444432121E+02 -0.19491358570E+02  0.46142318369E+02  0.10000005544E+02 0.  0.
        -12    1    1    2    0    0  0.17916577298E+02  0.36444432121E+02  0.19491358570E+02  0.45045681631E+02  0.00000000000E+00 0.  1.
         11    1    3    3    0    0 -0.12062293978E+02 -0.26799430729E+02 -0.15901249679E+02  0.33414939249E+02  0.51100000000E-03 0. -1.
        -11    1    3    3    0    0 -0.11459645959E+01 -0.98959757270E+00 -0.23513570810E+01  0.27966799235E+01  0.51100000000E-03 0.  1.
         12    1    3    3    0    0 -0.47083187237E+01 -0.86554038194E+01 -0.12387518093E+01  0.99306991962E+01  0.00000000000E+00 0. -1.
</event>
<event>
 7    1  0.1476909E-008  0.4614232E+02  0.7816164E-02  0.1320468E+00
        -11   -1    0    0    0    0  0.00000000000E+00  0.00000000000E+00  0.45593999997E+02  0.45594000000E+02  0.51100000000E-03 0. -1.
         11   -1    0    0    0    0 -0.00000000000E+00 -0.00000000000E+00 -0.45593999997E+02  0.45594000000E+02  0.51100000000E-03 0.  1.
    9900012    2    1    2    0    0  0.39932224150E+02  0.13583797630E+02 -0.15811743083E+02  0.46142319820E+02  0.10000018771E+02 0.  0.
        -12    1    1    2    0    0 -0.39932224150E+02 -0.13583797630E+02  0.15811743083E+02  0.45045680180E+02  0.00000000000E+00 0.  1.
         11    1    3    3    0    0  0.34372678496E+02  0.12590601491E+02 -0.15715261848E+02  0.39836838831E+02  0.51100000000E-03 0. -1.
        -11    1    3    3    0    0  0.17001890172E+01 -0.92620770049E+00  0.36613006852E+00  0.19704199773E+01  0.51100000000E-03 0.  1.
         12    1    3    3    0    0  0.38593566371E+01  0.19194038397E+01 -0.46261130349E+00  0.43350610112E+01  0.00000000000E+00 0. -1.
</event>
<event>
 7    1  0.1476909E-008  0.4614232E+02  0.7816164E-02  0.1320468E+00
        -11   -1    0    0    0    0  0.00000000000E+00  0.00000000000E+00  0.45593999997E+02  0.45594000000E+02  0.51100000000E-03 0.  1.
         11   -1    0    0    0    0 -0.00000000000E+00 -0.00000000000E+00 -0.45593999997E+02  0.45594000000E+02  0.51100000000E-03 0. -1.
    9900012    2    1    2    0    0 -0.28651614435E+02 -0.29838791414E+02 -0.17828209053E+02  0.46142317402E+02  0.99999967221E+01 0.  0.
        -12    1    1    2    0    0  0.28651614435E+02  0.29838791414E+02  0.17828209053E+02  0.45045682598E+02  0.00000000000E+00 0.  1.
         11    1    3    3    0    0 -0.21326717212E+02 -0.17804187839E+02 -0.11479402329E+02  0.30059851126E+02  0.51100000000E-03 0. -1.
        -11    1    3    3    0    0  0.21447269328E+00 -0.23424562404E+01 -0.23092155829E+00  0.23635618887E+01  0.51100000000E-03 0.  1.
         12    1    3    3    0    0 -0.75393699163E+01 -0.96921473343E+01 -0.61178851649E+01  0.13718904387E+02  0.00000000000E+00 0. -1.
</event>
<event>
 7    1  0.1476909E-008  0.4614232E+02  0.7816164E-02  0.1320468E+00
        -11   -1    0    0    0    0  0.00000000000E+00  0.00000000000E+00  0.45593999997E+02  0.45594000000E+02  0.51100000000E-03 0.  1.
         11   -1    0    0    0    0 -0.00000000000E+00 -0.00000000000E+00 -0.45593999997E+02  0.45594000000E+02  0.51100000000E-03 0. -1.
    9900012    2    1    2    0    0 -0.73495293505E+01  0.31460304826E+02 -0.31390241557E+02  0.46142316228E+02  0.99999860229E+01 0.  0.
        -12    1    1    2    0    0  0.73495293505E+01 -0.31460304826E+02  0.31390241557E+02  0.45045683772E+02  0.00000000000E+00 0.  1.
         11    1    3    3    0    0  0.66199817934E+00  0.15721522961E+02 -0.11574160380E+02  0.19533707138E+02  0.51100000000E-03 0. -1.
        -11    1    3    3    0    0 -0.50162808137E+01  0.82956698864E+01 -0.99468470865E+01  0.13889599681E+02  0.51100000000E-03 0.  1.
         12    1    3    3    0    0 -0.29952467162E+01  0.74431119790E+01 -0.98692340905E+01  0.12719009409E+02  0.00000000000E+00 0. -1.
</event>
<event>
 7    1  0.1476909E-008  0.4614232E+02  0.7816164E-02  0.1320468E+00
        -11   -1    0    0    0    0  0.00000000000E+00  0.00000000000E+00  0.45593999997E+02  0.45594000000E+02  0.51100000000E-03 0.  1.
         11   -1    0    0    0    0 -0.00000000000E+00 -0.00000000000E+00 -0.45593999997E+02  0.45594000000E+02  0.51100000000E-03 0. -1.
    9900012    2    1    2    0    0  0.11912973046E+02 -0.70432363597E+01 -0.42867089555E+02  0.46142317941E+02  0.10000001643E+02 0.  0.
        -12    1    1    2    0    0 -0.11912973046E+02  0.70432363597E+01  0.42867089555E+02  0.45045682059E+02  0.00000000000E+00 0.  1.
         11    1    3    3    0    0  0.94414368882E+01 -0.21837168434E+01 -0.24320656756E+02  0.26180215719E+02  0.51100000000E-03 0. -1.
        -11    1    3    3    0    0  0.78398361967E+00 -0.33450379326E+01 -0.41473399994E+01  0.53855676041E+01  0.51100000000E-03 0.  1.
        -12    1    3    3    0    0  0.16875525384E+01 -0.15144815837E+01 -0.14399092799E+02  0.14576534618E+02  0.00000000000E+00 0.  1.
</event>
<event>
 7    1  0.1476909E-008  0.4614232E+02  0.7816164E-02  0.1320468E+00
        -11   -1    0    0    0    0  0.00000000000E+00  0.00000000000E+00  0.45593999997E+02  0.45594000000E+02  0.51100000000E-03 0.  1.
         11   -1    0    0    0    0 -0.00000000000E+00 -0.00000000000E+00 -0.45593999997E+02  0.45594000000E+02  0.51100000000E-03 0. -1.
    9900012    2    1    2    0    0 -0.38217380102E+02 -0.11221639445E+02 -0.21038540974E+02  0.46142317188E+02  0.99999947765E+01 0.  0.
        -12    1    1    2    0    0  0.38217380102E+02  0.11221639445E+02  0.21038540974E+02  0.45045682812E+02  0.00000000000E+00 0.  1.
         11    1    3    3    0    0 -0.18160605872E+02 -0.96311222309E+01 -0.12853414498E+02  0.24244100016E+02  0.51100000000E-03 0. -1.
        -11    1    3    3    0    0 -0.99607130189E+01 -0.54459500566E+00 -0.25822027068E+01  0.10304375704E+02  0.51100000000E-03 0.  1.
         12    1    3    3    0    0 -0.10096061210E+02 -0.10459222084E+01 -0.56029237693E+01  0.11593841468E+02  0.00000000000E+00 0. -1.
</event>
<event>
 7    1  0.1476909E-008  0.4614232E+02  0.7816164E-02  0.1320468E+00
        -11   -1    0    0    0    0  0.00000000000E+00  0.00000000000E+00  0.45593999997E+02  0.45594000000E+02  0.51100000000E-03 0.  1.
         11   -1    0    0    0    0 -0.00000000000E+00 -0.00000000000E+00 -0.45593999997E+02  0.45594000000E+02  0.51100000000E-03 0. -1.
    9900012    2    1    2    0    0  0.11563778034E+02 -0.51042190443E+01 -0.43235858775E+02  0.46142317649E+02  0.99999989779E+01 0.  0.
        -12    1    1    2    0    0 -0.11563778034E+02  0.51042190443E+01  0.43235858775E+02  0.45045682351E+02  0.00000000000E+00 0.  1.
         11    1    3    3    0    0  0.29283736880E+01 -0.17283882645E+01 -0.34213482093E+01  0.48237249383E+01  0.51100000000E-03 0.  1.
        -11    1    3    3    0    0  0.89432361049E+01 -0.21297756717E+01 -0.28853750837E+02  0.30282938333E+02  0.51100000000E-03 0. -1.
        -12    1    3    3    0    0 -0.30783175926E+00 -0.12460551080E+01 -0.10960759728E+02  0.11035654378E+02  0.00000000000E+00 0.  1.
</event>
<event>
 7    1  0.1476909E-008  0.4614232E+02  0.7816164E-02  0.1320468E+00
        -11   -1    0    0    0    0  0.00000000000E+00  0.00000000000E+00  0.45593999997E+02  0.45594000000E+02  0.51100000000E-03 0. -1.
         11   -1    0    0    0    0 -0.00000000000E+00 -0.00000000000E+00 -0.45593999997E+02  0.45594000000E+02  0.51100000000E-03 0.  1.
    9900012    2    1    2    0    0  0.44809109276E+02 -0.16793413664E+01  0.42938289700E+01  0.46142318422E+02  0.10000006030E+02 0.  0.
        -12    1    1    2    0    0 -0.44809109276E+02  0.16793413664E+01 -0.42938289700E+01  0.45045681578E+02  0.00000000000E+00 0.  1.
         11    1    3    3    0    0  0.10712595936E+00 -0.12174709111E+00 -0.66595912301E+00  0.68541968165E+00  0.51100000000E-03 0. -1.
        -11    1    3    3    0    0  0.24128808095E+02  0.19284034570E+01  0.42670916710E+01  0.24578978652E+02  0.51100000000E-03 0.  1.
         12    1    3    3    0    0  0.20573175222E+02 -0.34859977324E+01  0.69269642194E+00  0.20877920088E+02  0.00000000000E+00 0. -1.
</event>
<event>
 7    1  0.1476909E-008  0.4614232E+02  0.7816164E-02  0.1320468E+00
        -11   -1    0    0    0    0  0.00000000000E+00  0.00000000000E+00  0.45593999997E+02  0.45594000000E+02  0.51100000000E-03 0. -1.
         11   -1    0    0    0    0 -0.00000000000E+00 -0.00000000000E+00 -0.45593999997E+02  0.45594000000E+02  0.51100000000E-03 0.  1.
    9900012    2    1    2    0    0 -0.86731744396E+01  0.41307927943E+02  0.15733557727E+02  0.46142315362E+02  0.99999781206E+01 0.  0.
        -12    1    1    2    0    0  0.86731744396E+01 -0.41307927943E+02 -0.15733557727E+02  0.45045684638E+02  0.00000000000E+00 0.  1.
         11    1    3    3    0    0 -0.55325371248E+01  0.16075384675E+02  0.84613134923E+01  0.18990018056E+02  0.51100000000E-03 0. -1.
        -11    1    3    3    0    0  0.67556626649E+00  0.14256546461E+02  0.20752735745E+01  0.14422630393E+02  0.51100000000E-03 0.  1.
        -12    1    3    3    0    0 -0.38162035813E+01  0.10975996806E+02  0.51969706604E+01  0.12729666913E+02  0.00000000000E+00 0.  1.
</event>
<event>
 7    1  0.1476909E-008  0.4614232E+02  0.7816164E-02  0.1320468E+00
        -11   -1    0    0    0    0  0.00000000000E+00  0.00000000000E+00  0.45593999997E+02  0.45594000000E+02  0.51100000000E-03 0. -1.
         11   -1    0    0    0    0 -0.00000000000E+00 -0.00000000000E+00 -0.45593999997E+02  0.45594000000E+02  0.51100000000E-03 0.  1.
    9900012    2    1    2    0    0  0.37863738582E+02  0.10007522132E+02  0.22255334826E+02  0.46142321774E+02  0.10000036591E+02 0.  0.
        -12    1    1    2    0    0 -0.37863738582E+02 -0.10007522132E+02 -0.22255334826E+02  0.45045678226E+02  0.00000000000E+00 0.  1.
         11    1    3    3    0    0  0.62353434863E+01  0.33998144979E+01  0.33411272491E+01  0.78486545705E+01  0.51100000000E-03 0. -1.
        -11    1    3    3    0    0  0.68735799061E+01 -0.14031473190E+01  0.21320831612E+01  0.73321689827E+01  0.51100000000E-03 0.  1.
        -12    1    3    3    0    0  0.24754815190E+02  0.80108549531E+01  0.16782124416E+02  0.30961498221E+02  0.00000000000E+00 0.  1.
</event>
<event>
 7    1  0.1476909E-008  0.4614232E+02  0.7816164E-02  0.1320468E+00
        -11   -1    0    0    0    0  0.00000000000E+00  0.00000000000E+00  0.45593999997E+02  0.45594000000E+02  0.51100000000E-03 0.  1.
         11   -1    0    0    0    0 -0.00000000000E+00 -0.00000000000E+00 -0.45593999997E+02  0.45594000000E+02  0.51100000000E-03 0. -1.
    9900012    2    1    2    0    0 -0.43462417838E+02  0.95687269195E+01 -0.69692962156E+01  0.46142318865E+02  0.10000010063E+02 0.  0.
        -12    1    1    2    0    0  0.43462417838E+02 -0.95687269195E+01  0.69692962156E+01  0.45045681135E+02  0.00000000000E+00 0.  1.
         11    1    3    3    0    0 -0.10893528471E+01  0.34720956749E+00  0.30237493733E-01  0.11437476454E+01  0.51100000000E-03 0. -1.
        -11    1    3    3    0    0 -0.13616062920E+02  0.17061923033E+00  0.14368193906E+01  0.13692725462E+02  0.51100000000E-03 0.  1.
        -12    1    3    3    0    0 -0.28757002071E+02  0.90508981216E+01 -0.84363531000E+01  0.31305845757E+02  0.00000000000E+00 0.  1.
</event>
<event>
 7    1  0.1476909E-008  0.4614232E+02  0.7816164E-02  0.1320468E+00
        -11   -1    0    0    0    0  0.00000000000E+00  0.00000000000E+00  0.45593999997E+02  0.45594000000E+02  0.51100000000E-03 0.  1.
         11   -1    0    0    0    0 -0.00000000000E+00 -0.00000000000E+00 -0.45593999997E+02  0.45594000000E+02  0.51100000000E-03 0. -1.
    9900012    2    1    2    0    0 -0.27357473923E+02  0.16384601750E+02 -0.31815514906E+02  0.46142317158E+02  0.99999945014E+01 0.  0.
        -12    1    1    2    0    0  0.27357473923E+02 -0.16384601750E+02  0.31815514906E+02  0.45045682842E+02  0.00000000000E+00 0.  1.
         11    1    3    3    0    0 -0.38640435273E+01  0.40381284240E+01 -0.98524754341E+01  0.11327337992E+02  0.51100000000E-03 0. -1.
        -11    1    3    3    0    0 -0.69027622908E+01  0.41312298744E+01 -0.38636997457E+01  0.89243130550E+01  0.51100000000E-03 0.  1.
         12    1    3    3    0    0 -0.16590668105E+02  0.82152434512E+01 -0.18099339727E+02  0.25890666111E+02  0.00000000000E+00 0. -1.
</event>
<event>
 7    1  0.1476909E-008  0.4614232E+02  0.7816164E-02  0.1320468E+00
        -11   -1    0    0    0    0  0.00000000000E+00  0.00000000000E+00  0.45593999997E+02  0.45594000000E+02  0.51100000000E-03 0.  1.
         11   -1    0    0    0    0 -0.00000000000E+00 -0.00000000000E+00 -0.45593999997E+02  0.45594000000E+02  0.51100000000E-03 0. -1.
    9900012    2    1    2    0    0 -0.45098725867E+01  0.30361119783E+01 -0.44716401612E+02  0.46142317634E+02  0.99999988447E+01 0.  0.
        -12    1    1    2    0    0  0.45098725867E+01 -0.30361119783E+01  0.44716401612E+02  0.45045682366E+02  0.00000000000E+00 0.  1.
         11    1    3    3    0    0  0.16399790822E+01  0.29355869054E+01 -0.17106854063E+02  0.17434209419E+02  0.51100000000E-03 0. -1.
        -11    1    3    3    0    0 -0.31610321144E+01 -0.23931498807E+01 -0.13268259437E+02  0.13847960107E+02  0.51100000000E-03 0.  1.
        -12    1    3    3    0    0 -0.29888195544E+01  0.24936749536E+01 -0.14341288111E+02  0.14860148108E+02  0.00000000000E+00 0.  1.
</event>
<event>
 7    1  0.1476909E-008  0.4614232E+02  0.7816164E-02  0.1320468E+00
        -11   -1    0    0    0    0  0.00000000000E+00  0.00000000000E+00  0.45593999997E+02  0.45594000000E+02  0.51100000000E-03 0.  1.
         11   -1    0    0    0    0 -0.00000000000E+00 -0.00000000000E+00 -0.45593999997E+02  0.45594000000E+02  0.51100000000E-03 0. -1.
    9900012    2    1    2    0    0 -0.87489467767E+01  0.42355853210E+02 -0.12591707525E+02  0.46142317973E+02  0.10000001936E+02 0.  0.
        -12    1    1    2    0    0  0.87489467767E+01 -0.42355853210E+02  0.12591707525E+02  0.45045682027E+02  0.00000000000E+00 0.  1.
         11    1    3    3    0    0 -0.46213117606E+01  0.66559858995E+01 -0.46218154119E+01  0.93284429915E+01  0.51100000000E-03 0. -1.
        -11    1    3    3    0    0 -0.15305921475E+01  0.14522915567E+02 -0.34227276374E+01  0.14999095094E+02  0.51100000000E-03 0.  1.
         12    1    3    3    0    0 -0.25970428685E+01  0.21176951743E+02 -0.45471644759E+01  0.21814779888E+02  0.00000000000E+00 0. -1.
</event>
<event>
 7    1  0.1476909E-008  0.4614232E+02  0.7816164E-02  0.1320468E+00
        -11   -1    0    0    0    0  0.00000000000E+00  0.00000000000E+00  0.45593999997E+02  0.45594000000E+02  0.51100000000E-03 0. -1.
         11   -1    0    0    0    0 -0.00000000000E+00 -0.00000000000E+00 -0.45593999997E+02  0.45594000000E+02  0.51100000000E-03 0.  1.
    9900012    2    1    2    0    0 -0.43574255234E+01 -0.38743077700E+02  0.22563250851E+02  0.46142317456E+02  0.99999972191E+01 0.  0.
        -12    1    1    2    0    0  0.43574255234E+01  0.38743077700E+02 -0.22563250851E+02  0.45045682544E+02  0.00000000000E+00 0.  1.
         11    1    3    3    0    0 -0.14072567500E+01 -0.22899911336E+02  0.11078821621E+02  0.25477963017E+02  0.51100000000E-03 0. -1.
        -11    1    3    3    0    0 -0.54307028219E-01 -0.70221368197E+01  0.82473515668E+01  0.10831997179E+02  0.51100000000E-03 0.  1.
        -12    1    3    3    0    0 -0.28958617452E+01 -0.88210295450E+01  0.32370776632E+01  0.98323572595E+01  0.00000000000E+00 0.  1.
</event>
<event>
 7    1  0.1476909E-008  0.4614232E+02  0.7816164E-02  0.1320468E+00
        -11   -1    0    0    0    0  0.00000000000E+00  0.00000000000E+00  0.45593999997E+02  0.45594000000E+02  0.51100000000E-03 0. -1.
         11   -1    0    0    0    0 -0.00000000000E+00 -0.00000000000E+00 -0.45593999997E+02  0.45594000000E+02  0.51100000000E-03 0.  1.
    9900012    2    1    2    0    0  0.44938191277E+02 -0.27874808968E+01  0.13793167827E+01  0.46142316524E+02  0.99999887208E+01 0.  0.
        -12    1    1    2    0    0 -0.44938191277E+02  0.27874808968E+01 -0.13793167827E+01  0.45045683476E+02  0.00000000000E+00 0.  1.
         11    1    3    3    0    0  0.12883239850E+02 -0.16384656102E+01  0.20050641533E+01  0.13140879769E+02  0.51100000000E-03 0. -1.
        -11    1    3    3    0    0  0.24056561586E+02 -0.37252448623E+01  0.13092839551E+01  0.24378470611E+02  0.51100000000E-03 0.  1.
        -12    1    3    3    0    0  0.79983898411E+01  0.25762295757E+01 -0.19350313257E+01  0.86229661433E+01  0.00000000000E+00 0.  1.
</event>
<event>
 7    1  0.1476909E-008  0.4614230E+02  0.7816164E-02  0.1320468E+00
        -11   -1    0    0    0    0  0.00000000000E+00  0.00000000000E+00  0.45593999997E+02  0.45594000000E+02  0.51100000000E-03 0.  1.
         11   -1    0    0    0    0 -0.00000000000E+00 -0.00000000000E+00 -0.45593999997E+02  0.45594000000E+02  0.51100000000E-03 0. -1.
    9900012    2    1    2    0    0  0.23710592913E+02 -0.38194816506E+02  0.28423026778E+01  0.46142301996E+02  0.99998562379E+01 0.  0.
        -12    1    1    2    0    0 -0.23710592913E+02  0.38194816506E+02 -0.28423026778E+01  0.45045698004E+02  0.00000000000E+00 0.  1.
         11    1    3    3    0    0  0.13919446957E+02 -0.17639471669E+02 -0.66958859224E+00  0.22479998076E+02  0.51100000000E-03 0. -1.
        -11    1    3    3    0    0  0.20216188213E+01 -0.49597799227E+01 -0.14444504040E+01  0.55473233880E+01  0.51100000000E-03 0.  1.
         12    1    3    3    0    0  0.77695271345E+01 -0.15595564914E+02  0.49563416740E+01  0.18114980532E+02  0.00000000000E+00 0. -1.
</event>
<event>
 7    1  0.1476909E-008  0.4614232E+02  0.7816164E-02  0.1320468E+00
        -11   -1    0    0    0    0  0.00000000000E+00  0.00000000000E+00  0.45593999997E+02  0.45594000000E+02  0.51100000000E-03 0.  1.
         11   -1    0    0    0    0 -0.00000000000E+00 -0.00000000000E+00 -0.45593999997E+02  0.45594000000E+02  0.51100000000E-03 0. -1.
    9900012    2    1    2    0    0  0.12922429700E+02  0.20153087592E+02 -0.38157271314E+02  0.46142317821E+02  0.10000000546E+02 0.  0.
        -12    1    1    2    0    0 -0.12922429700E+02 -0.20153087592E+02  0.38157271314E+02  0.45045682179E+02  0.00000000000E+00 0.  1.
         11    1    3    3    0    0  0.59361472978E+01  0.14688417359E+02 -0.26372934768E+02  0.30765551153E+02  0.51100000000E-03 0. -1.
        -11    1    3    3    0    0  0.66752218128E+01  0.41607065710E+01 -0.74276695808E+01  0.10818518433E+02  0.51100000000E-03 0.  1.
        -12    1    3    3    0    0  0.31106058935E+00  0.13039636627E+01 -0.43566669652E+01  0.45582482347E+01  0.00000000000E+00 0.  1.
</event>
<event>
 7    1  0.1476909E-008  0.4614232E+02  0.7816164E-02  0.1320468E+00
        -11   -1    0    0    0    0  0.00000000000E+00  0.00000000000E+00  0.45593999997E+02  0.45594000000E+02  0.51100000000E-03 0. -1.
         11   -1    0    0    0    0 -0.00000000000E+00 -0.00000000000E+00 -0.45593999997E+02  0.45594000000E+02  0.51100000000E-03 0.  1.
    9900012    2    1    2    0    0 -0.16003422382E+02 -0.17105273902E+02  0.38476142217E+02  0.46142318263E+02  0.10000004578E+02 0.  0.
        -12    1    1    2    0    0  0.16003422382E+02  0.17105273902E+02 -0.38476142217E+02  0.45045681737E+02  0.00000000000E+00 0.  1.
         11    1    3    3    0    0 -0.58225091587E+01 -0.10800109660E+02  0.12751362657E+02  0.17695796999E+02  0.51100000000E-03 0. -1.
        -11    1    3    3    0    0 -0.86313613924E+01 -0.60439275438E+01  0.21615326303E+02  0.24046866555E+02  0.51100000000E-03 0.  1.
         12    1    3    3    0    0 -0.15495518314E+01 -0.26123669875E+00  0.41094532567E+01  0.43996547091E+01  0.00000000000E+00 0. -1.
</event>
<event>
 7    1  0.1476909E-008  0.4614232E+02  0.7816164E-02  0.1320468E+00
        -11   -1    0    0    0    0  0.00000000000E+00  0.00000000000E+00  0.45593999997E+02  0.45594000000E+02  0.51100000000E-03 0.  1.
         11   -1    0    0    0    0 -0.00000000000E+00 -0.00000000000E+00 -0.45593999997E+02  0.45594000000E+02  0.51100000000E-03 0. -1.
    9900012    2    1    2    0    0  0.13126066738E+02 -0.96775376190E+00 -0.43079964489E+02  0.46142317458E+02  0.99999972319E+01 0.  0.
        -12    1    1    2    0    0 -0.13126066738E+02  0.96775376190E+00  0.43079964489E+02  0.45045682542E+02  0.00000000000E+00 0.  1.
         11    1    3    3    0    0  0.42032331393E+01 -0.20866661474E+01 -0.10979723948E+02  0.11940505964E+02  0.51100000000E-03 0. -1.
        -11    1    3    3    0    0  0.17038014770E+00  0.22001034076E+01 -0.25929999684E+01  0.34048690865E+01  0.51100000000E-03 0.  1.
         12    1    3    3    0    0  0.87524534510E+01 -0.10811910221E+01 -0.29507240573E+02  0.30796942408E+02  0.00000000000E+00 0. -1.
</event>
<event>
 7    1  0.1476909E-008  0.4614232E+02  0.7816164E-02  0.1320468E+00
        -11   -1    0    0    0    0  0.00000000000E+00  0.00000000000E+00  0.45593999997E+02  0.45594000000E+02  0.51100000000E-03 0.  1.
         11   -1    0    0    0    0 -0.00000000000E+00 -0.00000000000E+00 -0.45593999997E+02  0.45594000000E+02  0.51100000000E-03 0. -1.
    9900012    2    1    2    0    0  0.25429618697E+02 -0.29027170316E+02 -0.23235131299E+02  0.46142318185E+02  0.10000003868E+02 0.  0.
        -12    1    1    2    0    0 -0.25429618697E+02  0.29027170316E+02  0.23235131299E+02  0.45045681815E+02  0.00000000000E+00 0.  1.
         11    1    3    3    0    0  0.20672255428E+02 -0.17093960505E+02 -0.16538301523E+02  0.31512871144E+02  0.51100000000E-03 0. -1.
        -11    1    3    3    0    0  0.35008171293E+01 -0.82501386874E+01 -0.36084042461E+01  0.96613192887E+01  0.51100000000E-03 0.  1.
        -12    1    3    3    0    0  0.12565461394E+01 -0.36830711241E+01 -0.30884255306E+01  0.49681277523E+01  0.00000000000E+00 0.  1.
</event>
<event>
 7    1  0.1476909E-008  0.4614232E+02  0.7816164E-02  0.1320468E+00
        -11   -1    0    0    0    0  0.00000000000E+00  0.00000000000E+00  0.45593999997E+02  0.45594000000E+02  0.51100000000E-03 0.  1.
         11   -1    0    0    0    0 -0.00000000000E+00 -0.00000000000E+00 -0.45593999997E+02  0.45594000000E+02  0.51100000000E-03 0. -1.
    9900012    2    1    2    0    0 -0.10105616205E+02  0.14791677888E+02 -0.41330330314E+02  0.46142318548E+02  0.10000007177E+02 0.  0.
        -12    1    1    2    0    0  0.10105616205E+02 -0.14791677888E+02  0.41330330314E+02  0.45045681452E+02  0.00000000000E+00 0.  1.
         11    1    3    3    0    0 -0.93763007678E+01  0.14666628532E+02 -0.38372496124E+02  0.42136367518E+02  0.51100000000E-03 0. -1.
        -11    1    3    3    0    0 -0.13095413987E+01  0.99617792177E+00 -0.19698987390E+01  0.25666652352E+01  0.51100000000E-03 0.  1.
         12    1    3    3    0    0  0.58022596165E+00 -0.87112856564E+00 -0.98793545079E+00  0.14392857949E+01  0.00000000000E+00 0. -1.
</event>
<event>
 7    1  0.1476909E-008  0.4614232E+02  0.7816164E-02  0.1320468E+00
        -11   -1    0    0    0    0  0.00000000000E+00  0.00000000000E+00  0.45593999997E+02  0.45594000000E+02  0.51100000000E-03 0.  1.
         11   -1    0    0    0    0 -0.00000000000E+00 -0.00000000000E+00 -0.45593999997E+02  0.45594000000E+02  0.51100000000E-03 0. -1.
    9900012    2    1    2    0    0  0.96223334597E+01 -0.39068142405E+02 -0.20253504717E+02  0.46142317571E+02  0.99999982708E+01 0.  0.
        -12    1    1    2    0    0 -0.96223334597E+01  0.39068142405E+02  0.20253504717E+02  0.45045682429E+02  0.00000000000E+00 0.  1.
         11    1    3    3    0    0  0.38505420546E+01 -0.13935408062E+02 -0.83993771491E+01  0.16720400974E+02  0.51100000000E-03 0.  1.
        -11    1    3    3    0    0  0.61957113223E+01 -0.25479608292E+02 -0.12025409802E+02  0.28848011347E+02  0.51100000000E-03 0. -1.
        -12    1    3    3    0    0 -0.42391991714E+00  0.34687394942E+00  0.17128223486E+00  0.57390525081E+00  0.00000000000E+00 0.  1.
</event>
<event>
 7    1  0.1476909E-008  0.4614232E+02  0.7816164E-02  0.1320468E+00
        -11   -1    0    0    0    0  0.00000000000E+00  0.00000000000E+00  0.45593999997E+02  0.45594000000E+02  0.51100000000E-03 0.  1.
         11   -1    0    0    0    0 -0.00000000000E+00 -0.00000000000E+00 -0.45593999997E+02  0.45594000000E+02  0.51100000000E-03 0. -1.
    9900012    2    1    2    0    0  0.33140036801E+02 -0.27496494600E+01 -0.30385693605E+02  0.46142323324E+02  0.10000050728E+02 0.  0.
        -12    1    1    2    0    0 -0.33140036801E+02  0.27496494600E+01  0.30385693605E+02  0.45045676676E+02  0.00000000000E+00 0.  1.
         11    1    3    3    0    0  0.75362275436E+01 -0.22392477130E+01 -0.79579723568E+01  0.11186522257E+02  0.51100000000E-03 0.  1.
        -11    1    3    3    0    0  0.24805252360E+02 -0.14871949218E+01 -0.22708949727E+02  0.33663165201E+02  0.51100000000E-03 0. -1.
         12    1    3    3    0    0  0.79855689802E+00  0.97679317486E+00  0.28122847930E+00  0.12926358665E+01  0.00000000000E+00 0. -1.
</event>
<event>
 7    1  0.1476909E-008  0.4614232E+02  0.7816164E-02  0.1320468E+00
        -11   -1    0    0    0    0  0.00000000000E+00  0.00000000000E+00  0.45593999997E+02  0.45594000000E+02  0.51100000000E-03 0. -1.
         11   -1    0    0    0    0 -0.00000000000E+00 -0.00000000000E+00 -0.45593999997E+02  0.45594000000E+02  0.51100000000E-03 0.  1.
    9900012    2    1    2    0    0 -0.47184131340E+01 -0.42152505515E+02  0.15166291062E+02  0.46142317318E+02  0.99999959587E+01 0.  0.
        -12    1    1    2    0    0  0.47184131340E+01  0.42152505515E+02 -0.15166291062E+02  0.45045682682E+02  0.00000000000E+00 0.  1.
         11    1    3    3    0    0 -0.88962933519E+00 -0.41789592055E+01  0.33330350083E+01  0.54188802371E+01  0.51100000000E-03 0.  1.
        -11    1    3    3    0    0 -0.16370163383E+01 -0.15621706401E+01 -0.29682327420E+00  0.22821708783E+01  0.51100000000E-03 0. -1.
         12    1    3    3    0    0 -0.21917674606E+01 -0.36411375670E+02  0.12130079328E+02  0.38441266203E+02  0.00000000000E+00 0. -1.
</event>
<event>
 7    1  0.1476909E-008  0.4614232E+02  0.7816164E-02  0.1320468E+00
        -11   -1    0    0    0    0  0.00000000000E+00  0.00000000000E+00  0.45593999997E+02  0.45594000000E+02  0.51100000000E-03 0.  1.
         11   -1    0    0    0    0 -0.00000000000E+00 -0.00000000000E+00 -0.45593999997E+02  0.45594000000E+02  0.51100000000E-03 0. -1.
    9900012    2    1    2    0    0 -0.42570722822E+02  0.82888722785E+01 -0.12171346931E+02  0.46142317284E+02  0.99999956477E+01 0.  0.
        -12    1    1    2    0    0  0.42570722822E+02 -0.82888722785E+01  0.12171346931E+02  0.45045682716E+02  0.00000000000E+00 0.  1.
         11    1    3    3    0    0 -0.30702133905E+00 -0.55506435082E+00 -0.11660274107E+01  0.13273954648E+01  0.51100000000E-03 0. -1.
        -11    1    3    3    0    0 -0.93578295050E+01  0.20860735271E+01 -0.45301681398E+01  0.10603919060E+02  0.51100000000E-03 0.  1.
         12    1    3    3    0    0 -0.32905871978E+02  0.67578631023E+01 -0.64751513809E+01  0.34211002759E+02  0.00000000000E+00 0. -1.
</event>
<event>
 7    1  0.1476909E-008  0.4614232E+02  0.7816164E-02  0.1320468E+00
        -11   -1    0    0    0    0  0.00000000000E+00  0.00000000000E+00  0.45593999997E+02  0.45594000000E+02  0.51100000000E-03 0.  1.
         11   -1    0    0    0    0 -0.00000000000E+00 -0.00000000000E+00 -0.45593999997E+02  0.45594000000E+02  0.51100000000E-03 0. -1.
    9900012    2    1    2    0    0  0.58396223214E+01 -0.39120858443E+02 -0.21553904833E+02  0.46142316880E+02  0.99999919688E+01 0.  0.
        -12    1    1    2    0    0 -0.58396223214E+01  0.39120858443E+02  0.21553904833E+02  0.45045683120E+02  0.00000000000E+00 0.  1.
         11    1    3    3    0    0 -0.71908931918E-01 -0.22471001881E+01  0.61246684314E+00  0.23301815477E+01  0.51100000000E-03 0.  1.
        -11    1    3    3    0    0  0.28015641529E+01 -0.63308863700E+01 -0.57398406141E+01  0.89930336633E+01  0.51100000000E-03 0. -1.
        -12    1    3    3    0    0  0.31099671004E+01 -0.30542871885E+02 -0.16426531062E+02  0.34819101669E+02  0.00000000000E+00 0.  1.
</event>
<event>
 7    1  0.1476909E-008  0.4614232E+02  0.7816164E-02  0.1320468E+00
        -11   -1    0    0    0    0  0.00000000000E+00  0.00000000000E+00  0.45593999997E+02  0.45594000000E+02  0.51100000000E-03 0. -1.
         11   -1    0    0    0    0 -0.00000000000E+00 -0.00000000000E+00 -0.45593999997E+02  0.45594000000E+02  0.51100000000E-03 0.  1.
    9900012    2    1    2    0    0 -0.41123921261E+02  0.17546758671E+02 -0.54815904819E+01  0.46142317921E+02  0.10000001460E+02 0.  0.
        -12    1    1    2    0    0  0.41123921261E+02 -0.17546758671E+02  0.54815904819E+01  0.45045682079E+02  0.00000000000E+00 0.  1.
         11    1    3    3    0    0 -0.10630783957E+02  0.32945522355E+01  0.14618880547E+01  0.11225184137E+02  0.51100000000E-03 0. -1.
        -11    1    3    3    0    0 -0.17184274659E+02  0.47246288925E+01 -0.43516866179E+01  0.18345533255E+02  0.51100000000E-03 0.  1.
        -12    1    3    3    0    0 -0.13308862645E+02  0.95275775433E+01 -0.25917919186E+01  0.16571600529E+02  0.00000000000E+00 0.  1.
</event>
<event>
 7    1  0.1476909E-008  0.4614232E+02  0.7816164E-02  0.1320468E+00
        -11   -1    0    0    0    0  0.00000000000E+00  0.00000000000E+00  0.45593999997E+02  0.45594000000E+02  0.51100000000E-03 0. -1.
         11   -1    0    0    0    0 -0.00000000000E+00 -0.00000000000E+00 -0.45593999997E+02  0.45594000000E+02  0.51100000000E-03 0.  1.
    9900012    2    1    2    0    0 -0.21581972227E+02 -0.27383200775E+02  0.28521785765E+02  0.46142317930E+02  0.10000001540E+02 0.  0.
        -12    1    1    2    0    0  0.21581972227E+02  0.27383200775E+02 -0.28521785765E+02  0.45045682070E+02  0.00000000000E+00 0.  1.
         11    1    3    3    0    0 -0.65279539147E+01 -0.35003978038E+01  0.78888024256E+01  0.10821283245E+02  0.51100000000E-03 0. -1.
        -11    1    3    3    0    0 -0.11097450570E+02 -0.21061775940E+02  0.17298170788E+02  0.29427513108E+02  0.51100000000E-03 0.  1.
         12    1    3    3    0    0 -0.39565677431E+01 -0.28210270316E+01  0.33348125519E+01  0.58935215767E+01  0.00000000000E+00 0. -1.
</event>
<event>
 7    1  0.1476909E-008  0.4614232E+02  0.7816164E-02  0.1320468E+00
        -11   -1    0    0    0    0  0.00000000000E+00  0.00000000000E+00  0.45593999997E+02  0.45594000000E+02  0.51100000000E-03 0.  1.
         11   -1    0    0    0    0 -0.00000000000E+00 -0.00000000000E+00 -0.45593999997E+02  0.45594000000E+02  0.51100000000E-03 0. -1.
    9900012    2    1    2    0    0 -0.35860722890E+02  0.21287142081E+02 -0.17028787725E+02  0.46142317903E+02  0.10000001292E+02 0.  0.
        -12    1    1    2    0    0  0.35860722890E+02 -0.21287142081E+02  0.17028787725E+02  0.45045682097E+02  0.00000000000E+00 0.  1.
         11    1    3    3    0    0 -0.20574315718E+02  0.16522514963E+02 -0.13104381115E+02  0.29462192258E+02  0.51100000000E-03 0. -1.
        -11    1    3    3    0    0 -0.10359082406E+02  0.40841593336E+01 -0.18362902198E+01  0.11285517613E+02  0.51100000000E-03 0.  1.
         12    1    3    3    0    0 -0.49273247665E+01  0.68046778447E+00 -0.20881163898E+01  0.53946080319E+01  0.00000000000E+00 0. -1.
</event>
<event>
 7    1  0.1476909E-008  0.4614232E+02  0.7816164E-02  0.1320468E+00
        -11   -1    0    0    0    0  0.00000000000E+00  0.00000000000E+00  0.45593999997E+02  0.45594000000E+02  0.51100000000E-03 0.  1.
         11   -1    0    0    0    0 -0.00000000000E+00 -0.00000000000E+00 -0.45593999997E+02  0.45594000000E+02  0.51100000000E-03 0. -1.
    9900012    2    1    2    0    0 -0.21912344527E+02  0.31501929691E+02 -0.23592185077E+02  0.46142316370E+02  0.99999873169E+01 0.  0.
        -12    1    1    2    0    0  0.21912344527E+02 -0.31501929691E+02  0.23592185077E+02  0.45045683630E+02  0.00000000000E+00 0.  1.
         11    1    3    3    0    0 -0.98935537048E+01  0.15184302793E+02 -0.92801811226E+01  0.20360923804E+02  0.51100000000E-03 0. -1.
        -11    1    3    3    0    0 -0.12191334880E+02  0.14385742427E+02 -0.14563061425E+02  0.23825637235E+02  0.51100000000E-03 0.  1.
        -12    1    3    3    0    0  0.17254405758E+00  0.19318844716E+01  0.25105747022E+00  0.19557553315E+01  0.00000000000E+00 0.  1.
</event>
<event>
 7    1  0.1476909E-008  0.4614232E+02  0.7816164E-02  0.1320468E+00
        -11   -1    0    0    0    0  0.00000000000E+00  0.00000000000E+00  0.45593999997E+02  0.45594000000E+02  0.51100000000E-03 0.  1.
         11   -1    0    0    0    0 -0.00000000000E+00 -0.00000000000E+00 -0.45593999997E+02  0.45594000000E+02  0.51100000000E-03 0. -1.
    9900012    2    1    2    0    0 -0.56195502753E+01  0.93443735430E+01 -0.43706027193E+02  0.46142317907E+02  0.10000001330E+02 0.  0.
        -12    1    1    2    0    0  0.56195502753E+01 -0.93443735430E+01  0.43706027193E+02  0.45045682093E+02  0.00000000000E+00 0.  1.
         11    1    3    3    0    0  0.96576672447E+00  0.91432162021E+00 -0.13185409780E+02  0.13252310014E+02  0.51100000000E-03 0. -1.
        -11    1    3    3    0    0 -0.41851853954E+01  0.80641060757E+01 -0.18308088474E+02  0.20438485449E+02  0.51100000000E-03 0.  1.
        -12    1    3    3    0    0 -0.24001316044E+01  0.36594584716E+00 -0.12212528940E+02  0.12451522444E+02  0.00000000000E+00 0.  1.
</event>
<event>
 7    1  0.1476909E-008  0.4614232E+02  0.7816164E-02  0.1320468E+00
        -11   -1    0    0    0    0  0.00000000000E+00  0.00000000000E+00  0.45593999997E+02  0.45594000000E+02  0.51100000000E-03 0.  1.
         11   -1    0    0    0    0 -0.00000000000E+00 -0.00000000000E+00 -0.45593999997E+02  0.45594000000E+02  0.51100000000E-03 0. -1.
    9900012    2    1    2    0    0 -0.43018259048E+02 -0.88823871298E+01 -0.99822874406E+01  0.46142317907E+02  0.10000001330E+02 0.  0.
        -12    1    1    2    0    0  0.43018259048E+02  0.88823871298E+01  0.99822874406E+01  0.45045682093E+02  0.00000000000E+00 0.  1.
         11    1    3    3    0    0 -0.22197259631E+02 -0.43383497750E+01 -0.48049164377E+01  0.23121998965E+02  0.51100000000E-03 0. -1.
        -11    1    3    3    0    0 -0.41851997400E+01 -0.25095140573E+01 -0.38357212024E+01  0.62069569896E+01  0.51100000000E-03 0.  1.
        -12    1    3    3    0    0 -0.16635799677E+02 -0.20345232975E+01 -0.13416498004E+01  0.16813361952E+02  0.00000000000E+00 0.  1.
</event>
<event>
 7    1  0.1476909E-008  0.4614232E+02  0.7816164E-02  0.1320468E+00
        -11   -1    0    0    0    0  0.00000000000E+00  0.00000000000E+00  0.45593999997E+02  0.45594000000E+02  0.51100000000E-03 0.  1.
         11   -1    0    0    0    0 -0.00000000000E+00 -0.00000000000E+00 -0.45593999997E+02  0.45594000000E+02  0.51100000000E-03 0. -1.
    9900012    2    1    2    0    0  0.39110086275E+02 -0.18534362943E+02 -0.12489679298E+02  0.46142317109E+02  0.99999940546E+01 0.  0.
        -12    1    1    2    0    0 -0.39110086275E+02  0.18534362943E+02  0.12489679298E+02  0.45045682891E+02  0.00000000000E+00 0.  1.
         11    1    3    3    0    0  0.25808297021E+02 -0.13495287238E+02 -0.72002074565E+01  0.30000566002E+02  0.51100000000E-03 0. -1.
        -11    1    3    3    0    0  0.67063594314E+01 -0.86587784395E+00 -0.88205781300E-01  0.67626017023E+01  0.51100000000E-03 0.  1.
        -12    1    3    3    0    0  0.65954298233E+01 -0.41731978602E+01 -0.52012660600E+01  0.93791494050E+01  0.00000000000E+00 0.  1.
</event>
<event>
 7    1  0.1476909E-008  0.4614232E+02  0.7816164E-02  0.1320468E+00
        -11   -1    0    0    0    0  0.00000000000E+00  0.00000000000E+00  0.45593999997E+02  0.45594000000E+02  0.51100000000E-03 0. -1.
         11   -1    0    0    0    0 -0.00000000000E+00 -0.00000000000E+00 -0.45593999997E+02  0.45594000000E+02  0.51100000000E-03 0.  1.
    9900012    2    1    2    0    0 -0.29718660518E+01 -0.22976846322E+02  0.38630893155E+02  0.46142319178E+02  0.10000012922E+02 0.  0.
        -12    1    1    2    0    0  0.29718660518E+01  0.22976846322E+02 -0.38630893155E+02  0.45045680822E+02  0.00000000000E+00 0.  1.
         11    1    3    3    0    0 -0.19403658417E+01 -0.16321333558E+01  0.99307793921E+01  0.10249354052E+02  0.51100000000E-03 0. -1.
        -11    1    3    3    0    0  0.40903122160E+00 -0.14822560939E+02  0.20862555620E+02  0.25595348144E+02  0.51100000000E-03 0.  1.
         12    1    3    3    0    0 -0.14405314316E+01 -0.65221520270E+01  0.78375581430E+01  0.10297616982E+02  0.00000000000E+00 0. -1.
</event>
<event>
 7    1  0.1476909E-008  0.4614232E+02  0.7816164E-02  0.1320468E+00
        -11   -1    0    0    0    0  0.00000000000E+00  0.00000000000E+00  0.45593999997E+02  0.45594000000E+02  0.51100000000E-03 0.  1.
         11   -1    0    0    0    0 -0.00000000000E+00 -0.00000000000E+00 -0.45593999997E+02  0.45594000000E+02  0.51100000000E-03 0. -1.
    9900012    2    1    2    0    0 -0.19456464918E+02 -0.45673994737E+00 -0.40624509171E+02  0.46142318921E+02  0.10000010574E+02 0.  0.
        -12    1    1    2    0    0  0.19456464918E+02  0.45673994737E+00  0.40624509171E+02  0.45045681079E+02  0.00000000000E+00 0.  1.
         11    1    3    3    0    0 -0.80642127929E+01 -0.45714218059E+00 -0.89997134586E+01  0.12092780885E+02  0.51100000000E-03 0. -1.
        -11    1    3    3    0    0 -0.16797560355E+01 -0.10405018474E+01 -0.18255095809E+01  0.26901133665E+01  0.51100000000E-03 0.  1.
         12    1    3    3    0    0 -0.97124960897E+01  0.10409040806E+01 -0.29799286132E+02  0.31359424669E+02  0.00000000000E+00 0. -1.
</event>
<event>
 7    1  0.1476909E-008  0.4614232E+02  0.7816164E-02  0.1320468E+00
        -11   -1    0    0    0    0  0.00000000000E+00  0.00000000000E+00  0.45593999997E+02  0.45594000000E+02  0.51100000000E-03 0. -1.
         11   -1    0    0    0    0 -0.00000000000E+00 -0.00000000000E+00 -0.45593999997E+02  0.45594000000E+02  0.51100000000E-03 0.  1.
    9900012    2    1    2    0    0 -0.32182198185E+02  0.16460048283E+02  0.26879107411E+02  0.46142317801E+02  0.10000000366E+02 0.  0.
        -12    1    1    2    0    0  0.32182198185E+02 -0.16460048283E+02 -0.26879107411E+02  0.45045682199E+02  0.00000000000E+00 0.  1.
         11    1    3    3    0    0 -0.24758365451E+02  0.76458680152E+01  0.17472981616E+02  0.31252856579E+02  0.51100000000E-03 0. -1.
        -11    1    3    3    0    0 -0.52443358008E+01  0.60233988634E+01  0.61664562003E+01  0.10090073052E+02  0.51100000000E-03 0.  1.
         12    1    3    3    0    0 -0.21794969335E+01  0.27907814041E+01  0.32396695948E+01  0.47993881706E+01  0.00000000000E+00 0. -1.
</event>
<event>
 7    1  0.1476909E-008  0.4614232E+02  0.7816164E-02  0.1320468E+00
        -11   -1    0    0    0    0  0.00000000000E+00  0.00000000000E+00  0.45593999997E+02  0.45594000000E+02  0.51100000000E-03 0.  1.
         11   -1    0    0    0    0 -0.00000000000E+00 -0.00000000000E+00 -0.45593999997E+02  0.45594000000E+02  0.51100000000E-03 0. -1.
    9900012    2    1    2    0    0  0.27546364228E+02  0.25856115029E+01 -0.35547515080E+02  0.46142318771E+02  0.10000009208E+02 0.  0.
        -12    1    1    2    0    0 -0.27546364228E+02 -0.25856115029E+01  0.35547515080E+02  0.45045681229E+02  0.00000000000E+00 0.  1.
         11    1    3    3    0    0  0.23764675326E+01 -0.98274209380E+00 -0.28902628088E+01  0.38687206311E+01  0.51100000000E-03 0. -1.
        -11    1    3    3    0    0  0.25558599034E+02  0.31048162478E+01 -0.32753107125E+02  0.41661107704E+02  0.51100000000E-03 0.  1.
        -12    1    3    3    0    0 -0.38870233791E+00  0.46353734897E+00  0.95854854008E-01  0.61249043619E+00  0.00000000000E+00 0.  1.
</event>
<event>
 7    1  0.1476909E-008  0.4614233E+02  0.7816164E-02  0.1320468E+00
        -11   -1    0    0    0    0  0.00000000000E+00  0.00000000000E+00  0.45593999997E+02  0.45594000000E+02  0.51100000000E-03 0.  1.
         11   -1    0    0    0    0 -0.00000000000E+00 -0.00000000000E+00 -0.45593999997E+02  0.45594000000E+02  0.51100000000E-03 0. -1.
    9900012    2    1    2    0    0 -0.20665128115E+02 -0.28733029578E+02 -0.27865359711E+02  0.46142325618E+02  0.10000071642E+02 0.  0.
        -12    1    1    2    0    0  0.20665128115E+02  0.28733029578E+02  0.27865359711E+02  0.45045674382E+02  0.00000000000E+00 0.  1.
         11    1    3    3    0    0 -0.10946260233E+01 -0.46079302531E+01 -0.10032037386E+01  0.48412441945E+01  0.51100000000E-03 0.  1.
        -11    1    3    3    0    0 -0.16883430996E+02 -0.18954964164E+02 -0.20124907435E+02  0.32393715567E+02  0.51100000000E-03 0. -1.
        -12    1    3    3    0    0 -0.26870710953E+01 -0.51701351600E+01 -0.67372485373E+01  0.89073658562E+01  0.00000000000E+00 0.  1.
</event>
<event>
 7    1  0.1476909E-008  0.4614232E+02  0.7816164E-02  0.1320468E+00
        -11   -1    0    0    0    0  0.00000000000E+00  0.00000000000E+00  0.45593999997E+02  0.45594000000E+02  0.51100000000E-03 0.  1.
         11   -1    0    0    0    0 -0.00000000000E+00 -0.00000000000E+00 -0.45593999997E+02  0.45594000000E+02  0.51100000000E-03 0. -1.
    9900012    2    1    2    0    0 -0.27836813876E+02 -0.11886610761E+02 -0.33360661755E+02  0.46142317911E+02  0.10000001364E+02 0.  0.
        -12    1    1    2    0    0  0.27836813876E+02  0.11886610761E+02  0.33360661755E+02  0.45045682089E+02  0.00000000000E+00 0.  1.
         11    1    3    3    0    0 -0.14269419748E+02 -0.11174359502E+02 -0.20523363557E+02  0.27380487617E+02  0.51100000000E-03 0. -1.
        -11    1    3    3    0    0 -0.11444464519E+02 -0.11447499615E+01 -0.10479116204E+02  0.15559501832E+02  0.51100000000E-03 0.  1.
         12    1    3    3    0    0 -0.21229296089E+01  0.43249870231E+00 -0.23581819950E+01  0.32023284611E+01  0.00000000000E+00 0. -1.
</event>
<event>
 7    1  0.1476909E-008  0.4614232E+02  0.7816164E-02  0.1320468E+00
        -11   -1    0    0    0    0  0.00000000000E+00  0.00000000000E+00  0.45593999997E+02  0.45594000000E+02  0.51100000000E-03 0. -1.
         11   -1    0    0    0    0 -0.00000000000E+00 -0.00000000000E+00 -0.45593999997E+02  0.45594000000E+02  0.51100000000E-03 0.  1.
    9900012    2    1    2    0    0 -0.17384666775E+02  0.22288549269E+02  0.35072887624E+02  0.46142317480E+02  0.99999974395E+01 0.  0.
        -12    1    1    2    0    0  0.17384666775E+02 -0.22288549269E+02 -0.35072887624E+02  0.45045682520E+02  0.00000000000E+00 0.  1.
         11    1    3    3    0    0 -0.49495127383E+00  0.68617285699E+01  0.64992232332E+01  0.94640476872E+01  0.51100000000E-03 0. -1.
        -11    1    3    3    0    0 -0.12880960665E+01  0.68884865327E+00  0.26252016934E+01  0.30042283761E+01  0.51100000000E-03 0.  1.
         12    1    3    3    0    0 -0.15601619434E+02  0.14737972046E+02  0.25948462697E+02  0.33674041417E+02  0.00000000000E+00 0. -1.
</event>
<event>
 7    1  0.1476909E-008  0.4614232E+02  0.7816164E-02  0.1320468E+00
        -11   -1    0    0    0    0  0.00000000000E+00  0.00000000000E+00  0.45593999997E+02  0.45594000000E+02  0.51100000000E-03 0. -1.
         11   -1    0    0    0    0 -0.00000000000E+00 -0.00000000000E+00 -0.45593999997E+02  0.45594000000E+02  0.51100000000E-03 0.  1.
    9900012    2    1    2    0    0 -0.12746147718E+02  0.11728692725E+02  0.41582291245E+02  0.46142318077E+02  0.10000002880E+02 0.  0.
        -12    1    1    2    0    0  0.12746147718E+02 -0.11728692725E+02 -0.41582291245E+02  0.45045681923E+02  0.00000000000E+00 0.  1.
         11    1    3    3    0    0 -0.45896312198E+01  0.75685837921E+01  0.14159193165E+02  0.16698231245E+02  0.51100000000E-03 0. -1.
        -11    1    3    3    0    0 -0.47343591253E+01 -0.65047153845E-01  0.82206034621E+01  0.94866595281E+01  0.51100000000E-03 0.  1.
         12    1    3    3    0    0 -0.34221573733E+01  0.42251560871E+01  0.19202494618E+02  0.19957427304E+02  0.00000000000E+00 0. -1.
</event>
<event>
 7    1  0.1476909E-008  0.4614232E+02  0.7816164E-02  0.1320468E+00
        -11   -1    0    0    0    0  0.00000000000E+00  0.00000000000E+00  0.45593999997E+02  0.45594000000E+02  0.51100000000E-03 0. -1.
         11   -1    0    0    0    0 -0.00000000000E+00 -0.00000000000E+00 -0.45593999997E+02  0.45594000000E+02  0.51100000000E-03 0.  1.
    9900012    2    1    2    0    0 -0.24894269584E+02 -0.20458723621E+02  0.31477442826E+02  0.46142318329E+02  0.10000005178E+02 0.  0.
        -12    1    1    2    0    0  0.24894269584E+02  0.20458723621E+02 -0.31477442826E+02  0.45045681671E+02  0.00000000000E+00 0.  1.
         11    1    3    3    0    0 -0.10250907026E+00 -0.87553593496E+00  0.34321129009E+01  0.35435110426E+01  0.51100000000E-03 0.  1.
        -11    1    3    3    0    0 -0.13621162302E+02 -0.74026279134E+01  0.14560078102E+02  0.21268070836E+02  0.51100000000E-03 0. -1.
        -12    1    3    3    0    0 -0.11170598212E+02 -0.12180559773E+02  0.13485251823E+02  0.21330736450E+02  0.00000000000E+00 0.  1.
</event>
<event>
 7    1  0.1476909E-008  0.4614232E+02  0.7816164E-02  0.1320468E+00
        -11   -1    0    0    0    0  0.00000000000E+00  0.00000000000E+00  0.45593999997E+02  0.45594000000E+02  0.51100000000E-03 0. -1.
         11   -1    0    0    0    0 -0.00000000000E+00 -0.00000000000E+00 -0.45593999997E+02  0.45594000000E+02  0.51100000000E-03 0.  1.
    9900012    2    1    2    0    0  0.20277938155E+02  0.35345007313E+00  0.40221806921E+02  0.46142318134E+02  0.10000003397E+02 0.  0.
        -12    1    1    2    0    0 -0.20277938155E+02 -0.35345007313E+00 -0.40221806921E+02  0.45045681866E+02  0.00000000000E+00 0.  1.
         11    1    3    3    0    0  0.11984689184E+02  0.12706263428E-01  0.13570250628E+02  0.18104823629E+02  0.51100000000E-03 0. -1.
        -11    1    3    3    0    0  0.41245483485E+01 -0.96805767439E+00  0.15244595020E+02  0.15822348508E+02  0.51100000000E-03 0.  1.
        -12    1    3    3    0    0  0.41687006230E+01  0.13088014841E+01  0.11406961274E+02  0.12215145996E+02  0.00000000000E+00 0.  1.
</event>
<event>
 7    1  0.1476909E-008  0.4614232E+02  0.7816164E-02  0.1320468E+00
        -11   -1    0    0    0    0  0.00000000000E+00  0.00000000000E+00  0.45593999997E+02  0.45594000000E+02  0.51100000000E-03 0.  1.
         11   -1    0    0    0    0 -0.00000000000E+00 -0.00000000000E+00 -0.45593999997E+02  0.45594000000E+02  0.51100000000E-03 0. -1.
    9900012    2    1    2    0    0 -0.25396729364E+02 -0.50843243200E+01 -0.36854706391E+02  0.46142316530E+02  0.99999887693E+01 0.  0.
        -12    1    1    2    0    0  0.25396729364E+02  0.50843243200E+01  0.36854706391E+02  0.45045683470E+02  0.00000000000E+00 0.  1.
         11    1    3    3    0    0 -0.24335413946E+01 -0.78718725233E+00 -0.93743763143E+01  0.97170324190E+01  0.51100000000E-03 0. -1.
        -11    1    3    3    0    0 -0.19968281275E+02 -0.54481544410E+01 -0.23622358421E+02  0.31407490532E+02  0.51100000000E-03 0.  1.
        -12    1    3    3    0    0 -0.29949066947E+01  0.11510173733E+01 -0.38579716552E+01  0.50177935784E+01  0.00000000000E+00 0.  1.
</event>
<event>
 7    1  0.1476909E-008  0.4614232E+02  0.7816164E-02  0.1320468E+00
        -11   -1    0    0    0    0  0.00000000000E+00  0.00000000000E+00  0.45593999997E+02  0.45594000000E+02  0.51100000000E-03 0.  1.
         11   -1    0    0    0    0 -0.00000000000E+00 -0.00000000000E+00 -0.45593999997E+02  0.45594000000E+02  0.51100000000E-03 0. -1.
    9900012    2    1    2    0    0 -0.11359702165E+02  0.36550476932E+02 -0.23751490644E+02  0.46142317576E+02  0.99999983079E+01 0.  0.
        -12    1    1    2    0    0  0.11359702165E+02 -0.36550476932E+02  0.23751490644E+02  0.45045682424E+02  0.00000000000E+00 0.  1.
         11    1    3    3    0    0 -0.11690023889E+02  0.32293469112E+02 -0.21142830432E+02  0.40330436208E+02  0.51100000000E-03 0. -1.
        -11    1    3    3    0    0  0.56945532774E+00  0.46636585685E+01 -0.25214424354E+01  0.53321349223E+01  0.51100000000E-03 0.  1.
         12    1    3    3    0    0 -0.23913360446E+00 -0.40665074771E+00 -0.87217777048E-01  0.47974644556E+00  0.00000000000E+00 0. -1.
</event>
<event>
 7    1  0.1476909E-008  0.4614232E+02  0.7816164E-02  0.1320468E+00
        -11   -1    0    0    0    0  0.00000000000E+00  0.00000000000E+00  0.45593999997E+02  0.45594000000E+02  0.51100000000E-03 0.  1.
         11   -1    0    0    0    0 -0.00000000000E+00 -0.00000000000E+00 -0.45593999997E+02  0.45594000000E+02  0.51100000000E-03 0. -1.
    9900012    2    1    2    0    0 -0.79371657233E+01  0.20073080947E+02 -0.39537145050E+02  0.46142322992E+02  0.10000047698E+02 0.  0.
        -12    1    1    2    0    0  0.79371657233E+01 -0.20073080947E+02  0.39537145050E+02  0.45045677008E+02  0.00000000000E+00 0.  1.
         11    1    3    3    0    0  0.32849507829E+00  0.47835082261E+01 -0.14086224367E+02  0.14879905146E+02  0.51100000000E-03 0. -1.
        -11    1    3    3    0    0 -0.20022022886E+01  0.54309516875E+00 -0.37835910610E+01  0.43150119287E+01  0.51100000000E-03 0.  1.
         12    1    3    3    0    0 -0.62634585129E+01  0.14746477552E+02 -0.21667329622E+02  0.26947405917E+02  0.00000000000E+00 0. -1.
</event>
<event>
 7    1  0.1476909E-008  0.4614232E+02  0.7816164E-02  0.1320468E+00
        -11   -1    0    0    0    0  0.00000000000E+00  0.00000000000E+00  0.45593999997E+02  0.45594000000E+02  0.51100000000E-03 0.  1.
         11   -1    0    0    0    0 -0.00000000000E+00 -0.00000000000E+00 -0.45593999997E+02  0.45594000000E+02  0.51100000000E-03 0. -1.
    9900012    2    1    2    0    0  0.23837012830E+02 -0.14079807591E+02 -0.35534058428E+02  0.46142317956E+02  0.10000001779E+02 0.  0.
        -12    1    1    2    0    0 -0.23837012830E+02  0.14079807591E+02  0.35534058428E+02  0.45045682044E+02  0.00000000000E+00 0.  1.
         11    1    3    3    0    0  0.61855106591E+01 -0.53278394238E+01 -0.78133674110E+01  0.11300226794E+02  0.51100000000E-03 0. -1.
        -11    1    3    3    0    0  0.11910575356E+01 -0.12976631519E+01 -0.11188355813E-01  0.17614406460E+01  0.51100000000E-03 0.  1.
        -12    1    3    3    0    0  0.16460444635E+02 -0.74543050150E+01 -0.27709502661E+02  0.33080650516E+02  0.00000000000E+00 0.  1.
</event>
<event>
 7    1  0.1476909E-008  0.4614232E+02  0.7816164E-02  0.1320468E+00
        -11   -1    0    0    0    0  0.00000000000E+00  0.00000000000E+00  0.45593999997E+02  0.45594000000E+02  0.51100000000E-03 0.  1.
         11   -1    0    0    0    0 -0.00000000000E+00 -0.00000000000E+00 -0.45593999997E+02  0.45594000000E+02  0.51100000000E-03 0. -1.
    9900012    2    1    2    0    0 -0.12394784903E+02 -0.42875497099E+02  0.60970901426E+01  0.46142318159E+02  0.10000003632E+02 0.  0.
        -12    1    1    2    0    0  0.12394784903E+02  0.42875497099E+02 -0.60970901426E+01  0.45045681841E+02  0.00000000000E+00 0.  1.
         11    1    3    3    0    0  0.44387867092E+00 -0.59514259868E+00  0.11735926861E+01  0.13887199290E+01  0.51100000000E-03 0. -1.
        -11    1    3    3    0    0  0.41968642162E+00 -0.19467554133E+01  0.58524636106E+00  0.20756943166E+01  0.51100000000E-03 0.  1.
         12    1    3    3    0    0 -0.13258349996E+02 -0.40333599087E+02  0.43382510954E+01  0.42677903914E+02  0.00000000000E+00 0. -1.
</event>
<event>
 7    1  0.1476909E-008  0.4614232E+02  0.7816164E-02  0.1320468E+00
        -11   -1    0    0    0    0  0.00000000000E+00  0.00000000000E+00  0.45593999997E+02  0.45594000000E+02  0.51100000000E-03 0.  1.
         11   -1    0    0    0    0 -0.00000000000E+00 -0.00000000000E+00 -0.45593999997E+02  0.45594000000E+02  0.51100000000E-03 0. -1.
    9900012    2    1    2    0    0 -0.67606964173E+01 -0.23461928575E+02 -0.37854254364E+02  0.46142315612E+02  0.99999804055E+01 0.  0.
        -12    1    1    2    0    0  0.67606964173E+01  0.23461928575E+02  0.37854254364E+02  0.45045684388E+02  0.00000000000E+00 0.  1.
         11    1    3    3    0    0 -0.68666668234E+01 -0.10728835019E+02 -0.15407906934E+02  0.19991563483E+02  0.51100000000E-03 0. -1.
        -11    1    3    3    0    0  0.15271683272E+01 -0.52015820708E+01 -0.12241907450E+02  0.13388539779E+02  0.51100000000E-03 0.  1.
         12    1    3    3    0    0 -0.14211979211E+01 -0.75315114849E+01 -0.10204439980E+02  0.12762212351E+02  0.00000000000E+00 0. -1.
</event>
<event>
 7    1  0.1476909E-008  0.4614232E+02  0.7816164E-02  0.1320468E+00
        -11   -1    0    0    0    0  0.00000000000E+00  0.00000000000E+00  0.45593999997E+02  0.45594000000E+02  0.51100000000E-03 0.  1.
         11   -1    0    0    0    0 -0.00000000000E+00 -0.00000000000E+00 -0.45593999997E+02  0.45594000000E+02  0.51100000000E-03 0. -1.
    9900012    2    1    2    0    0  0.19956711566E+02 -0.38207986813E+02 -0.13076430018E+02  0.46142316357E+02  0.99999871946E+01 0.  0.
        -12    1    1    2    0    0 -0.19956711566E+02  0.38207986813E+02  0.13076430018E+02  0.45045683643E+02  0.00000000000E+00 0.  1.
         11    1    3    3    0    0  0.79567147586E+01 -0.18401332555E+02 -0.97366699169E+01  0.22287240540E+02  0.51100000000E-03 0. -1.
        -11    1    3    3    0    0  0.63242479702E+01 -0.13764673417E+02 -0.35666443627E+01  0.15562239522E+02  0.51100000000E-03 0.  1.
         12    1    3    3    0    0  0.56757488374E+01 -0.60419808417E+01  0.22688426113E+00  0.82928362955E+01  0.00000000000E+00 0. -1.
</event>
<event>
 7    1  0.1476909E-008  0.4614232E+02  0.7816164E-02  0.1320468E+00
        -11   -1    0    0    0    0  0.00000000000E+00  0.00000000000E+00  0.45593999997E+02  0.45594000000E+02  0.51100000000E-03 0.  1.
         11   -1    0    0    0    0 -0.00000000000E+00 -0.00000000000E+00 -0.45593999997E+02  0.45594000000E+02  0.51100000000E-03 0. -1.
    9900012    2    1    2    0    0  0.20265620448E+02  0.44904115186E+01 -0.39978173334E+02  0.46142317512E+02  0.99999977254E+01 0.  0.
        -12    1    1    2    0    0 -0.20265620448E+02 -0.44904115186E+01  0.39978173334E+02  0.45045682488E+02  0.00000000000E+00 0.  1.
         11    1    3    3    0    0  0.95426131619E+01  0.36560960130E+01 -0.21363316504E+02  0.23681634157E+02  0.51100000000E-03 0. -1.
        -11    1    3    3    0    0  0.85185671612E+01 -0.20077607507E+00 -0.84210372998E+01  0.11979990275E+02  0.51100000000E-03 0.  1.
         12    1    3    3    0    0  0.22044401251E+01  0.10350915807E+01 -0.10193819530E+02  0.10480693080E+02  0.00000000000E+00 0. -1.
</event>
<event>
 7    1  0.1476909E-008  0.4614232E+02  0.7816164E-02  0.1320468E+00
        -11   -1    0    0    0    0  0.00000000000E+00  0.00000000000E+00  0.45593999997E+02  0.45594000000E+02  0.51100000000E-03 0.  1.
         11   -1    0    0    0    0 -0.00000000000E+00 -0.00000000000E+00 -0.45593999997E+02  0.45594000000E+02  0.51100000000E-03 0. -1.
    9900012    2    1    2    0    0  0.18686306375E+02 -0.61356789303E+01 -0.40525162621E+02  0.46142318661E+02  0.10000008203E+02 0.  0.
        -12    1    1    2    0    0 -0.18686306375E+02  0.61356789303E+01  0.40525162621E+02  0.45045681339E+02  0.00000000000E+00 0.  1.
         11    1    3    3    0    0  0.78928631268E+01 -0.50639102636E+01 -0.25147328471E+02  0.26838938224E+02  0.51100000000E-03 0.  1.
        -11    1    3    3    0    0  0.97130106365E+01 -0.23441143770E+01 -0.13403698977E+02  0.16718151643E+02  0.51100000000E-03 0. -1.
        -12    1    3    3    0    0  0.10804326118E+01  0.12723457102E+01 -0.19741351731E+01  0.25852287939E+01  0.00000000000E+00 0.  1.
</event>
<event>
 7    1  0.1476909E-008  0.4614232E+02  0.7816164E-02  0.1320468E+00
        -11   -1    0    0    0    0  0.00000000000E+00  0.00000000000E+00  0.45593999997E+02  0.45594000000E+02  0.51100000000E-03 0. -1.
         11   -1    0    0    0    0 -0.00000000000E+00 -0.00000000000E+00 -0.45593999997E+02  0.45594000000E+02  0.51100000000E-03 0.  1.
    9900012    2    1    2    0    0  0.58909221462E+01 -0.23474846149E+02 -0.37991342817E+02  0.46142317693E+02  0.99999993762E+01 0.  0.
        -12    1    1    2    0    0 -0.58909221462E+01  0.23474846149E+02  0.37991342817E+02  0.45045682307E+02  0.00000000000E+00 0.  1.
         11    1    3    3    0    0 -0.67381224005E+00 -0.66359580128E+01 -0.85685316737E+01  0.10858623163E+02  0.51100000000E-03 0. -1.
        -11    1    3    3    0    0  0.16806251815E+01 -0.13300665929E+02 -0.21272383267E+02  0.25144512429E+02  0.51100000000E-03 0.  1.
        -12    1    3    3    0    0  0.48841092048E+01 -0.35382222073E+01 -0.81504278766E+01  0.10139182101E+02  0.00000000000E+00 0.  1.
</event>
<event>
 7    1  0.1476909E-008  0.4614232E+02  0.7816164E-02  0.1320468E+00
        -11   -1    0    0    0    0  0.00000000000E+00  0.00000000000E+00  0.45593999997E+02  0.45594000000E+02  0.51100000000E-03 0.  1.
         11   -1    0    0    0    0 -0.00000000000E+00 -0.00000000000E+00 -0.45593999997E+02  0.45594000000E+02  0.51100000000E-03 0. -1.
    9900012    2    1    2    0    0  0.43117923876E+02 -0.10753596242E+02  0.73701006127E+01  0.46142316804E+02  0.99999912739E+01 0.  0.
        -12    1    1    2    0    0 -0.43117923876E+02  0.10753596242E+02 -0.73701006127E+01  0.45045683196E+02  0.00000000000E+00 0.  1.
         11    1    3    3    0    0  0.13056855020E+02 -0.66035172528E+01 -0.28758083422E+00  0.14634568874E+02  0.51100000000E-03 0. -1.
        -11    1    3    3    0    0  0.69903960623E+01  0.42652884446E+00  0.24350894793E+01  0.74146628377E+01  0.51100000000E-03 0.  1.
         12    1    3    3    0    0  0.23070672794E+02 -0.45766078335E+01  0.52225919676E+01  0.24093085092E+02  0.00000000000E+00 0. -1.
</event>
<event>
 7    1  0.1476909E-008  0.4614232E+02  0.7816164E-02  0.1320468E+00
        -11   -1    0    0    0    0  0.00000000000E+00  0.00000000000E+00  0.45593999997E+02  0.45594000000E+02  0.51100000000E-03 0.  1.
         11   -1    0    0    0    0 -0.00000000000E+00 -0.00000000000E+00 -0.45593999997E+02  0.45594000000E+02  0.51100000000E-03 0. -1.
    9900012    2    1    2    0    0  0.40103172213E+02 -0.28534575160E+01 -0.20315188386E+02  0.46142317405E+02  0.99999967487E+01 0.  0.
        -12    1    1    2    0    0 -0.40103172213E+02  0.28534575160E+01  0.20315188386E+02  0.45045682595E+02  0.00000000000E+00 0.  1.
         11    1    3    3    0    0  0.15937322772E+01 -0.36905055576E+00 -0.27277606676E+01  0.31807010870E+01  0.51100000000E-03 0. -1.
        -11    1    3    3    0    0  0.23064832734E+02 -0.48538678547E+01 -0.10399678188E+02  0.25762372733E+02  0.51100000000E-03 0.  1.
        -12    1    3    3    0    0  0.15444607202E+02  0.23694608944E+01 -0.71877495301E+01  0.17199243584E+02  0.00000000000E+00 0.  1.
</event>
<event>
 7    1  0.1476909E-008  0.4614232E+02  0.7816164E-02  0.1320468E+00
        -11   -1    0    0    0    0  0.00000000000E+00  0.00000000000E+00  0.45593999997E+02  0.45594000000E+02  0.51100000000E-03 0.  1.
         11   -1    0    0    0    0 -0.00000000000E+00 -0.00000000000E+00 -0.45593999997E+02  0.45594000000E+02  0.51100000000E-03 0. -1.
    9900012    2    1    2    0    0 -0.40157508887E+02  0.10749830843E+02 -0.17347304086E+02  0.46142319383E+02  0.10000014793E+02 0.  0.
        -12    1    1    2    0    0  0.40157508887E+02 -0.10749830843E+02  0.17347304086E+02  0.45045680617E+02  0.00000000000E+00 0.  1.
         11    1    3    3    0    0 -0.43760568639E+01  0.58155596503E+00  0.21848038771E+00  0.44199338183E+01  0.51100000000E-03 0.  1.
        -11    1    3    3    0    0 -0.30677773683E+02  0.80691728772E+01 -0.12086838994E+02  0.33945972164E+02  0.51100000000E-03 0. -1.
         12    1    3    3    0    0 -0.51036783404E+01  0.20991020011E+01 -0.54789454796E+01  0.77764134009E+01  0.00000000000E+00 0. -1.
</event>
<event>
 7    1  0.1476909E-008  0.4614232E+02  0.7816164E-02  0.1320468E+00
        -11   -1    0    0    0    0  0.00000000000E+00  0.00000000000E+00  0.45593999997E+02  0.45594000000E+02  0.51100000000E-03 0.  1.
         11   -1    0    0    0    0 -0.00000000000E+00 -0.00000000000E+00 -0.45593999997E+02  0.45594000000E+02  0.51100000000E-03 0. -1.
    9900012    2    1    2    0    0 -0.33315737098E+01 -0.29400359172E+02 -0.33965173126E+02  0.46142317762E+02  0.10000000006E+02 0.  0.
        -12    1    1    2    0    0  0.33315737098E+01  0.29400359172E+02  0.33965173126E+02  0.45045682238E+02  0.00000000000E+00 0.  1.
         11    1    3    3    0    0  0.72381899574E+00 -0.50010855167E+01 -0.86274615563E+01  0.99983930434E+01  0.51100000000E-03 0. -1.
        -11    1    3    3    0    0 -0.34387856545E+01 -0.22025562554E+02 -0.25260238897E+02  0.33690211070E+02  0.51100000000E-03 0.  1.
        -12    1    3    3    0    0 -0.61660705100E+00 -0.23737111021E+01 -0.77472672710E-01  0.24537136480E+01  0.00000000000E+00 0.  1.
</event>
<event>
 7    1  0.1476909E-008  0.4614232E+02  0.7816164E-02  0.1320468E+00
        -11   -1    0    0    0    0  0.00000000000E+00  0.00000000000E+00  0.45593999997E+02  0.45594000000E+02  0.51100000000E-03 0.  1.
         11   -1    0    0    0    0 -0.00000000000E+00 -0.00000000000E+00 -0.45593999997E+02  0.45594000000E+02  0.51100000000E-03 0. -1.
    9900012    2    1    2    0    0 -0.39190562589E+02  0.10218135757E+02 -0.19718088032E+02  0.46142317743E+02  0.99999998338E+01 0.  0.
        -12    1    1    2    0    0  0.39190562589E+02 -0.10218135757E+02  0.19718088032E+02  0.45045682257E+02  0.00000000000E+00 0.  1.
         11    1    3    3    0    0 -0.68288009559E+01  0.97045253262E+00 -0.44037692800E+00  0.69114566274E+01  0.51100000000E-03 0. -1.
        -11    1    3    3    0    0 -0.99125166213E+01  0.13459663907E+00 -0.62958229164E+01  0.11743657372E+02  0.51100000000E-03 0.  1.
         12    1    3    3    0    0 -0.22449245012E+02  0.91130865855E+01 -0.12981888187E+02  0.27487203743E+02  0.00000000000E+00 0. -1.
</event>
<event>
 7    1  0.1476909E-008  0.4614232E+02  0.7816164E-02  0.1320468E+00
        -11   -1    0    0    0    0  0.00000000000E+00  0.00000000000E+00  0.45593999997E+02  0.45594000000E+02  0.51100000000E-03 0.  1.
         11   -1    0    0    0    0 -0.00000000000E+00 -0.00000000000E+00 -0.45593999997E+02  0.45594000000E+02  0.51100000000E-03 0. -1.
    9900012    2    1    2    0    0 -0.16021725960E+02  0.30064167790E+02 -0.29471403340E+02  0.46142317605E+02  0.99999985755E+01 0.  0.
        -12    1    1    2    0    0  0.16021725960E+02 -0.30064167790E+02  0.29471403340E+02  0.45045682395E+02  0.00000000000E+00 0.  1.
         11    1    3    3    0    0 -0.58368852415E+01  0.75880690855E+01 -0.49970480993E+01  0.10799005127E+02  0.51100000000E-03 0. -1.
        -11    1    3    3    0    0  0.67964522054E+00  0.28297067802E+01 -0.17320227599E+01  0.33866002406E+01  0.51100000000E-03 0.  1.
         12    1    3    3    0    0 -0.10864485939E+02  0.19646391924E+02 -0.22742332481E+02  0.31956712237E+02  0.00000000000E+00 0. -1.
</event>
<event>
 7    1  0.1476909E-008  0.4614232E+02  0.7816164E-02  0.1320468E+00
        -11   -1    0    0    0    0  0.00000000000E+00  0.00000000000E+00  0.45593999997E+02  0.45594000000E+02  0.51100000000E-03 0. -1.
         11   -1    0    0    0    0 -0.00000000000E+00 -0.00000000000E+00 -0.45593999997E+02  0.45594000000E+02  0.51100000000E-03 0.  1.
    9900012    2    1    2    0    0 -0.42061735407E+02 -0.84538674189E+01 -0.13727930827E+02  0.46142317137E+02  0.99999943106E+01 0.  0.
        -12    1    1    2    0    0  0.42061735407E+02  0.84538674189E+01  0.13727930827E+02  0.45045682863E+02  0.00000000000E+00 0.  1.
         11    1    3    3    0    0 -0.22152762354E+02 -0.61785573830E+01 -0.10781054674E+02  0.25399814790E+02  0.51100000000E-03 0. -1.
        -11    1    3    3    0    0 -0.16280422792E+02 -0.16667534200E+01 -0.41284119105E+01  0.16878211351E+02  0.51100000000E-03 0.  1.
        -12    1    3    3    0    0 -0.36285502611E+01 -0.60855661588E+00  0.11815357576E+01  0.38642909956E+01  0.00000000000E+00 0.  1.
</event>
<event>
 7    1  0.1476909E-008  0.4614232E+02  0.7816164E-02  0.1320468E+00
        -11   -1    0    0    0    0  0.00000000000E+00  0.00000000000E+00  0.45593999997E+02  0.45594000000E+02  0.51100000000E-03 0. -1.
         11   -1    0    0    0    0 -0.00000000000E+00 -0.00000000000E+00 -0.45593999997E+02  0.45594000000E+02  0.51100000000E-03 0.  1.
    9900012    2    1    2    0    0 -0.37380076275E+01  0.19776164315E+02  0.40299431635E+02  0.46142316898E+02  0.99999921260E+01 0.  0.
        -12    1    1    2    0    0  0.37380076275E+01 -0.19776164315E+02 -0.40299431635E+02  0.45045683102E+02  0.00000000000E+00 0.  1.
         11    1    3    3    0    0 -0.11942431218E+01  0.51278570502E+01  0.11034534215E+02  0.12226286442E+02  0.51100000000E-03 0. -1.
        -11    1    3    3    0    0 -0.40443950353E+01  0.12489261915E+02  0.17590095486E+02  0.21948809850E+02  0.51100000000E-03 0.  1.
        -12    1    3    3    0    0  0.15006305297E+01  0.21590453499E+01  0.11674801934E+02  0.11967220605E+02  0.00000000000E+00 0.  1.
</event>
<event>
 7    1  0.1476909E-008  0.4614232E+02  0.7816164E-02  0.1320468E+00
        -11   -1    0    0    0    0  0.00000000000E+00  0.00000000000E+00  0.45593999997E+02  0.45594000000E+02  0.51100000000E-03 0.  1.
         11   -1    0    0    0    0 -0.00000000000E+00 -0.00000000000E+00 -0.45593999997E+02  0.45594000000E+02  0.51100000000E-03 0. -1.
    9900012    2    1    2    0    0  0.23927741211E+02 -0.32790419869E+02  0.19528570255E+02  0.46142317734E+02  0.99999997502E+01 0.  0.
        -12    1    1    2    0    0 -0.23927741211E+02  0.32790419869E+02 -0.19528570255E+02  0.45045682266E+02  0.00000000000E+00 0.  1.
         11    1    3    3    0    0  0.15713479821E+02 -0.27090176369E+02  0.13208566892E+02  0.33989076825E+02  0.51100000000E-03 0. -1.
        -11    1    3    3    0    0  0.72112025156E+01 -0.53466214774E+01  0.44916936868E+01  0.10038083252E+02  0.51100000000E-03 0.  1.
         12    1    3    3    0    0  0.10030588741E+01 -0.35362202240E+00  0.18283096766E+01  0.21151576568E+01  0.00000000000E+00 0. -1.
</event>
<event>
 7    1  0.1476909E-008  0.4614232E+02  0.7816164E-02  0.1320468E+00
        -11   -1    0    0    0    0  0.00000000000E+00  0.00000000000E+00  0.45593999997E+02  0.45594000000E+02  0.51100000000E-03 0.  1.
         11   -1    0    0    0    0 -0.00000000000E+00 -0.00000000000E+00 -0.45593999997E+02  0.45594000000E+02  0.51100000000E-03 0. -1.
    9900012    2    1    2    0    0 -0.23830858840E+02 -0.23062966329E+02 -0.30484478094E+02  0.46142315927E+02  0.99999832727E+01 0.  0.
        -12    1    1    2    0    0  0.23830858840E+02  0.23062966329E+02  0.30484478094E+02  0.45045684073E+02  0.00000000000E+00 0.  1.
         11    1    3    3    0    0 -0.12268868085E+02 -0.71588961647E+01 -0.90121537707E+01  0.16822420582E+02  0.51100000000E-03 0.  1.
        -11    1    3    3    0    0 -0.11072395494E+02 -0.13344647033E+02 -0.18220851307E+02  0.25153070767E+02  0.51100000000E-03 0. -1.
        -12    1    3    3    0    0 -0.48959526127E+00 -0.25594231318E+01 -0.32514730159E+01  0.41668245776E+01  0.00000000000E+00 0.  1.
</event>
<event>
 7    1  0.1476909E-008  0.4614232E+02  0.7816164E-02  0.1320468E+00
        -11   -1    0    0    0    0  0.00000000000E+00  0.00000000000E+00  0.45593999997E+02  0.45594000000E+02  0.51100000000E-03 0. -1.
         11   -1    0    0    0    0 -0.00000000000E+00 -0.00000000000E+00 -0.45593999997E+02  0.45594000000E+02  0.51100000000E-03 0.  1.
    9900012    2    1    2    0    0 -0.11852002674E+02 -0.12497308302E+02  0.41622837959E+02  0.46142319608E+02  0.10000016843E+02 0.  0.
        -12    1    1    2    0    0  0.11852002674E+02  0.12497308302E+02 -0.41622837959E+02  0.45045680392E+02  0.00000000000E+00 0.  1.
         11    1    3    3    0    0 -0.51167888110E+01 -0.64161922691E+01  0.28050062764E+02  0.29225931504E+02  0.51100000000E-03 0. -1.
        -11    1    3    3    0    0 -0.73324077952E+00 -0.32408342267E+01  0.58828848415E+01  0.67564030996E+01  0.51100000000E-03 0.  1.
         12    1    3    3    0    0 -0.60019730835E+01 -0.28402818063E+01  0.76898903537E+01  0.10159985004E+02  0.00000000000E+00 0. -1.
</event>
<event>
 7    1  0.1476909E-008  0.4614232E+02  0.7816164E-02  0.1320468E+00
        -11   -1    0    0    0    0  0.00000000000E+00  0.00000000000E+00  0.45593999997E+02  0.45594000000E+02  0.51100000000E-03 0. -1.
         11   -1    0    0    0    0 -0.00000000000E+00 -0.00000000000E+00 -0.45593999997E+02  0.45594000000E+02  0.51100000000E-03 0.  1.
    9900012    2    1    2    0    0 -0.24850627338E+02 -0.34878773396E+02  0.13965349488E+02  0.46142317643E+02  0.99999989190E+01 0.  0.
        -12    1    1    2    0    0  0.24850627338E+02  0.34878773396E+02 -0.13965349488E+02  0.45045682357E+02  0.00000000000E+00 0.  1.
         11    1    3    3    0    0 -0.15574983543E+02 -0.20528185472E+02  0.70284784249E+01  0.26709287156E+02  0.51100000000E-03 0. -1.
        -11    1    3    3    0    0 -0.48919057626E+01 -0.12430554692E+02  0.48439212781E+01  0.14209609620E+02  0.51100000000E-03 0.  1.
         12    1    3    3    0    0 -0.43837380320E+01 -0.19200332322E+01  0.20929497855E+01  0.52234208667E+01  0.00000000000E+00 0. -1.
</event>
<event>
 7    1  0.1476909E-008  0.4614232E+02  0.7816164E-02  0.1320468E+00
        -11   -1    0    0    0    0  0.00000000000E+00  0.00000000000E+00  0.45593999997E+02  0.45594000000E+02  0.51100000000E-03 0.  1.
         11   -1    0    0    0    0 -0.00000000000E+00 -0.00000000000E+00 -0.45593999997E+02  0.45594000000E+02  0.51100000000E-03 0. -1.
    9900012    2    1    2    0    0  0.25163420887E+02 -0.12286110527E+01 -0.37341749674E+02  0.46142317581E+02  0.99999983600E+01 0.  0.
        -12    1    1    2    0    0 -0.25163420887E+02  0.12286110527E+01  0.37341749674E+02  0.45045682419E+02  0.00000000000E+00 0.  1.
         11    1    3    3    0    0  0.30599470778E+01 -0.30703221010E+01 -0.62959977973E+01  0.76439350107E+01  0.51100000000E-03 0. -1.
        -11    1    3    3    0    0  0.14755567213E+02  0.29544847719E+01 -0.17785959723E+02  0.23297985053E+02  0.51100000000E-03 0.  1.
         12    1    3    3    0    0  0.73479065969E+01 -0.11127737236E+01 -0.13259792154E+02  0.15200397517E+02  0.00000000000E+00 0. -1.
</event>
<event>
 7    1  0.1476909E-008  0.4614232E+02  0.7816164E-02  0.1320468E+00
        -11   -1    0    0    0    0  0.00000000000E+00  0.00000000000E+00  0.45593999997E+02  0.45594000000E+02  0.51100000000E-03 0.  1.
         11   -1    0    0    0    0 -0.00000000000E+00 -0.00000000000E+00 -0.45593999997E+02  0.45594000000E+02  0.51100000000E-03 0. -1.
    9900012    2    1    2    0    0  0.22636007907E+01  0.11864618975E+02 -0.43396087128E+02  0.46142318187E+02  0.10000003882E+02 0.  0.
        -12    1    1    2    0    0 -0.22636007907E+01 -0.11864618975E+02  0.43396087128E+02  0.45045681813E+02  0.00000000000E+00 0.  1.
         11    1    3    3    0    0  0.89709023557E+00  0.10685561314E+02 -0.28230984879E+02  0.30198915527E+02  0.51100000000E-03 0. -1.
        -11    1    3    3    0    0  0.21666706137E+01 -0.42209904584E+00 -0.34733984941E+01  0.41154740325E+01  0.51100000000E-03 0.  1.
        -12    1    3    3    0    0 -0.80016005850E+00  0.16011567066E+01 -0.11691703755E+02  0.11827928628E+02  0.00000000000E+00 0.  1.
</event>
<event>
 7    1  0.1476909E-008  0.4614232E+02  0.7816164E-02  0.1320468E+00
        -11   -1    0    0    0    0  0.00000000000E+00  0.00000000000E+00  0.45593999997E+02  0.45594000000E+02  0.51100000000E-03 0.  1.
         11   -1    0    0    0    0 -0.00000000000E+00 -0.00000000000E+00 -0.45593999997E+02  0.45594000000E+02  0.51100000000E-03 0. -1.
    9900012    2    1    2    0    0 -0.20771274026E+02  0.91074578829E+01 -0.38919424333E+02  0.46142320916E+02  0.10000028771E+02 0.  0.
        -12    1    1    2    0    0  0.20771274026E+02 -0.91074578829E+01  0.38919424333E+02  0.45045679084E+02  0.00000000000E+00 0.  1.
         11    1    3    3    0    0 -0.61817803483E+01  0.15211570639E+01 -0.97715049051E+01  0.11662359772E+02  0.51100000000E-03 0. -1.
        -11    1    3    3    0    0  0.32267806511E-01  0.27654241415E+01 -0.68112901481E+01  0.73513458384E+01  0.51100000000E-03 0.  1.
        -12    1    3    3    0    0 -0.14621761484E+02  0.48208766776E+01 -0.22336629279E+02  0.27128615306E+02  0.00000000000E+00 0.  1.
</event>
<event>
 7    1  0.1476909E-008  0.4614232E+02  0.7816164E-02  0.1320468E+00
        -11   -1    0    0    0    0  0.00000000000E+00  0.00000000000E+00  0.45593999997E+02  0.45594000000E+02  0.51100000000E-03 0.  1.
         11   -1    0    0    0    0 -0.00000000000E+00 -0.00000000000E+00 -0.45593999997E+02  0.45594000000E+02  0.51100000000E-03 0. -1.
    9900012    2    1    2    0    0  0.77411549295E+01 -0.40001669961E+02 -0.19210789711E+02  0.46142317402E+02  0.99999967299E+01 0.  0.
        -12    1    1    2    0    0 -0.77411549295E+01  0.40001669961E+02  0.19210789711E+02  0.45045682598E+02  0.00000000000E+00 0.  1.
         11    1    3    3    0    0  0.27666174139E+01 -0.25727163703E+02 -0.82636543599E+01  0.27163009917E+02  0.51100000000E-03 0. -1.
        -11    1    3    3    0    0  0.17830542906E+01 -0.16924101430E+01 -0.24124030127E+01  0.34443030140E+01  0.51100000000E-03 0.  1.
        -12    1    3    3    0    0  0.31914832250E+01 -0.12582096115E+02 -0.85347323389E+01  0.15535004472E+02  0.00000000000E+00 0.  1.
</event>
<event>
 7    1  0.1476909E-008  0.4614232E+02  0.7816164E-02  0.1320468E+00
        -11   -1    0    0    0    0  0.00000000000E+00  0.00000000000E+00  0.45593999997E+02  0.45594000000E+02  0.51100000000E-03 0.  1.
         11   -1    0    0    0    0 -0.00000000000E+00 -0.00000000000E+00 -0.45593999997E+02  0.45594000000E+02  0.51100000000E-03 0. -1.
    9900012    2    1    2    0    0 -0.25515134957E+02 -0.26272000913E+02 -0.26227341890E+02  0.46142316451E+02  0.99999880503E+01 0.  0.
        -12    1    1    2    0    0  0.25515134957E+02  0.26272000913E+02  0.26227341890E+02  0.45045683549E+02  0.00000000000E+00 0.  1.
         11    1    3    3    0    0 -0.35727967112E+01 -0.17310342126E+01 -0.65503608799E+00  0.40237331326E+01  0.51100000000E-03 0. -1.
        -11    1    3    3    0    0 -0.54693219777E+01 -0.98814484660E+01 -0.10388565373E+02  0.15345318421E+02  0.51100000000E-03 0.  1.
         12    1    3    3    0    0 -0.16473016268E+02 -0.14659518234E+02 -0.15183740429E+02  0.26773264897E+02  0.00000000000E+00 0. -1.
</event>
<event>
 7    1  0.1476909E-008  0.4614232E+02  0.7816164E-02  0.1320468E+00
        -11   -1    0    0    0    0  0.00000000000E+00  0.00000000000E+00  0.45593999997E+02  0.45594000000E+02  0.51100000000E-03 0.  1.
         11   -1    0    0    0    0 -0.00000000000E+00 -0.00000000000E+00 -0.45593999997E+02  0.45594000000E+02  0.51100000000E-03 0. -1.
    9900012    2    1    2    0    0  0.17031609494E+02  0.10151194789E+01 -0.41689417566E+02  0.46142315118E+02  0.99999758957E+01 0.  0.
        -12    1    1    2    0    0 -0.17031609494E+02 -0.10151194789E+01  0.41689417566E+02  0.45045684882E+02  0.00000000000E+00 0.  1.
         11    1    3    3    0    0  0.84861266395E+01  0.29695325299E+01 -0.19601582730E+02  0.21565122642E+02  0.51100000000E-03 0. -1.
        -11    1    3    3    0    0  0.60992092342E+01 -0.32907245001E+01 -0.99647344762E+01  0.12137757390E+02  0.51100000000E-03 0.  1.
        -12    1    3    3    0    0  0.24462736206E+01  0.13363114490E+01 -0.12123100359E+02  0.12439435085E+02  0.00000000000E+00 0.  1.
</event>
<event>
 7    1  0.1476909E-008  0.4614232E+02  0.7816164E-02  0.1320468E+00
        -11   -1    0    0    0    0  0.00000000000E+00  0.00000000000E+00  0.45593999997E+02  0.45594000000E+02  0.51100000000E-03 0.  1.
         11   -1    0    0    0    0 -0.00000000000E+00 -0.00000000000E+00 -0.45593999997E+02  0.45594000000E+02  0.51100000000E-03 0. -1.
    9900012    2    1    2    0    0 -0.12566433269E+02  0.39759763554E+02 -0.17039934161E+02  0.46142318751E+02  0.10000009027E+02 0.  0.
        -12    1    1    2    0    0  0.12566433269E+02 -0.39759763554E+02  0.17039934161E+02  0.45045681249E+02  0.00000000000E+00 0.  1.
         11    1    3    3    0    0 -0.28696477560E+01  0.81230532716E+01 -0.12173264340E+01  0.87006181737E+01  0.51100000000E-03 0. -1.
        -11    1    3    3    0    0 -0.16322538302E+01  0.16562343162E+02 -0.98129838644E+01  0.19320199693E+02  0.51100000000E-03 0.  1.
        -12    1    3    3    0    0 -0.80645316827E+01  0.15074367120E+02 -0.60096238626E+01  0.18121500885E+02  0.00000000000E+00 0.  1.
</event>
<event>
 7    1  0.1476909E-008  0.4614232E+02  0.7816164E-02  0.1320468E+00
        -11   -1    0    0    0    0  0.00000000000E+00  0.00000000000E+00  0.45593999997E+02  0.45594000000E+02  0.51100000000E-03 0.  1.
         11   -1    0    0    0    0 -0.00000000000E+00 -0.00000000000E+00 -0.45593999997E+02  0.45594000000E+02  0.51100000000E-03 0. -1.
    9900012    2    1    2    0    0 -0.26492361740E+02 -0.29543594787E+02 -0.21317695784E+02  0.46142318997E+02  0.10000011271E+02 0.  0.
        -12    1    1    2    0    0  0.26492361740E+02  0.29543594787E+02  0.21317695784E+02  0.45045681003E+02  0.00000000000E+00 0.  1.
         11    1    3    3    0    0 -0.27780974522E+01 -0.76715789042E+01 -0.40140270803E+01  0.90930392058E+01  0.51100000000E-03 0. -1.
        -11    1    3    3    0    0 -0.15262724205E+02 -0.11509091052E+02 -0.78098520919E+01  0.20649545199E+02  0.51100000000E-03 0.  1.
         12    1    3    3    0    0 -0.84515400828E+01 -0.10362924831E+02 -0.94938166119E+01  0.16399734592E+02  0.00000000000E+00 0. -1.
</event>
<event>
 7    1  0.1476909E-008  0.4614232E+02  0.7816164E-02  0.1320468E+00
        -11   -1    0    0    0    0  0.00000000000E+00  0.00000000000E+00  0.45593999997E+02  0.45594000000E+02  0.51100000000E-03 0.  1.
         11   -1    0    0    0    0 -0.00000000000E+00 -0.00000000000E+00 -0.45593999997E+02  0.45594000000E+02  0.51100000000E-03 0. -1.
    9900012    2    1    2    0    0  0.20701546444E+02 -0.37258085821E+02 -0.14573760977E+02  0.46142317707E+02  0.99999995066E+01 0.  0.
        -12    1    1    2    0    0 -0.20701546444E+02  0.37258085821E+02  0.14573760977E+02  0.45045682293E+02  0.00000000000E+00 0.  1.
         11    1    3    3    0    0  0.93120267149E+01 -0.12392524897E+02 -0.96319956916E+01  0.18250037154E+02  0.51100000000E-03 0. -1.
        -11    1    3    3    0    0  0.30732375017E+01 -0.77209420568E+01 -0.49302620411E+00  0.83247108109E+01  0.51100000000E-03 0.  1.
         12    1    3    3    0    0  0.83162822271E+01 -0.17144618868E+02 -0.44487390814E+01  0.19567569742E+02  0.00000000000E+00 0. -1.
</event>
<event>
 7    1  0.1476909E-008  0.4614232E+02  0.7816164E-02  0.1320468E+00
        -11   -1    0    0    0    0  0.00000000000E+00  0.00000000000E+00  0.45593999997E+02  0.45594000000E+02  0.51100000000E-03 0.  1.
         11   -1    0    0    0    0 -0.00000000000E+00 -0.00000000000E+00 -0.45593999997E+02  0.45594000000E+02  0.51100000000E-03 0. -1.
    9900012    2    1    2    0    0 -0.22635628908E+02 -0.37372164292E+02 -0.10957331950E+02  0.46142317816E+02  0.10000000504E+02 0.  0.
        -12    1    1    2    0    0  0.22635628908E+02  0.37372164292E+02  0.10957331950E+02  0.45045682184E+02  0.00000000000E+00 0.  1.
         11    1    3    3    0    0 -0.16707582765E+01 -0.29469713904E+01  0.12350457227E+01  0.36057470505E+01  0.51100000000E-03 0. -1.
        -11    1    3    3    0    0 -0.28794839976E+01 -0.56554490330E+01  0.24231513847E+00  0.63509250306E+01  0.51100000000E-03 0.  1.
         12    1    3    3    0    0 -0.18085386633E+02 -0.28769743869E+02 -0.12434692811E+02  0.36185645735E+02  0.00000000000E+00 0. -1.
</event>
<event>
 7    1  0.1476909E-008  0.4614232E+02  0.7816164E-02  0.1320468E+00
        -11   -1    0    0    0    0  0.00000000000E+00  0.00000000000E+00  0.45593999997E+02  0.45594000000E+02  0.51100000000E-03 0.  1.
         11   -1    0    0    0    0 -0.00000000000E+00 -0.00000000000E+00 -0.45593999997E+02  0.45594000000E+02  0.51100000000E-03 0. -1.
    9900012    2    1    2    0    0 -0.23244931908E+02 -0.38269467380E+02  0.49228615226E+01  0.46142316982E+02  0.99999928986E+01 0.  0.
        -12    1    1    2    0    0  0.23244931908E+02  0.38269467380E+02 -0.49228615226E+01  0.45045683018E+02  0.00000000000E+00 0.  1.
         11    1    3    3    0    0 -0.56119544192E+01 -0.43766711454E+01  0.24860263833E+01  0.75385416466E+01  0.51100000000E-03 0. -1.
        -11    1    3    3    0    0 -0.16740944971E+02 -0.33677179120E+02  0.23519025685E+01  0.37682132078E+02  0.51100000000E-03 0.  1.
        -12    1    3    3    0    0 -0.89203251760E+00 -0.21561711468E+00  0.84932570752E-01  0.92164325754E+00  0.00000000000E+00 0.  1.
</event>
<event>
 7    1  0.1476909E-008  0.4614232E+02  0.7816164E-02  0.1320468E+00
        -11   -1    0    0    0    0  0.00000000000E+00  0.00000000000E+00  0.45593999997E+02  0.45594000000E+02  0.51100000000E-03 0.  1.
         11   -1    0    0    0    0 -0.00000000000E+00 -0.00000000000E+00 -0.45593999997E+02  0.45594000000E+02  0.51100000000E-03 0. -1.
    9900012    2    1    2    0    0  0.12855136969E+02  0.40141980962E+02 -0.15889632876E+02  0.46142316356E+02  0.99999871851E+01 0.  0.
        -12    1    1    2    0    0 -0.12855136969E+02 -0.40141980962E+02  0.15889632876E+02  0.45045683644E+02  0.00000000000E+00 0.  1.
         11    1    3    3    0    0  0.22139465851E+01  0.59525503557E+01 -0.58980528635E+01  0.86672627202E+01  0.51100000000E-03 0. -1.
        -11    1    3    3    0    0  0.74177316820E+01  0.27854972707E+02 -0.64695974353E+01  0.29542815355E+02  0.51100000000E-03 0.  1.
        -12    1    3    3    0    0  0.32234587016E+01  0.63344578990E+01 -0.35219825770E+01  0.79322382811E+01  0.00000000000E+00 0.  1.
</event>
<event>
 7    1  0.1476909E-008  0.4614232E+02  0.7816164E-02  0.1320468E+00
        -11   -1    0    0    0    0  0.00000000000E+00  0.00000000000E+00  0.45593999997E+02  0.45594000000E+02  0.51100000000E-03 0. -1.
         11   -1    0    0    0    0 -0.00000000000E+00 -0.00000000000E+00 -0.45593999997E+02  0.45594000000E+02  0.51100000000E-03 0.  1.
    9900012    2    1    2    0    0  0.13286874483E+02  0.18675481648E+02  0.38778845593E+02  0.46142317479E+02  0.99999974233E+01 0.  0.
        -12    1    1    2    0    0 -0.13286874483E+02 -0.18675481648E+02 -0.38778845593E+02  0.45045682521E+02  0.00000000000E+00 0.  1.
         11    1    3    3    0    0 -0.42883494213E+00  0.25090576762E+01  0.70136388670E+01  0.74612599638E+01  0.51100000000E-03 0. -1.
        -11    1    3    3    0    0  0.13509495669E+02  0.13455608704E+02  0.29580977819E+02  0.35193666018E+02  0.51100000000E-03 0.  1.
        -12    1    3    3    0    0  0.20621375621E+00  0.27108152685E+01  0.21842289069E+01  0.34873914967E+01  0.00000000000E+00 0.  1.
</event>
<event>
 7    1  0.1476909E-008  0.4614232E+02  0.7816164E-02  0.1320468E+00
        -11   -1    0    0    0    0  0.00000000000E+00  0.00000000000E+00  0.45593999997E+02  0.45594000000E+02  0.51100000000E-03 0.  1.
         11   -1    0    0    0    0 -0.00000000000E+00 -0.00000000000E+00 -0.45593999997E+02  0.45594000000E+02  0.51100000000E-03 0. -1.
    9900012    2    1    2    0    0  0.36433824586E+02  0.67196946658E+01 -0.25622948570E+02  0.46142319144E+02  0.10000012612E+02 0.  0.
        -12    1    1    2    0    0 -0.36433824586E+02 -0.67196946658E+01  0.25622948570E+02  0.45045680856E+02  0.00000000000E+00 0.  1.
         11    1    3    3    0    0  0.18518355824E+02  0.19674176046E+01 -0.11587823686E+02  0.21933487923E+02  0.51100000000E-03 0. -1.
        -11    1    3    3    0    0  0.48382180925E+01  0.12675525823E+01 -0.43184940189E+00  0.50201133480E+01  0.51100000000E-03 0.  1.
        -12    1    3    3    0    0  0.13077250670E+02  0.34847244789E+01 -0.13603275482E+02  0.19188717873E+02  0.00000000000E+00 0.  1.
</event>
<event>
 7    1  0.1476909E-008  0.4614232E+02  0.7816164E-02  0.1320468E+00
        -11   -1    0    0    0    0  0.00000000000E+00  0.00000000000E+00  0.45593999997E+02  0.45594000000E+02  0.51100000000E-03 0.  1.
         11   -1    0    0    0    0 -0.00000000000E+00 -0.00000000000E+00 -0.45593999997E+02  0.45594000000E+02  0.51100000000E-03 0. -1.
    9900012    2    1    2    0    0  0.14963865373E+02  0.31980497766E+02 -0.27972197151E+02  0.46142319655E+02  0.10000017271E+02 0.  0.
        -12    1    1    2    0    0 -0.14963865373E+02 -0.31980497766E+02  0.27972197151E+02  0.45045680345E+02  0.00000000000E+00 0.  1.
         11    1    3    3    0    0 -0.10506001017E+01  0.14990198152E+01 -0.61879231650E+00  0.19322849614E+01  0.51100000000E-03 0. -1.
        -11    1    3    3    0    0  0.59397748839E+01  0.74037300132E+01 -0.86603304256E+01  0.12849025921E+02  0.51100000000E-03 0.  1.
         12    1    3    3    0    0  0.10074690591E+02  0.23077747938E+02 -0.18693074409E+02  0.31361008773E+02  0.00000000000E+00 0. -1.
</event>
<event>
 7    1  0.1476909E-008  0.4614232E+02  0.7816164E-02  0.1320468E+00
        -11   -1    0    0    0    0  0.00000000000E+00  0.00000000000E+00  0.45593999997E+02  0.45594000000E+02  0.51100000000E-03 0. -1.
         11   -1    0    0    0    0 -0.00000000000E+00 -0.00000000000E+00 -0.45593999997E+02  0.45594000000E+02  0.51100000000E-03 0.  1.
    9900012    2    1    2    0    0 -0.25913374719E+02 -0.36797178284E+02 -0.18914911058E+01  0.46142322542E+02  0.10000043598E+02 0.  0.
        -12    1    1    2    0    0  0.25913374719E+02  0.36797178284E+02  0.18914911058E+01  0.45045677458E+02  0.00000000000E+00 0.  1.
         11    1    3    3    0    0 -0.15673227930E+02 -0.21215404638E+02 -0.33194509894E+01  0.26584999959E+02  0.51100000000E-03 0. -1.
        -11    1    3    3    0    0 -0.37334978933E+01 -0.10661344555E+02  0.12891403955E+00  0.11296897509E+02  0.51100000000E-03 0.  1.
        -12    1    3    3    0    0 -0.65066488964E+01 -0.49204290912E+01  0.12990458440E+01  0.82604250743E+01  0.00000000000E+00 0.  1.
</event>
<event>
 7    1  0.1476909E-008  0.4614232E+02  0.7816164E-02  0.1320468E+00
        -11   -1    0    0    0    0  0.00000000000E+00  0.00000000000E+00  0.45593999997E+02  0.45594000000E+02  0.51100000000E-03 0.  1.
         11   -1    0    0    0    0 -0.00000000000E+00 -0.00000000000E+00 -0.45593999997E+02  0.45594000000E+02  0.51100000000E-03 0. -1.
    9900012    2    1    2    0    0  0.15082193715E+02 -0.31674604967E+02 -0.28255271329E+02  0.46142317355E+02  0.99999962983E+01 0.  0.
        -12    1    1    2    0    0 -0.15082193715E+02  0.31674604967E+02  0.28255271329E+02  0.45045682645E+02  0.00000000000E+00 0.  1.
         11    1    3    3    0    0  0.98632006962E+01 -0.19425622865E+02 -0.13328550544E+02  0.25539925833E+02  0.51100000000E-03 0. -1.
        -11    1    3    3    0    0  0.42021484138E+01 -0.37940919569E+01 -0.53911207671E+01  0.78177598106E+01  0.51100000000E-03 0.  1.
         12    1    3    3    0    0  0.10168446048E+01 -0.84548901453E+01 -0.95356000174E+01  0.12784631712E+02  0.00000000000E+00 0. -1.
</event>
<event>
 7    1  0.1476909E-008  0.4614232E+02  0.7816164E-02  0.1320468E+00
        -11   -1    0    0    0    0  0.00000000000E+00  0.00000000000E+00  0.45593999997E+02  0.45594000000E+02  0.51100000000E-03 0.  1.
         11   -1    0    0    0    0 -0.00000000000E+00 -0.00000000000E+00 -0.45593999997E+02  0.45594000000E+02  0.51100000000E-03 0. -1.
    9900012    2    1    2    0    0  0.17391722899E+02  0.23236137325E+02 -0.34448852601E+02  0.46142317091E+02  0.99999938918E+01 0.  0.
        -12    1    1    2    0    0 -0.17391722899E+02 -0.23236137325E+02  0.34448852601E+02  0.45045682909E+02  0.00000000000E+00 0.  1.
         11    1    3    3    0    0  0.55126006326E+01  0.18668798679E+01 -0.98237770806E+01  0.11418432579E+02  0.51100000000E-03 0.  1.
        -11    1    3    3    0    0  0.43805477913E+01  0.80765038666E+01 -0.10118810838E+02  0.13667825237E+02  0.51100000000E-03 0. -1.
        -12    1    3    3    0    0  0.74985744754E+01  0.13292753590E+02 -0.14506264682E+02  0.21056059275E+02  0.00000000000E+00 0.  1.
</event>
<event>
 7    1  0.1476909E-008  0.4614232E+02  0.7816164E-02  0.1320468E+00
        -11   -1    0    0    0    0  0.00000000000E+00  0.00000000000E+00  0.45593999997E+02  0.45594000000E+02  0.51100000000E-03 0.  1.
         11   -1    0    0    0    0 -0.00000000000E+00 -0.00000000000E+00 -0.45593999997E+02  0.45594000000E+02  0.51100000000E-03 0. -1.
    9900012    2    1    2    0    0 -0.42423747164E+02 -0.15054907731E+02  0.16397725419E+01  0.46142318473E+02  0.10000006493E+02 0.  0.
        -12    1    1    2    0    0  0.42423747164E+02  0.15054907731E+02 -0.16397725419E+01  0.45045681527E+02  0.00000000000E+00 0.  1.
         11    1    3    3    0    0 -0.23193726292E+02 -0.11775531042E+02 -0.26447977761E+01  0.26145879717E+02  0.51100000000E-03 0. -1.
        -11    1    3    3    0    0 -0.44300772751E+01 -0.36397282019E+00  0.83709531399E+00  0.45231393636E+01  0.51100000000E-03 0.  1.
         12    1    3    3    0    0 -0.14799943597E+02 -0.29154038692E+01  0.34474750041E+01  0.15473299393E+02  0.00000000000E+00 0. -1.
</event>
<event>
 7    1  0.1476909E-008  0.4614232E+02  0.7816164E-02  0.1320468E+00
        -11   -1    0    0    0    0  0.00000000000E+00  0.00000000000E+00  0.45593999997E+02  0.45594000000E+02  0.51100000000E-03 0.  1.
         11   -1    0    0    0    0 -0.00000000000E+00 -0.00000000000E+00 -0.45593999997E+02  0.45594000000E+02  0.51100000000E-03 0. -1.
    9900012    2    1    2    0    0  0.25137083690E+02 -0.83094544992E+01 -0.36444384186E+02  0.46142321526E+02  0.10000034329E+02 0.  0.
        -12    1    1    2    0    0 -0.25137083690E+02  0.83094544992E+01  0.36444384186E+02  0.45045678474E+02  0.00000000000E+00 0.  1.
         11    1    3    3    0    0  0.10351233334E+02 -0.44263016385E+01 -0.14941313384E+02  0.18707833216E+02  0.51100000000E-03 0. -1.
        -11    1    3    3    0    0 -0.40167718353E+00 -0.21172562038E+00  0.34772852097E+00  0.57191580107E+00  0.51100000000E-03 0.  1.
        -12    1    3    3    0    0  0.15187527539E+02 -0.36714272403E+01 -0.21850799323E+02  0.26862572509E+02  0.00000000000E+00 0.  1.
</event>
<event>
 7    1  0.1476909E-008  0.4614232E+02  0.7816164E-02  0.1320468E+00
        -11   -1    0    0    0    0  0.00000000000E+00  0.00000000000E+00  0.45593999997E+02  0.45594000000E+02  0.51100000000E-03 0.  1.
         11   -1    0    0    0    0 -0.00000000000E+00 -0.00000000000E+00 -0.45593999997E+02  0.45594000000E+02  0.51100000000E-03 0. -1.
    9900012    2    1    2    0    0 -0.36705857097E+02  0.17092621321E+02 -0.19739196977E+02  0.46142317120E+02  0.99999941496E+01 0.  0.
        -12    1    1    2    0    0  0.36705857097E+02 -0.17092621321E+02  0.19739196977E+02  0.45045682880E+02  0.00000000000E+00 0.  1.
         11    1    3    3    0    0 -0.16116583329E+02  0.66981198066E+01 -0.94603586420E+01  0.19852139759E+02  0.51100000000E-03 0. -1.
        -11    1    3    3    0    0  0.19017811434E-01 -0.31159131641E+00 -0.13887715942E+01  0.14234246125E+01  0.51100000000E-03 0.  1.
         12    1    3    3    0    0 -0.20608291580E+02  0.10706092831E+02 -0.88900667408E+01  0.24866752748E+02  0.00000000000E+00 0. -1.
</event>
<event>
 7    1  0.1476909E-008  0.4614232E+02  0.7816164E-02  0.1320468E+00
        -11   -1    0    0    0    0  0.00000000000E+00  0.00000000000E+00  0.45593999997E+02  0.45594000000E+02  0.51100000000E-03 0.  1.
         11   -1    0    0    0    0 -0.00000000000E+00 -0.00000000000E+00 -0.45593999997E+02  0.45594000000E+02  0.51100000000E-03 0. -1.
    9900012    2    1    2    0    0  0.15642756227E+02  0.41524038927E+02 -0.77570511224E+01  0.46142317928E+02  0.10000001524E+02 0.  0.
        -12    1    1    2    0    0 -0.15642756227E+02 -0.41524038927E+02  0.77570511224E+01  0.45045682072E+02  0.00000000000E+00 0.  1.
         11    1    3    3    0    0  0.14380316760E+02  0.29788300426E+02 -0.61493931164E+01  0.33644485259E+02  0.51100000000E-03 0. -1.
        -11    1    3    3    0    0  0.50918983302E+00  0.20955513968E+01 -0.18260647987E+01  0.28257959680E+01  0.51100000000E-03 0.  1.
        -12    1    3    3    0    0  0.75324963349E+00  0.96401871044E+01  0.21840679267E+00  0.96720367010E+01  0.00000000000E+00 0.  1.
</event>
<event>
 7    1  0.1476909E-008  0.4614232E+02  0.7816164E-02  0.1320468E+00
        -11   -1    0    0    0    0  0.00000000000E+00  0.00000000000E+00  0.45593999997E+02  0.45594000000E+02  0.51100000000E-03 0.  1.
         11   -1    0    0    0    0 -0.00000000000E+00 -0.00000000000E+00 -0.45593999997E+02  0.45594000000E+02  0.51100000000E-03 0. -1.
    9900012    2    1    2    0    0 -0.54176320254E+01  0.31631256642E+02 -0.31610541938E+02  0.46142317686E+02  0.99999993136E+01 0.  0.
        -12    1    1    2    0    0  0.54176320254E+01 -0.31631256642E+02  0.31610541938E+02  0.45045682314E+02  0.00000000000E+00 0.  1.
         11    1    3    3    0    0 -0.50185356232E+01  0.95734761279E+01 -0.14491077093E+02  0.18078397621E+02  0.51100000000E-03 0. -1.
        -11    1    3    3    0    0 -0.92319296824E+00  0.59775386868E+01 -0.35243841162E+01  0.70003241116E+01  0.51100000000E-03 0.  1.
         12    1    3    3    0    0  0.52409656608E+00  0.16080241828E+02 -0.13595080728E+02  0.21063595953E+02  0.00000000000E+00 0. -1.
</event>
<event>
 7    1  0.1476909E-008  0.4614232E+02  0.7816164E-02  0.1320468E+00
        -11   -1    0    0    0    0  0.00000000000E+00  0.00000000000E+00  0.45593999997E+02  0.45594000000E+02  0.51100000000E-03 0. -1.
         11   -1    0    0    0    0 -0.00000000000E+00 -0.00000000000E+00 -0.45593999997E+02  0.45594000000E+02  0.51100000000E-03 0.  1.
    9900012    2    1    2    0    0  0.41248729490E+02 -0.14554881691E+02  0.10761561767E+02  0.46142317885E+02  0.10000001128E+02 0.  0.
        -12    1    1    2    0    0 -0.41248729490E+02  0.14554881691E+02 -0.10761561767E+02  0.45045682115E+02  0.00000000000E+00 0.  1.
         11    1    3    3    0    0  0.16848253369E+02 -0.41060929013E+01  0.69346187168E+01  0.18676524770E+02  0.51100000000E-03 0. -1.
        -11    1    3    3    0    0  0.55395724481E+01 -0.50110574051E+01  0.14130450451E-01  0.74697897665E+01  0.51100000000E-03 0.  1.
        -12    1    3    3    0    0  0.18860903673E+02 -0.54377313848E+01  0.38128125999E+01  0.19996003348E+02  0.00000000000E+00 0.  1.
</event>
<event>
 7    1  0.1476909E-008  0.4614232E+02  0.7816164E-02  0.1320468E+00
        -11   -1    0    0    0    0  0.00000000000E+00  0.00000000000E+00  0.45593999997E+02  0.45594000000E+02  0.51100000000E-03 0.  1.
         11   -1    0    0    0    0 -0.00000000000E+00 -0.00000000000E+00 -0.45593999997E+02  0.45594000000E+02  0.51100000000E-03 0. -1.
    9900012    2    1    2    0    0  0.40515554206E+02 -0.91811745071E+01 -0.17415776199E+02  0.46142319202E+02  0.10000013141E+02 0.  0.
        -12    1    1    2    0    0 -0.40515554206E+02  0.91811745071E+01  0.17415776199E+02  0.45045680798E+02  0.00000000000E+00 0.  1.
         11    1    3    3    0    0  0.72727476182E+01  0.72185039365E-01 -0.55448328122E+00  0.72942114426E+01  0.51100000000E-03 0.  1.
        -11    1    3    3    0    0  0.12511082483E+02 -0.64537928206E+01 -0.66629690311E+01  0.15574780360E+02  0.51100000000E-03 0. -1.
        -12    1    3    3    0    0  0.20731724104E+02 -0.27995667258E+01 -0.10198323887E+02  0.23273327400E+02  0.00000000000E+00 0.  1.
</event>
<event>
 7    1  0.1476909E-008  0.4614232E+02  0.7816164E-02  0.1320468E+00
        -11   -1    0    0    0    0  0.00000000000E+00  0.00000000000E+00  0.45593999997E+02  0.45594000000E+02  0.51100000000E-03 0. -1.
         11   -1    0    0    0    0 -0.00000000000E+00 -0.00000000000E+00 -0.45593999997E+02  0.45594000000E+02  0.51100000000E-03 0.  1.
    9900012    2    1    2    0    0 -0.43550714068E+02 -0.23241175032E+01 -0.11271516345E+02  0.46142319867E+02  0.10000019199E+02 0.  0.
        -12    1    1    2    0    0  0.43550714068E+02  0.23241175032E+01  0.11271516345E+02  0.45045680133E+02  0.00000000000E+00 0.  1.
         11    1    3    3    0    0 -0.21241655977E+02 -0.19558265971E+01 -0.32691066159E+01  0.21580552928E+02  0.51100000000E-03 0. -1.
        -11    1    3    3    0    0 -0.16378409346E+02 -0.14605249962E+01 -0.85008707416E+01  0.18510813856E+02  0.51100000000E-03 0.  1.
        -12    1    3    3    0    0 -0.59306487443E+01  0.10922340901E+01  0.49846101217E+00  0.60509530834E+01  0.00000000000E+00 0.  1.
</event>
<event>
 7    1  0.1476909E-008  0.4614232E+02  0.7816164E-02  0.1320468E+00
        -11   -1    0    0    0    0  0.00000000000E+00  0.00000000000E+00  0.45593999997E+02  0.45594000000E+02  0.51100000000E-03 0.  1.
         11   -1    0    0    0    0 -0.00000000000E+00 -0.00000000000E+00 -0.45593999997E+02  0.45594000000E+02  0.51100000000E-03 0. -1.
    9900012    2    1    2    0    0 -0.70916560458E+01 -0.83094810108E+01 -0.43700965174E+02  0.46142318550E+02  0.10000007194E+02 0.  0.
        -12    1    1    2    0    0  0.70916560458E+01  0.83094810108E+01  0.43700965174E+02  0.45045681450E+02  0.00000000000E+00 0.  1.
         11    1    3    3    0    0 -0.17470099902E+01  0.81778681849E+00 -0.19043351877E+02  0.19140795965E+02  0.51100000000E-03 0. -1.
        -11    1    3    3    0    0 -0.40780391239E+01 -0.87569293190E+01 -0.21068191953E+02  0.23177207050E+02  0.51100000000E-03 0.  1.
         12    1    3    3    0    0 -0.12666069317E+01 -0.37033851027E+00 -0.35894213439E+01  0.38243155356E+01  0.00000000000E+00 0. -1.
</event>
<event>
 7    1  0.1476909E-008  0.4614232E+02  0.7816164E-02  0.1320468E+00
        -11   -1    0    0    0    0  0.00000000000E+00  0.00000000000E+00  0.45593999997E+02  0.45594000000E+02  0.51100000000E-03 0. -1.
         11   -1    0    0    0    0 -0.00000000000E+00 -0.00000000000E+00 -0.45593999997E+02  0.45594000000E+02  0.51100000000E-03 0.  1.
    9900012    2    1    2    0    0  0.16559336842E+02  0.33645764743E+02  0.24957247246E+02  0.46142319720E+02  0.10000017863E+02 0.  0.
        -12    1    1    2    0    0 -0.16559336842E+02 -0.33645764743E+02 -0.24957247246E+02  0.45045680280E+02  0.00000000000E+00 0.  1.
         11    1    3    3    0    0  0.77869655639E+01  0.19669392660E+02  0.13299512209E+02  0.24987974419E+02  0.51100000000E-03 0. -1.
        -11    1    3    3    0    0  0.83542788172E+01  0.13441413830E+02  0.12431592056E+02  0.20124861778E+02  0.51100000000E-03 0.  1.
        -12    1    3    3    0    0  0.41809246040E+00  0.53495825348E+00 -0.77385701854E+00  0.10294835227E+01  0.00000000000E+00 0.  1.
</event>
<event>
 7    1  0.1476909E-008  0.4614232E+02  0.7816164E-02  0.1320468E+00
        -11   -1    0    0    0    0  0.00000000000E+00  0.00000000000E+00  0.45593999997E+02  0.45594000000E+02  0.51100000000E-03 0. -1.
         11   -1    0    0    0    0 -0.00000000000E+00 -0.00000000000E+00 -0.45593999997E+02  0.45594000000E+02  0.51100000000E-03 0.  1.
    9900012    2    1    2    0    0  0.14854627835E+02 -0.36655703012E+02  0.21559520291E+02  0.46142318225E+02  0.10000004231E+02 0.  0.
        -12    1    1    2    0    0 -0.14854627835E+02  0.36655703012E+02 -0.21559520291E+02  0.45045681775E+02  0.00000000000E+00 0.  1.
         11    1    3    3    0    0  0.47018413710E+01 -0.13226303433E+02  0.32225023896E+01  0.14402324003E+02  0.51100000000E-03 0. -1.
        -11    1    3    3    0    0  0.45754735523E+01 -0.13479885666E+02  0.12413414362E+02  0.18887433182E+02  0.51100000000E-03 0.  1.
        -12    1    3    3    0    0  0.55773129122E+01 -0.99495139125E+01  0.59236035389E+01  0.12852561041E+02  0.00000000000E+00 0.  1.
</event>
<event>
 7    1  0.1476909E-008  0.4614232E+02  0.7816164E-02  0.1320468E+00
        -11   -1    0    0    0    0  0.00000000000E+00  0.00000000000E+00  0.45593999997E+02  0.45594000000E+02  0.51100000000E-03 0.  1.
         11   -1    0    0    0    0 -0.00000000000E+00 -0.00000000000E+00 -0.45593999997E+02  0.45594000000E+02  0.51100000000E-03 0. -1.
    9900012    2    1    2    0    0  0.37842199266E+02 -0.98198379430E+01 -0.22375262553E+02  0.46142316114E+02  0.99999849774E+01 0.  0.
        -12    1    1    2    0    0 -0.37842199266E+02  0.98198379430E+01  0.22375262553E+02  0.45045683886E+02  0.00000000000E+00 0.  1.
         11    1    3    3    0    0  0.18766689761E+02 -0.87896415151E+01 -0.11658751185E+02  0.23777571827E+02  0.51100000000E-03 0. -1.
        -11    1    3    3    0    0  0.12766519462E+01  0.10233198051E+01 -0.37903416532E+00  0.16794912250E+01  0.51100000000E-03 0.  1.
        -12    1    3    3    0    0  0.17798857558E+02 -0.20535162330E+01 -0.10337477203E+02  0.20685253061E+02  0.00000000000E+00 0.  1.
</event>
<event>
 7    1  0.1476909E-008  0.4614232E+02  0.7816164E-02  0.1320468E+00
        -11   -1    0    0    0    0  0.00000000000E+00  0.00000000000E+00  0.45593999997E+02  0.45594000000E+02  0.51100000000E-03 0.  1.
         11   -1    0    0    0    0 -0.00000000000E+00 -0.00000000000E+00 -0.45593999997E+02  0.45594000000E+02  0.51100000000E-03 0. -1.
    9900012    2    1    2    0    0  0.18352096950E+02  0.41102319176E+02  0.17068649282E+01  0.46142317721E+02  0.99999996380E+01 0.  0.
        -12    1    1    2    0    0 -0.18352096950E+02 -0.41102319176E+02 -0.17068649282E+01  0.45045682279E+02  0.00000000000E+00 0.  1.
         11    1    3    3    0    0  0.70105499561E+01  0.22287599313E+02  0.38888756031E+01  0.23685612670E+02  0.51100000000E-03 0. -1.
        -11    1    3    3    0    0  0.27599395872E+01  0.26163986273E+01  0.79561589891E+00  0.38853330902E+01  0.51100000000E-03 0.  1.
         12    1    3    3    0    0  0.85816074065E+01  0.16198321235E+02 -0.29776265738E+01  0.18571371961E+02  0.00000000000E+00 0. -1.
</event>
<event>
 7    1  0.1476909E-008  0.4614232E+02  0.7816164E-02  0.1320468E+00
        -11   -1    0    0    0    0  0.00000000000E+00  0.00000000000E+00  0.45593999997E+02  0.45594000000E+02  0.51100000000E-03 0.  1.
         11   -1    0    0    0    0 -0.00000000000E+00 -0.00000000000E+00 -0.45593999997E+02  0.45594000000E+02  0.51100000000E-03 0. -1.
    9900012    2    1    2    0    0 -0.79830588755E+01  0.43188435317E+02 -0.10007162260E+02  0.46142317958E+02  0.10000001796E+02 0.  0.
        -12    1    1    2    0    0  0.79830588755E+01 -0.43188435317E+02  0.10007162260E+02  0.45045682042E+02  0.00000000000E+00 0.  1.
         11    1    3    3    0    0 -0.15085009937E+01  0.14269670393E+02 -0.29164038260E+01  0.14642557151E+02  0.51100000000E-03 0. -1.
        -11    1    3    3    0    0 -0.51736499164E+01  0.94323930798E+01 -0.49846197170E+01  0.11856775559E+02  0.51100000000E-03 0.  1.
        -12    1    3    3    0    0 -0.13009079654E+01  0.19486371844E+02 -0.21061387167E+01  0.19642985248E+02  0.00000000000E+00 0.  1.
</event>
<event>
 7    1  0.1476909E-008  0.4614232E+02  0.7816164E-02  0.1320468E+00
        -11   -1    0    0    0    0  0.00000000000E+00  0.00000000000E+00  0.45593999997E+02  0.45594000000E+02  0.51100000000E-03 0. -1.
         11   -1    0    0    0    0 -0.00000000000E+00 -0.00000000000E+00 -0.45593999997E+02  0.45594000000E+02  0.51100000000E-03 0.  1.
    9900012    2    1    2    0    0 -0.40293452577E+02  0.10524504980E+02 -0.17169331559E+02  0.46142317944E+02  0.10000001671E+02 0.  0.
        -12    1    1    2    0    0  0.40293452577E+02 -0.10524504980E+02  0.17169331559E+02  0.45045682056E+02  0.00000000000E+00 0.  1.
         11    1    3    3    0    0 -0.21636075307E+02  0.78474057464E+01 -0.93211845966E+01  0.24831150078E+02  0.51100000000E-03 0. -1.
        -11    1    3    3    0    0 -0.74306100766E+01 -0.79210598372E+00 -0.58163508459E+00  0.74953117102E+01  0.51100000000E-03 0.  1.
        -12    1    3    3    0    0 -0.11226767194E+02  0.34692052171E+01 -0.72665118780E+01  0.13815856157E+02  0.00000000000E+00 0.  1.
</event>
<event>
 7    1  0.1656643E-008  0.4614232E+02  0.7816164E-02  0.1320468E+00
        -11   -1    0    0    0    0  0.00000000000E+00  0.00000000000E+00  0.45593999997E+02  0.45594000000E+02  0.51100000000E-03 0.  1.
         11   -1    0    0    0    0 -0.00000000000E+00 -0.00000000000E+00 -0.45593999997E+02  0.45594000000E+02  0.51100000000E-03 0. -1.
    9900012    2    1    2    0    0  0.46555465768E+01 -0.44779389448E+02  0.14985597798E+01  0.46142317469E+02  0.99999973403E+01 0.  0.
        -12    1    1    2    0    0 -0.46555465768E+01  0.44779389448E+02 -0.14985597798E+01  0.45045682531E+02  0.00000000000E+00 0.  1.
         11    1    3    3    0    0  0.17954123892E+01 -0.25522878901E+02  0.28824264273E-01  0.25585966547E+02  0.51100000000E-03 0. -1.
        -11    1    3    3    0    0  0.35290169390E+01 -0.51103961907E+01 -0.61888363290E+00  0.62412440262E+01  0.51100000000E-03 0.  1.
        -12    1    3    3    0    0 -0.66888275145E+00 -0.14146114356E+02  0.20886191484E+01  0.14315106896E+02  0.00000000000E+00 0.  1.
</event>
<event>
 7    1  0.1476909E-008  0.4614232E+02  0.7816164E-02  0.1320468E+00
        -11   -1    0    0    0    0  0.00000000000E+00  0.00000000000E+00  0.45593999997E+02  0.45594000000E+02  0.51100000000E-03 0.  1.
         11   -1    0    0    0    0 -0.00000000000E+00 -0.00000000000E+00 -0.45593999997E+02  0.45594000000E+02  0.51100000000E-03 0. -1.
    9900012    2    1    2    0    0 -0.37598175889E+02 -0.22508958544E+02  0.10432523759E+02  0.46142316556E+02  0.99999890147E+01 0.  0.
        -12    1    1    2    0    0  0.37598175889E+02  0.22508958544E+02 -0.10432523759E+02  0.45045683444E+02  0.00000000000E+00 0.  1.
         11    1    3    3    0    0 -0.93412517606E+01 -0.16007155726E+01  0.29041531007E+01  0.99123851970E+01  0.51100000000E-03 0.  1.
        -11    1    3    3    0    0 -0.18065158801E+02 -0.10740205038E+02  0.51464692015E+01  0.21637654962E+02  0.51100000000E-03 0. -1.
         12    1    3    3    0    0 -0.10191765328E+02 -0.10168037933E+02  0.23819014564E+01  0.14592276397E+02  0.00000000000E+00 0. -1.
</event>
<event>
 7    1  0.1476909E-008  0.4614232E+02  0.7816164E-02  0.1320468E+00
        -11   -1    0    0    0    0  0.00000000000E+00  0.00000000000E+00  0.45593999997E+02  0.45594000000E+02  0.51100000000E-03 0.  1.
         11   -1    0    0    0    0 -0.00000000000E+00 -0.00000000000E+00 -0.45593999997E+02  0.45594000000E+02  0.51100000000E-03 0. -1.
    9900012    2    1    2    0    0 -0.29119366501E+01  0.21209434672E+02 -0.39633243023E+02  0.46142318223E+02  0.10000004215E+02 0.  0.
        -12    1    1    2    0    0  0.29119366501E+01 -0.21209434672E+02  0.39633243023E+02  0.45045681777E+02  0.00000000000E+00 0.  1.
         11    1    3    3    0    0  0.22865278699E+01  0.12962492749E+02 -0.19202004538E+02  0.23280279348E+02  0.51100000000E-03 0. -1.
        -11    1    3    3    0    0 -0.40244117356E+01  0.62299803748E+01 -0.18112449068E+02  0.19572157694E+02  0.51100000000E-03 0.  1.
        -12    1    3    3    0    0 -0.11740527844E+01  0.20169615485E+01 -0.23187894176E+01  0.32898811821E+01  0.00000000000E+00 0.  1.
</event>
<event>
 7    1  0.1476909E-008  0.4614232E+02  0.7816164E-02  0.1320468E+00
        -11   -1    0    0    0    0  0.00000000000E+00  0.00000000000E+00  0.45593999997E+02  0.45594000000E+02  0.51100000000E-03 0.  1.
         11   -1    0    0    0    0 -0.00000000000E+00 -0.00000000000E+00 -0.45593999997E+02  0.45594000000E+02  0.51100000000E-03 0. -1.
    9900012    2    1    2    0    0  0.14351674537E+02  0.15622811998E+02 -0.39737521083E+02  0.46142318758E+02  0.10000009092E+02 0.  0.
        -12    1    1    2    0    0 -0.14351674537E+02 -0.15622811998E+02  0.39737521083E+02  0.45045681242E+02  0.00000000000E+00 0.  1.
         11    1    3    3    0    0  0.38897317145E+01  0.40239509483E+01 -0.16284847436E+02  0.17219711099E+02  0.51100000000E-03 0. -1.
        -11    1    3    3    0    0  0.22900272108E+01  0.68840160045E+01 -0.78481500717E+01  0.10687720093E+02  0.51100000000E-03 0.  1.
        -12    1    3    3    0    0  0.81719156119E+01  0.47148450453E+01 -0.15604523575E+02  0.18234887567E+02  0.00000000000E+00 0.  1.
</event>
<event>
 7    1  0.1476909E-008  0.4614232E+02  0.7816164E-02  0.1320468E+00
        -11   -1    0    0    0    0  0.00000000000E+00  0.00000000000E+00  0.45593999997E+02  0.45594000000E+02  0.51100000000E-03 0.  1.
         11   -1    0    0    0    0 -0.00000000000E+00 -0.00000000000E+00 -0.45593999997E+02  0.45594000000E+02  0.51100000000E-03 0. -1.
    9900012    2    1    2    0    0  0.35053181404E+02 -0.15426590805E+02 -0.23715150579E+02  0.46142316551E+02  0.99999889614E+01 0.  0.
        -12    1    1    2    0    0 -0.35053181404E+02  0.15426590805E+02  0.23715150579E+02  0.45045683449E+02  0.00000000000E+00 0.  1.
         11    1    3    3    0    0  0.88194667871E+01 -0.75216229754E+01 -0.43929010263E+01  0.12395780987E+02  0.51100000000E-03 0.  1.
        -11    1    3    3    0    0  0.14025535249E+02 -0.22820678200E+01 -0.93477817277E+01  0.17008953408E+02  0.51100000000E-03 0. -1.
         12    1    3    3    0    0  0.12208179369E+02 -0.56229000092E+01 -0.99744678253E+01  0.16737582155E+02  0.00000000000E+00 0. -1.
</event>
<event>
 7    1  0.1476909E-008  0.4614232E+02  0.7816164E-02  0.1320468E+00
        -11   -1    0    0    0    0  0.00000000000E+00  0.00000000000E+00  0.45593999997E+02  0.45594000000E+02  0.51100000000E-03 0.  1.
         11   -1    0    0    0    0 -0.00000000000E+00 -0.00000000000E+00 -0.45593999997E+02  0.45594000000E+02  0.51100000000E-03 0. -1.
    9900012    2    1    2    0    0 -0.37852179175E+02 -0.36190092185E+01 -0.24150129385E+02  0.46142318239E+02  0.10000004356E+02 0.  0.
        -12    1    1    2    0    0  0.37852179175E+02  0.36190092185E+01  0.24150129385E+02  0.45045681761E+02  0.00000000000E+00 0.  1.
         11    1    3    3    0    0 -0.17939866841E+02 -0.56668479781E+01 -0.10640335744E+02  0.21614086455E+02  0.51100000000E-03 0. -1.
        -11    1    3    3    0    0 -0.81062676099E+01  0.28186436069E+01 -0.47681295657E+01  0.98179114970E+01  0.51100000000E-03 0.  1.
         12    1    3    3    0    0 -0.11806044724E+02 -0.77080484731E+00 -0.87416640746E+01  0.14710320287E+02  0.00000000000E+00 0. -1.
</event>
<event>
 7    1  0.1476909E-008  0.4614232E+02  0.7816164E-02  0.1320468E+00
        -11   -1    0    0    0    0  0.00000000000E+00  0.00000000000E+00  0.45593999997E+02  0.45594000000E+02  0.51100000000E-03 0.  1.
         11   -1    0    0    0    0 -0.00000000000E+00 -0.00000000000E+00 -0.45593999997E+02  0.45594000000E+02  0.51100000000E-03 0. -1.
    9900012    2    1    2    0    0  0.64349930852E+01  0.75374203870E+01 -0.43941911879E+02  0.46142318057E+02  0.10000002700E+02 0.  0.
        -12    1    1    2    0    0 -0.64349930852E+01 -0.75374203870E+01  0.43941911879E+02  0.45045681943E+02  0.00000000000E+00 0.  1.
         11    1    3    3    0    0  0.44894216199E+01  0.66007700044E+01 -0.23580128553E+02  0.24894729040E+02  0.51100000000E-03 0. -1.
        -11    1    3    3    0    0 -0.79505698905E+00  0.66863931328E+00 -0.42644845891E+00  0.11229660263E+01  0.51100000000E-03 0.  1.
        -12    1    3    3    0    0  0.27406284543E+01  0.26801106932E+00 -0.19935334868E+02  0.20124622991E+02  0.00000000000E+00 0.  1.
</event>
<event>
 7    1  0.1476909E-008  0.4614232E+02  0.7816164E-02  0.1320468E+00
        -11   -1    0    0    0    0  0.00000000000E+00  0.00000000000E+00  0.45593999997E+02  0.45594000000E+02  0.51100000000E-03 0.  1.
         11   -1    0    0    0    0 -0.00000000000E+00 -0.00000000000E+00 -0.45593999997E+02  0.45594000000E+02  0.51100000000E-03 0. -1.
    9900012    2    1    2    0    0  0.12247623065E+02 -0.55768775622E+01 -0.42988459773E+02  0.46142317547E+02  0.99999980435E+01 0.  0.
        -12    1    1    2    0    0 -0.12247623065E+02  0.55768775622E+01  0.42988459773E+02  0.45045682453E+02  0.00000000000E+00 0.  1.
         11    1    3    3    0    0  0.73287862478E+01 -0.17039950856E+01 -0.30780834628E+02  0.31687134420E+02  0.51100000000E-03 0. -1.
        -11    1    3    3    0    0 -0.68083286542E-01  0.81327447057E+00 -0.20597643574E+01  0.22155541446E+01  0.51100000000E-03 0.  1.
        -12    1    3    3    0    0  0.49869201036E+01 -0.46861569472E+01 -0.10147860787E+02  0.12239628982E+02  0.00000000000E+00 0.  1.
</event>
<event>
 7    1  0.1476909E-008  0.4614232E+02  0.7816164E-02  0.1320468E+00
        -11   -1    0    0    0    0  0.00000000000E+00  0.00000000000E+00  0.45593999997E+02  0.45594000000E+02  0.51100000000E-03 0. -1.
         11   -1    0    0    0    0 -0.00000000000E+00 -0.00000000000E+00 -0.45593999997E+02  0.45594000000E+02  0.51100000000E-03 0.  1.
    9900012    2    1    2    0    0  0.36785957946E+02  0.23355368783E+02  0.11420742126E+02  0.46142319811E+02  0.10000018692E+02 0.  0.
        -12    1    1    2    0    0 -0.36785957946E+02 -0.23355368783E+02 -0.11420742126E+02  0.45045680189E+02  0.00000000000E+00 0.  1.
         11    1    3    3    0    0  0.57445351995E+01  0.43011371551E+01  0.10593652834E+01  0.72540830262E+01  0.51100000000E-03 0. -1.
        -11    1    3    3    0    0  0.29068620928E+02  0.16103947467E+02  0.69191023902E+01  0.33944010147E+02  0.51100000000E-03 0.  1.
        -12    1    3    3    0    0  0.19728018181E+01  0.29502841611E+01  0.34422744521E+01  0.49442266380E+01  0.00000000000E+00 0.  1.
</event>
<event>
 7    1  0.1476909E-008  0.4614232E+02  0.7816164E-02  0.1320468E+00
        -11   -1    0    0    0    0  0.00000000000E+00  0.00000000000E+00  0.45593999997E+02  0.45594000000E+02  0.51100000000E-03 0.  1.
         11   -1    0    0    0    0 -0.00000000000E+00 -0.00000000000E+00 -0.45593999997E+02  0.45594000000E+02  0.51100000000E-03 0. -1.
    9900012    2    1    2    0    0 -0.35969213488E+02 -0.21742894351E+02 -0.16204186814E+02  0.46142318254E+02  0.10000004495E+02 0.  0.
        -12    1    1    2    0    0  0.35969213488E+02  0.21742894351E+02  0.16204186814E+02  0.45045681746E+02  0.00000000000E+00 0.  1.
         11    1    3    3    0    0 -0.87856272024E+01 -0.66546658285E+01 -0.63808608312E+01  0.12735274156E+02  0.51100000000E-03 0. -1.
        -11    1    3    3    0    0 -0.19015667788E+02 -0.65744743446E+01 -0.57539769914E+01  0.20926719423E+02  0.51100000000E-03 0.  1.
        -12    1    3    3    0    0 -0.81679184971E+01 -0.85137541774E+01 -0.40693489911E+01  0.12480324674E+02  0.00000000000E+00 0.  1.
</event>
<event>
 7    1  0.1476909E-008  0.4614231E+02  0.7816164E-02  0.1320468E+00
        -11   -1    0    0    0    0  0.00000000000E+00  0.00000000000E+00  0.45593999997E+02  0.45594000000E+02  0.51100000000E-03 0. -1.
         11   -1    0    0    0    0 -0.00000000000E+00 -0.00000000000E+00 -0.45593999997E+02  0.45594000000E+02  0.51100000000E-03 0.  1.
    9900012    2    1    2    0    0 -0.38823929360E+02  0.80907550266E+01  0.21362498048E+02  0.46142310632E+02  0.99999349894E+01 0.  0.
        -12    1    1    2    0    0  0.38823929360E+02 -0.80907550266E+01 -0.21362498048E+02  0.45045689368E+02  0.00000000000E+00 0.  1.
         11    1    3    3    0    0 -0.16141173317E+01  0.12637655245E+01  0.56353469174E+00  0.21260408442E+01  0.51100000000E-03 0.  1.
        -11    1    3    3    0    0 -0.27149143358E+02  0.53895813036E+01  0.19300322489E+02  0.33743533012E+02  0.51100000000E-03 0. -1.
        -12    1    3    3    0    0 -0.10060668670E+02  0.14374081985E+01  0.14986408673E+01  0.10272736776E+02  0.00000000000E+00 0.  1.
</event>
<event>
 7    1  0.1476909E-008  0.4614232E+02  0.7816164E-02  0.1320468E+00
        -11   -1    0    0    0    0  0.00000000000E+00  0.00000000000E+00  0.45593999997E+02  0.45594000000E+02  0.51100000000E-03 0. -1.
         11   -1    0    0    0    0 -0.00000000000E+00 -0.00000000000E+00 -0.45593999997E+02  0.45594000000E+02  0.51100000000E-03 0.  1.
    9900012    2    1    2    0    0 -0.42615723191E+01  0.44352201196E+02 -0.66207816654E+01  0.46142317638E+02  0.99999988771E+01 0.  0.
        -12    1    1    2    0    0  0.42615723191E+01 -0.44352201196E+02  0.66207816654E+01  0.45045682362E+02  0.00000000000E+00 0.  1.
         11    1    3    3    0    0 -0.37750397543E+01  0.29251418730E+02 -0.26625578948E+00  0.29495208345E+02  0.51100000000E-03 0. -1.
        -11    1    3    3    0    0  0.11223953395E+01  0.80731164481E+01 -0.38568980081E+01  0.90172414290E+01  0.51100000000E-03 0.  1.
         12    1    3    3    0    0 -0.16089279043E+01  0.70276660181E+01 -0.24976278678E+01  0.76298678645E+01  0.00000000000E+00 0. -1.
</event>
<event>
 7    1  0.1476909E-008  0.4614232E+02  0.7816164E-02  0.1320468E+00
        -11   -1    0    0    0    0  0.00000000000E+00  0.00000000000E+00  0.45593999997E+02  0.45594000000E+02  0.51100000000E-03 0.  1.
         11   -1    0    0    0    0 -0.00000000000E+00 -0.00000000000E+00 -0.45593999997E+02  0.45594000000E+02  0.51100000000E-03 0. -1.
    9900012    2    1    2    0    0  0.15494260029E+01 -0.19583172749E+02 -0.40536555030E+02  0.46142315750E+02  0.99999816648E+01 0.  0.
        -12    1    1    2    0    0 -0.15494260029E+01  0.19583172749E+02  0.40536555030E+02  0.45045684250E+02  0.00000000000E+00 0.  1.
         11    1    3    3    0    0 -0.26787521031E+01 -0.80881721260E+01 -0.24402852534E+02  0.25847503810E+02  0.51100000000E-03 0. -1.
        -11    1    3    3    0    0  0.13130779794E+01 -0.27492472646E+01 -0.47996388593E+01  0.56849861691E+01  0.51100000000E-03 0.  1.
         12    1    3    3    0    0  0.29151001266E+01 -0.87457533579E+01 -0.11334063637E+02  0.14609825771E+02  0.00000000000E+00 0. -1.
</event>
<event>
 7    1  0.1476909E-008  0.4614232E+02  0.7816164E-02  0.1320468E+00
        -11   -1    0    0    0    0  0.00000000000E+00  0.00000000000E+00  0.45593999997E+02  0.45594000000E+02  0.51100000000E-03 0.  1.
         11   -1    0    0    0    0 -0.00000000000E+00 -0.00000000000E+00 -0.45593999997E+02  0.45594000000E+02  0.51100000000E-03 0. -1.
    9900012    2    1    2    0    0  0.39543246650E+00 -0.20731730140E+02 -0.39989404514E+02  0.46142317912E+02  0.10000001372E+02 0.  0.
        -12    1    1    2    0    0 -0.39543246650E+00  0.20731730140E+02  0.39989404514E+02  0.45045682088E+02  0.00000000000E+00 0.  1.
         11    1    3    3    0    0  0.10878964081E+01 -0.11270732350E+02 -0.27677145482E+02  0.29903800906E+02  0.51100000000E-03 0. -1.
        -11    1    3    3    0    0  0.20031666988E+01 -0.48060349970E+01 -0.62012365962E+01  0.80972825564E+01  0.51100000000E-03 0.  1.
        -12    1    3    3    0    0 -0.26956306404E+01 -0.46549627929E+01 -0.61110224354E+01  0.81412344493E+01  0.00000000000E+00 0.  1.
</event>
<event>
 7    1  0.1476909E-008  0.4614232E+02  0.7816164E-02  0.1320468E+00
        -11   -1    0    0    0    0  0.00000000000E+00  0.00000000000E+00  0.45593999997E+02  0.45594000000E+02  0.51100000000E-03 0. -1.
         11   -1    0    0    0    0 -0.00000000000E+00 -0.00000000000E+00 -0.45593999997E+02  0.45594000000E+02  0.51100000000E-03 0.  1.
    9900012    2    1    2    0    0 -0.12182305892E+02  0.40779944654E+02  0.14754694450E+02  0.46142317952E+02  0.10000001741E+02 0.  0.
        -12    1    1    2    0    0  0.12182305892E+02 -0.40779944654E+02 -0.14754694450E+02  0.45045682048E+02  0.00000000000E+00 0.  1.
         11    1    3    3    0    0 -0.26167925525E+01  0.12696913634E+02  0.50272424185E+01  0.13904401666E+02  0.51100000000E-03 0. -1.
        -11    1    3    3    0    0 -0.59027170035E+01  0.17869972393E+02  0.10145008557E+02  0.21379877928E+02  0.51100000000E-03 0.  1.
        -12    1    3    3    0    0 -0.36627963362E+01  0.10213058627E+02 -0.41755652552E+00  0.10858038357E+02  0.00000000000E+00 0.  1.
</event>
<event>
 7    1  0.1476909E-008  0.4614232E+02  0.7816164E-02  0.1320468E+00
        -11   -1    0    0    0    0  0.00000000000E+00  0.00000000000E+00  0.45593999997E+02  0.45594000000E+02  0.51100000000E-03 0.  1.
         11   -1    0    0    0    0 -0.00000000000E+00 -0.00000000000E+00 -0.45593999997E+02  0.45594000000E+02  0.51100000000E-03 0. -1.
    9900012    2    1    2    0    0  0.30141056133E+02 -0.17478003651E+02 -0.28550826647E+02  0.46142316759E+02  0.99999908574E+01 0.  0.
        -12    1    1    2    0    0 -0.30141056133E+02  0.17478003651E+02  0.28550826647E+02  0.45045683241E+02  0.00000000000E+00 0.  1.
         11    1    3    3    0    0  0.92580052998E+01 -0.23945594832E+01 -0.70430546878E+01  0.11876413467E+02  0.51100000000E-03 0. -1.
        -11    1    3    3    0    0  0.60024058614E+01 -0.45718996049E+01 -0.25292345623E+01  0.79578998394E+01  0.51100000000E-03 0.  1.
         12    1    3    3    0    0  0.14880644972E+02 -0.10511544563E+02 -0.18978537397E+02  0.26308003452E+02  0.00000000000E+00 0. -1.
</event>
<event>
 7    1  0.1476909E-008  0.4614232E+02  0.7816164E-02  0.1320468E+00
        -11   -1    0    0    0    0  0.00000000000E+00  0.00000000000E+00  0.45593999997E+02  0.45594000000E+02  0.51100000000E-03 0. -1.
         11   -1    0    0    0    0 -0.00000000000E+00 -0.00000000000E+00 -0.45593999997E+02  0.45594000000E+02  0.51100000000E-03 0.  1.
    9900012    2    1    2    0    0  0.41860471622E+02  0.67542680701E+01 -0.15205071464E+02  0.46142318522E+02  0.10000006936E+02 0.  0.
        -12    1    1    2    0    0 -0.41860471622E+02 -0.67542680701E+01  0.15205071464E+02  0.45045681478E+02  0.00000000000E+00 0.  1.
         11    1    3    3    0    0  0.13996919401E+02  0.15779245042E+01 -0.54558353160E+01  0.15105288402E+02  0.51100000000E-03 0. -1.
        -11    1    3    3    0    0  0.18630452794E+02  0.70075962943E+01 -0.80548762517E+01  0.21472801606E+02  0.51100000000E-03 0.  1.
        -12    1    3    3    0    0  0.92330994276E+01 -0.18312527284E+01 -0.16943598963E+01  0.95642285133E+01  0.00000000000E+00 0.  1.
</event>
<event>
 7    1  0.1476909E-008  0.4614232E+02  0.7816164E-02  0.1320468E+00
        -11   -1    0    0    0    0  0.00000000000E+00  0.00000000000E+00  0.45593999997E+02  0.45594000000E+02  0.51100000000E-03 0.  1.
         11   -1    0    0    0    0 -0.00000000000E+00 -0.00000000000E+00 -0.45593999997E+02  0.45594000000E+02  0.51100000000E-03 0. -1.
    9900012    2    1    2    0    0 -0.34039992219E+01 -0.16517881525E+02 -0.41769434601E+02  0.46142319989E+02  0.10000020314E+02 0.  0.
        -12    1    1    2    0    0  0.34039992219E+01  0.16517881525E+02  0.41769434601E+02  0.45045680011E+02  0.00000000000E+00 0.  1.
         11    1    3    3    0    0 -0.51769404905E+01 -0.13305610623E+02 -0.36986605620E+02  0.39646550700E+02  0.51100000000E-03 0. -1.
        -11    1    3    3    0    0  0.13048826665E+01 -0.48179575497E+00 -0.68792279899E+00  0.15518002324E+01  0.51100000000E-03 0.  1.
        -12    1    3    3    0    0  0.46805860212E+00 -0.27304751477E+01 -0.40949061821E+01  0.49439690561E+01  0.00000000000E+00 0.  1.
</event>
<event>
 7    1  0.1476909E-008  0.4614232E+02  0.7816164E-02  0.1320468E+00
        -11   -1    0    0    0    0  0.00000000000E+00  0.00000000000E+00  0.45593999997E+02  0.45594000000E+02  0.51100000000E-03 0.  1.
         11   -1    0    0    0    0 -0.00000000000E+00 -0.00000000000E+00 -0.45593999997E+02  0.45594000000E+02  0.51100000000E-03 0. -1.
    9900012    2    1    2    0    0  0.34490752642E+02 -0.21794069676E+02  0.19092407563E+02  0.46142317439E+02  0.99999970606E+01 0.  0.
        -12    1    1    2    0    0 -0.34490752642E+02  0.21794069676E+02 -0.19092407563E+02  0.45045682561E+02  0.00000000000E+00 0.  1.
         11    1    3    3    0    0  0.21173770835E+02 -0.10562825958E+02  0.68295094085E+01  0.24628115288E+02  0.51100000000E-03 0. -1.
        -11    1    3    3    0    0  0.66125126410E+01 -0.75186710145E+01  0.70365982292E+01  0.12238033018E+02  0.51100000000E-03 0.  1.
         12    1    3    3    0    0  0.67044691662E+01 -0.37125727028E+01  0.52262999256E+01  0.92761691331E+01  0.00000000000E+00 0. -1.
</event>
<event>
 7    1  0.1476909E-008  0.4614232E+02  0.7816164E-02  0.1320468E+00
        -11   -1    0    0    0    0  0.00000000000E+00  0.00000000000E+00  0.45593999997E+02  0.45594000000E+02  0.51100000000E-03 0.  1.
         11   -1    0    0    0    0 -0.00000000000E+00 -0.00000000000E+00 -0.45593999997E+02  0.45594000000E+02  0.51100000000E-03 0. -1.
    9900012    2    1    2    0    0  0.45957217985E+01  0.15095566677E+02 -0.42191428645E+02  0.46142318262E+02  0.10000004570E+02 0.  0.
        -12    1    1    2    0    0 -0.45957217985E+01 -0.15095566677E+02  0.42191428645E+02  0.45045681738E+02  0.00000000000E+00 0.  1.
         11    1    3    3    0    0  0.31292948857E+01  0.48144205166E+01 -0.16990937984E+02  0.17934968783E+02  0.51100000000E-03 0. -1.
        -11    1    3    3    0    0  0.22605024578E+01  0.62929514746E+01 -0.75096004533E+01  0.10055108595E+02  0.51100000000E-03 0.  1.
        -12    1    3    3    0    0 -0.79407554504E+00  0.39881946859E+01 -0.17690890207E+02  0.18152240885E+02  0.00000000000E+00 0.  1.
</event>
<event>
 7    1  0.1476909E-008  0.4614232E+02  0.7816164E-02  0.1320468E+00
        -11   -1    0    0    0    0  0.00000000000E+00  0.00000000000E+00  0.45593999997E+02  0.45594000000E+02  0.51100000000E-03 0. -1.
         11   -1    0    0    0    0 -0.00000000000E+00 -0.00000000000E+00 -0.45593999997E+02  0.45594000000E+02  0.51100000000E-03 0.  1.
    9900012    2    1    2    0    0 -0.32345944560E+02  0.21501379713E+02  0.22815432292E+02  0.46142318634E+02  0.10000007963E+02 0.  0.
        -12    1    1    2    0    0  0.32345944560E+02 -0.21501379713E+02 -0.22815432292E+02  0.45045681366E+02  0.00000000000E+00 0.  1.
         11    1    3    3    0    0 -0.18631670934E+02  0.13979028262E+02  0.14402089379E+02  0.27385627101E+02  0.51100000000E-03 0. -1.
        -11    1    3    3    0    0 -0.14338506300E+02  0.73670510744E+01  0.80689291000E+01  0.18027030302E+02  0.51100000000E-03 0.  1.
         12    1    3    3    0    0  0.62423267398E+00  0.15530037684E+00  0.34441381244E+00  0.72966123133E+00  0.00000000000E+00 0. -1.
</event>
<event>
 7    1  0.1476909E-008  0.4614232E+02  0.7816164E-02  0.1320468E+00
        -11   -1    0    0    0    0  0.00000000000E+00  0.00000000000E+00  0.45593999997E+02  0.45594000000E+02  0.51100000000E-03 0.  1.
         11   -1    0    0    0    0 -0.00000000000E+00 -0.00000000000E+00 -0.45593999997E+02  0.45594000000E+02  0.51100000000E-03 0. -1.
    9900012    2    1    2    0    0  0.15415468612E+01  0.20676594058E+02 -0.39990193693E+02  0.46142317631E+02  0.99999988096E+01 0.  0.
        -12    1    1    2    0    0 -0.15415468612E+01 -0.20676594058E+02  0.39990193693E+02  0.45045682369E+02  0.00000000000E+00 0.  1.
         11    1    3    3    0    0  0.33722204012E+00  0.77092387622E+01 -0.17737524319E+02  0.19343367086E+02  0.51100000000E-03 0. -1.
        -11    1    3    3    0    0  0.17611622826E+00  0.65911899818E+01 -0.47040179242E+01  0.80995424065E+01  0.51100000000E-03 0.  1.
        -12    1    3    3    0    0  0.10282085928E+01  0.63761653137E+01 -0.17548651450E+02  0.18699408138E+02  0.00000000000E+00 0.  1.
</event>
<event>
 7    1  0.1476909E-008  0.4614232E+02  0.7816164E-02  0.1320468E+00
        -11   -1    0    0    0    0  0.00000000000E+00  0.00000000000E+00  0.45593999997E+02  0.45594000000E+02  0.51100000000E-03 0.  1.
         11   -1    0    0    0    0 -0.00000000000E+00 -0.00000000000E+00 -0.45593999997E+02  0.45594000000E+02  0.51100000000E-03 0. -1.
    9900012    2    1    2    0    0 -0.57829242281E+00 -0.40320700444E+02  0.20075363931E+02  0.46142317151E+02  0.99999944344E+01 0.  0.
        -12    1    1    2    0    0  0.57829242281E+00  0.40320700444E+02 -0.20075363931E+02  0.45045682849E+02  0.00000000000E+00 0.  1.
         11    1    3    3    0    0 -0.73692895968E-01 -0.83184762498E+00  0.86044780796E+00  0.11990712262E+01  0.51100000000E-03 0. -1.
        -11    1    3    3    0    0  0.37274607172E+01 -0.82336713404E+01  0.33641057478E+01  0.96438848440E+01  0.51100000000E-03 0.  1.
        -12    1    3    3    0    0 -0.42320602441E+01 -0.31255181478E+02  0.15850810376E+02  0.35299361081E+02  0.00000000000E+00 0.  1.
</event>
<event>
 7    1  0.1476909E-008  0.4614232E+02  0.7816164E-02  0.1320468E+00
        -11   -1    0    0    0    0  0.00000000000E+00  0.00000000000E+00  0.45593999997E+02  0.45594000000E+02  0.51100000000E-03 0.  1.
         11   -1    0    0    0    0 -0.00000000000E+00 -0.00000000000E+00 -0.45593999997E+02  0.45594000000E+02  0.51100000000E-03 0. -1.
    9900012    2    1    2    0    0 -0.16258002572E+02 -0.26824173664E+02 -0.32330397643E+02  0.46142317053E+02  0.99999935439E+01 0.  0.
        -12    1    1    2    0    0  0.16258002572E+02  0.26824173664E+02  0.32330397643E+02  0.45045682947E+02  0.00000000000E+00 0.  1.
         11    1    3    3    0    0 -0.10763380867E+02 -0.19598145458E+02 -0.21406500080E+02  0.30954416793E+02  0.51100000000E-03 0. -1.
        -11    1    3    3    0    0 -0.53767205713E+00 -0.22712132442E+01 -0.64839488617E+01  0.68912331221E+01  0.51100000000E-03 0.  1.
         12    1    3    3    0    0 -0.49569496484E+01 -0.49548149618E+01 -0.44399487012E+01  0.82966671376E+01  0.00000000000E+00 0. -1.
</event>
<event>
 7    1  0.1476909E-008  0.4614233E+02  0.7816164E-02  0.1320468E+00
        -11   -1    0    0    0    0  0.00000000000E+00  0.00000000000E+00  0.45593999997E+02  0.45594000000E+02  0.51100000000E-03 0.  1.
         11   -1    0    0    0    0 -0.00000000000E+00 -0.00000000000E+00 -0.45593999997E+02  0.45594000000E+02  0.51100000000E-03 0. -1.
    9900012    2    1    2    0    0  0.44562874964E+02 -0.44245097328E+01 -0.48668972574E+01  0.46142325398E+02  0.10000069641E+02 0.  0.
        -12    1    1    2    0    0 -0.44562874964E+02  0.44245097328E+01  0.48668972574E+01  0.45045674602E+02  0.00000000000E+00 0.  1.
         11    1    3    3    0    0  0.41013353888E+01 -0.20472013636E+01 -0.28546245834E+01  0.54000802927E+01  0.51100000000E-03 0. -1.
        -11    1    3    3    0    0  0.95482876287E+00  0.30107057828E+00  0.38428911488E+00  0.10723897820E+01  0.51100000000E-03 0.  1.
         12    1    3    3    0    0  0.39506710812E+02 -0.26783789475E+01 -0.23965617889E+01  0.39669855323E+02  0.00000000000E+00 0. -1.
</event>
<event>
 7    1  0.1476909E-008  0.4614232E+02  0.7816164E-02  0.1320468E+00
        -11   -1    0    0    0    0  0.00000000000E+00  0.00000000000E+00  0.45593999997E+02  0.45594000000E+02  0.51100000000E-03 0. -1.
         11   -1    0    0    0    0 -0.00000000000E+00 -0.00000000000E+00 -0.45593999997E+02  0.45594000000E+02  0.51100000000E-03 0.  1.
    9900012    2    1    2    0    0 -0.16131790369E+02  0.42057687265E+02 -0.17260202023E+00  0.46142317521E+02  0.99999978083E+01 0.  0.
        -12    1    1    2    0    0  0.16131790369E+02 -0.42057687265E+02  0.17260202023E+00  0.45045682479E+02  0.00000000000E+00 0.  1.
         11    1    3    3    0    0 -0.10855894592E+02  0.22536173749E+02 -0.39455380332E+00  0.25017698687E+02  0.51100000000E-03 0. -1.
        -11    1    3    3    0    0  0.50863237741E+00  0.47696156629E+01 -0.18565148075E+01  0.51434023719E+01  0.51100000000E-03 0.  1.
         12    1    3    3    0    0 -0.57845281544E+01  0.14751897853E+02  0.20784665906E+01  0.15981216462E+02  0.00000000000E+00 0. -1.
</event>
<event>
 7    1  0.1476909E-008  0.4614232E+02  0.7816164E-02  0.1320468E+00
        -11   -1    0    0    0    0  0.00000000000E+00  0.00000000000E+00  0.45593999997E+02  0.45594000000E+02  0.51100000000E-03 0.  1.
         11   -1    0    0    0    0 -0.00000000000E+00 -0.00000000000E+00 -0.45593999997E+02  0.45594000000E+02  0.51100000000E-03 0. -1.
    9900012    2    1    2    0    0 -0.40733346185E+02 -0.19201335148E+02 -0.11030275933E+01  0.46142318379E+02  0.10000005634E+02 0.  0.
        -12    1    1    2    0    0  0.40733346185E+02  0.19201335148E+02  0.11030275933E+01  0.45045681621E+02  0.00000000000E+00 0.  1.
         11    1    3    3    0    0 -0.25437875465E+02 -0.10904814244E+02  0.10627253985E+00  0.27676917747E+02  0.51100000000E-03 0. -1.
        -11    1    3    3    0    0 -0.93472876040E+01 -0.43721611015E+01  0.22226393832E+01  0.10555932187E+02  0.51100000000E-03 0.  1.
         12    1    3    3    0    0 -0.59481831152E+01 -0.39243598024E+01 -0.34319395164E+01  0.79094684445E+01  0.00000000000E+00 0. -1.
</event>
<event>
 7    1  0.1476909E-008  0.4614232E+02  0.7816164E-02  0.1320468E+00
        -11   -1    0    0    0    0  0.00000000000E+00  0.00000000000E+00  0.45593999997E+02  0.45594000000E+02  0.51100000000E-03 0.  1.
         11   -1    0    0    0    0 -0.00000000000E+00 -0.00000000000E+00 -0.45593999997E+02  0.45594000000E+02  0.51100000000E-03 0. -1.
    9900012    2    1    2    0    0  0.35082099244E+02 -0.17727736736E+02 -0.22001983007E+02  0.46142316596E+02  0.99999893742E+01 0.  0.
        -12    1    1    2    0    0 -0.35082099244E+02  0.17727736736E+02  0.22001983007E+02  0.45045683404E+02  0.00000000000E+00 0.  1.
         11    1    3    3    0    0  0.59464426042E+01 -0.58475186268E+01 -0.75122684805E+01  0.11224430129E+02  0.51100000000E-03 0. -1.
        -11    1    3    3    0    0  0.86878171768E+01 -0.40623691351E+01 -0.23043376214E+01  0.98636191341E+01  0.51100000000E-03 0.  1.
        -12    1    3    3    0    0  0.20447839463E+02 -0.78178489738E+01 -0.12185376905E+02  0.25054267333E+02  0.00000000000E+00 0.  1.
</event>
<event>
 7    1  0.1476909E-008  0.4614232E+02  0.7816164E-02  0.1320468E+00
        -11   -1    0    0    0    0  0.00000000000E+00  0.00000000000E+00  0.45593999997E+02  0.45594000000E+02  0.51100000000E-03 0. -1.
         11   -1    0    0    0    0 -0.00000000000E+00 -0.00000000000E+00 -0.45593999997E+02  0.45594000000E+02  0.51100000000E-03 0.  1.
    9900012    2    1    2    0    0  0.41802485857E+01  0.20440610269E+02  0.39922680196E+02  0.46142318515E+02  0.10000006872E+02 0.  0.
        -12    1    1    2    0    0 -0.41802485857E+01 -0.20440610269E+02 -0.39922680196E+02  0.45045681485E+02  0.00000000000E+00 0.  1.
         11    1    3    3    0    0  0.35751335742E+01  0.74317142144E+01  0.14353905912E+02  0.16554352039E+02  0.51100000000E-03 0.  1.
        -11    1    3    3    0    0  0.16872858656E+01  0.13274703337E+02  0.21125005872E+02  0.25006610239E+02  0.51100000000E-03 0. -1.
         12    1    3    3    0    0 -0.10821708541E+01 -0.26580728229E+00  0.44437684122E+01  0.45813562370E+01  0.00000000000E+00 0. -1.
</event>
<event>
 7    1  0.1476909E-008  0.4614232E+02  0.7816164E-02  0.1320468E+00
        -11   -1    0    0    0    0  0.00000000000E+00  0.00000000000E+00  0.45593999997E+02  0.45594000000E+02  0.51100000000E-03 0.  1.
         11   -1    0    0    0    0 -0.00000000000E+00 -0.00000000000E+00 -0.45593999997E+02  0.45594000000E+02  0.51100000000E-03 0. -1.
    9900012    2    1    2    0    0 -0.11135727239E+02  0.38565711567E+02 -0.20440034039E+02  0.46142317395E+02  0.99999966604E+01 0.  0.
        -12    1    1    2    0    0  0.11135727239E+02 -0.38565711567E+02  0.20440034039E+02  0.45045682605E+02  0.00000000000E+00 0.  1.
         11    1    3    3    0    0 -0.10799281344E+02  0.29605247396E+02 -0.16975236281E+02  0.35794605711E+02  0.51100000000E-03 0. -1.
        -11    1    3    3    0    0  0.11944334587E+01  0.53200716571E+01 -0.63504650625E+00  0.54893640844E+01  0.51100000000E-03 0.  1.
         12    1    3    3    0    0 -0.15308793535E+01  0.36403925141E+01 -0.28297512518E+01  0.48583475996E+01  0.00000000000E+00 0. -1.
</event>
<event>
 7    1  0.1476909E-008  0.4614232E+02  0.7816164E-02  0.1320468E+00
        -11   -1    0    0    0    0  0.00000000000E+00  0.00000000000E+00  0.45593999997E+02  0.45594000000E+02  0.51100000000E-03 0. -1.
         11   -1    0    0    0    0 -0.00000000000E+00 -0.00000000000E+00 -0.45593999997E+02  0.45594000000E+02  0.51100000000E-03 0.  1.
    9900012    2    1    2    0    0 -0.27444156586E+02 -0.15908936862E+02  0.31981831181E+02  0.46142317316E+02  0.99999959372E+01 0.  0.
        -12    1    1    2    0    0  0.27444156586E+02  0.15908936862E+02 -0.31981831181E+02  0.45045682684E+02  0.00000000000E+00 0.  1.
         11    1    3    3    0    0 -0.23755465378E+02 -0.13929768228E+02  0.24267100428E+02  0.36704941651E+02  0.51100000000E-03 0. -1.
        -11    1    3    3    0    0 -0.11534325549E+01  0.97841135673E+00  0.17472259488E+01  0.23109509340E+01  0.51100000000E-03 0.  1.
         12    1    3    3    0    0 -0.25352586533E+01 -0.29575799911E+01  0.59675048046E+01  0.71264247303E+01  0.00000000000E+00 0. -1.
</event>
<event>
 7    1  0.1476909E-008  0.4614232E+02  0.7816164E-02  0.1320468E+00
        -11   -1    0    0    0    0  0.00000000000E+00  0.00000000000E+00  0.45593999997E+02  0.45594000000E+02  0.51100000000E-03 0.  1.
         11   -1    0    0    0    0 -0.00000000000E+00 -0.00000000000E+00 -0.45593999997E+02  0.45594000000E+02  0.51100000000E-03 0. -1.
    9900012    2    1    2    0    0  0.23901911441E+02  0.34623573459E+02  0.16094108195E+02  0.46142317320E+02  0.99999959752E+01 0.  0.
        -12    1    1    2    0    0 -0.23901911441E+02 -0.34623573459E+02 -0.16094108195E+02  0.45045682680E+02  0.00000000000E+00 0.  1.
         11    1    3    3    0    0  0.47788019832E+01  0.81603221084E+01  0.16382569914E+01  0.95974836045E+01  0.51100000000E-03 0. -1.
        -11    1    3    3    0    0  0.12863807891E+02  0.22382928971E+02  0.91867161453E+01  0.27401985632E+02  0.51100000000E-03 0.  1.
        -12    1    3    3    0    0  0.62593015661E+01  0.40803223790E+01  0.52691350579E+01  0.91428480831E+01  0.00000000000E+00 0.  1.
</event>
<event>
 7    1  0.1476909E-008  0.4614232E+02  0.7816164E-02  0.1320468E+00
        -11   -1    0    0    0    0  0.00000000000E+00  0.00000000000E+00  0.45593999997E+02  0.45594000000E+02  0.51100000000E-03 0.  1.
         11   -1    0    0    0    0 -0.00000000000E+00 -0.00000000000E+00 -0.45593999997E+02  0.45594000000E+02  0.51100000000E-03 0. -1.
    9900012    2    1    2    0    0 -0.13573177622E+02  0.37851479610E+02 -0.20301425446E+02  0.46142317248E+02  0.99999953249E+01 0.  0.
        -12    1    1    2    0    0  0.13573177622E+02 -0.37851479610E+02  0.20301425446E+02  0.45045682752E+02  0.00000000000E+00 0.  1.
         11    1    3    3    0    0 -0.11955888037E+02  0.22548637377E+02 -0.13875800587E+02  0.29050338182E+02  0.51100000000E-03 0. -1.
        -11    1    3    3    0    0  0.65295457315E+00  0.98513570504E+01 -0.32959281094E+01  0.10408589135E+02  0.51100000000E-03 0.  1.
         12    1    3    3    0    0 -0.22702441580E+01  0.54514851823E+01 -0.31296967499E+01  0.66833899315E+01  0.00000000000E+00 0. -1.
</event>
<event>
 7    1  0.1476909E-008  0.4614232E+02  0.7816164E-02  0.1320468E+00
        -11   -1    0    0    0    0  0.00000000000E+00  0.00000000000E+00  0.45593999997E+02  0.45594000000E+02  0.51100000000E-03 0.  1.
         11   -1    0    0    0    0 -0.00000000000E+00 -0.00000000000E+00 -0.45593999997E+02  0.45594000000E+02  0.51100000000E-03 0. -1.
    9900012    2    1    2    0    0  0.27522577659E+02 -0.86673660451E+00 -0.35649266588E+02  0.46142315172E+02  0.99999763904E+01 0.  0.
        -12    1    1    2    0    0 -0.27522577659E+02  0.86673660451E+00  0.35649266588E+02  0.45045684828E+02  0.00000000000E+00 0.  1.
         11    1    3    3    0    0  0.11520316766E+01 -0.13078521253E+01 -0.45099984603E+01  0.48350533129E+01  0.51100000000E-03 0. -1.
        -11    1    3    3    0    0 -0.18628010366E-01 -0.72525027427E+00 -0.78838239003E+00  0.10713925598E+01  0.51100000000E-03 0.  1.
         12    1    3    3    0    0  0.26389173993E+02  0.11663657951E+01 -0.30350885738E+02  0.40235869299E+02  0.00000000000E+00 0. -1.
</event>
<event>
 7    1  0.1476909E-008  0.4614232E+02  0.7816164E-02  0.1320468E+00
        -11   -1    0    0    0    0  0.00000000000E+00  0.00000000000E+00  0.45593999997E+02  0.45594000000E+02  0.51100000000E-03 0.  1.
         11   -1    0    0    0    0 -0.00000000000E+00 -0.00000000000E+00 -0.45593999997E+02  0.45594000000E+02  0.51100000000E-03 0. -1.
    9900012    2    1    2    0    0 -0.11867386614E+02  0.13736899532E+02 -0.41225915921E+02  0.46142318550E+02  0.10000007191E+02 0.  0.
        -12    1    1    2    0    0  0.11867386614E+02 -0.13736899532E+02  0.41225915921E+02  0.45045681450E+02  0.00000000000E+00 0.  1.
         11    1    3    3    0    0 -0.14947910252E+01  0.74275456536E+01 -0.13038893275E+02  0.15080304133E+02  0.51100000000E-03 0. -1.
        -11    1    3    3    0    0 -0.31183631201E+01  0.44252038140E+01 -0.96073836288E+01  0.11027621584E+02  0.51100000000E-03 0.  1.
        -12    1    3    3    0    0 -0.72542324682E+01  0.18841500643E+01 -0.18579639017E+02  0.20034392833E+02  0.00000000000E+00 0.  1.
</event>
<event>
 7    1  0.1476909E-008  0.4614232E+02  0.7816164E-02  0.1320468E+00
        -11   -1    0    0    0    0  0.00000000000E+00  0.00000000000E+00  0.45593999997E+02  0.45594000000E+02  0.51100000000E-03 0.  1.
         11   -1    0    0    0    0 -0.00000000000E+00 -0.00000000000E+00 -0.45593999997E+02  0.45594000000E+02  0.51100000000E-03 0. -1.
    9900012    2    1    2    0    0  0.12044159499E+02  0.19028643710E+02 -0.39012338641E+02  0.46142316236E+02  0.99999860962E+01 0.  0.
        -12    1    1    2    0    0 -0.12044159499E+02 -0.19028643710E+02  0.39012338641E+02  0.45045683764E+02  0.00000000000E+00 0.  1.
         11    1    3    3    0    0  0.36080228785E+01  0.79951210755E+00 -0.88290733767E+01  0.95712896547E+01  0.51100000000E-03 0. -1.
        -11    1    3    3    0    0  0.52638212122E+01  0.15238803671E+02 -0.25530772463E+02  0.30195186601E+02  0.51100000000E-03 0.  1.
        -12    1    3    3    0    0  0.31723154081E+01  0.29903279316E+01 -0.46524928020E+01  0.63758399807E+01  0.00000000000E+00 0.  1.
</event>
<event>
 7    1  0.1476909E-008  0.4614232E+02  0.7816164E-02  0.1320468E+00
        -11   -1    0    0    0    0  0.00000000000E+00  0.00000000000E+00  0.45593999997E+02  0.45594000000E+02  0.51100000000E-03 0.  1.
         11   -1    0    0    0    0 -0.00000000000E+00 -0.00000000000E+00 -0.45593999997E+02  0.45594000000E+02  0.51100000000E-03 0. -1.
    9900012    2    1    2    0    0  0.15861345260E+02  0.17640559749E+02 -0.38292843355E+02  0.46142317922E+02  0.10000001466E+02 0.  0.
        -12    1    1    2    0    0 -0.15861345260E+02 -0.17640559749E+02  0.38292843355E+02  0.45045682078E+02  0.00000000000E+00 0.  1.
         11    1    3    3    0    0  0.11922063844E+02  0.13141816156E+02 -0.21097868528E+02  0.27567426337E+02  0.51100000000E-03 0. -1.
        -11    1    3    3    0    0  0.59567401938E+00 -0.65255370308E+00 -0.22559213176E+01  0.24227742621E+01  0.51100000000E-03 0.  1.
        -12    1    3    3    0    0  0.33436073965E+01  0.51512972960E+01 -0.14939053509E+02  0.16152117322E+02  0.00000000000E+00 0.  1.
</event>
<event>
 7    1  0.1476909E-008  0.4614232E+02  0.7816164E-02  0.1320468E+00
        -11   -1    0    0    0    0  0.00000000000E+00  0.00000000000E+00  0.45593999997E+02  0.45594000000E+02  0.51100000000E-03 0.  1.
         11   -1    0    0    0    0 -0.00000000000E+00 -0.00000000000E+00 -0.45593999997E+02  0.45594000000E+02  0.51100000000E-03 0. -1.
    9900012    2    1    2    0    0  0.28522265230E+01 -0.15523214152E+02 -0.42190143023E+02  0.46142317165E+02  0.99999945676E+01 0.  0.
        -12    1    1    2    0    0 -0.28522265230E+01  0.15523214152E+02  0.42190143023E+02  0.45045682835E+02  0.00000000000E+00 0.  1.
         11    1    3    3    0    0 -0.19239880240E+01 -0.69931247841E+01 -0.19552072156E+02  0.20853993623E+02  0.51100000000E-03 0. -1.
        -11    1    3    3    0    0  0.51067535270E+01 -0.82125712347E+01 -0.16441351254E+02  0.19074676647E+02  0.51100000000E-03 0.  1.
        -12    1    3    3    0    0 -0.33053897995E+00 -0.31751813322E+00 -0.61967196132E+01  0.62136468959E+01  0.00000000000E+00 0.  1.
</event>
<event>
 7    1  0.1476909E-008  0.4614232E+02  0.7816164E-02  0.1320468E+00
        -11   -1    0    0    0    0  0.00000000000E+00  0.00000000000E+00  0.45593999997E+02  0.45594000000E+02  0.51100000000E-03 0. -1.
         11   -1    0    0    0    0 -0.00000000000E+00 -0.00000000000E+00 -0.45593999997E+02  0.45594000000E+02  0.51100000000E-03 0.  1.
    9900012    2    1    2    0    0 -0.23617565906E+02 -0.35028344004E+02  0.15631353067E+02  0.46142317613E+02  0.99999986487E+01 0.  0.
        -12    1    1    2    0    0  0.23617565906E+02  0.35028344004E+02 -0.15631353067E+02  0.45045682387E+02  0.00000000000E+00 0.  1.
         11    1    3    3    0    0 -0.80577380148E+01 -0.17492532675E+02  0.92740151958E+01  0.21375761961E+02  0.51100000000E-03 0. -1.
        -11    1    3    3    0    0 -0.11924539189E+02 -0.11962981708E+02  0.65332725506E+01  0.18110527786E+02  0.51100000000E-03 0.  1.
        -12    1    3    3    0    0 -0.36352887027E+01 -0.55728296210E+01 -0.17593467924E+00  0.66560278657E+01  0.00000000000E+00 0.  1.
</event>
<event>
 7    1  0.1476909E-008  0.4614232E+02  0.7816164E-02  0.1320468E+00
        -11   -1    0    0    0    0  0.00000000000E+00  0.00000000000E+00  0.45593999997E+02  0.45594000000E+02  0.51100000000E-03 0.  1.
         11   -1    0    0    0    0 -0.00000000000E+00 -0.00000000000E+00 -0.45593999997E+02  0.45594000000E+02  0.51100000000E-03 0. -1.
    9900012    2    1    2    0    0 -0.22286027232E+02 -0.14163189738E+02 -0.36494525334E+02  0.46142319489E+02  0.10000015753E+02 0.  0.
        -12    1    1    2    0    0  0.22286027232E+02  0.14163189738E+02  0.36494525334E+02  0.45045680511E+02  0.00000000000E+00 0.  1.
         11    1    3    3    0    0 -0.57495751825E+01 -0.39181987096E+01 -0.92156522005E+01  0.11547213588E+02  0.51100000000E-03 0. -1.
        -11    1    3    3    0    0 -0.10352061126E+02 -0.14914760096E+01 -0.11802207365E+02  0.15769647085E+02  0.51100000000E-03 0.  1.
        -12    1    3    3    0    0 -0.61843909234E+01 -0.87535150194E+01 -0.15476665769E+02  0.18825458816E+02  0.00000000000E+00 0.  1.
</event>
<event>
 7    1  0.1476909E-008  0.4614232E+02  0.7816164E-02  0.1320468E+00
        -11   -1    0    0    0    0  0.00000000000E+00  0.00000000000E+00  0.45593999997E+02  0.45594000000E+02  0.51100000000E-03 0.  1.
         11   -1    0    0    0    0 -0.00000000000E+00 -0.00000000000E+00 -0.45593999997E+02  0.45594000000E+02  0.51100000000E-03 0. -1.
    9900012    2    1    2    0    0  0.20773554270E+02  0.26112099139E+02 -0.30261050283E+02  0.46142318268E+02  0.10000004621E+02 0.  0.
        -12    1    1    2    0    0 -0.20773554270E+02 -0.26112099139E+02  0.30261050283E+02  0.45045681732E+02  0.00000000000E+00 0.  1.
         11    1    3    3    0    0  0.18087739160E+02  0.21135743636E+02 -0.26015816674E+02  0.38088169875E+02  0.51100000000E-03 0. -1.
        -11    1    3    3    0    0 -0.76030301230E+00  0.17778676830E+00 -0.11350437235E+01  0.13776767839E+01  0.51100000000E-03 0.  1.
         12    1    3    3    0    0  0.34461181230E+01  0.47985687351E+01 -0.31101898859E+01  0.66764716093E+01  0.00000000000E+00 0. -1.
</event>
<event>
 7    1  0.1476909E-008  0.4614232E+02  0.7816164E-02  0.1320468E+00
        -11   -1    0    0    0    0  0.00000000000E+00  0.00000000000E+00  0.45593999997E+02  0.45594000000E+02  0.51100000000E-03 0.  1.
         11   -1    0    0    0    0 -0.00000000000E+00 -0.00000000000E+00 -0.45593999997E+02  0.45594000000E+02  0.51100000000E-03 0. -1.
    9900012    2    1    2    0    0 -0.36316002892E+02 -0.90901574117E+01 -0.25052555236E+02  0.46142317058E+02  0.99999935884E+01 0.  0.
        -12    1    1    2    0    0  0.36316002892E+02  0.90901574117E+01  0.25052555236E+02  0.45045682942E+02  0.00000000000E+00 0.  1.
         11    1    3    3    0    0 -0.14707540035E+02 -0.30044390972E+01 -0.95441468630E+01  0.17788454901E+02  0.51100000000E-03 0. -1.
        -11    1    3    3    0    0 -0.16865971949E+02 -0.14725902286E+01 -0.12710993279E+02  0.21170708117E+02  0.51100000000E-03 0.  1.
        -12    1    3    3    0    0 -0.47424909085E+01 -0.46131280859E+01 -0.27974150944E+01  0.71831540401E+01  0.00000000000E+00 0.  1.
</event>
<event>
 7    1  0.1476909E-008  0.4614231E+02  0.7816164E-02  0.1320468E+00
        -11   -1    0    0    0    0  0.00000000000E+00  0.00000000000E+00  0.45593999997E+02  0.45594000000E+02  0.51100000000E-03 0. -1.
         11   -1    0    0    0    0 -0.00000000000E+00 -0.00000000000E+00 -0.45593999997E+02  0.45594000000E+02  0.51100000000E-03 0.  1.
    9900012    2    1    2    0    0 -0.28199545213E+02  0.23584441598E+02  0.26032168233E+02  0.46142311875E+02  0.99999463255E+01 0.  0.
        -12    1    1    2    0    0  0.28199545213E+02 -0.23584441598E+02 -0.26032168233E+02  0.45045688125E+02  0.00000000000E+00 0.  1.
         11    1    3    3    0    0 -0.15484269280E+02  0.13705937206E+02  0.15435170578E+02  0.25804259355E+02  0.51100000000E-03 0. -1.
        -11    1    3    3    0    0 -0.54090172421E+01  0.81869029183E+01  0.52595302685E+01  0.11133081596E+02  0.51100000000E-03 0.  1.
        -12    1    3    3    0    0 -0.73062586905E+01  0.16916014742E+01  0.53374673873E+01  0.92049709240E+01  0.00000000000E+00 0.  1.
</event>
<event>
 7    1  0.1476909E-008  0.4614230E+02  0.7816164E-02  0.1320468E+00
        -11   -1    0    0    0    0  0.00000000000E+00  0.00000000000E+00  0.45593999997E+02  0.45594000000E+02  0.51100000000E-03 0. -1.
         11   -1    0    0    0    0 -0.00000000000E+00 -0.00000000000E+00 -0.45593999997E+02  0.45594000000E+02  0.51100000000E-03 0.  1.
    9900012    2    1    2    0    0 -0.40248017158E+02  0.15163414981E+02  0.13389652723E+02  0.46142302768E+02  0.99998632798E+01 0.  0.
        -12    1    1    2    0    0  0.40248017158E+02 -0.15163414981E+02 -0.13389652723E+02  0.45045697232E+02  0.00000000000E+00 0.  1.
         11    1    3    3    0    0 -0.83945001779E+01  0.49248440788E+01  0.71220016134E+01  0.12060042690E+02  0.51100000000E-03 0. -1.
        -11    1    3    3    0    0 -0.14839336205E+02  0.49900648161E+01  0.37617577597E+01  0.16101474080E+02  0.51100000000E-03 0.  1.
         12    1    3    3    0    0 -0.17014180776E+02  0.52485060860E+01  0.25058933501E+01  0.17980785998E+02  0.00000000000E+00 0. -1.
</event>
<event>
 7    1  0.1476909E-008  0.4614232E+02  0.7816164E-02  0.1320468E+00
        -11   -1    0    0    0    0  0.00000000000E+00  0.00000000000E+00  0.45593999997E+02  0.45594000000E+02  0.51100000000E-03 0. -1.
         11   -1    0    0    0    0 -0.00000000000E+00 -0.00000000000E+00 -0.45593999997E+02  0.45594000000E+02  0.51100000000E-03 0.  1.
    9900012    2    1    2    0    0  0.68977983687E+01 -0.91489062226E+01  0.43564106685E+02  0.46142317647E+02  0.99999989616E+01 0.  0.
        -12    1    1    2    0    0 -0.68977983687E+01  0.91489062226E+01 -0.43564106685E+02  0.45045682353E+02  0.00000000000E+00 0.  1.
         11    1    3    3    0    0  0.21761716477E+01  0.70354759704E+00  0.14887291382E+02  0.15061943673E+02  0.51100000000E-03 0. -1.
        -11    1    3    3    0    0  0.10258864650E+01 -0.10747751912E+01  0.95024574907E+00  0.17636757058E+01  0.51100000000E-03 0.  1.
        -12    1    3    3    0    0  0.36957402560E+01 -0.87776786284E+01  0.27726569554E+02  0.29316698268E+02  0.00000000000E+00 0.  1.
</event>
<event>
 7    1  0.1476909E-008  0.4614232E+02  0.7816164E-02  0.1320468E+00
        -11   -1    0    0    0    0  0.00000000000E+00  0.00000000000E+00  0.45593999997E+02  0.45594000000E+02  0.51100000000E-03 0.  1.
         11   -1    0    0    0    0 -0.00000000000E+00 -0.00000000000E+00 -0.45593999997E+02  0.45594000000E+02  0.51100000000E-03 0. -1.
    9900012    2    1    2    0    0  0.43093468443E+02  0.11612051884E+02 -0.61013689550E+01  0.46142317914E+02  0.10000001398E+02 0.  0.
        -12    1    1    2    0    0 -0.43093468443E+02 -0.11612051884E+02  0.61013689550E+01  0.45045682086E+02  0.00000000000E+00 0.  1.
         11    1    3    3    0    0  0.19751804137E+02  0.39128616395E+01 -0.88635438571E+00  0.20155145180E+02  0.51100000000E-03 0. -1.
        -11    1    3    3    0    0  0.27944387100E+01  0.43229402236E-01 -0.27516522099E+01  0.39220334816E+01  0.51100000000E-03 0.  1.
        -12    1    3    3    0    0  0.20547225596E+02  0.76559608421E+01 -0.24633623594E+01  0.22065139252E+02  0.00000000000E+00 0.  1.
</event>
<event>
 7    1  0.1476909E-008  0.4614232E+02  0.7816164E-02  0.1320468E+00
        -11   -1    0    0    0    0  0.00000000000E+00  0.00000000000E+00  0.45593999997E+02  0.45594000000E+02  0.51100000000E-03 0. -1.
         11   -1    0    0    0    0 -0.00000000000E+00 -0.00000000000E+00 -0.45593999997E+02  0.45594000000E+02  0.51100000000E-03 0.  1.
    9900012    2    1    2    0    0  0.81588484052E+01  0.17153684946E+02  0.40844801053E+02  0.46142317770E+02  0.10000000082E+02 0.  0.
        -12    1    1    2    0    0 -0.81588484052E+01 -0.17153684946E+02 -0.40844801053E+02  0.45045682230E+02  0.00000000000E+00 0.  1.
         11    1    3    3    0    0  0.31570363657E+01  0.96337832140E+01  0.28619462982E+02  0.30361988065E+02  0.51100000000E-03 0. -1.
        -11    1    3    3    0    0  0.10304584144E+01 -0.31992174307E+00  0.69818902768E+00  0.12851702786E+01  0.51100000000E-03 0.  1.
         12    1    3    3    0    0  0.39713536251E+01  0.78398234750E+01  0.11527149043E+02  0.14495159427E+02  0.00000000000E+00 0. -1.
</event>
<event>
 7    1  0.1476909E-008  0.4614232E+02  0.7816164E-02  0.1320468E+00
        -11   -1    0    0    0    0  0.00000000000E+00  0.00000000000E+00  0.45593999997E+02  0.45594000000E+02  0.51100000000E-03 0. -1.
         11   -1    0    0    0    0 -0.00000000000E+00 -0.00000000000E+00 -0.45593999997E+02  0.45594000000E+02  0.51100000000E-03 0.  1.
    9900012    2    1    2    0    0 -0.35933824665E+02  0.25822681851E+02 -0.84298827144E+01  0.46142316792E+02  0.99999911664E+01 0.  0.
        -12    1    1    2    0    0  0.35933824665E+02 -0.25822681851E+02  0.84298827144E+01  0.45045683208E+02  0.00000000000E+00 0.  1.
         11    1    3    3    0    0 -0.20967560323E+02  0.11420660492E+02 -0.19050749225E+01  0.23952022518E+02  0.51100000000E-03 0. -1.
        -11    1    3    3    0    0 -0.78103603333E+01  0.10228773250E+02 -0.47506952655E+01  0.13718550816E+02  0.51100000000E-03 0.  1.
        -12    1    3    3    0    0 -0.71559040091E+01  0.41732481100E+01 -0.17741125264E+01  0.84717434588E+01  0.00000000000E+00 0.  1.
</event>
<event>
 7    1  0.1476909E-008  0.4614232E+02  0.7816164E-02  0.1320468E+00
        -11   -1    0    0    0    0  0.00000000000E+00  0.00000000000E+00  0.45593999997E+02  0.45594000000E+02  0.51100000000E-03 0. -1.
         11   -1    0    0    0    0 -0.00000000000E+00 -0.00000000000E+00 -0.45593999997E+02  0.45594000000E+02  0.51100000000E-03 0.  1.
    9900012    2    1    2    0    0 -0.30986860635E+02  0.21248850579E+02  0.24847827173E+02  0.46142315432E+02  0.99999787639E+01 0.  0.
        -12    1    1    2    0    0  0.30986860635E+02 -0.21248850579E+02 -0.24847827173E+02  0.45045684568E+02  0.00000000000E+00 0.  1.
         11    1    3    3    0    0 -0.10417994155E+02  0.77757282799E+01  0.58236513948E+01  0.14244699657E+02  0.51100000000E-03 0.  1.
        -11    1    3    3    0    0 -0.49974643252E+01  0.69653940881E+01  0.47924005512E+01  0.98213271908E+01  0.51100000000E-03 0. -1.
        -12    1    3    3    0    0 -0.15571402155E+02  0.65077282110E+01  0.14231775227E+02  0.22076288584E+02  0.00000000000E+00 0.  1.
</event>
<event>
 7    1  0.1476909E-008  0.4614232E+02  0.7816164E-02  0.1320468E+00
        -11   -1    0    0    0    0  0.00000000000E+00  0.00000000000E+00  0.45593999997E+02  0.45594000000E+02  0.51100000000E-03 0.  1.
         11   -1    0    0    0    0 -0.00000000000E+00 -0.00000000000E+00 -0.45593999997E+02  0.45594000000E+02  0.51100000000E-03 0. -1.
    9900012    2    1    2    0    0 -0.10356041235E+02 -0.65762102380E+01 -0.43343043341E+02  0.46142317219E+02  0.99999950545E+01 0.  0.
        -12    1    1    2    0    0  0.10356041235E+02  0.65762102380E+01  0.43343043341E+02  0.45045682781E+02  0.00000000000E+00 0.  1.
         11    1    3    3    0    0 -0.80234740128E+01 -0.18569759191E+01 -0.15611447513E+02  0.17650546409E+02  0.51100000000E-03 0. -1.
        -11    1    3    3    0    0 -0.37771613399E+00 -0.40479255115E+00 -0.13118581424E+02  0.13130259150E+02  0.51100000000E-03 0.  1.
        -12    1    3    3    0    0 -0.19548510887E+01 -0.43144417678E+01 -0.14613014403E+02  0.15361511661E+02  0.00000000000E+00 0.  1.
</event>
<event>
 7    1  0.1793962E-008  0.4614232E+02  0.7816164E-02  0.1320468E+00
        -11   -1    0    0    0    0  0.00000000000E+00  0.00000000000E+00  0.45593999997E+02  0.45594000000E+02  0.51100000000E-03 0. -1.
         11   -1    0    0    0    0 -0.00000000000E+00 -0.00000000000E+00 -0.45593999997E+02  0.45594000000E+02  0.51100000000E-03 0.  1.
    9900012    2    1    2    0    0  0.44536480499E+02 -0.57389471247E+01 -0.35608728550E+01  0.46142318466E+02  0.10000006428E+02 0.  0.
        -12    1    1    2    0    0 -0.44536480499E+02  0.57389471247E+01  0.35608728550E+01  0.45045681534E+02  0.00000000000E+00 0.  1.
         11    1    3    3    0    0  0.20045235747E+02 -0.47561379282E+01 -0.55676603360E+00  0.20609277348E+02  0.51100000000E-03 0. -1.
        -11    1    3    3    0    0  0.90714449979E+01  0.21623522256E+01 -0.29983090257E+01  0.97957510571E+01  0.51100000000E-03 0.  1.
        -12    1    3    3    0    0  0.15419799755E+02 -0.31451614221E+01 -0.57977957496E-02  0.15737290061E+02  0.00000000000E+00 0.  1.
</event>
<event>
 7    1  0.1476909E-008  0.4614232E+02  0.7816164E-02  0.1320468E+00
        -11   -1    0    0    0    0  0.00000000000E+00  0.00000000000E+00  0.45593999997E+02  0.45594000000E+02  0.51100000000E-03 0.  1.
         11   -1    0    0    0    0 -0.00000000000E+00 -0.00000000000E+00 -0.45593999997E+02  0.45594000000E+02  0.51100000000E-03 0. -1.
    9900012    2    1    2    0    0 -0.39633069031E+01  0.37172774341E+02 -0.25131463143E+02  0.46142318814E+02  0.10000009603E+02 0.  0.
        -12    1    1    2    0    0  0.39633069031E+01 -0.37172774341E+02  0.25131463143E+02  0.45045681186E+02  0.00000000000E+00 0.  1.
         11    1    3    3    0    0  0.12730002218E+01  0.21542366821E+02 -0.11826278007E+02  0.24608026121E+02  0.51100000000E-03 0. -1.
        -11    1    3    3    0    0 -0.72653741511E+00  0.76915376251E+01 -0.50876678518E+01  0.92505119905E+01  0.51100000000E-03 0.  1.
         12    1    3    3    0    0 -0.45097697098E+01  0.79388698950E+01 -0.82175172839E+01  0.12283780703E+02  0.00000000000E+00 0. -1.
</event>
<event>
 7    1  0.1476909E-008  0.4614232E+02  0.7816164E-02  0.1320468E+00
        -11   -1    0    0    0    0  0.00000000000E+00  0.00000000000E+00  0.45593999997E+02  0.45594000000E+02  0.51100000000E-03 0.  1.
         11   -1    0    0    0    0 -0.00000000000E+00 -0.00000000000E+00 -0.45593999997E+02  0.45594000000E+02  0.51100000000E-03 0. -1.
    9900012    2    1    2    0    0 -0.28659467966E+02 -0.88887877230E+01 -0.33596693386E+02  0.46142318101E+02  0.10000003099E+02 0.  0.
        -12    1    1    2    0    0  0.28659467966E+02  0.88887877230E+01  0.33596693386E+02  0.45045681899E+02  0.00000000000E+00 0.  1.
         11    1    3    3    0    0 -0.18198758950E+01  0.93476703804E+00 -0.21871109507E+01  0.29948609751E+01  0.51100000000E-03 0. -1.
        -11    1    3    3    0    0 -0.14122589477E+02 -0.91533082411E+01 -0.17118151401E+02  0.24005451317E+02  0.51100000000E-03 0.  1.
         12    1    3    3    0    0 -0.12717002593E+02 -0.67024651993E+00 -0.14291431035E+02  0.19142005809E+02  0.00000000000E+00 0. -1.
</event>
<event>
 7    1  0.1476909E-008  0.4614232E+02  0.7816164E-02  0.1320468E+00
        -11   -1    0    0    0    0  0.00000000000E+00  0.00000000000E+00  0.45593999997E+02  0.45594000000E+02  0.51100000000E-03 0.  1.
         11   -1    0    0    0    0 -0.00000000000E+00 -0.00000000000E+00 -0.45593999997E+02  0.45594000000E+02  0.51100000000E-03 0. -1.
    9900012    2    1    2    0    0  0.36119274710E+02  0.10900255690E+02 -0.24610888551E+02  0.46142318576E+02  0.10000007430E+02 0.  0.
        -12    1    1    2    0    0 -0.36119274710E+02 -0.10900255690E+02  0.24610888551E+02  0.45045681424E+02  0.00000000000E+00 0.  1.
         11    1    3    3    0    0  0.25240744745E+02  0.52121996707E+01 -0.15610903053E+02  0.30132416350E+02  0.51100000000E-03 0. -1.
        -11    1    3    3    0    0  0.72405148687E-01  0.13646113327E+01 -0.12292185099E+00  0.13720483364E+01  0.51100000000E-03 0.  1.
        -12    1    3    3    0    0  0.10806124816E+02  0.43234446864E+01 -0.88770636466E+01  0.14637853889E+02  0.00000000000E+00 0.  1.
</event>
<event>
 7    1  0.1476909E-008  0.4614232E+02  0.7816164E-02  0.1320468E+00
        -11   -1    0    0    0    0  0.00000000000E+00  0.00000000000E+00  0.45593999997E+02  0.45594000000E+02  0.51100000000E-03 0. -1.
         11   -1    0    0    0    0 -0.00000000000E+00 -0.00000000000E+00 -0.45593999997E+02  0.45594000000E+02  0.51100000000E-03 0.  1.
    9900012    2    1    2    0    0 -0.27748970848E+02 -0.26140921410E+02  0.23995005663E+02  0.46142318164E+02  0.10000003674E+02 0.  0.
        -12    1    1    2    0    0  0.27748970848E+02  0.26140921410E+02 -0.23995005663E+02  0.45045681836E+02  0.00000000000E+00 0.  1.
         11    1    3    3    0    0 -0.12417899928E+02 -0.11557569839E+02  0.11669414371E+02  0.20590213482E+02  0.51100000000E-03 0. -1.
        -11    1    3    3    0    0 -0.20035210113E+01 -0.63973547988E+01  0.30216374101E+01  0.73532671489E+01  0.51100000000E-03 0.  1.
         12    1    3    3    0    0 -0.13327549909E+02 -0.81859967726E+01  0.93039538825E+01  0.18198837534E+02  0.00000000000E+00 0. -1.
</event>
<event>
 7    1  0.1476909E-008  0.4614232E+02  0.7816164E-02  0.1320468E+00
        -11   -1    0    0    0    0  0.00000000000E+00  0.00000000000E+00  0.45593999997E+02  0.45594000000E+02  0.51100000000E-03 0.  1.
         11   -1    0    0    0    0 -0.00000000000E+00 -0.00000000000E+00 -0.45593999997E+02  0.45594000000E+02  0.51100000000E-03 0. -1.
    9900012    2    1    2    0    0 -0.25404020057E+02 -0.10900000273E+02 -0.35565985854E+02  0.46142316624E+02  0.99999896326E+01 0.  0.
        -12    1    1    2    0    0  0.25404020057E+02  0.10900000273E+02  0.35565985854E+02  0.45045683376E+02  0.00000000000E+00 0.  1.
         11    1    3    3    0    0 -0.12926090554E+02 -0.90941260402E+01 -0.13861537821E+02  0.21022111608E+02  0.51100000000E-03 0.  1.
        -11    1    3    3    0    0 -0.61966773034E+01 -0.12451272904E+01 -0.11571218515E+02  0.13184925095E+02  0.51100000000E-03 0. -1.
        -12    1    3    3    0    0 -0.62812521996E+01 -0.56074694272E+00 -0.10133229519E+02  0.11935279921E+02  0.00000000000E+00 0.  1.
</event>
<event>
 7    1  0.1476909E-008  0.4614232E+02  0.7816164E-02  0.1320468E+00
        -11   -1    0    0    0    0  0.00000000000E+00  0.00000000000E+00  0.45593999997E+02  0.45594000000E+02  0.51100000000E-03 0.  1.
         11   -1    0    0    0    0 -0.00000000000E+00 -0.00000000000E+00 -0.45593999997E+02  0.45594000000E+02  0.51100000000E-03 0. -1.
    9900012    2    1    2    0    0  0.29385673947E+02  0.15377393636E+02 -0.30481657484E+02  0.46142317506E+02  0.99999976780E+01 0.  0.
        -12    1    1    2    0    0 -0.29385673947E+02 -0.15377393636E+02  0.30481657484E+02  0.45045682494E+02  0.00000000000E+00 0.  1.
         11    1    3    3    0    0  0.50247106113E+01 -0.45951604692E+00 -0.40253303715E+01  0.64546228849E+01  0.51100000000E-03 0. -1.
        -11    1    3    3    0    0  0.77682537887E+00  0.15438644248E+01 -0.45875318703E+00  0.17881358391E+01  0.51100000000E-03 0.  1.
         12    1    3    3    0    0  0.23584137957E+02  0.14293045258E+02 -0.25997573925E+02  0.37899558782E+02  0.00000000000E+00 0. -1.
</event>
<event>
 7    1  0.1476909E-008  0.4614232E+02  0.7816164E-02  0.1320468E+00
        -11   -1    0    0    0    0  0.00000000000E+00  0.00000000000E+00  0.45593999997E+02  0.45594000000E+02  0.51100000000E-03 0.  1.
         11   -1    0    0    0    0 -0.00000000000E+00 -0.00000000000E+00 -0.45593999997E+02  0.45594000000E+02  0.51100000000E-03 0. -1.
    9900012    2    1    2    0    0 -0.17129734796E+02  0.14810339340E+02 -0.38940204084E+02  0.46142318080E+02  0.10000002908E+02 0.  0.
        -12    1    1    2    0    0  0.17129734796E+02 -0.14810339340E+02  0.38940204084E+02  0.45045681920E+02  0.00000000000E+00 0.  1.
         11    1    3    3    0    0 -0.43533186542E+00  0.11900683816E+01 -0.37751301195E+01  0.39821331301E+01  0.51100000000E-03 0. -1.
        -11    1    3    3    0    0 -0.17084884580E+01 -0.71692979588E+00 -0.66322011583E+01  0.68861464992E+01  0.51100000000E-03 0.  1.
        -12    1    3    3    0    0 -0.14985914473E+02  0.14337200754E+02 -0.28532872806E+02  0.35274038451E+02  0.00000000000E+00 0.  1.
</event>
<event>
 7    1  0.1476909E-008  0.4614232E+02  0.7816164E-02  0.1320468E+00
        -11   -1    0    0    0    0  0.00000000000E+00  0.00000000000E+00  0.45593999997E+02  0.45594000000E+02  0.51100000000E-03 0.  1.
         11   -1    0    0    0    0 -0.00000000000E+00 -0.00000000000E+00 -0.45593999997E+02  0.45594000000E+02  0.51100000000E-03 0. -1.
    9900012    2    1    2    0    0 -0.11329155141E+02  0.20254662030E+02 -0.38607154981E+02  0.46142317567E+02  0.99999982280E+01 0.  0.
        -12    1    1    2    0    0  0.11329155141E+02 -0.20254662030E+02  0.38607154981E+02  0.45045682433E+02  0.00000000000E+00 0.  1.
         11    1    3    3    0    0 -0.90214396554E+01  0.10465140679E+02 -0.26827272790E+02  0.30176283874E+02  0.51100000000E-03 0. -1.
        -11    1    3    3    0    0 -0.24216363106E+00 -0.18143753262E+00  0.10063230639E+00  0.31888857719E+00  0.51100000000E-03 0.  1.
         12    1    3    3    0    0 -0.20655518544E+01  0.99709588836E+01 -0.11880514498E+02  0.15647145115E+02  0.00000000000E+00 0. -1.
</event>
<event>
 7    1  0.1476909E-008  0.4614232E+02  0.7816164E-02  0.1320468E+00
        -11   -1    0    0    0    0  0.00000000000E+00  0.00000000000E+00  0.45593999997E+02  0.45594000000E+02  0.51100000000E-03 0. -1.
         11   -1    0    0    0    0 -0.00000000000E+00 -0.00000000000E+00 -0.45593999997E+02  0.45594000000E+02  0.51100000000E-03 0.  1.
    9900012    2    1    2    0    0 -0.29942509086E+02 -0.26081199379E+02  0.21268066634E+02  0.46142317968E+02  0.10000001883E+02 0.  0.
        -12    1    1    2    0    0  0.29942509086E+02  0.26081199379E+02 -0.21268066634E+02  0.45045682032E+02  0.00000000000E+00 0.  1.
         11    1    3    3    0    0  0.24497564621E+00 -0.21102560981E+01  0.51501998031E+00  0.21859642513E+01  0.51100000000E-03 0.  1.
        -11    1    3    3    0    0 -0.36705375241E+01 -0.31699880002E+01  0.41664676238E+01  0.63938347147E+01  0.51100000000E-03 0. -1.
         12    1    3    3    0    0 -0.26516947208E+02 -0.20800955281E+02  0.16586579030E+02  0.37562519002E+02  0.00000000000E+00 0. -1.
</event>
<event>
 7    1  0.1476909E-008  0.4614232E+02  0.7816164E-02  0.1320468E+00
        -11   -1    0    0    0    0  0.00000000000E+00  0.00000000000E+00  0.45593999997E+02  0.45594000000E+02  0.51100000000E-03 0.  1.
         11   -1    0    0    0    0 -0.00000000000E+00 -0.00000000000E+00 -0.45593999997E+02  0.45594000000E+02  0.51100000000E-03 0. -1.
    9900012    2    1    2    0    0 -0.27774738725E+01 -0.25672827583E+02 -0.36909416539E+02  0.46142318004E+02  0.10000002216E+02 0.  0.
        -12    1    1    2    0    0  0.27774738725E+01  0.25672827583E+02  0.36909416539E+02  0.45045681996E+02  0.00000000000E+00 0.  1.
         11    1    3    3    0    0 -0.37194088485E+01 -0.58976814265E+01 -0.87924281633E+01  0.11221561463E+02  0.51100000000E-03 0. -1.
        -11    1    3    3    0    0  0.23080835444E+01 -0.18467607618E+02 -0.26749649628E+02  0.32587168277E+02  0.51100000000E-03 0.  1.
        -12    1    3    3    0    0 -0.13661485684E+01 -0.13075385387E+01 -0.13673387472E+01  0.23335882650E+01  0.00000000000E+00 0.  1.
</event>
<event>
 7    1  0.1476909E-008  0.4614232E+02  0.7816164E-02  0.1320468E+00
        -11   -1    0    0    0    0  0.00000000000E+00  0.00000000000E+00  0.45593999997E+02  0.45594000000E+02  0.51100000000E-03 0.  1.
         11   -1    0    0    0    0 -0.00000000000E+00 -0.00000000000E+00 -0.45593999997E+02  0.45594000000E+02  0.51100000000E-03 0. -1.
    9900012    2    1    2    0    0 -0.31383390101E+01 -0.34610560101E+02 -0.28659613785E+02  0.46142317582E+02  0.99999983630E+01 0.  0.
        -12    1    1    2    0    0  0.31383390101E+01  0.34610560101E+02  0.28659613785E+02  0.45045682418E+02  0.00000000000E+00 0.  1.
         11    1    3    3    0    0 -0.17628712125E+00 -0.24954278588E+02 -0.17346390479E+02  0.30391517895E+02  0.51100000000E-03 0. -1.
        -11    1    3    3    0    0  0.55391356417E+00 -0.11092977094E+01 -0.32765613331E+01  0.35033150122E+01  0.51100000000E-03 0.  1.
         12    1    3    3    0    0 -0.35159654530E+01 -0.85469838030E+01 -0.80366619727E+01  0.12247484675E+02  0.00000000000E+00 0. -1.
</event>
<event>
 7    1  0.1476909E-008  0.4614232E+02  0.7816164E-02  0.1320468E+00
        -11   -1    0    0    0    0  0.00000000000E+00  0.00000000000E+00  0.45593999997E+02  0.45594000000E+02  0.51100000000E-03 0. -1.
         11   -1    0    0    0    0 -0.00000000000E+00 -0.00000000000E+00 -0.45593999997E+02  0.45594000000E+02  0.51100000000E-03 0.  1.
    9900012    2    1    2    0    0 -0.18395418224E+02 -0.40249362160E+02  0.84089821379E+01  0.46142317116E+02  0.99999941186E+01 0.  0.
        -12    1    1    2    0    0  0.18395418224E+02  0.40249362160E+02 -0.84089821379E+01  0.45045682884E+02  0.00000000000E+00 0.  1.
         11    1    3    3    0    0 -0.28509714811E+01 -0.87169098761E+01  0.56327304456E+01  0.10762908933E+02  0.51100000000E-03 0.  1.
        -11    1    3    3    0    0 -0.60276818158E+01 -0.15018113218E+02  0.57909385458E+00  0.16192962133E+02  0.51100000000E-03 0. -1.
         12    1    3    3    0    0 -0.95167649267E+01 -0.16514339066E+02  0.21971578377E+01  0.19186446050E+02  0.00000000000E+00 0. -1.
</event>
<event>
 7    1  0.1476909E-008  0.4614232E+02  0.7816164E-02  0.1320468E+00
        -11   -1    0    0    0    0  0.00000000000E+00  0.00000000000E+00  0.45593999997E+02  0.45594000000E+02  0.51100000000E-03 0.  1.
         11   -1    0    0    0    0 -0.00000000000E+00 -0.00000000000E+00 -0.45593999997E+02  0.45594000000E+02  0.51100000000E-03 0. -1.
    9900012    2    1    2    0    0  0.23202003289E+02  0.17816537719E+02 -0.34254218913E+02  0.46142317784E+02  0.10000000213E+02 0.  0.
        -12    1    1    2    0    0 -0.23202003289E+02 -0.17816537719E+02  0.34254218913E+02  0.45045682216E+02  0.00000000000E+00 0.  1.
         11    1    3    3    0    0  0.91683038473E+01  0.75473125255E+01 -0.11290255745E+02  0.16385652164E+02  0.51100000000E-03 0. -1.
        -11    1    3    3    0    0  0.10461564021E+02  0.11049591955E+02 -0.19342832345E+02  0.24610627126E+02  0.51100000000E-03 0.  1.
        -12    1    3    3    0    0  0.35721354214E+01 -0.78036676163E+00 -0.36211308229E+01  0.51460384946E+01  0.00000000000E+00 0.  1.
</event>
<event>
 7    1  0.1476909E-008  0.4614232E+02  0.7816164E-02  0.1320468E+00
        -11   -1    0    0    0    0  0.00000000000E+00  0.00000000000E+00  0.45593999997E+02  0.45594000000E+02  0.51100000000E-03 0.  1.
         11   -1    0    0    0    0 -0.00000000000E+00 -0.00000000000E+00 -0.45593999997E+02  0.45594000000E+02  0.51100000000E-03 0. -1.
    9900012    2    1    2    0    0  0.92473522122E+01 -0.21808298460E+02 -0.38314462316E+02  0.46142318440E+02  0.10000006190E+02 0.  0.
        -12    1    1    2    0    0 -0.92473522122E+01  0.21808298460E+02  0.38314462316E+02  0.45045681560E+02  0.00000000000E+00 0.  1.
         11    1    3    3    0    0  0.23490837648E+01 -0.12163467317E+02 -0.23511098413E+02  0.26575174140E+02  0.51100000000E-03 0. -1.
        -11    1    3    3    0    0  0.26383018589E+01 -0.66590394801E+01 -0.60092407032E+01  0.93495677754E+01  0.51100000000E-03 0.  1.
        -12    1    3    3    0    0  0.42599665886E+01 -0.29857916629E+01 -0.87941231995E+01  0.10217576525E+02  0.00000000000E+00 0.  1.
</event>
<event>
 7    1  0.1476909E-008  0.4614232E+02  0.7816164E-02  0.1320468E+00
        -11   -1    0    0    0    0  0.00000000000E+00  0.00000000000E+00  0.45593999997E+02  0.45594000000E+02  0.51100000000E-03 0. -1.
         11   -1    0    0    0    0 -0.00000000000E+00 -0.00000000000E+00 -0.45593999997E+02  0.45594000000E+02  0.51100000000E-03 0.  1.
    9900012    2    1    2    0    0  0.39151019837E+02 -0.22123471069E+02 -0.26197683631E+01  0.46142317492E+02  0.99999975421E+01 0.  0.
        -12    1    1    2    0    0 -0.39151019837E+02  0.22123471069E+02  0.26197683631E+01  0.45045682508E+02  0.00000000000E+00 0.  1.
         11    1    3    3    0    0  0.48371930974E+01 -0.17405281089E+01 -0.66049370118E+00  0.51830615808E+01  0.51100000000E-03 0. -1.
        -11    1    3    3    0    0  0.75830641372E+01 -0.55146756017E+00  0.19583444853E+00  0.76056117158E+01  0.51100000000E-03 0.  1.
        -12    1    3    3    0    0  0.26730762602E+02 -0.19831475400E+02 -0.21551091104E+01  0.33353644195E+02  0.00000000000E+00 0.  1.
</event>
<event>
 7    1  0.1476909E-008  0.4614232E+02  0.7816164E-02  0.1320468E+00
        -11   -1    0    0    0    0  0.00000000000E+00  0.00000000000E+00  0.45593999997E+02  0.45594000000E+02  0.51100000000E-03 0. -1.
         11   -1    0    0    0    0 -0.00000000000E+00 -0.00000000000E+00 -0.45593999997E+02  0.45594000000E+02  0.51100000000E-03 0.  1.
    9900012    2    1    2    0    0  0.36858244815E+02 -0.23134291422E+02  0.11635627019E+02  0.46142318003E+02  0.10000002204E+02 0.  0.
        -12    1    1    2    0    0 -0.36858244815E+02  0.23134291422E+02 -0.11635627019E+02  0.45045681997E+02  0.00000000000E+00 0.  1.
         11    1    3    3    0    0  0.12231218531E+02 -0.11214479738E+02  0.35779478494E+01  0.16975540451E+02  0.51100000000E-03 0. -1.
        -11    1    3    3    0    0  0.13076791811E+02 -0.50905913286E+01  0.11626735228E+01  0.14080781730E+02  0.51100000000E-03 0.  1.
         12    1    3    3    0    0  0.11550234473E+02 -0.68292203556E+01  0.68950056469E+01  0.15085995821E+02  0.00000000000E+00 0. -1.
</event>
<event>
 7    1  0.1476909E-008  0.4614232E+02  0.7816164E-02  0.1320468E+00
        -11   -1    0    0    0    0  0.00000000000E+00  0.00000000000E+00  0.45593999997E+02  0.45594000000E+02  0.51100000000E-03 0. -1.
         11   -1    0    0    0    0 -0.00000000000E+00 -0.00000000000E+00 -0.45593999997E+02  0.45594000000E+02  0.51100000000E-03 0.  1.
    9900012    2    1    2    0    0  0.16118487442E+02 -0.40997318130E+02 -0.94089215864E+01  0.46142317225E+02  0.99999951117E+01 0.  0.
        -12    1    1    2    0    0 -0.16118487442E+02  0.40997318130E+02  0.94089215864E+01  0.45045682775E+02  0.00000000000E+00 0.  1.
         11    1    3    3    0    0  0.21107795531E+01 -0.10426399409E+02  0.88272462063E+00  0.10674474131E+02  0.51100000000E-03 0. -1.
        -11    1    3    3    0    0  0.12044938428E+01 -0.70623760070E+01 -0.25004424695E+01  0.75881600593E+01  0.51100000000E-03 0.  1.
         12    1    3    3    0    0  0.12803214047E+02 -0.23508542714E+02 -0.77912037375E+01  0.27879683035E+02  0.00000000000E+00 0. -1.
</event>
<event>
 7    1  0.1476909E-008  0.4614232E+02  0.7816164E-02  0.1320468E+00
        -11   -1    0    0    0    0  0.00000000000E+00  0.00000000000E+00  0.45593999997E+02  0.45594000000E+02  0.51100000000E-03 0.  1.
         11   -1    0    0    0    0 -0.00000000000E+00 -0.00000000000E+00 -0.45593999997E+02  0.45594000000E+02  0.51100000000E-03 0. -1.
    9900012    2    1    2    0    0 -0.44159190564E+01  0.39872074843E+01 -0.44651039378E+02  0.46142317830E+02  0.10000000624E+02 0.  0.
        -12    1    1    2    0    0  0.44159190564E+01 -0.39872074843E+01  0.44651039378E+02  0.45045682170E+02  0.00000000000E+00 0.  1.
         11    1    3    3    0    0 -0.29041981151E+01 -0.59745645436E+00 -0.17307630325E+02  0.17559766190E+02  0.51100000000E-03 0. -1.
        -11    1    3    3    0    0  0.10298548204E+01  0.33666517925E+01 -0.53194094623E+01  0.63789546582E+01  0.51100000000E-03 0.  1.
         12    1    3    3    0    0 -0.25415757617E+01  0.12180121461E+01 -0.22023999591E+02  0.22203596981E+02  0.00000000000E+00 0. -1.
</event>
<event>
 7    1  0.1476909E-008  0.4614232E+02  0.7816164E-02  0.1320468E+00
        -11   -1    0    0    0    0  0.00000000000E+00  0.00000000000E+00  0.45593999997E+02  0.45594000000E+02  0.51100000000E-03 0.  1.
         11   -1    0    0    0    0 -0.00000000000E+00 -0.00000000000E+00 -0.45593999997E+02  0.45594000000E+02  0.51100000000E-03 0. -1.
    9900012    2    1    2    0    0  0.16546062731E+02  0.22826310774E+02 -0.35132616193E+02  0.46142319009E+02  0.10000011375E+02 0.  0.
        -12    1    1    2    0    0 -0.16546062731E+02 -0.22826310774E+02  0.35132616193E+02  0.45045680991E+02  0.00000000000E+00 0.  1.
         11    1    3    3    0    0  0.12454693837E+02  0.15341387442E+02 -0.18443546416E+02  0.27030389784E+02  0.51100000000E-03 0. -1.
        -11    1    3    3    0    0 -0.46963170153E+00  0.25518898912E+01 -0.45833508743E+01  0.52668587839E+01  0.51100000000E-03 0.  1.
         12    1    3    3    0    0  0.45610005959E+01  0.49330334402E+01 -0.12105718902E+02  0.13845070440E+02  0.00000000000E+00 0. -1.
</event>
<event>
 7    1  0.1476909E-008  0.4614232E+02  0.7816164E-02  0.1320468E+00
        -11   -1    0    0    0    0  0.00000000000E+00  0.00000000000E+00  0.45593999997E+02  0.45594000000E+02  0.51100000000E-03 0. -1.
         11   -1    0    0    0    0 -0.00000000000E+00 -0.00000000000E+00 -0.45593999997E+02  0.45594000000E+02  0.51100000000E-03 0.  1.
    9900012    2    1    2    0    0  0.10997090477E+02 -0.43670383267E+02  0.10369535396E+01  0.46142316008E+02  0.99999840170E+01 0.  0.
        -12    1    1    2    0    0 -0.10997090477E+02  0.43670383267E+02 -0.10369535396E+01  0.45045683992E+02  0.00000000000E+00 0.  1.
         11    1    3    3    0    0  0.78186334634E+01 -0.26965802696E+02 -0.32787450211E+01  0.28267219768E+02  0.51100000000E-03 0. -1.
        -11    1    3    3    0    0  0.82562968582E+00 -0.35638761218E+01  0.24326805183E+01  0.43932689600E+01  0.51100000000E-03 0.  1.
         12    1    3    3    0    0  0.23528273282E+01 -0.13140704449E+02  0.18830180424E+01  0.13481827280E+02  0.00000000000E+00 0. -1.
</event>
<event>
 7    1  0.1476909E-008  0.4614232E+02  0.7816164E-02  0.1320468E+00
        -11   -1    0    0    0    0  0.00000000000E+00  0.00000000000E+00  0.45593999997E+02  0.45594000000E+02  0.51100000000E-03 0. -1.
         11   -1    0    0    0    0 -0.00000000000E+00 -0.00000000000E+00 -0.45593999997E+02  0.45594000000E+02  0.51100000000E-03 0.  1.
    9900012    2    1    2    0    0 -0.44373431547E+02  0.42829150961E+01  0.64628717214E+01  0.46142317633E+02  0.99999988338E+01 0.  0.
        -12    1    1    2    0    0  0.44373431547E+02 -0.42829150961E+01 -0.64628717214E+01  0.45045682367E+02  0.00000000000E+00 0.  1.
         11    1    3    3    0    0 -0.43348479928E+01  0.20510930897E+01 -0.82360928196E+00  0.48658218723E+01  0.51100000000E-03 0. -1.
        -11    1    3    3    0    0 -0.33620793938E+02  0.10438344343E+00  0.77389952387E+01  0.34500155485E+02  0.51100000000E-03 0.  1.
        -12    1    3    3    0    0 -0.64177896170E+01  0.21274385630E+01 -0.45251423534E+00  0.67763402763E+01  0.00000000000E+00 0.  1.
</event>
<event>
 7    1  0.1476909E-008  0.4614232E+02  0.7816164E-02  0.1320468E+00
        -11   -1    0    0    0    0  0.00000000000E+00  0.00000000000E+00  0.45593999997E+02  0.45594000000E+02  0.51100000000E-03 0. -1.
         11   -1    0    0    0    0 -0.00000000000E+00 -0.00000000000E+00 -0.45593999997E+02  0.45594000000E+02  0.51100000000E-03 0.  1.
    9900012    2    1    2    0    0 -0.75515921352E+01 -0.36381254805E+02 -0.25465490820E+02  0.46142317991E+02  0.10000002096E+02 0.  0.
        -12    1    1    2    0    0  0.75515921352E+01  0.36381254805E+02  0.25465490820E+02  0.45045682009E+02  0.00000000000E+00 0.  1.
         11    1    3    3    0    0 -0.69211040999E+01 -0.30337685197E+02 -0.17685350568E+02  0.35791737176E+02  0.51100000000E-03 0. -1.
        -11    1    3    3    0    0 -0.16425474437E+01 -0.19383935464E+01 -0.22850660632E+01  0.34171419081E+01  0.51100000000E-03 0.  1.
         12    1    3    3    0    0  0.10120594083E+01 -0.41051760614E+01 -0.54950741886E+01  0.69334389072E+01  0.00000000000E+00 0. -1.
</event>
<event>
 7    1  0.1476909E-008  0.4614232E+02  0.7816164E-02  0.1320468E+00
        -11   -1    0    0    0    0  0.00000000000E+00  0.00000000000E+00  0.45593999997E+02  0.45594000000E+02  0.51100000000E-03 0.  1.
         11   -1    0    0    0    0 -0.00000000000E+00 -0.00000000000E+00 -0.45593999997E+02  0.45594000000E+02  0.51100000000E-03 0. -1.
    9900012    2    1    2    0    0 -0.25244667551E+02  0.31388174220E+02 -0.20164392584E+02  0.46142318199E+02  0.10000003997E+02 0.  0.
        -12    1    1    2    0    0  0.25244667551E+02 -0.31388174220E+02  0.20164392584E+02  0.45045681801E+02  0.00000000000E+00 0.  1.
         11    1    3    3    0    0 -0.15296784976E+02  0.19538054598E+02 -0.16165650481E+02  0.29615122215E+02  0.51100000000E-03 0. -1.
        -11    1    3    3    0    0 -0.91528238048E+01  0.96633732232E+01 -0.46700892974E+01  0.14105484747E+02  0.51100000000E-03 0.  1.
         12    1    3    3    0    0 -0.79505876985E+00  0.21867463987E+01  0.67134719456E+00  0.24217112370E+01  0.00000000000E+00 0. -1.
</event>
<event>
 7    1  0.1476909E-008  0.4614232E+02  0.7816164E-02  0.1320468E+00
        -11   -1    0    0    0    0  0.00000000000E+00  0.00000000000E+00  0.45593999997E+02  0.45594000000E+02  0.51100000000E-03 0.  1.
         11   -1    0    0    0    0 -0.00000000000E+00 -0.00000000000E+00 -0.45593999997E+02  0.45594000000E+02  0.51100000000E-03 0. -1.
    9900012    2    1    2    0    0 -0.34342595110E+02  0.26360240030E+01 -0.29030175637E+02  0.46142316978E+02  0.99999928563E+01 0.  0.
        -12    1    1    2    0    0  0.34342595110E+02 -0.26360240030E+01  0.29030175637E+02  0.45045683022E+02  0.00000000000E+00 0.  1.
         11    1    3    3    0    0 -0.15245364909E+02  0.44425724752E+00 -0.10372717507E+02  0.18444830833E+02  0.51100000000E-03 0.  1.
        -11    1    3    3    0    0 -0.15130249696E+02  0.31583562800E+01 -0.17709447364E+02  0.23505833244E+02  0.51100000000E-03 0. -1.
         12    1    3    3    0    0 -0.39669805041E+01 -0.96658952451E+00 -0.94801076544E+00  0.41916529007E+01  0.00000000000E+00 0. -1.
</event>
<event>
 7    1  0.1476909E-008  0.4614232E+02  0.7816164E-02  0.1320468E+00
        -11   -1    0    0    0    0  0.00000000000E+00  0.00000000000E+00  0.45593999997E+02  0.45594000000E+02  0.51100000000E-03 0.  1.
         11   -1    0    0    0    0 -0.00000000000E+00 -0.00000000000E+00 -0.45593999997E+02  0.45594000000E+02  0.51100000000E-03 0. -1.
    9900012    2    1    2    0    0 -0.39396361827E+02  0.21676778210E+02  0.26753730910E+01  0.46142315857E+02  0.99999826363E+01 0.  0.
        -12    1    1    2    0    0  0.39396361827E+02 -0.21676778210E+02 -0.26753730910E+01  0.45045684143E+02  0.00000000000E+00 0.  1.
         11    1    3    3    0    0 -0.43320830789E+01  0.42594023669E+01 -0.15782135856E+01  0.62769587149E+01  0.51100000000E-03 0. -1.
        -11    1    3    3    0    0 -0.21261680267E+02  0.12804302236E+02  0.48971674065E+01  0.25298052344E+02  0.51100000000E-03 0.  1.
        -12    1    3    3    0    0 -0.13802598481E+02  0.46130736069E+01 -0.64358072993E+00  0.14567304798E+02  0.00000000000E+00 0.  1.
</event>
<event>
 7    1  0.1476909E-008  0.4614232E+02  0.7816164E-02  0.1320468E+00
        -11   -1    0    0    0    0  0.00000000000E+00  0.00000000000E+00  0.45593999997E+02  0.45594000000E+02  0.51100000000E-03 0.  1.
         11   -1    0    0    0    0 -0.00000000000E+00 -0.00000000000E+00 -0.45593999997E+02  0.45594000000E+02  0.51100000000E-03 0. -1.
    9900012    2    1    2    0    0 -0.42118291539E+02 -0.40146625418E+01 -0.15461094728E+02  0.46142318213E+02  0.10000004117E+02 0.  0.
        -12    1    1    2    0    0  0.42118291539E+02  0.40146625418E+01  0.15461094728E+02  0.45045681787E+02  0.00000000000E+00 0.  1.
         11    1    3    3    0    0 -0.12078732540E+02 -0.72338624115E+00 -0.27367939052E+01  0.12406010985E+02  0.51100000000E-03 0. -1.
        -11    1    3    3    0    0 -0.19292030336E+02  0.10941056161E+01 -0.10228420216E+02  0.21863212983E+02  0.51100000000E-03 0.  1.
         12    1    3    3    0    0 -0.10747528664E+02 -0.43853819168E+01 -0.24958806071E+01  0.11873094245E+02  0.00000000000E+00 0. -1.
</event>
<event>
 7    1  0.2126348E-008  0.4614232E+02  0.7816164E-02  0.1320468E+00
        -11   -1    0    0    0    0  0.00000000000E+00  0.00000000000E+00  0.45593999997E+02  0.45594000000E+02  0.51100000000E-03 0. -1.
         11   -1    0    0    0    0 -0.00000000000E+00 -0.00000000000E+00 -0.45593999997E+02  0.45594000000E+02  0.51100000000E-03 0.  1.
    9900012    2    1    2    0    0  0.43631446115E+02 -0.10690375580E+02  0.33356197743E+01  0.46142316751E+02  0.99999907859E+01 0.  0.
        -12    1    1    2    0    0 -0.43631446115E+02  0.10690375580E+02 -0.33356197743E+01  0.45045683249E+02  0.00000000000E+00 0.  1.
         11    1    3    3    0    0  0.31632694942E+02 -0.85659467882E+01  0.27402774876E+01  0.32886349063E+02  0.51100000000E-03 0. -1.
        -11    1    3    3    0    0  0.29820611703E+00  0.92719049718E+00 -0.53513043182E+00  0.11112938165E+01  0.51100000000E-03 0.  1.
        -12    1    3    3    0    0  0.11700545056E+02 -0.30516192888E+01  0.11304727186E+01  0.12144673872E+02  0.00000000000E+00 0.  1.
</event>
<event>
 7    1  0.1476909E-008  0.4614232E+02  0.7816164E-02  0.1320468E+00
        -11   -1    0    0    0    0  0.00000000000E+00  0.00000000000E+00  0.45593999997E+02  0.45594000000E+02  0.51100000000E-03 0.  1.
         11   -1    0    0    0    0 -0.00000000000E+00 -0.00000000000E+00 -0.45593999997E+02  0.45594000000E+02  0.51100000000E-03 0. -1.
    9900012    2    1    2    0    0 -0.41687779228E+02  0.69770752586E+01  0.15574432581E+02  0.46142318005E+02  0.10000002226E+02 0.  0.
        -12    1    1    2    0    0  0.41687779228E+02 -0.69770752586E+01 -0.15574432581E+02  0.45045681995E+02  0.00000000000E+00 0.  1.
         11    1    3    3    0    0 -0.19702011962E+02  0.14928687292E+01  0.59079968842E+01  0.20622860127E+02  0.51100000000E-03 0. -1.
        -11    1    3    3    0    0 -0.32104977154E+01  0.20011196247E+00 -0.89500226598E+00  0.33389174436E+01  0.51100000000E-03 0.  1.
        -12    1    3    3    0    0 -0.18775269551E+02  0.52840945670E+01  0.10561437963E+02  0.22180540434E+02  0.00000000000E+00 0.  1.
</event>
<event>
 7    1  0.1476909E-008  0.4614232E+02  0.7816164E-02  0.1320468E+00
        -11   -1    0    0    0    0  0.00000000000E+00  0.00000000000E+00  0.45593999997E+02  0.45594000000E+02  0.51100000000E-03 0. -1.
         11   -1    0    0    0    0 -0.00000000000E+00 -0.00000000000E+00 -0.45593999997E+02  0.45594000000E+02  0.51100000000E-03 0.  1.
    9900012    2    1    2    0    0  0.44951083616E+02 -0.27961163352E+00 -0.29043816647E+01  0.46142317257E+02  0.99999954075E+01 0.  0.
        -12    1    1    2    0    0 -0.44951083616E+02  0.27961163352E+00  0.29043816647E+01  0.45045682743E+02  0.00000000000E+00 0.  1.
         11    1    3    3    0    0  0.37857033855E+02  0.10174104787E+00 -0.30205358566E+01  0.37977480178E+02  0.51100000000E-03 0. -1.
        -11    1    3    3    0    0  0.67629682026E+00  0.57510740500E+00 -0.12507524312E+01  0.15337887148E+01  0.51100000000E-03 0.  1.
        -12    1    3    3    0    0  0.64177529403E+01 -0.95646008640E+00  0.13669066231E+01  0.66310483647E+01  0.00000000000E+00 0.  1.
</event>
<event>
 7    1  0.1476909E-008  0.4614232E+02  0.7816164E-02  0.1320468E+00
        -11   -1    0    0    0    0  0.00000000000E+00  0.00000000000E+00  0.45593999997E+02  0.45594000000E+02  0.51100000000E-03 0.  1.
         11   -1    0    0    0    0 -0.00000000000E+00 -0.00000000000E+00 -0.45593999997E+02  0.45594000000E+02  0.51100000000E-03 0. -1.
    9900012    2    1    2    0    0  0.56101537340E+01 -0.14890764535E+02 -0.42141485289E+02  0.46142317902E+02  0.10000001284E+02 0.  0.
        -12    1    1    2    0    0 -0.56101537340E+01  0.14890764535E+02  0.42141485289E+02  0.45045682098E+02  0.00000000000E+00 0.  1.
         11    1    3    3    0    0 -0.86500412361E-01 -0.88772239468E+01 -0.25321906027E+02  0.26833030250E+02  0.51100000000E-03 0.  1.
        -11    1    3    3    0    0  0.52435099848E+01 -0.41674630438E+01 -0.15780125442E+02  0.17142768283E+02  0.51100000000E-03 0. -1.
        -12    1    3    3    0    0  0.45314416156E+00 -0.18460775444E+01 -0.10394538200E+01  0.21665193687E+01  0.00000000000E+00 0.  1.
</event>
<event>
 7    1  0.1476909E-008  0.4614232E+02  0.7816164E-02  0.1320468E+00
        -11   -1    0    0    0    0  0.00000000000E+00  0.00000000000E+00  0.45593999997E+02  0.45594000000E+02  0.51100000000E-03 0.  1.
         11   -1    0    0    0    0 -0.00000000000E+00 -0.00000000000E+00 -0.45593999997E+02  0.45594000000E+02  0.51100000000E-03 0. -1.
    9900012    2    1    2    0    0  0.13286186582E+01  0.19604721467E+02 -0.40533975142E+02  0.46142317941E+02  0.10000001638E+02 0.  0.
        -12    1    1    2    0    0 -0.13286186582E+01 -0.19604721467E+02  0.40533975142E+02  0.45045682059E+02  0.00000000000E+00 0.  1.
         11    1    3    3    0    0  0.54076174675E+00  0.11103472497E+02 -0.16182555198E+02  0.19632998185E+02  0.51100000000E-03 0. -1.
        -11    1    3    3    0    0  0.16475331440E+01  0.82685207963E+01 -0.24172859588E+02  0.25600975422E+02  0.51100000000E-03 0.  1.
        -12    1    3    3    0    0 -0.85967623258E+00  0.23272817358E+00 -0.17856035676E+00  0.90834433375E+00  0.00000000000E+00 0.  1.
</event>
<event>
 7    1  0.1476909E-008  0.4614232E+02  0.7816164E-02  0.1320468E+00
        -11   -1    0    0    0    0  0.00000000000E+00  0.00000000000E+00  0.45593999997E+02  0.45594000000E+02  0.51100000000E-03 0. -1.
         11   -1    0    0    0    0 -0.00000000000E+00 -0.00000000000E+00 -0.45593999997E+02  0.45594000000E+02  0.51100000000E-03 0.  1.
    9900012    2    1    2    0    0  0.23308031749E+02 -0.37090246466E+02 -0.10495847623E+02  0.46142317141E+02  0.99999943451E+01 0.  0.
        -12    1    1    2    0    0 -0.23308031749E+02  0.37090246466E+02  0.10495847623E+02  0.45045682859E+02  0.00000000000E+00 0.  1.
         11    1    3    3    0    0  0.25891878243E+01 -0.46528483824E+01 -0.17574410627E+01  0.56072712623E+01  0.51100000000E-03 0. -1.
        -11    1    3    3    0    0  0.20924233841E+02 -0.27995546998E+02 -0.64757721561E+01  0.35545883571E+02  0.51100000000E-03 0.  1.
        -12    1    3    3    0    0 -0.20538991700E+00 -0.44418510856E+01 -0.22626344041E+01  0.49891623076E+01  0.00000000000E+00 0.  1.
</event>
<event>
 7    1  0.1476909E-008  0.4614232E+02  0.7816164E-02  0.1320468E+00
        -11   -1    0    0    0    0  0.00000000000E+00  0.00000000000E+00  0.45593999997E+02  0.45594000000E+02  0.51100000000E-03 0.  1.
         11   -1    0    0    0    0 -0.00000000000E+00 -0.00000000000E+00 -0.45593999997E+02  0.45594000000E+02  0.51100000000E-03 0. -1.
    9900012    2    1    2    0    0  0.69180319072E+01  0.19611967882E+02 -0.39957789506E+02  0.46142318832E+02  0.10000009764E+02 0.  0.
        -12    1    1    2    0    0 -0.69180319072E+01 -0.19611967882E+02  0.39957789506E+02  0.45045681168E+02  0.00000000000E+00 0.  1.
         11    1    3    3    0    0 -0.27319790827E-01  0.76399696815E+01 -0.19574692975E+02  0.21012817241E+02  0.51100000000E-03 0. -1.
        -11    1    3    3    0    0  0.18962631867E+01  0.54039433614E+01 -0.47644797996E+01  0.74497440190E+01  0.51100000000E-03 0.  1.
         12    1    3    3    0    0  0.50490885113E+01  0.65680548393E+01 -0.15618616732E+02  0.17679757572E+02  0.00000000000E+00 0. -1.
</event>
<event>
 7    1  0.1476909E-008  0.4614232E+02  0.7816164E-02  0.1320468E+00
        -11   -1    0    0    0    0  0.00000000000E+00  0.00000000000E+00  0.45593999997E+02  0.45594000000E+02  0.51100000000E-03 0. -1.
         11   -1    0    0    0    0 -0.00000000000E+00 -0.00000000000E+00 -0.45593999997E+02  0.45594000000E+02  0.51100000000E-03 0.  1.
    9900012    2    1    2    0    0 -0.97147607730E+01  0.43893301365E+02 -0.28486781354E+01  0.46142318202E+02  0.10000004017E+02 0.  0.
        -12    1    1    2    0    0  0.97147607730E+01 -0.43893301365E+02  0.28486781354E+01  0.45045681798E+02  0.00000000000E+00 0.  1.
         11    1    3    3    0    0 -0.40880399698E+01  0.21072868473E+02  0.13487898723E+01  0.21508070366E+02  0.51100000000E-03 0. -1.
        -11    1    3    3    0    0 -0.14074528647E+01  0.17083498141E+02 -0.26237771793E+01  0.17341021863E+02  0.51100000000E-03 0.  1.
        -12    1    3    3    0    0 -0.42192679385E+01  0.57369347503E+01 -0.15736908283E+01  0.72932259727E+01  0.00000000000E+00 0.  1.
</event>
<event>
 7    1  0.1476909E-008  0.4614232E+02  0.7816164E-02  0.1320468E+00
        -11   -1    0    0    0    0  0.00000000000E+00  0.00000000000E+00  0.45593999997E+02  0.45594000000E+02  0.51100000000E-03 0.  1.
         11   -1    0    0    0    0 -0.00000000000E+00 -0.00000000000E+00 -0.45593999997E+02  0.45594000000E+02  0.51100000000E-03 0. -1.
    9900012    2    1    2    0    0  0.30988040859E+02 -0.28506479416E+02 -0.16007357993E+02  0.46142317022E+02  0.99999932646E+01 0.  0.
        -12    1    1    2    0    0 -0.30988040859E+02  0.28506479416E+02  0.16007357993E+02  0.45045682978E+02  0.00000000000E+00 0.  1.
         11    1    3    3    0    0  0.19263558475E+02 -0.15478964811E+02 -0.10570303061E+02  0.26877766719E+02  0.51100000000E-03 0. -1.
        -11    1    3    3    0    0  0.86624564978E+01 -0.86575241226E+01 -0.93440843088E+00  0.12282670552E+02  0.51100000000E-03 0.  1.
         12    1    3    3    0    0  0.30620258858E+01 -0.43699904830E+01 -0.45026465016E+01  0.69818797515E+01  0.00000000000E+00 0. -1.
</event>
<event>
 7    1  0.1476909E-008  0.4614232E+02  0.7816164E-02  0.1320468E+00
        -11   -1    0    0    0    0  0.00000000000E+00  0.00000000000E+00  0.45593999997E+02  0.45594000000E+02  0.51100000000E-03 0. -1.
         11   -1    0    0    0    0 -0.00000000000E+00 -0.00000000000E+00 -0.45593999997E+02  0.45594000000E+02  0.51100000000E-03 0.  1.
    9900012    2    1    2    0    0 -0.11086623546E+02  0.23723429831E+02  0.36652410009E+02  0.46142317587E+02  0.99999984149E+01 0.  0.
        -12    1    1    2    0    0  0.11086623546E+02 -0.23723429831E+02 -0.36652410009E+02  0.45045682413E+02  0.00000000000E+00 0.  1.
         11    1    3    3    0    0 -0.77976568966E+01  0.10668212646E+02  0.18734976766E+02  0.22926263735E+02  0.51100000000E-03 0. -1.
        -11    1    3    3    0    0 -0.16531034732E-01  0.66445760616E+01  0.12677031711E+02  0.14312854278E+02  0.51100000000E-03 0.  1.
        -12    1    3    3    0    0 -0.32724356144E+01  0.64106411228E+01  0.52404015315E+01  0.89031995747E+01  0.00000000000E+00 0.  1.
</event>
<event>
 7    1  0.1476909E-008  0.4614232E+02  0.7816164E-02  0.1320468E+00
        -11   -1    0    0    0    0  0.00000000000E+00  0.00000000000E+00  0.45593999997E+02  0.45594000000E+02  0.51100000000E-03 0.  1.
         11   -1    0    0    0    0 -0.00000000000E+00 -0.00000000000E+00 -0.45593999997E+02  0.45594000000E+02  0.51100000000E-03 0. -1.
    9900012    2    1    2    0    0  0.81815763851E+01  0.37677404500E+02 -0.23293528749E+02  0.46142317814E+02  0.10000000484E+02 0.  0.
        -12    1    1    2    0    0 -0.81815763851E+01 -0.37677404500E+02  0.23293528749E+02  0.45045682186E+02  0.00000000000E+00 0.  1.
         11    1    3    3    0    0 -0.61190760443E+00  0.61665416008E+01 -0.54150664050E+01  0.82294356223E+01  0.51100000000E-03 0. -1.
        -11    1    3    3    0    0  0.24482895540E+01  0.20085758943E+02 -0.92198163530E+01  0.22235935958E+02  0.51100000000E-03 0.  1.
        -12    1    3    3    0    0  0.63451944355E+01  0.11425103956E+02 -0.86586459914E+01  0.15676946234E+02  0.00000000000E+00 0.  1.
</event>
<event>
 7    1  0.1476909E-008  0.4614232E+02  0.7816164E-02  0.1320468E+00
        -11   -1    0    0    0    0  0.00000000000E+00  0.00000000000E+00  0.45593999997E+02  0.45594000000E+02  0.51100000000E-03 0.  1.
         11   -1    0    0    0    0 -0.00000000000E+00 -0.00000000000E+00 -0.45593999997E+02  0.45594000000E+02  0.51100000000E-03 0. -1.
    9900012    2    1    2    0    0  0.44989418249E+02  0.21568494606E+01  0.64322160106E+00  0.46142317765E+02  0.10000000033E+02 0.  0.
        -12    1    1    2    0    0 -0.44989418249E+02 -0.21568494606E+01 -0.64322160106E+00  0.45045682235E+02  0.00000000000E+00 0.  1.
         11    1    3    3    0    0  0.12526760318E+02  0.11144340201E+01  0.44028798298E+01  0.13324677794E+02  0.51100000000E-03 0. -1.
        -11    1    3    3    0    0  0.20387288878E+02 -0.61487702695E+00 -0.18485258190E+01  0.20480153063E+02  0.51100000000E-03 0.  1.
        -12    1    3    3    0    0  0.12075369053E+02  0.16572924675E+01 -0.19111324098E+01  0.12337486907E+02  0.00000000000E+00 0.  1.
</event>
<event>
 7    1  0.1476909E-008  0.4614232E+02  0.7816164E-02  0.1320468E+00
        -11   -1    0    0    0    0  0.00000000000E+00  0.00000000000E+00  0.45593999997E+02  0.45594000000E+02  0.51100000000E-03 0.  1.
         11   -1    0    0    0    0 -0.00000000000E+00 -0.00000000000E+00 -0.45593999997E+02  0.45594000000E+02  0.51100000000E-03 0. -1.
    9900012    2    1    2    0    0 -0.71106366695E+01  0.64650143937E+01 -0.44008588929E+02  0.46142318026E+02  0.10000002415E+02 0.  0.
        -12    1    1    2    0    0  0.71106366695E+01 -0.64650143937E+01  0.44008588929E+02  0.45045681974E+02  0.00000000000E+00 0.  1.
         11    1    3    3    0    0  0.25334108423E+00 -0.34719051002E+00 -0.13615878864E+02  0.13622660550E+02  0.51100000000E-03 0. -1.
        -11    1    3    3    0    0 -0.54133108123E+01  0.73081151899E+01 -0.20538855261E+02  0.22462347546E+02  0.51100000000E-03 0.  1.
        -12    1    3    3    0    0 -0.19506669415E+01 -0.49591028619E+00 -0.98538548036E+01  0.10057309930E+02  0.00000000000E+00 0.  1.
</event>
<event>
 7    1  0.1476909E-008  0.4614232E+02  0.7816164E-02  0.1320468E+00
        -11   -1    0    0    0    0  0.00000000000E+00  0.00000000000E+00  0.45593999997E+02  0.45594000000E+02  0.51100000000E-03 0.  1.
         11   -1    0    0    0    0 -0.00000000000E+00 -0.00000000000E+00 -0.45593999997E+02  0.45594000000E+02  0.51100000000E-03 0. -1.
    9900012    2    1    2    0    0  0.87580679738E+01  0.10567402627E+02 -0.42903844075E+02  0.46142316641E+02  0.99999897822E+01 0.  0.
        -12    1    1    2    0    0 -0.87580679738E+01 -0.10567402627E+02  0.42903844075E+02  0.45045683359E+02  0.00000000000E+00 0.  1.
         11    1    3    3    0    0  0.72371063177E+01  0.47000980429E+01 -0.23510506064E+02  0.25044171480E+02  0.51100000000E-03 0. -1.
        -11    1    3    3    0    0  0.18014965857E+01  0.56141700302E+01 -0.93899697349E+01  0.11087642985E+02  0.51100000000E-03 0.  1.
        -12    1    3    3    0    0 -0.28053492955E+00  0.25313455420E+00 -0.10003368276E+02  0.10010502176E+02  0.00000000000E+00 0.  1.
</event>
<event>
 7    1  0.1476909E-008  0.4614232E+02  0.7816164E-02  0.1320468E+00
        -11   -1    0    0    0    0  0.00000000000E+00  0.00000000000E+00  0.45593999997E+02  0.45594000000E+02  0.51100000000E-03 0. -1.
         11   -1    0    0    0    0 -0.00000000000E+00 -0.00000000000E+00 -0.45593999997E+02  0.45594000000E+02  0.51100000000E-03 0.  1.
    9900012    2    1    2    0    0 -0.12268675898E+02 -0.40118041881E+02  0.16405357477E+02  0.46142318225E+02  0.10000004226E+02 0.  0.
        -12    1    1    2    0    0  0.12268675898E+02  0.40118041881E+02 -0.16405357477E+02  0.45045681775E+02  0.00000000000E+00 0.  1.
         11    1    3    3    0    0 -0.89120945980E+01 -0.38038506111E+02  0.14505121764E+02  0.41674355842E+02  0.51100000000E-03 0. -1.
        -11    1    3    3    0    0 -0.87325182746E+00 -0.77384175990E+00  0.19006977905E+00  0.11821702946E+01  0.51100000000E-03 0.  1.
         12    1    3    3    0    0 -0.24833294727E+01 -0.13056940108E+01  0.17101659340E+01  0.32857920874E+01  0.00000000000E+00 0. -1.
</event>
<event>
 7    1  0.1476909E-008  0.4614232E+02  0.7816164E-02  0.1320468E+00
        -11   -1    0    0    0    0  0.00000000000E+00  0.00000000000E+00  0.45593999997E+02  0.45594000000E+02  0.51100000000E-03 0.  1.
         11   -1    0    0    0    0 -0.00000000000E+00 -0.00000000000E+00 -0.45593999997E+02  0.45594000000E+02  0.51100000000E-03 0. -1.
    9900012    2    1    2    0    0  0.82220233022E+01  0.11766782698E+02 -0.42697244102E+02  0.46142317675E+02  0.99999992131E+01 0.  0.
        -12    1    1    2    0    0 -0.82220233022E+01 -0.11766782698E+02  0.42697244102E+02  0.45045682325E+02  0.00000000000E+00 0.  1.
         11    1    3    3    0    0  0.53158117891E+01  0.10152992107E+02 -0.27239109759E+02  0.29551822353E+02  0.51100000000E-03 0. -1.
        -11    1    3    3    0    0 -0.11210569447E+01 -0.41174783142E+00 -0.14704622381E+01  0.18943506552E+01  0.51100000000E-03 0.  1.
         12    1    3    3    0    0  0.40272684578E+01  0.20255384229E+01 -0.13987672105E+02  0.14696144666E+02  0.00000000000E+00 0. -1.
</event>
<event>
 7    1  0.1476909E-008  0.4614232E+02  0.7816164E-02  0.1320468E+00
        -11   -1    0    0    0    0  0.00000000000E+00  0.00000000000E+00  0.45593999997E+02  0.45594000000E+02  0.51100000000E-03 0.  1.
         11   -1    0    0    0    0 -0.00000000000E+00 -0.00000000000E+00 -0.45593999997E+02  0.45594000000E+02  0.51100000000E-03 0. -1.
    9900012    2    1    2    0    0  0.42402501796E+02 -0.12821559251E+02  0.81699947726E+01  0.46142319244E+02  0.10000013526E+02 0.  0.
        -12    1    1    2    0    0 -0.42402501796E+02  0.12821559251E+02 -0.81699947726E+01  0.45045680756E+02  0.00000000000E+00 0.  1.
         11    1    3    3    0    0  0.16033734649E+02 -0.48967463110E+01  0.39248753219E+00  0.16769401240E+02  0.51100000000E-03 0. -1.
        -11    1    3    3    0    0  0.13680571544E+02 -0.14763521002E+01  0.60653550361E+01  0.15037492653E+02  0.51100000000E-03 0.  1.
        -12    1    3    3    0    0  0.12688195602E+02 -0.64484608396E+01  0.17121522043E+01  0.14335425351E+02  0.00000000000E+00 0.  1.
</event>
<event>
 7    1  0.1476909E-008  0.4614232E+02  0.7816164E-02  0.1320468E+00
        -11   -1    0    0    0    0  0.00000000000E+00  0.00000000000E+00  0.45593999997E+02  0.45594000000E+02  0.51100000000E-03 0.  1.
         11   -1    0    0    0    0 -0.00000000000E+00 -0.00000000000E+00 -0.45593999997E+02  0.45594000000E+02  0.51100000000E-03 0. -1.
    9900012    2    1    2    0    0 -0.31415109040E+02  0.31455094089E+02 -0.72650855926E+01  0.46142317756E+02  0.99999999556E+01 0.  0.
        -12    1    1    2    0    0  0.31415109040E+02 -0.31455094089E+02  0.72650855926E+01  0.45045682244E+02  0.00000000000E+00 0.  1.
         11    1    3    3    0    0 -0.20575394669E+02  0.24155249766E+02 -0.63611433936E+01  0.32361815502E+02  0.51100000000E-03 0. -1.
        -11    1    3    3    0    0 -0.38629951362E+01  0.33921417426E+00 -0.57105137955E+00  0.39196808055E+01  0.51100000000E-03 0.  1.
         12    1    3    3    0    0 -0.69767192347E+01  0.69606301482E+01 -0.33289081945E+00  0.98608214484E+01  0.00000000000E+00 0. -1.
</event>
<event>
 7    1  0.1476909E-008  0.4614232E+02  0.7816164E-02  0.1320468E+00
        -11   -1    0    0    0    0  0.00000000000E+00  0.00000000000E+00  0.45593999997E+02  0.45594000000E+02  0.51100000000E-03 0. -1.
         11   -1    0    0    0    0 -0.00000000000E+00 -0.00000000000E+00 -0.45593999997E+02  0.45594000000E+02  0.51100000000E-03 0.  1.
    9900012    2    1    2    0    0  0.34349136826E+02  0.29044522325E+02 -0.23803409930E+01  0.46142317621E+02  0.99999987210E+01 0.  0.
        -12    1    1    2    0    0 -0.34349136826E+02 -0.29044522325E+02  0.23803409930E+01  0.45045682379E+02  0.00000000000E+00 0.  1.
         11    1    3    3    0    0  0.38849135060E+01  0.26563979060E+01  0.10403873541E+01  0.48198971869E+01  0.51100000000E-03 0. -1.
        -11    1    3    3    0    0  0.15846429258E+02  0.10032113896E+02 -0.47457777740E+01  0.19346189196E+02  0.51100000000E-03 0.  1.
        -12    1    3    3    0    0  0.14617794062E+02  0.16356010523E+02  0.13250494269E+01  0.21976231238E+02  0.00000000000E+00 0.  1.
</event>
<event>
 7    1  0.1476909E-008  0.4614231E+02  0.7816164E-02  0.1320468E+00
        -11   -1    0    0    0    0  0.00000000000E+00  0.00000000000E+00  0.45593999997E+02  0.45594000000E+02  0.51100000000E-03 0.  1.
         11   -1    0    0    0    0 -0.00000000000E+00 -0.00000000000E+00 -0.45593999997E+02  0.45594000000E+02  0.51100000000E-03 0. -1.
    9900012    2    1    2    0    0 -0.30712358351E+02  0.81493382142E+01 -0.31928878709E+02  0.46142312477E+02  0.99999518133E+01 0.  0.
        -12    1    1    2    0    0  0.30712358351E+02 -0.81493382142E+01  0.31928878709E+02  0.45045687523E+02  0.00000000000E+00 0.  1.
         11    1    3    3    0    0 -0.67507397639E+01  0.18848468296E+01 -0.89433815854E+01  0.11362623349E+02  0.51100000000E-03 0. -1.
        -11    1    3    3    0    0 -0.43295809709E+01  0.46135042796E+01 -0.45015566973E+01  0.77649021940E+01  0.51100000000E-03 0.  1.
        -12    1    3    3    0    0 -0.19632037616E+02  0.16509871050E+01 -0.18483940427E+02  0.27014786934E+02  0.00000000000E+00 0.  1.
</event>
<event>
 7    1  0.1476909E-008  0.4614232E+02  0.7816164E-02  0.1320468E+00
        -11   -1    0    0    0    0  0.00000000000E+00  0.00000000000E+00  0.45593999997E+02  0.45594000000E+02  0.51100000000E-03 0.  1.
         11   -1    0    0    0    0 -0.00000000000E+00 -0.00000000000E+00 -0.45593999997E+02  0.45594000000E+02  0.51100000000E-03 0. -1.
    9900012    2    1    2    0    0 -0.15628016623E+02 -0.39920119495E+02 -0.13829773709E+02  0.46142317800E+02  0.10000000355E+02 0.  0.
        -12    1    1    2    0    0  0.15628016623E+02  0.39920119495E+02  0.13829773709E+02  0.45045682200E+02  0.00000000000E+00 0.  1.
         11    1    3    3    0    0 -0.13313801151E+02 -0.30259922823E+02 -0.73866577290E+01  0.33874517606E+02  0.51100000000E-03 0. -1.
        -11    1    3    3    0    0 -0.21479009199E+01 -0.76347491832E+01 -0.64699077999E+01  0.10235359332E+02  0.51100000000E-03 0.  1.
         12    1    3    3    0    0 -0.16631455143E+00 -0.20254474881E+01  0.26791820101E-01  0.20324408622E+01  0.00000000000E+00 0. -1.
</event>
<event>
 7    1  0.1476909E-008  0.4614232E+02  0.7816164E-02  0.1320468E+00
        -11   -1    0    0    0    0  0.00000000000E+00  0.00000000000E+00  0.45593999997E+02  0.45594000000E+02  0.51100000000E-03 0.  1.
         11   -1    0    0    0    0 -0.00000000000E+00 -0.00000000000E+00 -0.45593999997E+02  0.45594000000E+02  0.51100000000E-03 0. -1.
    9900012    2    1    2    0    0 -0.18609872650E+02 -0.46185928185E+01 -0.40760945893E+02  0.46142317968E+02  0.10000001883E+02 0.  0.
        -12    1    1    2    0    0  0.18609872650E+02  0.46185928185E+01  0.40760945893E+02  0.45045682032E+02  0.00000000000E+00 0.  1.
         11    1    3    3    0    0 -0.12857782125E+02  0.21124276837E+00 -0.22628858876E+02  0.26027532326E+02  0.51100000000E-03 0.  1.
        -11    1    3    3    0    0 -0.64578030656E+01 -0.43397666281E+01 -0.16978890280E+02  0.18676710370E+02  0.51100000000E-03 0. -1.
        -12    1    3    3    0    0  0.70571254060E+00 -0.49006895875E+00 -0.11531967362E+01  0.14380752716E+01  0.00000000000E+00 0.  1.
</event>
<event>
 7    1  0.1476909E-008  0.4614232E+02  0.7816164E-02  0.1320468E+00
        -11   -1    0    0    0    0  0.00000000000E+00  0.00000000000E+00  0.45593999997E+02  0.45594000000E+02  0.51100000000E-03 0.  1.
         11   -1    0    0    0    0 -0.00000000000E+00 -0.00000000000E+00 -0.45593999997E+02  0.45594000000E+02  0.51100000000E-03 0. -1.
    9900012    2    1    2    0    0  0.20515915287E+02 -0.31075809982E+02 -0.25347677457E+02  0.46142317648E+02  0.99999989712E+01 0.  0.
        -12    1    1    2    0    0 -0.20515915287E+02  0.31075809982E+02  0.25347677457E+02  0.45045682352E+02  0.00000000000E+00 0.  1.
         11    1    3    3    0    0  0.12511957150E+02 -0.17339981184E+02 -0.11999675090E+02  0.24519710881E+02  0.51100000000E-03 0. -1.
        -11    1    3    3    0    0 -0.16941963031E+00 -0.60094026265E+00  0.54570338770E+00  0.82923136631E+00  0.51100000000E-03 0.  1.
        -12    1    3    3    0    0  0.81733777673E+01 -0.13134888535E+02 -0.13893705754E+02  0.20793375401E+02  0.00000000000E+00 0.  1.
</event>
<event>
 7    1  0.1476909E-008  0.4614231E+02  0.7816164E-02  0.1320468E+00
        -11   -1    0    0    0    0  0.00000000000E+00  0.00000000000E+00  0.45593999997E+02  0.45594000000E+02  0.51100000000E-03 0. -1.
         11   -1    0    0    0    0 -0.00000000000E+00 -0.00000000000E+00 -0.45593999997E+02  0.45594000000E+02  0.51100000000E-03 0.  1.
    9900012    2    1    2    0    0  0.18671477162E+02 -0.35657414681E+01  0.40838404274E+02  0.46142313911E+02  0.99999648908E+01 0.  0.
        -12    1    1    2    0    0 -0.18671477162E+02  0.35657414681E+01 -0.40838404274E+02  0.45045686089E+02  0.00000000000E+00 0.  1.
         11    1    3    3    0    0  0.80993704300E+01 -0.33555539034E+01  0.16032726939E+02  0.18273146328E+02  0.51100000000E-03 0. -1.
        -11    1    3    3    0    0  0.73448800777E+01  0.17584701685E+01  0.21700080875E+02  0.22976792442E+02  0.51100000000E-03 0.  1.
        -12    1    3    3    0    0  0.32272266543E+01 -0.19686577332E+01  0.31055964595E+01  0.48923751407E+01  0.00000000000E+00 0.  1.
</event>
<event>
 7    1  0.1476909E-008  0.4614232E+02  0.7816164E-02  0.1320468E+00
        -11   -1    0    0    0    0  0.00000000000E+00  0.00000000000E+00  0.45593999997E+02  0.45594000000E+02  0.51100000000E-03 0.  1.
         11   -1    0    0    0    0 -0.00000000000E+00 -0.00000000000E+00 -0.45593999997E+02  0.45594000000E+02  0.51100000000E-03 0. -1.
    9900012    2    1    2    0    0 -0.30753349383E+02  0.25972009439E+01 -0.32811576536E+02  0.46142317568E+02  0.99999982372E+01 0.  0.
        -12    1    1    2    0    0  0.30753349383E+02 -0.25972009439E+01  0.32811576536E+02  0.45045682432E+02  0.00000000000E+00 0.  1.
         11    1    3    3    0    0 -0.12683942454E+02  0.10324879244E+01 -0.15470900042E+02  0.20032403147E+02  0.51100000000E-03 0. -1.
        -11    1    3    3    0    0 -0.16318383152E+01  0.25727537258E+01 -0.29219553545E+01  0.42213482888E+01  0.51100000000E-03 0.  1.
        -12    1    3    3    0    0 -0.16437568614E+02 -0.10080407063E+01 -0.14418721139E+02  0.21888566132E+02  0.00000000000E+00 0.  1.
</event>
<event>
 7    1  0.1476909E-008  0.4614232E+02  0.7816164E-02  0.1320468E+00
        -11   -1    0    0    0    0  0.00000000000E+00  0.00000000000E+00  0.45593999997E+02  0.45594000000E+02  0.51100000000E-03 0.  1.
         11   -1    0    0    0    0 -0.00000000000E+00 -0.00000000000E+00 -0.45593999997E+02  0.45594000000E+02  0.51100000000E-03 0. -1.
    9900012    2    1    2    0    0  0.20065779547E+02 -0.19223471918E+02 -0.35453294643E+02  0.46142317826E+02  0.10000000593E+02 0.  0.
        -12    1    1    2    0    0 -0.20065779547E+02  0.19223471918E+02  0.35453294643E+02  0.45045682174E+02  0.00000000000E+00 0.  1.
         11    1    3    3    0    0  0.48988374648E+01 -0.83054195417E+01 -0.97656181895E+01  0.13723917121E+02  0.51100000000E-03 0. -1.
        -11    1    3    3    0    0  0.14232770193E+02 -0.78456187819E+01 -0.23338319600E+02  0.28439455751E+02  0.51100000000E-03 0.  1.
        -12    1    3    3    0    0  0.93417188952E+00 -0.30724335948E+01 -0.23493568542E+01  0.39789449534E+01  0.00000000000E+00 0.  1.
</event>
<event>
 7    1  0.1476909E-008  0.4614232E+02  0.7816164E-02  0.1320468E+00
        -11   -1    0    0    0    0  0.00000000000E+00  0.00000000000E+00  0.45593999997E+02  0.45594000000E+02  0.51100000000E-03 0.  1.
         11   -1    0    0    0    0 -0.00000000000E+00 -0.00000000000E+00 -0.45593999997E+02  0.45594000000E+02  0.51100000000E-03 0. -1.
    9900012    2    1    2    0    0 -0.34470141165E+01 -0.24196602422E+02 -0.37838552210E+02  0.46142317539E+02  0.99999979703E+01 0.  0.
        -12    1    1    2    0    0  0.34470141165E+01  0.24196602422E+02  0.37838552210E+02  0.45045682461E+02  0.00000000000E+00 0.  1.
         11    1    3    3    0    0 -0.47573322974E+00 -0.16635217159E+02 -0.30421039579E+02  0.34675588263E+02  0.51100000000E-03 0. -1.
        -11    1    3    3    0    0 -0.20312954440E+01 -0.13349121878E+01 -0.17533750718E+01  0.29970779325E+01  0.51100000000E-03 0.  1.
         12    1    3    3    0    0 -0.93998544273E+00 -0.62264730753E+01 -0.56641375587E+01  0.84696513431E+01  0.00000000000E+00 0. -1.
</event>
<event>
 7    1  0.1476909E-008  0.4614232E+02  0.7816164E-02  0.1320468E+00
        -11   -1    0    0    0    0  0.00000000000E+00  0.00000000000E+00  0.45593999997E+02  0.45594000000E+02  0.51100000000E-03 0.  1.
         11   -1    0    0    0    0 -0.00000000000E+00 -0.00000000000E+00 -0.45593999997E+02  0.45594000000E+02  0.51100000000E-03 0. -1.
    9900012    2    1    2    0    0 -0.39936208490E+02 -0.13973875807E+02 -0.15457798639E+02  0.46142317716E+02  0.99999995864E+01 0.  0.
        -12    1    1    2    0    0  0.39936208490E+02  0.13973875807E+02  0.15457798639E+02  0.45045682284E+02  0.00000000000E+00 0.  1.
         11    1    3    3    0    0 -0.61464690745E+01  0.42745159836E+00 -0.20471373263E+01  0.64925009393E+01  0.51100000000E-03 0. -1.
        -11    1    3    3    0    0 -0.84096511422E+01 -0.60853874307E+01 -0.18350406982E+01  0.10541420547E+02  0.51100000000E-03 0.  1.
         12    1    3    3    0    0 -0.25380088274E+02 -0.83159399751E+01 -0.11575620615E+02  0.29108396230E+02  0.00000000000E+00 0. -1.
</event>
<event>
 7    1  0.1476909E-008  0.4614231E+02  0.7816164E-02  0.1320468E+00
        -11   -1    0    0    0    0  0.00000000000E+00  0.00000000000E+00  0.45593999997E+02  0.45594000000E+02  0.51100000000E-03 0.  1.
         11   -1    0    0    0    0 -0.00000000000E+00 -0.00000000000E+00 -0.45593999997E+02  0.45594000000E+02  0.51100000000E-03 0. -1.
    9900012    2    1    2    0    0 -0.13989720741E+02 -0.87699303324E+01 -0.41910499114E+02  0.46142313187E+02  0.99999582906E+01 0.  0.
        -12    1    1    2    0    0  0.13989720741E+02  0.87699303324E+01  0.41910499114E+02  0.45045686813E+02  0.00000000000E+00 0.  1.
         11    1    3    3    0    0 -0.65616411031E+01 -0.86623621403E+01 -0.24409092199E+02  0.26718821719E+02  0.51100000000E-03 0. -1.
        -11    1    3    3    0    0 -0.46674610083E+01 -0.11553213645E+01 -0.14211183926E+02  0.15002590062E+02  0.51100000000E-03 0.  1.
         12    1    3    3    0    0 -0.27606186291E+01  0.10477531724E+01 -0.32902229895E+01  0.44209014065E+01  0.00000000000E+00 0. -1.
</event>
<event>
 7    1  0.1476909E-008  0.4614232E+02  0.7816164E-02  0.1320468E+00
        -11   -1    0    0    0    0  0.00000000000E+00  0.00000000000E+00  0.45593999997E+02  0.45594000000E+02  0.51100000000E-03 0. -1.
         11   -1    0    0    0    0 -0.00000000000E+00 -0.00000000000E+00 -0.45593999997E+02  0.45594000000E+02  0.51100000000E-03 0.  1.
    9900012    2    1    2    0    0 -0.42323345712E+02  0.47442316700E+00 -0.15415015048E+02  0.46142319203E+02  0.10000013144E+02 0.  0.
        -12    1    1    2    0    0  0.42323345712E+02 -0.47442316700E+00  0.15415015048E+02  0.45045680797E+02  0.00000000000E+00 0.  1.
         11    1    3    3    0    0 -0.14796113552E+02  0.34740048580E+01 -0.72891184933E+01  0.16856005893E+02  0.51100000000E-03 0. -1.
        -11    1    3    3    0    0 -0.23274912259E+02 -0.20683196744E+01 -0.86186074260E+01  0.24905418711E+02  0.51100000000E-03 0.  1.
        -12    1    3    3    0    0 -0.42523199005E+01 -0.93126201667E+00  0.49271087101E+00  0.43808945984E+01  0.00000000000E+00 0.  1.
</event>
<event>
 7    1  0.1476909E-008  0.4614232E+02  0.7816164E-02  0.1320468E+00
        -11   -1    0    0    0    0  0.00000000000E+00  0.00000000000E+00  0.45593999997E+02  0.45594000000E+02  0.51100000000E-03 0.  1.
         11   -1    0    0    0    0 -0.00000000000E+00 -0.00000000000E+00 -0.45593999997E+02  0.45594000000E+02  0.51100000000E-03 0. -1.
    9900012    2    1    2    0    0 -0.31635566284E+02  0.32039312920E+02  0.13367667839E+01  0.46142316833E+02  0.99999915404E+01 0.  0.
        -12    1    1    2    0    0  0.31635566284E+02 -0.32039312920E+02 -0.13367667839E+01  0.45045683167E+02  0.00000000000E+00 0.  1.
         11    1    3    3    0    0 -0.96759719382E+01  0.73859545497E+01  0.17613190055E+01  0.12299552937E+02  0.51100000000E-03 0. -1.
        -11    1    3    3    0    0 -0.19531545050E+02  0.18478927524E+02  0.15149329883E+01  0.26930411001E+02  0.51100000000E-03 0.  1.
        -12    1    3    3    0    0 -0.24280492958E+01  0.61744308467E+01 -0.19394852099E+01  0.69123528948E+01  0.00000000000E+00 0.  1.
</event>
<event>
 7    1  0.1476909E-008  0.4614232E+02  0.7816164E-02  0.1320468E+00
        -11   -1    0    0    0    0  0.00000000000E+00  0.00000000000E+00  0.45593999997E+02  0.45594000000E+02  0.51100000000E-03 0.  1.
         11   -1    0    0    0    0 -0.00000000000E+00 -0.00000000000E+00 -0.45593999997E+02  0.45594000000E+02  0.51100000000E-03 0. -1.
    9900012    2    1    2    0    0 -0.12458049951E+02 -0.18873201862E+00 -0.43288275998E+02  0.46142317996E+02  0.10000002144E+02 0.  0.
        -12    1    1    2    0    0  0.12458049951E+02  0.18873201862E+00  0.43288275998E+02  0.45045682004E+02  0.00000000000E+00 0.  1.
         11    1    3    3    0    0 -0.55581895591E+00 -0.35613827116E+00 -0.13189005553E+02  0.13205515398E+02  0.51100000000E-03 0. -1.
        -11    1    3    3    0    0 -0.79947524269E+01  0.24347932525E+01 -0.14939516594E+02  0.17118219559E+02  0.51100000000E-03 0.  1.
        -12    1    3    3    0    0 -0.39074785679E+01 -0.22673869999E+01 -0.15159753850E+02  0.15818583039E+02  0.00000000000E+00 0.  1.
</event>
<event>
 7    1  0.1476909E-008  0.4614232E+02  0.7816164E-02  0.1320468E+00
        -11   -1    0    0    0    0  0.00000000000E+00  0.00000000000E+00  0.45593999997E+02  0.45594000000E+02  0.51100000000E-03 0.  1.
         11   -1    0    0    0    0 -0.00000000000E+00 -0.00000000000E+00 -0.45593999997E+02  0.45594000000E+02  0.51100000000E-03 0. -1.
    9900012    2    1    2    0    0 -0.31716260995E+02 -0.14833346408E+02 -0.28340150137E+02  0.46142317777E+02  0.10000000140E+02 0.  0.
        -12    1    1    2    0    0  0.31716260995E+02  0.14833346408E+02  0.28340150137E+02  0.45045682223E+02  0.00000000000E+00 0.  1.
         11    1    3    3    0    0 -0.14395139353E+02 -0.61843893004E+01 -0.67181178079E+01  0.17046988449E+02  0.51100000000E-03 0. -1.
        -11    1    3    3    0    0 -0.38612198122E+01 -0.27564885462E+01 -0.60028569769E+01  0.76512443229E+01  0.51100000000E-03 0.  1.
         12    1    3    3    0    0 -0.13459901829E+02 -0.58924685615E+01 -0.15619175353E+02  0.21444085005E+02  0.00000000000E+00 0. -1.
</event>
<event>
 7    1  0.1476909E-008  0.4614232E+02  0.7816164E-02  0.1320468E+00
        -11   -1    0    0    0    0  0.00000000000E+00  0.00000000000E+00  0.45593999997E+02  0.45594000000E+02  0.51100000000E-03 0. -1.
         11   -1    0    0    0    0 -0.00000000000E+00 -0.00000000000E+00 -0.45593999997E+02  0.45594000000E+02  0.51100000000E-03 0.  1.
    9900012    2    1    2    0    0  0.15520716827E+02  0.26111392599E+02  0.33262832326E+02  0.46142317758E+02  0.99999999729E+01 0.  0.
        -12    1    1    2    0    0 -0.15520716827E+02 -0.26111392599E+02 -0.33262832326E+02  0.45045682242E+02  0.00000000000E+00 0.  1.
         11    1    3    3    0    0  0.42185001788E+00  0.55785095093E+01  0.80608831019E+01  0.98120111306E+01  0.51100000000E-03 0. -1.
        -11    1    3    3    0    0  0.10592204542E+02  0.15088695396E+02  0.21600957261E+02  0.28398325314E+02  0.51100000000E-03 0.  1.
        -12    1    3    3    0    0  0.45066622672E+01  0.54441876936E+01  0.36009919635E+01  0.79319813134E+01  0.00000000000E+00 0.  1.
</event>
<event>
 7    1  0.1476909E-008  0.4614232E+02  0.7816164E-02  0.1320468E+00
        -11   -1    0    0    0    0  0.00000000000E+00  0.00000000000E+00  0.45593999997E+02  0.45594000000E+02  0.51100000000E-03 0.  1.
         11   -1    0    0    0    0 -0.00000000000E+00 -0.00000000000E+00 -0.45593999997E+02  0.45594000000E+02  0.51100000000E-03 0. -1.
    9900012    2    1    2    0    0  0.13438281995E+02  0.40451126536E+02 -0.14568195770E+02  0.46142318864E+02  0.10000010059E+02 0.  0.
        -12    1    1    2    0    0 -0.13438281995E+02 -0.40451126536E+02  0.14568195770E+02  0.45045681136E+02  0.00000000000E+00 0.  1.
         11    1    3    3    0    0  0.67166724453E+01  0.19503801655E+02 -0.60877547740E+01  0.21507503951E+02  0.51100000000E-03 0. -1.
        -11    1    3    3    0    0  0.54495582963E+01  0.18428684709E+02 -0.97399185816E+01  0.21544839753E+02  0.51100000000E-03 0.  1.
         12    1    3    3    0    0  0.12720512536E+01  0.25186401714E+01  0.12594775856E+01  0.30899751606E+01  0.00000000000E+00 0. -1.
</event>
<event>
 7    1  0.1476909E-008  0.4614232E+02  0.7816164E-02  0.1320468E+00
        -11   -1    0    0    0    0  0.00000000000E+00  0.00000000000E+00  0.45593999997E+02  0.45594000000E+02  0.51100000000E-03 0. -1.
         11   -1    0    0    0    0 -0.00000000000E+00 -0.00000000000E+00 -0.45593999997E+02  0.45594000000E+02  0.51100000000E-03 0.  1.
    9900012    2    1    2    0    0  0.20457103231E+02  0.10877896343E+02  0.38630187702E+02  0.46142322035E+02  0.10000038973E+02 0.  0.
        -12    1    1    2    0    0 -0.20457103231E+02 -0.10877896343E+02 -0.38630187702E+02  0.45045677965E+02  0.00000000000E+00 0.  1.
         11    1    3    3    0    0  0.11839961138E+02  0.78531999671E+01  0.22588075015E+02  0.26684800216E+02  0.51100000000E-03 0. -1.
        -11    1    3    3    0    0  0.83999460374E+01  0.44295039003E+01  0.14712797238E+02  0.17511310661E+02  0.51100000000E-03 0.  1.
        -12    1    3    3    0    0  0.21719605599E+00 -0.14048075243E+01  0.13293154485E+01  0.19462111573E+01  0.00000000000E+00 0.  1.
</event>
<event>
 7    1  0.1476909E-008  0.4614232E+02  0.7816164E-02  0.1320468E+00
        -11   -1    0    0    0    0  0.00000000000E+00  0.00000000000E+00  0.45593999997E+02  0.45594000000E+02  0.51100000000E-03 0. -1.
         11   -1    0    0    0    0 -0.00000000000E+00 -0.00000000000E+00 -0.45593999997E+02  0.45594000000E+02  0.51100000000E-03 0.  1.
    9900012    2    1    2    0    0 -0.12052836119E+02  0.34280528278E+02  0.26621195277E+02  0.46142317460E+02  0.99999972528E+01 0.  0.
        -12    1    1    2    0    0  0.12052836119E+02 -0.34280528278E+02 -0.26621195277E+02  0.45045682540E+02  0.00000000000E+00 0.  1.
         11    1    3    3    0    0 -0.34116899488E+01  0.60897964414E+01  0.69330795267E+01  0.98383352753E+01  0.51100000000E-03 0. -1.
        -11    1    3    3    0    0 -0.35732797282E+01  0.33558298417E+01  0.50320081364E+01  0.70250286895E+01  0.51100000000E-03 0.  1.
        -12    1    3    3    0    0 -0.50678664416E+01  0.24834901995E+02  0.14656107614E+02  0.29278953495E+02  0.00000000000E+00 0.  1.
</event>
<event>
 7    1  0.1476909E-008  0.4614231E+02  0.7816164E-02  0.1320468E+00
        -11   -1    0    0    0    0  0.00000000000E+00  0.00000000000E+00  0.45593999997E+02  0.45594000000E+02  0.51100000000E-03 0.  1.
         11   -1    0    0    0    0 -0.00000000000E+00 -0.00000000000E+00 -0.45593999997E+02  0.45594000000E+02  0.51100000000E-03 0. -1.
    9900012    2    1    2    0    0 -0.17200148209E+02  0.19763976511E+02 -0.36642242835E+02  0.46142314014E+02  0.99999658336E+01 0.  0.
        -12    1    1    2    0    0  0.17200148209E+02 -0.19763976511E+02  0.36642242835E+02  0.45045685986E+02  0.00000000000E+00 0.  1.
         11    1    3    3    0    0 -0.51516194075E+01  0.10584926233E+02 -0.19305904418E+02  0.22611894913E+02  0.51100000000E-03 0. -1.
        -11    1    3    3    0    0 -0.13352247984E+01 -0.30099828312E+00 -0.54943631494E+00  0.14748917771E+01  0.51100000000E-03 0.  1.
        -12    1    3    3    0    0 -0.10713304003E+02  0.94800485606E+01 -0.16786902102E+02  0.22055527325E+02  0.00000000000E+00 0.  1.
</event>
<event>
 7    1  0.1476909E-008  0.4614232E+02  0.7816164E-02  0.1320468E+00
        -11   -1    0    0    0    0  0.00000000000E+00  0.00000000000E+00  0.45593999997E+02  0.45594000000E+02  0.51100000000E-03 0. -1.
         11   -1    0    0    0    0 -0.00000000000E+00 -0.00000000000E+00 -0.45593999997E+02  0.45594000000E+02  0.51100000000E-03 0.  1.
    9900012    2    1    2    0    0  0.31553934929E+02  0.42482877062E+01  0.31865571261E+02  0.46142318856E+02  0.10000009982E+02 0.  0.
        -12    1    1    2    0    0 -0.31553934929E+02 -0.42482877062E+01 -0.31865571261E+02  0.45045681144E+02  0.00000000000E+00 0.  1.
         11    1    3    3    0    0  0.76506831360E+01 -0.66132110118E-01  0.69480218789E+01  0.10335005283E+02  0.51100000000E-03 0. -1.
        -11    1    3    3    0    0  0.23528273915E+02  0.26775650000E+01  0.24507269734E+02  0.34078663380E+02  0.51100000000E-03 0.  1.
        -12    1    3    3    0    0  0.37497787814E+00  0.16368548163E+01  0.41027964902E+00  0.17286501928E+01  0.00000000000E+00 0.  1.
</event>
<event>
 7    1  0.1476909E-008  0.4614232E+02  0.7816164E-02  0.1320468E+00
        -11   -1    0    0    0    0  0.00000000000E+00  0.00000000000E+00  0.45593999997E+02  0.45594000000E+02  0.51100000000E-03 0. -1.
         11   -1    0    0    0    0 -0.00000000000E+00 -0.00000000000E+00 -0.45593999997E+02  0.45594000000E+02  0.51100000000E-03 0.  1.
    9900012    2    1    2    0    0  0.40852511190E+02 -0.18877277714E+02  0.19581105116E+01  0.46142317841E+02  0.10000000725E+02 0.  0.
        -12    1    1    2    0    0 -0.40852511190E+02  0.18877277714E+02 -0.19581105116E+01  0.45045682159E+02  0.00000000000E+00 0.  1.
         11    1    3    3    0    0  0.33759263455E+02 -0.16808125009E+02  0.46809865997E+01  0.38001481171E+02  0.51100000000E-03 0. -1.
        -11    1    3    3    0    0  0.60679055613E+01 -0.14063559519E+01 -0.14874044622E+01  0.64038806407E+01  0.51100000000E-03 0.  1.
         12    1    3    3    0    0  0.10253421736E+01 -0.66279675249E+00 -0.12354716260E+01  0.17369560290E+01  0.00000000000E+00 0. -1.
</event>
<event>
 7    1  0.1476909E-008  0.4614232E+02  0.7816164E-02  0.1320468E+00
        -11   -1    0    0    0    0  0.00000000000E+00  0.00000000000E+00  0.45593999997E+02  0.45594000000E+02  0.51100000000E-03 0. -1.
         11   -1    0    0    0    0 -0.00000000000E+00 -0.00000000000E+00 -0.45593999997E+02  0.45594000000E+02  0.51100000000E-03 0.  1.
    9900012    2    1    2    0    0 -0.13389022572E+02  0.37368664159E+02  0.21293907024E+02  0.46142318045E+02  0.10000002590E+02 0.  0.
        -12    1    1    2    0    0  0.13389022572E+02 -0.37368664159E+02 -0.21293907024E+02  0.45045681955E+02  0.00000000000E+00 0.  1.
         11    1    3    3    0    0 -0.65118486950E+01  0.12027287243E+02  0.44659561168E+01  0.14387653601E+02  0.51100000000E-03 0. -1.
        -11    1    3    3    0    0 -0.13698506523E+01  0.48819972879E+00  0.65065719596E+00  0.15931681746E+01  0.51100000000E-03 0.  1.
         12    1    3    3    0    0 -0.55073232242E+01  0.24853177187E+02  0.16177293711E+02  0.30161496269E+02  0.00000000000E+00 0. -1.
</event>
<event>
 7    1  0.1476909E-008  0.4614231E+02  0.7816164E-02  0.1320468E+00
        -11   -1    0    0    0    0  0.00000000000E+00  0.00000000000E+00  0.45593999997E+02  0.45594000000E+02  0.51100000000E-03 0.  1.
         11   -1    0    0    0    0 -0.00000000000E+00 -0.00000000000E+00 -0.45593999997E+02  0.45594000000E+02  0.51100000000E-03 0. -1.
    9900012    2    1    2    0    0 -0.16995084117E+02 -0.24617430504E+01 -0.41643977895E+02  0.46142312549E+02  0.99999524736E+01 0.  0.
        -12    1    1    2    0    0  0.16995084117E+02  0.24617430504E+01  0.41643977895E+02  0.45045687451E+02  0.00000000000E+00 0.  1.
         11    1    3    3    0    0 -0.73868149755E+01 -0.11565048830E+01 -0.13758347232E+02  0.15658692724E+02  0.51100000000E-03 0. -1.
        -11    1    3    3    0    0 -0.67845115019E+01 -0.27503790147E+01 -0.10434188965E+02  0.12746233980E+02  0.51100000000E-03 0.  1.
        -12    1    3    3    0    0 -0.28237576398E+01  0.14451408473E+01 -0.17451441698E+02  0.17737385845E+02  0.00000000000E+00 0.  1.
</event>
<event>
 7    1  0.1476909E-008  0.4614232E+02  0.7816164E-02  0.1320468E+00
        -11   -1    0    0    0    0  0.00000000000E+00  0.00000000000E+00  0.45593999997E+02  0.45594000000E+02  0.51100000000E-03 0.  1.
         11   -1    0    0    0    0 -0.00000000000E+00 -0.00000000000E+00 -0.45593999997E+02  0.45594000000E+02  0.51100000000E-03 0. -1.
    9900012    2    1    2    0    0  0.12659254762E+02  0.42812323556E+02 -0.59968010589E+01  0.46142318716E+02  0.10000008709E+02 0.  0.
        -12    1    1    2    0    0 -0.12659254762E+02 -0.42812323556E+02  0.59968010589E+01  0.45045681284E+02  0.00000000000E+00 0.  1.
         11    1    3    3    0    0  0.14246219232E+01  0.85410955053E+00 -0.85410728977E+00  0.18677661181E+01  0.51100000000E-03 0.  1.
        -11    1    3    3    0    0  0.96977839774E+01  0.23918215727E+02 -0.41599677865E+01  0.26142558977E+02  0.51100000000E-03 0. -1.
         12    1    3    3    0    0  0.15368488619E+01  0.18039998279E+02 -0.98272598263E+00  0.18131993621E+02  0.00000000000E+00 0. -1.
</event>
<event>
 7    1  0.1476909E-008  0.4614232E+02  0.7816164E-02  0.1320468E+00
        -11   -1    0    0    0    0  0.00000000000E+00  0.00000000000E+00  0.45593999997E+02  0.45594000000E+02  0.51100000000E-03 0.  1.
         11   -1    0    0    0    0 -0.00000000000E+00 -0.00000000000E+00 -0.45593999997E+02  0.45594000000E+02  0.51100000000E-03 0. -1.
    9900012    2    1    2    0    0  0.18764491982E+02  0.94329959158E+01 -0.39850044300E+02  0.46142316500E+02  0.99999885010E+01 0.  0.
        -12    1    1    2    0    0 -0.18764491982E+02 -0.94329959158E+01  0.39850044300E+02  0.45045683500E+02  0.00000000000E+00 0.  1.
         11    1    3    3    0    0 -0.61841990058E+00  0.18554088947E+01 -0.17181435767E+01  0.26032677448E+01  0.51100000000E-03 0. -1.
        -11    1    3    3    0    0  0.17011237080E+02  0.56182623420E+01 -0.33236855466E+02  0.37757590234E+02  0.51100000000E-03 0.  1.
         12    1    3    3    0    0  0.23716748025E+01  0.19593246791E+01 -0.48950452569E+01  0.57814585213E+01  0.00000000000E+00 0. -1.
</event>
<event>
 7    1  0.1476909E-008  0.4614232E+02  0.7816164E-02  0.1320468E+00
        -11   -1    0    0    0    0  0.00000000000E+00  0.00000000000E+00  0.45593999997E+02  0.45594000000E+02  0.51100000000E-03 0.  1.
         11   -1    0    0    0    0 -0.00000000000E+00 -0.00000000000E+00 -0.45593999997E+02  0.45594000000E+02  0.51100000000E-03 0. -1.
    9900012    2    1    2    0    0 -0.21411989140E+02  0.22579851261E+02 -0.32569781481E+02  0.46142316215E+02  0.99999859040E+01 0.  0.
        -12    1    1    2    0    0  0.21411989140E+02 -0.22579851261E+02  0.32569781481E+02  0.45045683785E+02  0.00000000000E+00 0.  1.
         11    1    3    3    0    0 -0.13765034404E+02  0.18544452380E+02 -0.19653311167E+02  0.30325328132E+02  0.51100000000E-03 0.  1.
        -11    1    3    3    0    0 -0.54561119749E+01  0.17123422420E+01 -0.65531130381E+01  0.86973883774E+01  0.51100000000E-03 0. -1.
        -12    1    3    3    0    0 -0.21908427609E+01  0.23230566396E+01 -0.63633572761E+01  0.71195997062E+01  0.00000000000E+00 0.  1.
</event>
<event>
 7    1  0.1476909E-008  0.4614232E+02  0.7816164E-02  0.1320468E+00
        -11   -1    0    0    0    0  0.00000000000E+00  0.00000000000E+00  0.45593999997E+02  0.45594000000E+02  0.51100000000E-03 0.  1.
         11   -1    0    0    0    0 -0.00000000000E+00 -0.00000000000E+00 -0.45593999997E+02  0.45594000000E+02  0.51100000000E-03 0. -1.
    9900012    2    1    2    0    0 -0.64998043450E+01 -0.31050748464E+02 -0.31979943237E+02  0.46142320894E+02  0.10000028567E+02 0.  0.
        -12    1    1    2    0    0  0.64998043450E+01  0.31050748464E+02  0.31979943237E+02  0.45045679106E+02  0.00000000000E+00 0.  1.
         11    1    3    3    0    0 -0.24223483574E+01 -0.82929943971E+01 -0.13457652297E+02  0.15992183504E+02  0.51100000000E-03 0. -1.
        -11    1    3    3    0    0 -0.27942101309E+01 -0.41082625061E+01 -0.26722505036E+01  0.56414850962E+01  0.51100000000E-03 0.  1.
         12    1    3    3    0    0 -0.12832458566E+01 -0.18649491561E+02 -0.15850040437E+02  0.24508652294E+02  0.00000000000E+00 0. -1.
</event>
<event>
 7    1  0.1476909E-008  0.4614232E+02  0.7816164E-02  0.1320468E+00
        -11   -1    0    0    0    0  0.00000000000E+00  0.00000000000E+00  0.45593999997E+02  0.45594000000E+02  0.51100000000E-03 0. -1.
         11   -1    0    0    0    0 -0.00000000000E+00 -0.00000000000E+00 -0.45593999997E+02  0.45594000000E+02  0.51100000000E-03 0.  1.
    9900012    2    1    2    0    0  0.44017878939E+02  0.76900380784E+01  0.56923746889E+01  0.46142317837E+02  0.10000000692E+02 0.  0.
        -12    1    1    2    0    0 -0.44017878939E+02 -0.76900380784E+01 -0.56923746889E+01  0.45045682163E+02  0.00000000000E+00 0.  1.
         11    1    3    3    0    0  0.39857469377E+02  0.93592246511E+01  0.40555938955E+01  0.41141959036E+02  0.51100000000E-03 0. -1.
        -11    1    3    3    0    0  0.27194858454E+01 -0.17608639751E+01  0.82181697578E+00  0.33423986305E+01  0.51100000000E-03 0.  1.
         12    1    3    3    0    0  0.14409237163E+01  0.91677402384E-01  0.81496381767E+00  0.16579601703E+01  0.00000000000E+00 0. -1.
</event>
<event>
 7    1  0.1476909E-008  0.4614232E+02  0.7816164E-02  0.1320468E+00
        -11   -1    0    0    0    0  0.00000000000E+00  0.00000000000E+00  0.45593999997E+02  0.45594000000E+02  0.51100000000E-03 0. -1.
         11   -1    0    0    0    0 -0.00000000000E+00 -0.00000000000E+00 -0.45593999997E+02  0.45594000000E+02  0.51100000000E-03 0.  1.
    9900012    2    1    2    0    0  0.43581419765E+01 -0.32295774574E+02  0.31098282650E+02  0.46142316071E+02  0.99999845863E+01 0.  0.
        -12    1    1    2    0    0 -0.43581419765E+01  0.32295774574E+02 -0.31098282650E+02  0.45045683929E+02  0.00000000000E+00 0.  1.
         11    1    3    3    0    0 -0.26770862096E+00 -0.39226622404E+01  0.45026547526E+01  0.59776957969E+01  0.51100000000E-03 0. -1.
        -11    1    3    3    0    0  0.71562589417E+01 -0.23427203844E+02  0.20788717238E+02  0.32128129211E+02  0.51100000000E-03 0.  1.
        -12    1    3    3    0    0 -0.25304083442E+01 -0.49459084902E+01  0.58069106601E+01  0.80364910624E+01  0.00000000000E+00 0.  1.
</event>
<event>
 7    1  0.1476909E-008  0.4614232E+02  0.7816164E-02  0.1320468E+00
        -11   -1    0    0    0    0  0.00000000000E+00  0.00000000000E+00  0.45593999997E+02  0.45594000000E+02  0.51100000000E-03 0. -1.
         11   -1    0    0    0    0 -0.00000000000E+00 -0.00000000000E+00 -0.45593999997E+02  0.45594000000E+02  0.51100000000E-03 0.  1.
    9900012    2    1    2    0    0 -0.14529926169E+01 -0.29996525659E+02  0.33573960151E+02  0.46142317195E+02  0.99999948384E+01 0.  0.
        -12    1    1    2    0    0  0.14529926169E+01  0.29996525659E+02 -0.33573960151E+02  0.45045682805E+02  0.00000000000E+00 0.  1.
         11    1    3    3    0    0 -0.26696333261E+01 -0.97396890429E+01  0.84847760072E+01  0.13190144385E+02  0.51100000000E-03 0. -1.
        -11    1    3    3    0    0  0.24480647329E+01 -0.51665235643E+01  0.39447881611E+01  0.69460305624E+01  0.51100000000E-03 0.  1.
        -12    1    3    3    0    0 -0.12314240237E+01 -0.15090313051E+02  0.21144395983E+02  0.26006142247E+02  0.00000000000E+00 0.  1.
</event>
<event>
 7    1  0.1476909E-008  0.4614232E+02  0.7816164E-02  0.1320468E+00
        -11   -1    0    0    0    0  0.00000000000E+00  0.00000000000E+00  0.45593999997E+02  0.45594000000E+02  0.51100000000E-03 0.  1.
         11   -1    0    0    0    0 -0.00000000000E+00 -0.00000000000E+00 -0.45593999997E+02  0.45594000000E+02  0.51100000000E-03 0. -1.
    9900012    2    1    2    0    0 -0.28028236578E+02  0.18722424813E+01 -0.35214004535E+02  0.46142318154E+02  0.10000003583E+02 0.  0.
        -12    1    1    2    0    0  0.28028236578E+02 -0.18722424813E+01  0.35214004535E+02  0.45045681846E+02  0.00000000000E+00 0.  1.
         11    1    3    3    0    0 -0.77664044942E+01  0.37154450966E+01 -0.15715542179E+02  0.17919258837E+02  0.51100000000E-03 0. -1.
        -11    1    3    3    0    0 -0.98844302913E+01 -0.14885801721E+01 -0.88614626212E+01  0.13358269093E+02  0.51100000000E-03 0.  1.
         12    1    3    3    0    0 -0.10377401793E+02 -0.35462244314E+00 -0.10636999735E+02  0.14864790224E+02  0.00000000000E+00 0. -1.
</event>
<event>
 7    1  0.1476909E-008  0.4614232E+02  0.7816164E-02  0.1320468E+00
        -11   -1    0    0    0    0  0.00000000000E+00  0.00000000000E+00  0.45593999997E+02  0.45594000000E+02  0.51100000000E-03 0.  1.
         11   -1    0    0    0    0 -0.00000000000E+00 -0.00000000000E+00 -0.45593999997E+02  0.45594000000E+02  0.51100000000E-03 0. -1.
    9900012    2    1    2    0    0  0.43768523595E+02 -0.85855211539E+01 -0.63022733235E+01  0.46142317852E+02  0.10000000825E+02 0.  0.
        -12    1    1    2    0    0 -0.43768523595E+02  0.85855211539E+01  0.63022733235E+01  0.45045682148E+02  0.00000000000E+00 0.  1.
         11    1    3    3    0    0  0.75618518816E+01 -0.97471742372E+00  0.96421126150E+00  0.76851403080E+01  0.51100000000E-03 0. -1.
        -11    1    3    3    0    0  0.21692827323E+02 -0.23875075960E+01 -0.73609203388E+01  0.23031762813E+02  0.51100000000E-03 0.  1.
        -12    1    3    3    0    0  0.14513844390E+02 -0.52232961342E+01  0.94435753796E-01  0.15425414730E+02  0.00000000000E+00 0.  1.
</event>
<event>
 7    1  0.1476909E-008  0.4614232E+02  0.7816164E-02  0.1320468E+00
        -11   -1    0    0    0    0  0.00000000000E+00  0.00000000000E+00  0.45593999997E+02  0.45594000000E+02  0.51100000000E-03 0. -1.
         11   -1    0    0    0    0 -0.00000000000E+00 -0.00000000000E+00 -0.45593999997E+02  0.45594000000E+02  0.51100000000E-03 0.  1.
    9900012    2    1    2    0    0  0.10118085585E+02 -0.20748197303E+02  0.38681395158E+02  0.46142315650E+02  0.99999807469E+01 0.  0.
        -12    1    1    2    0    0 -0.10118085585E+02  0.20748197303E+02 -0.38681395158E+02  0.45045684350E+02  0.00000000000E+00 0.  1.
         11    1    3    3    0    0  0.39392150690E+01 -0.27389957875E+01  0.13153755229E+02  0.14001456716E+02  0.51100000000E-03 0. -1.
        -11    1    3    3    0    0  0.77856421193E+00 -0.89378227087E+01  0.11724193739E+02  0.14763046979E+02  0.51100000000E-03 0.  1.
        -12    1    3    3    0    0  0.54003063038E+01 -0.90713788066E+01  0.13803446190E+02  0.17377811955E+02  0.00000000000E+00 0.  1.
</event>
<event>
 7    1  0.1476909E-008  0.4614232E+02  0.7816164E-02  0.1320468E+00
        -11   -1    0    0    0    0  0.00000000000E+00  0.00000000000E+00  0.45593999997E+02  0.45594000000E+02  0.51100000000E-03 0. -1.
         11   -1    0    0    0    0 -0.00000000000E+00 -0.00000000000E+00 -0.45593999997E+02  0.45594000000E+02  0.51100000000E-03 0.  1.
    9900012    2    1    2    0    0  0.95300668500E+01  0.34371580089E+02  0.27511558298E+02  0.46142317277E+02  0.99999955848E+01 0.  0.
        -12    1    1    2    0    0 -0.95300668500E+01 -0.34371580089E+02 -0.27511558298E+02  0.45045682723E+02  0.00000000000E+00 0.  1.
         11    1    3    3    0    0  0.73806858784E+01  0.14000741277E+02  0.11671226582E+02  0.19665014888E+02  0.51100000000E-03 0. -1.
        -11    1    3    3    0    0  0.14491771103E+01  0.13550980373E+02  0.70932650004E+01  0.15363710229E+02  0.51100000000E-03 0.  1.
        -12    1    3    3    0    0  0.70020386127E+00  0.68198584388E+01  0.87470667159E+01  0.11113592160E+02  0.00000000000E+00 0.  1.
</event>
<event>
 7    1  0.1476909E-008  0.4614232E+02  0.7816164E-02  0.1320468E+00
        -11   -1    0    0    0    0  0.00000000000E+00  0.00000000000E+00  0.45593999997E+02  0.45594000000E+02  0.51100000000E-03 0.  1.
         11   -1    0    0    0    0 -0.00000000000E+00 -0.00000000000E+00 -0.45593999997E+02  0.45594000000E+02  0.51100000000E-03 0. -1.
    9900012    2    1    2    0    0  0.25916578670E+02  0.26602805786E+02 -0.25489898208E+02  0.46142320559E+02  0.10000025512E+02 0.  0.
        -12    1    1    2    0    0 -0.25916578670E+02 -0.26602805786E+02  0.25489898208E+02  0.45045679441E+02  0.00000000000E+00 0.  1.
         11    1    3    3    0    0  0.11689400523E+02  0.13368994633E+02 -0.11442731024E+02  0.21126007565E+02  0.51100000000E-03 0. -1.
        -11    1    3    3    0    0  0.56819097911E+01  0.43892277322E+01 -0.94918765398E+01  0.11901476357E+02  0.51100000000E-03 0.  1.
         12    1    3    3    0    0  0.85452683563E+01  0.88445834213E+01 -0.45552906434E+01  0.13114836637E+02  0.00000000000E+00 0. -1.
</event>
<event>
 7    1  0.1476909E-008  0.4614232E+02  0.7816164E-02  0.1320468E+00
        -11   -1    0    0    0    0  0.00000000000E+00  0.00000000000E+00  0.45593999997E+02  0.45594000000E+02  0.51100000000E-03 0.  1.
         11   -1    0    0    0    0 -0.00000000000E+00 -0.00000000000E+00 -0.45593999997E+02  0.45594000000E+02  0.51100000000E-03 0. -1.
    9900012    2    1    2    0    0 -0.28452306734E+02  0.12746702470E+02 -0.32513091855E+02  0.46142319582E+02  0.10000016601E+02 0.  0.
        -12    1    1    2    0    0  0.28452306734E+02 -0.12746702470E+02  0.32513091855E+02  0.45045680418E+02  0.00000000000E+00 0.  1.
         11    1    3    3    0    0 -0.90610764131E+01  0.62408141449E+01 -0.89474271526E+01  0.14181231254E+02  0.51100000000E-03 0. -1.
        -11    1    3    3    0    0 -0.12254890954E+02  0.69340826083E+01 -0.18258984295E+02  0.23057631310E+02  0.51100000000E-03 0.  1.
        -12    1    3    3    0    0 -0.71363393676E+01 -0.42819428361E+00 -0.53066804080E+01  0.89034570177E+01  0.00000000000E+00 0.  1.
</event>
<event>
 7    1  0.1476909E-008  0.4614232E+02  0.7816164E-02  0.1320468E+00
        -11   -1    0    0    0    0  0.00000000000E+00  0.00000000000E+00  0.45593999997E+02  0.45594000000E+02  0.51100000000E-03 0.  1.
         11   -1    0    0    0    0 -0.00000000000E+00 -0.00000000000E+00 -0.45593999997E+02  0.45594000000E+02  0.51100000000E-03 0. -1.
    9900012    2    1    2    0    0 -0.80528932958E+01  0.43958694332E+02  0.56477845812E+01  0.46142319092E+02  0.10000012136E+02 0.  0.
        -12    1    1    2    0    0  0.80528932958E+01 -0.43958694332E+02 -0.56477845812E+01  0.45045680908E+02  0.00000000000E+00 0.  1.
         11    1    3    3    0    0 -0.35993238017E+01  0.45161230020E+01  0.12890794939E+01  0.59171128941E+01  0.51100000000E-03 0.  1.
        -11    1    3    3    0    0  0.44708521391E+00  0.17273837605E+02  0.15753143794E+01  0.17351281406E+02  0.51100000000E-03 0. -1.
        -12    1    3    3    0    0 -0.49006547080E+01  0.22168733725E+02  0.27833907080E+01  0.22873924792E+02  0.00000000000E+00 0.  1.
</event>
<event>
 7    1  0.1476909E-008  0.4614232E+02  0.7816164E-02  0.1320468E+00
        -11   -1    0    0    0    0  0.00000000000E+00  0.00000000000E+00  0.45593999997E+02  0.45594000000E+02  0.51100000000E-03 0. -1.
         11   -1    0    0    0    0 -0.00000000000E+00 -0.00000000000E+00 -0.45593999997E+02  0.45594000000E+02  0.51100000000E-03 0.  1.
    9900012    2    1    2    0    0  0.18547638490E+02  0.26589262509E+02  0.31274743843E+02  0.46142319000E+02  0.10000011298E+02 0.  0.
        -12    1    1    2    0    0 -0.18547638490E+02 -0.26589262509E+02 -0.31274743843E+02  0.45045681000E+02  0.00000000000E+00 0.  1.
         11    1    3    3    0    0  0.17859190274E+02  0.21876998681E+02  0.26293348897E+02  0.38586188527E+02  0.51100000000E-03 0. -1.
        -11    1    3    3    0    0  0.29064540655E+00 -0.66627397913E-01 -0.29964302787E+00  0.42272942620E+00  0.51100000000E-03 0.  1.
         12    1    3    3    0    0  0.39780280917E+00  0.47788912249E+01  0.52810379742E+01  0.71334010471E+01  0.00000000000E+00 0. -1.
</event>
<event>
 7    1  0.1476909E-008  0.4614232E+02  0.7816164E-02  0.1320468E+00
        -11   -1    0    0    0    0  0.00000000000E+00  0.00000000000E+00  0.45593999997E+02  0.45594000000E+02  0.51100000000E-03 0. -1.
         11   -1    0    0    0    0 -0.00000000000E+00 -0.00000000000E+00 -0.45593999997E+02  0.45594000000E+02  0.51100000000E-03 0.  1.
    9900012    2    1    2    0    0 -0.35819847942E+02 -0.26966647808E+02 -0.43418767966E+01  0.46142317691E+02  0.99999993570E+01 0.  0.
        -12    1    1    2    0    0  0.35819847942E+02  0.26966647808E+02  0.43418767966E+01  0.45045682309E+02  0.00000000000E+00 0.  1.
         11    1    3    3    0    0 -0.26130002335E+02 -0.22562184240E+02 -0.67420997575E+01  0.35175063456E+02  0.51100000000E-03 0. -1.
        -11    1    3    3    0    0 -0.59365260566E+01 -0.28925667217E+01  0.96496078193E+00  0.66738619578E+01  0.51100000000E-03 0.  1.
         12    1    3    3    0    0 -0.37533195505E+01 -0.15118968462E+01  0.14352621790E+01  0.42933922770E+01  0.00000000000E+00 0. -1.
</event>
<event>
 7    1  0.1476909E-008  0.4614232E+02  0.7816164E-02  0.1320468E+00
        -11   -1    0    0    0    0  0.00000000000E+00  0.00000000000E+00  0.45593999997E+02  0.45594000000E+02  0.51100000000E-03 0.  1.
         11   -1    0    0    0    0 -0.00000000000E+00 -0.00000000000E+00 -0.45593999997E+02  0.45594000000E+02  0.51100000000E-03 0. -1.
    9900012    2    1    2    0    0  0.53006687252E+01  0.85016252279E+01 -0.43917405980E+02  0.46142320202E+02  0.10000022254E+02 0.  0.
        -12    1    1    2    0    0 -0.53006687252E+01 -0.85016252279E+01  0.43917405980E+02  0.45045679798E+02  0.00000000000E+00 0.  1.
         11    1    3    3    0    0  0.14993406560E+01  0.89647591953E+01 -0.23710529588E+02  0.25392993983E+02  0.51100000000E-03 0. -1.
        -11    1    3    3    0    0  0.50944712222E+00 -0.81151889217E+00 -0.93511676480E+01  0.94001295695E+01  0.51100000000E-03 0.  1.
         12    1    3    3    0    0  0.32918809470E+01  0.34838492477E+00 -0.10855708745E+02  0.11349196649E+02  0.00000000000E+00 0. -1.
</event>
<event>
 7    1  0.1476909E-008  0.4614232E+02  0.7816164E-02  0.1320468E+00
        -11   -1    0    0    0    0  0.00000000000E+00  0.00000000000E+00  0.45593999997E+02  0.45594000000E+02  0.51100000000E-03 0.  1.
         11   -1    0    0    0    0 -0.00000000000E+00 -0.00000000000E+00 -0.45593999997E+02  0.45594000000E+02  0.51100000000E-03 0. -1.
    9900012    2    1    2    0    0 -0.11484782233E+01 -0.96102250501E+01 -0.43993613418E+02  0.46142318195E+02  0.10000003954E+02 0.  0.
        -12    1    1    2    0    0  0.11484782233E+01  0.96102250501E+01  0.43993613418E+02  0.45045681805E+02  0.00000000000E+00 0.  1.
         11    1    3    3    0    0  0.29290793166E+01 -0.46589899406E+01 -0.19368684159E+02  0.20135332607E+02  0.51100000000E-03 0. -1.
        -11    1    3    3    0    0 -0.31331454428E+00  0.93876177165E+00 -0.66058843267E+01  0.66796068497E+01  0.51100000000E-03 0.  1.
         12    1    3    3    0    0 -0.37642429957E+01 -0.58899968812E+01 -0.18019044932E+02  0.19327378738E+02  0.00000000000E+00 0. -1.
</event>
<event>
 7    1  0.1476909E-008  0.4614232E+02  0.7816164E-02  0.1320468E+00
        -11   -1    0    0    0    0  0.00000000000E+00  0.00000000000E+00  0.45593999997E+02  0.45594000000E+02  0.51100000000E-03 0.  1.
         11   -1    0    0    0    0 -0.00000000000E+00 -0.00000000000E+00 -0.45593999997E+02  0.45594000000E+02  0.51100000000E-03 0. -1.
    9900012    2    1    2    0    0  0.25006597529E+02 -0.37161646364E+02  0.47744280113E+01  0.46142322702E+02  0.10000045054E+02 0.  0.
        -12    1    1    2    0    0 -0.25006597529E+02  0.37161646364E+02 -0.47744280113E+01  0.45045677298E+02  0.00000000000E+00 0.  1.
         11    1    3    3    0    0  0.86561602103E+01 -0.72651168934E+01  0.38757227624E+01  0.11947060737E+02  0.51100000000E-03 0. -1.
        -11    1    3    3    0    0  0.98789085492E+01 -0.18955188906E+02  0.18046121421E+01  0.21451075633E+02  0.51100000000E-03 0.  1.
        -12    1    3    3    0    0  0.64715287691E+01 -0.10941340565E+02 -0.90590689325E+00  0.12744186332E+02  0.00000000000E+00 0.  1.
</event>
<event>
 7    1  0.1476909E-008  0.4614232E+02  0.7816164E-02  0.1320468E+00
        -11   -1    0    0    0    0  0.00000000000E+00  0.00000000000E+00  0.45593999997E+02  0.45594000000E+02  0.51100000000E-03 0. -1.
         11   -1    0    0    0    0 -0.00000000000E+00 -0.00000000000E+00 -0.45593999997E+02  0.45594000000E+02  0.51100000000E-03 0.  1.
    9900012    2    1    2    0    0 -0.48930346053E+01 -0.33438654821E+02  0.29783016184E+02  0.46142317889E+02  0.10000001162E+02 0.  0.
        -12    1    1    2    0    0  0.48930346053E+01  0.33438654821E+02 -0.29783016184E+02  0.45045682111E+02  0.00000000000E+00 0.  1.
         11    1    3    3    0    0 -0.88708129882E+00 -0.32164333865E+01  0.38109618189E+01  0.50651542135E+01  0.51100000000E-03 0. -1.
        -11    1    3    3    0    0 -0.26912087861E+01 -0.11910886733E+02  0.16179122768E+02  0.20270072553E+02  0.51100000000E-03 0.  1.
        -12    1    3    3    0    0 -0.13147445203E+01 -0.18311334702E+02  0.97929315968E+01  0.20807091122E+02  0.00000000000E+00 0.  1.
</event>
<event>
 7    1  0.1476909E-008  0.4614232E+02  0.7816164E-02  0.1320468E+00
        -11   -1    0    0    0    0  0.00000000000E+00  0.00000000000E+00  0.45593999997E+02  0.45594000000E+02  0.51100000000E-03 0. -1.
         11   -1    0    0    0    0 -0.00000000000E+00 -0.00000000000E+00 -0.45593999997E+02  0.45594000000E+02  0.51100000000E-03 0.  1.
    9900012    2    1    2    0    0  0.31785638334E+02 -0.31177769235E+02  0.68361823377E+01  0.46142317768E+02  0.10000000065E+02 0.  0.
        -12    1    1    2    0    0 -0.31785638334E+02  0.31177769235E+02 -0.68361823377E+01  0.45045682232E+02  0.00000000000E+00 0.  1.
         11    1    3    3    0    0  0.17021997834E+02 -0.16891823392E+02  0.72392051180E+00  0.23991793783E+02  0.51100000000E-03 0. -1.
        -11    1    3    3    0    0  0.33546319544E+01 -0.51094342798E+01  0.41268601217E+01  0.73750151820E+01  0.51100000000E-03 0.  1.
        -12    1    3    3    0    0  0.11409008545E+02 -0.91765115635E+01  0.19854017042E+01  0.14775508803E+02  0.00000000000E+00 0.  1.
</event>
<event>
 7    1  0.1476909E-008  0.4614232E+02  0.7816164E-02  0.1320468E+00
        -11   -1    0    0    0    0  0.00000000000E+00  0.00000000000E+00  0.45593999997E+02  0.45594000000E+02  0.51100000000E-03 0.  1.
         11   -1    0    0    0    0 -0.00000000000E+00 -0.00000000000E+00 -0.45593999997E+02  0.45594000000E+02  0.51100000000E-03 0. -1.
    9900012    2    1    2    0    0  0.19350044364E+02  0.29134558222E+02 -0.28387793836E+02  0.46142317204E+02  0.99999949219E+01 0.  0.
        -12    1    1    2    0    0 -0.19350044364E+02 -0.29134558222E+02  0.28387793836E+02  0.45045682796E+02  0.00000000000E+00 0.  1.
         11    1    3    3    0    0  0.10944341008E+02  0.16132130344E+02 -0.12692032537E+02  0.23261812477E+02  0.51100000000E-03 0.  1.
        -11    1    3    3    0    0  0.82059505384E+00  0.40162299847E+01 -0.74987932401E+01  0.85460739437E+01  0.51100000000E-03 0. -1.
         12    1    3    3    0    0  0.75851083019E+01  0.89861978931E+01 -0.81969680589E+01  0.14334430783E+02  0.00000000000E+00 0. -1.
</event>
<event>
 7    1  0.1476909E-008  0.4614232E+02  0.7816164E-02  0.1320468E+00
        -11   -1    0    0    0    0  0.00000000000E+00  0.00000000000E+00  0.45593999997E+02  0.45594000000E+02  0.51100000000E-03 0.  1.
         11   -1    0    0    0    0 -0.00000000000E+00 -0.00000000000E+00 -0.45593999997E+02  0.45594000000E+02  0.51100000000E-03 0. -1.
    9900012    2    1    2    0    0 -0.35115283129E+02  0.11464726857E+02 -0.25779651506E+02  0.46142317599E+02  0.99999985263E+01 0.  0.
        -12    1    1    2    0    0  0.35115283129E+02 -0.11464726857E+02  0.25779651506E+02  0.45045682401E+02  0.00000000000E+00 0.  1.
         11    1    3    3    0    0 -0.11793049955E+02  0.43424864405E+01 -0.58719029177E+01  0.13871281839E+02  0.51100000000E-03 0. -1.
        -11    1    3    3    0    0 -0.48723786725E+01  0.29350230340E+01 -0.83423405666E+01  0.10096983734E+02  0.51100000000E-03 0.  1.
        -12    1    3    3    0    0 -0.18449854502E+02  0.41872173820E+01 -0.11565408022E+02  0.22174052026E+02  0.00000000000E+00 0.  1.
</event>
<event>
 7    1  0.1476909E-008  0.4614232E+02  0.7816164E-02  0.1320468E+00
        -11   -1    0    0    0    0  0.00000000000E+00  0.00000000000E+00  0.45593999997E+02  0.45594000000E+02  0.51100000000E-03 0. -1.
         11   -1    0    0    0    0 -0.00000000000E+00 -0.00000000000E+00 -0.45593999997E+02  0.45594000000E+02  0.51100000000E-03 0.  1.
    9900012    2    1    2    0    0  0.25539903907E+01  0.44800246819E+02  0.39406224706E+01  0.46142317772E+02  0.10000000096E+02 0.  0.
        -12    1    1    2    0    0 -0.25539903907E+01 -0.44800246819E+02 -0.39406224706E+01  0.45045682228E+02  0.00000000000E+00 0.  1.
         11    1    3    3    0    0 -0.94501066877E+00  0.60626635453E+01  0.32519746846E+01  0.69443699526E+01  0.51100000000E-03 0.  1.
        -11    1    3    3    0    0  0.54314942235E+00  0.21445475376E+02 -0.15724825850E+01  0.21509907651E+02  0.51100000000E-03 0. -1.
         12    1    3    3    0    0  0.29558516371E+01  0.17292107898E+02  0.22611303711E+01  0.17688040168E+02  0.00000000000E+00 0. -1.
</event>
<event>
 7    1  0.1476909E-008  0.4614232E+02  0.7816164E-02  0.1320468E+00
        -11   -1    0    0    0    0  0.00000000000E+00  0.00000000000E+00  0.45593999997E+02  0.45594000000E+02  0.51100000000E-03 0.  1.
         11   -1    0    0    0    0 -0.00000000000E+00 -0.00000000000E+00 -0.45593999997E+02  0.45594000000E+02  0.51100000000E-03 0. -1.
    9900012    2    1    2    0    0  0.11051879069E+02 -0.18688852729E+02 -0.39467660039E+02  0.46142318340E+02  0.10000005274E+02 0.  0.
        -12    1    1    2    0    0 -0.11051879069E+02  0.18688852729E+02  0.39467660039E+02  0.45045681660E+02  0.00000000000E+00 0.  1.
         11    1    3    3    0    0  0.62527879944E+01 -0.34509181939E+01 -0.16315696686E+02  0.17810338366E+02  0.51100000000E-03 0. -1.
        -11    1    3    3    0    0  0.22309525224E+01 -0.11632909738E+02 -0.17891332537E+02  0.21456968993E+02  0.51100000000E-03 0.  1.
        -12    1    3    3    0    0  0.25681385519E+01 -0.36050247969E+01 -0.52606308157E+01  0.68750109809E+01  0.00000000000E+00 0.  1.
</event>
<event>
 7    1  0.1476909E-008  0.4614232E+02  0.7816164E-02  0.1320468E+00
        -11   -1    0    0    0    0  0.00000000000E+00  0.00000000000E+00  0.45593999997E+02  0.45594000000E+02  0.51100000000E-03 0.  1.
         11   -1    0    0    0    0 -0.00000000000E+00 -0.00000000000E+00 -0.45593999997E+02  0.45594000000E+02  0.51100000000E-03 0. -1.
    9900012    2    1    2    0    0  0.26658485188E+02  0.27827894369E+02 -0.23324817808E+02  0.46142315819E+02  0.99999822925E+01 0.  0.
        -12    1    1    2    0    0 -0.26658485188E+02 -0.27827894369E+02  0.23324817808E+02  0.45045684181E+02  0.00000000000E+00 0.  1.
         11    1    3    3    0    0  0.10352505131E+02  0.71922865177E+01 -0.67128110802E+01  0.14281637886E+02  0.51100000000E-03 0. -1.
        -11    1    3    3    0    0  0.14583690134E+01  0.27709167991E+01 -0.49779322789E+01  0.58808698439E+01  0.51100000000E-03 0.  1.
        -12    1    3    3    0    0  0.14847611044E+02  0.17864691052E+02 -0.11634074449E+02  0.25979808090E+02  0.00000000000E+00 0.  1.
</event>
<event>
 7    1  0.1476909E-008  0.4614232E+02  0.7816164E-02  0.1320468E+00
        -11   -1    0    0    0    0  0.00000000000E+00  0.00000000000E+00  0.45593999997E+02  0.45594000000E+02  0.51100000000E-03 0.  1.
         11   -1    0    0    0    0 -0.00000000000E+00 -0.00000000000E+00 -0.45593999997E+02  0.45594000000E+02  0.51100000000E-03 0. -1.
    9900012    2    1    2    0    0 -0.56028891369E+01  0.31461716168E+02 -0.31747150056E+02  0.46142317769E+02  0.10000000074E+02 0.  0.
        -12    1    1    2    0    0  0.56028891369E+01 -0.31461716168E+02  0.31747150056E+02  0.45045682231E+02  0.00000000000E+00 0.  1.
         11    1    3    3    0    0 -0.33901808209E+01  0.20988124444E+02 -0.18451790990E+02  0.28150724407E+02  0.51100000000E-03 0. -1.
        -11    1    3    3    0    0  0.76687684552E+00 -0.24772453043E+00 -0.19021900413E+01  0.20658641663E+01  0.51100000000E-03 0.  1.
        -12    1    3    3    0    0 -0.29795851616E+01  0.10721316255E+02 -0.11393169025E+02  0.15925729196E+02  0.00000000000E+00 0.  1.
</event>
<event>
 7    1  0.1476909E-008  0.4614232E+02  0.7816164E-02  0.1320468E+00
        -11   -1    0    0    0    0  0.00000000000E+00  0.00000000000E+00  0.45593999997E+02  0.45594000000E+02  0.51100000000E-03 0.  1.
         11   -1    0    0    0    0 -0.00000000000E+00 -0.00000000000E+00 -0.45593999997E+02  0.45594000000E+02  0.51100000000E-03 0. -1.
    9900012    2    1    2    0    0  0.10254692925E+02 -0.32030658881E+02  0.29966508518E+02  0.46142317986E+02  0.10000002054E+02 0.  0.
        -12    1    1    2    0    0 -0.10254692925E+02  0.32030658881E+02 -0.29966508518E+02  0.45045682014E+02  0.00000000000E+00 0.  1.
         11    1    3    3    0    0  0.28515164242E-01 -0.15510048025E+02  0.11954664306E+02  0.19582553505E+02  0.51100000000E-03 0.  1.
        -11    1    3    3    0    0  0.89383950397E+01 -0.13212808800E+02  0.14292590658E+02  0.21418481979E+02  0.51100000000E-03 0. -1.
        -12    1    3    3    0    0  0.12877827212E+01 -0.33078020549E+01  0.37192535540E+01  0.51412825025E+01  0.00000000000E+00 0.  1.
</event>
<event>
 7    1  0.1476909E-008  0.4614232E+02  0.7816164E-02  0.1320468E+00
        -11   -1    0    0    0    0  0.00000000000E+00  0.00000000000E+00  0.45593999997E+02  0.45594000000E+02  0.51100000000E-03 0. -1.
         11   -1    0    0    0    0 -0.00000000000E+00 -0.00000000000E+00 -0.45593999997E+02  0.45594000000E+02  0.51100000000E-03 0.  1.
    9900012    2    1    2    0    0  0.17952711203E+02 -0.14516848167E+02  0.38679127062E+02  0.46142316627E+02  0.99999896608E+01 0.  0.
        -12    1    1    2    0    0 -0.17952711203E+02  0.14516848167E+02 -0.38679127062E+02  0.45045683373E+02  0.00000000000E+00 0.  1.
         11    1    3    3    0    0  0.43970373275E+01 -0.31585094214E+01  0.46919829784E+01  0.71641345294E+01  0.51100000000E-03 0. -1.
        -11    1    3    3    0    0  0.55408832552E-01 -0.23369308893E+01  0.18834925747E+01  0.30019761259E+01  0.51100000000E-03 0.  1.
         12    1    3    3    0    0  0.13500265043E+02 -0.90214078562E+01  0.32103651509E+02  0.35976205972E+02  0.00000000000E+00 0. -1.
</event>
<event>
 7    1  0.1476909E-008  0.4614232E+02  0.7816164E-02  0.1320468E+00
        -11   -1    0    0    0    0  0.00000000000E+00  0.00000000000E+00  0.45593999997E+02  0.45594000000E+02  0.51100000000E-03 0. -1.
         11   -1    0    0    0    0 -0.00000000000E+00 -0.00000000000E+00 -0.45593999997E+02  0.45594000000E+02  0.51100000000E-03 0.  1.
    9900012    2    1    2    0    0 -0.23558727702E+02  0.14785015162E+02  0.35433080688E+02  0.46142317284E+02  0.99999956508E+01 0.  0.
        -12    1    1    2    0    0  0.23558727702E+02 -0.14785015162E+02 -0.35433080688E+02  0.45045682716E+02  0.00000000000E+00 0.  1.
         11    1    3    3    0    0 -0.14012183329E+01  0.60720643461E+00  0.71228407531E+00  0.16850701279E+01  0.51100000000E-03 0. -1.
        -11    1    3    3    0    0 -0.22242318124E+02  0.13385551997E+02  0.35031864907E+02  0.43601895337E+02  0.51100000000E-03 0.  1.
        -12    1    3    3    0    0  0.84808754977E-01  0.79225673045E+00 -0.31106829434E+00  0.85535181978E+00  0.00000000000E+00 0.  1.
</event>
<event>
 7    1  0.1476909E-008  0.4614232E+02  0.7816164E-02  0.1320468E+00
        -11   -1    0    0    0    0  0.00000000000E+00  0.00000000000E+00  0.45593999997E+02  0.45594000000E+02  0.51100000000E-03 0.  1.
         11   -1    0    0    0    0 -0.00000000000E+00 -0.00000000000E+00 -0.45593999997E+02  0.45594000000E+02  0.51100000000E-03 0. -1.
    9900012    2    1    2    0    0 -0.30418717838E+02  0.19807349179E+02 -0.26673660368E+02  0.46142316146E+02  0.99999852738E+01 0.  0.
        -12    1    1    2    0    0  0.30418717838E+02 -0.19807349179E+02  0.26673660368E+02  0.45045683854E+02  0.00000000000E+00 0.  1.
         11    1    3    3    0    0 -0.18170549539E+02  0.10998850412E+02 -0.16706900526E+02  0.27023399238E+02  0.51100000000E-03 0. -1.
        -11    1    3    3    0    0 -0.12170055297E+02  0.63524074568E+01 -0.75276772320E+01  0.15656604077E+02  0.51100000000E-03 0.  1.
         12    1    3    3    0    0 -0.78113001809E-01  0.24560913097E+01 -0.24390826101E+01  0.34623128313E+01  0.00000000000E+00 0. -1.
</event>
<event>
 7    1  0.1476909E-008  0.4614232E+02  0.7816164E-02  0.1320468E+00
        -11   -1    0    0    0    0  0.00000000000E+00  0.00000000000E+00  0.45593999997E+02  0.45594000000E+02  0.51100000000E-03 0. -1.
         11   -1    0    0    0    0 -0.00000000000E+00 -0.00000000000E+00 -0.45593999997E+02  0.45594000000E+02  0.51100000000E-03 0.  1.
    9900012    2    1    2    0    0 -0.18884610402E+02  0.33558773242E+02  0.23372929950E+02  0.46142316234E+02  0.99999860720E+01 0.  0.
        -12    1    1    2    0    0  0.18884610402E+02 -0.33558773242E+02 -0.23372929950E+02  0.45045683766E+02  0.00000000000E+00 0.  1.
         11    1    3    3    0    0 -0.33130143098E+01  0.96427709810E+01  0.98880867181E+01  0.14203286775E+02  0.51100000000E-03 0. -1.
        -11    1    3    3    0    0 -0.11009923154E+02  0.14399029782E+02  0.63774125894E+01  0.19215146581E+02  0.51100000000E-03 0.  1.
        -12    1    3    3    0    0 -0.45616729386E+01  0.95169724786E+01  0.71074306423E+01  0.12723882878E+02  0.00000000000E+00 0.  1.
</event>
<event>
 7    1  0.1476909E-008  0.4614232E+02  0.7816164E-02  0.1320468E+00
        -11   -1    0    0    0    0  0.00000000000E+00  0.00000000000E+00  0.45593999997E+02  0.45594000000E+02  0.51100000000E-03 0.  1.
         11   -1    0    0    0    0 -0.00000000000E+00 -0.00000000000E+00 -0.45593999997E+02  0.45594000000E+02  0.51100000000E-03 0. -1.
    9900012    2    1    2    0    0 -0.35332264421E+02 -0.15564746443E+02 -0.23205241519E+02  0.46142317910E+02  0.10000001362E+02 0.  0.
        -12    1    1    2    0    0  0.35332264421E+02  0.15564746443E+02  0.23205241519E+02  0.45045682090E+02  0.00000000000E+00 0.  1.
         11    1    3    3    0    0 -0.25747906138E+02 -0.84961662048E+01 -0.18977023090E+02  0.33094817060E+02  0.51100000000E-03 0. -1.
        -11    1    3    3    0    0 -0.51627778664E+00  0.20155271431E+00  0.22882132217E+00  0.59960462659E+00  0.51100000000E-03 0.  1.
         12    1    3    3    0    0 -0.90680804970E+01 -0.72701329523E+01 -0.44570397511E+01  0.12447896223E+02  0.00000000000E+00 0. -1.
</event>
<event>
 7    1  0.1476909E-008  0.4614232E+02  0.7816164E-02  0.1320468E+00
        -11   -1    0    0    0    0  0.00000000000E+00  0.00000000000E+00  0.45593999997E+02  0.45594000000E+02  0.51100000000E-03 0. -1.
         11   -1    0    0    0    0 -0.00000000000E+00 -0.00000000000E+00 -0.45593999997E+02  0.45594000000E+02  0.51100000000E-03 0.  1.
    9900012    2    1    2    0    0 -0.38949299422E+02  0.16801618831E+02  0.15158202724E+02  0.46142318402E+02  0.10000005846E+02 0.  0.
        -12    1    1    2    0    0  0.38949299422E+02 -0.16801618831E+02 -0.15158202724E+02  0.45045681598E+02  0.00000000000E+00 0.  1.
         11    1    3    3    0    0 -0.18889228801E+02  0.37249561281E+01  0.96257050104E+01  0.21525158769E+02  0.51100000000E-03 0. -1.
        -11    1    3    3    0    0 -0.96655248886E+01  0.69799259203E+01  0.23235610902E+01  0.12146632193E+02  0.51100000000E-03 0.  1.
         12    1    3    3    0    0 -0.10394545732E+02  0.60967367827E+01  0.32089366231E+01  0.12470527440E+02  0.00000000000E+00 0. -1.
</event>
<event>
 7    1  0.1476909E-008  0.4614232E+02  0.7816164E-02  0.1320468E+00
        -11   -1    0    0    0    0  0.00000000000E+00  0.00000000000E+00  0.45593999997E+02  0.45594000000E+02  0.51100000000E-03 0.  1.
         11   -1    0    0    0    0 -0.00000000000E+00 -0.00000000000E+00 -0.45593999997E+02  0.45594000000E+02  0.51100000000E-03 0. -1.
    9900012    2    1    2    0    0  0.14546830550E+02 -0.95422170598E+01 -0.41550561811E+02  0.46142319050E+02  0.10000011752E+02 0.  0.
        -12    1    1    2    0    0 -0.14546830550E+02  0.95422170598E+01  0.41550561811E+02  0.45045680950E+02  0.00000000000E+00 0.  1.
         11    1    3    3    0    0  0.25876149294E+01 -0.43286657267E+01 -0.58724534233E+01  0.77407239627E+01  0.51100000000E-03 0. -1.
        -11    1    3    3    0    0  0.85727733986E+00  0.10628191493E+01 -0.48787760670E+01  0.50662575097E+01  0.51100000000E-03 0.  1.
         12    1    3    3    0    0  0.11101938280E+02 -0.62763704824E+01 -0.30799332321E+02  0.33335337578E+02  0.00000000000E+00 0. -1.
</event>
<event>
 7    1  0.1476909E-008  0.4614232E+02  0.7816164E-02  0.1320468E+00
        -11   -1    0    0    0    0  0.00000000000E+00  0.00000000000E+00  0.45593999997E+02  0.45594000000E+02  0.51100000000E-03 0.  1.
         11   -1    0    0    0    0 -0.00000000000E+00 -0.00000000000E+00 -0.45593999997E+02  0.45594000000E+02  0.51100000000E-03 0. -1.
    9900012    2    1    2    0    0 -0.29896075448E+02  0.21351098308E+02 -0.26066622447E+02  0.46142317277E+02  0.99999955857E+01 0.  0.
        -12    1    1    2    0    0  0.29896075448E+02 -0.21351098308E+02  0.26066622447E+02  0.45045682723E+02  0.00000000000E+00 0.  1.
         11    1    3    3    0    0 -0.18662431928E+02  0.15049912291E+02 -0.12122368165E+02  0.26865182591E+02  0.51100000000E-03 0. -1.
        -11    1    3    3    0    0 -0.18573825759E+01  0.40348177461E+00 -0.38371946288E+01  0.42821408730E+01  0.51100000000E-03 0.  1.
         12    1    3    3    0    0 -0.93762609441E+01  0.58977042425E+01 -0.10107059653E+02  0.14994993813E+02  0.00000000000E+00 0. -1.
</event>
<event>
 7    1  0.1476909E-008  0.4614232E+02  0.7816164E-02  0.1320468E+00
        -11   -1    0    0    0    0  0.00000000000E+00  0.00000000000E+00  0.45593999997E+02  0.45594000000E+02  0.51100000000E-03 0.  1.
         11   -1    0    0    0    0 -0.00000000000E+00 -0.00000000000E+00 -0.45593999997E+02  0.45594000000E+02  0.51100000000E-03 0. -1.
    9900012    2    1    2    0    0 -0.37358325673E+02  0.41995237029E+01 -0.24815981892E+02  0.46142318147E+02  0.10000003515E+02 0.  0.
        -12    1    1    2    0    0  0.37358325673E+02 -0.41995237029E+01  0.24815981892E+02  0.45045681853E+02  0.00000000000E+00 0.  1.
         11    1    3    3    0    0 -0.20121168360E+02 -0.19123816752E+01 -0.12817955883E+02  0.23933629335E+02  0.51100000000E-03 0. -1.
        -11    1    3    3    0    0 -0.98851267559E+01  0.48110572400E+01 -0.88189350783E+01  0.14093814917E+02  0.51100000000E-03 0.  1.
        -12    1    3    3    0    0 -0.73520305566E+01  0.13008481381E+01 -0.31790909303E+01  0.81148738947E+01  0.00000000000E+00 0.  1.
</event>
<event>
 7    1  0.1476909E-008  0.4614232E+02  0.7816164E-02  0.1320468E+00
        -11   -1    0    0    0    0  0.00000000000E+00  0.00000000000E+00  0.45593999997E+02  0.45594000000E+02  0.51100000000E-03 0.  1.
         11   -1    0    0    0    0 -0.00000000000E+00 -0.00000000000E+00 -0.45593999997E+02  0.45594000000E+02  0.51100000000E-03 0. -1.
    9900012    2    1    2    0    0 -0.83922247950E+00  0.31050898386E+02 -0.32622859930E+02  0.46142316800E+02  0.99999912373E+01 0.  0.
        -12    1    1    2    0    0  0.83922247950E+00 -0.31050898386E+02  0.32622859930E+02  0.45045683200E+02  0.00000000000E+00 0.  1.
         11    1    3    3    0    0  0.19275512411E+01  0.78979291565E+01 -0.99409344833E+01  0.12841920316E+02  0.51100000000E-03 0. -1.
        -11    1    3    3    0    0  0.18050234909E+00  0.20210662495E+02 -0.18543630012E+02  0.27429357883E+02  0.51100000000E-03 0.  1.
        -12    1    3    3    0    0 -0.29472760696E+01  0.29423067340E+01 -0.41382954350E+01  0.58710386010E+01  0.00000000000E+00 0.  1.
</event>
<event>
 7    1  0.1476909E-008  0.4614232E+02  0.7816164E-02  0.1320468E+00
        -11   -1    0    0    0    0  0.00000000000E+00  0.00000000000E+00  0.45593999997E+02  0.45594000000E+02  0.51100000000E-03 0. -1.
         11   -1    0    0    0    0 -0.00000000000E+00 -0.00000000000E+00 -0.45593999997E+02  0.45594000000E+02  0.51100000000E-03 0.  1.
    9900012    2    1    2    0    0  0.13221334735E+02 -0.30140448416E+02  0.30754887780E+02  0.46142318239E+02  0.10000004360E+02 0.  0.
        -12    1    1    2    0    0 -0.13221334735E+02  0.30140448416E+02 -0.30754887780E+02  0.45045681761E+02  0.00000000000E+00 0.  1.
         11    1    3    3    0    0  0.14198730163E+02 -0.26514047846E+02  0.27126233862E+02  0.40502237410E+02  0.51100000000E-03 0. -1.
        -11    1    3    3    0    0 -0.11721657062E+01 -0.34851811112E+01  0.38423619555E+01  0.53182897137E+01  0.51100000000E-03 0.  1.
        -12    1    3    3    0    0  0.19477027874E+00 -0.14121945895E+00 -0.21370803694E+00  0.32179111566E+00  0.00000000000E+00 0.  1.
</event>
<event>
 7    1  0.1476909E-008  0.4614232E+02  0.7816164E-02  0.1320468E+00
        -11   -1    0    0    0    0  0.00000000000E+00  0.00000000000E+00  0.45593999997E+02  0.45594000000E+02  0.51100000000E-03 0. -1.
         11   -1    0    0    0    0 -0.00000000000E+00 -0.00000000000E+00 -0.45593999997E+02  0.45594000000E+02  0.51100000000E-03 0.  1.
    9900012    2    1    2    0    0  0.69021991242E+01  0.31322827971E+02  0.31628364544E+02  0.46142319313E+02  0.10000014151E+02 0.  0.
        -12    1    1    2    0    0 -0.69021991242E+01 -0.31322827971E+02 -0.31628364544E+02  0.45045680687E+02  0.00000000000E+00 0.  1.
         11    1    3    3    0    0  0.77863485523E+01  0.27689028561E+02  0.24713483976E+02  0.37921838259E+02  0.51100000000E-03 0. -1.
        -11    1    3    3    0    0  0.10909903332E+00 -0.22628230387E+00  0.14454266909E-01  0.25162564867E+00  0.51100000000E-03 0.  1.
        -12    1    3    3    0    0 -0.99324846144E+00  0.38600817140E+01  0.69004263006E+01  0.79688554056E+01  0.00000000000E+00 0.  1.
</event>
<event>
 7    1  0.1476909E-008  0.4614232E+02  0.7816164E-02  0.1320468E+00
        -11   -1    0    0    0    0  0.00000000000E+00  0.00000000000E+00  0.45593999997E+02  0.45594000000E+02  0.51100000000E-03 0.  1.
         11   -1    0    0    0    0 -0.00000000000E+00 -0.00000000000E+00 -0.45593999997E+02  0.45594000000E+02  0.51100000000E-03 0. -1.
    9900012    2    1    2    0    0 -0.20514046474E+02 -0.19363312065E+02 -0.35119077380E+02  0.46142317045E+02  0.99999934718E+01 0.  0.
        -12    1    1    2    0    0  0.20514046474E+02  0.19363312065E+02  0.35119077380E+02  0.45045682955E+02  0.00000000000E+00 0.  1.
         11    1    3    3    0    0 -0.30455690433E+01 -0.31009038313E+01 -0.77650274256E+01  0.88986935305E+01  0.51100000000E-03 0. -1.
        -11    1    3    3    0    0 -0.18316032731E+02 -0.14759388770E+02 -0.25022421054E+02  0.34342949314E+02  0.51100000000E-03 0.  1.
        -12    1    3    3    0    0  0.84755530031E+00 -0.15030194638E+01 -0.23316288996E+01  0.29006742012E+01  0.00000000000E+00 0.  1.
</event>
<event>
 7    1  0.1476909E-008  0.4614232E+02  0.7816164E-02  0.1320468E+00
        -11   -1    0    0    0    0  0.00000000000E+00  0.00000000000E+00  0.45593999997E+02  0.45594000000E+02  0.51100000000E-03 0.  1.
         11   -1    0    0    0    0 -0.00000000000E+00 -0.00000000000E+00 -0.45593999997E+02  0.45594000000E+02  0.51100000000E-03 0. -1.
    9900012    2    1    2    0    0  0.31620241881E+02  0.28428439547E+02 -0.14869352052E+02  0.46142317608E+02  0.99999986058E+01 0.  0.
        -12    1    1    2    0    0 -0.31620241881E+02 -0.28428439547E+02  0.14869352052E+02  0.45045682392E+02  0.00000000000E+00 0.  1.
         11    1    3    3    0    0  0.11754194636E+02  0.12186258895E+02 -0.64383861997E+01  0.18114050197E+02  0.51100000000E-03 0. -1.
        -11    1    3    3    0    0  0.11528069037E+02  0.89990298145E+01 -0.88387746985E+00  0.14651285028E+02  0.51100000000E-03 0.  1.
        -12    1    3    3    0    0  0.83379782085E+01  0.72431508371E+01 -0.75470883820E+01  0.13376982384E+02  0.00000000000E+00 0.  1.
</event>
<event>
 7    1  0.1476909E-008  0.4614232E+02  0.7816164E-02  0.1320468E+00
        -11   -1    0    0    0    0  0.00000000000E+00  0.00000000000E+00  0.45593999997E+02  0.45594000000E+02  0.51100000000E-03 0.  1.
         11   -1    0    0    0    0 -0.00000000000E+00 -0.00000000000E+00 -0.45593999997E+02  0.45594000000E+02  0.51100000000E-03 0. -1.
    9900012    2    1    2    0    0 -0.48024460902E-01  0.21144955724E+02 -0.39774389961E+02  0.46142317014E+02  0.99999931844E+01 0.  0.
        -12    1    1    2    0    0  0.48024460902E-01 -0.21144955724E+02  0.39774389961E+02  0.45045682986E+02  0.00000000000E+00 0.  1.
         11    1    3    3    0    0  0.12180091576E+01  0.14798435103E+02 -0.27353785309E+02  0.31124054986E+02  0.51100000000E-03 0. -1.
        -11    1    3    3    0    0  0.14444588606E+01  0.28232556241E+01 -0.85672190330E+01  0.91353421359E+01  0.51100000000E-03 0.  1.
        -12    1    3    3    0    0 -0.27104924790E+01  0.35232649975E+01 -0.38533856191E+01  0.58829198916E+01  0.00000000000E+00 0.  1.
</event>
<event>
 7    1  0.1476909E-008  0.4614232E+02  0.7816164E-02  0.1320468E+00
        -11   -1    0    0    0    0  0.00000000000E+00  0.00000000000E+00  0.45593999997E+02  0.45594000000E+02  0.51100000000E-03 0. -1.
         11   -1    0    0    0    0 -0.00000000000E+00 -0.00000000000E+00 -0.45593999997E+02  0.45594000000E+02  0.51100000000E-03 0.  1.
    9900012    2    1    2    0    0  0.27077920605E+02 -0.33968585736E+02 -0.11917841892E+02  0.46142317004E+02  0.99999930946E+01 0.  0.
        -12    1    1    2    0    0 -0.27077920605E+02  0.33968585736E+02  0.11917841892E+02  0.45045682996E+02  0.00000000000E+00 0.  1.
         11    1    3    3    0    0  0.24515156797E+02 -0.27401695929E+02 -0.83697648371E+01  0.37708073622E+02  0.51100000000E-03 0. -1.
        -11    1    3    3    0    0  0.23770706479E+00 -0.47870766447E+00 -0.15164320735E+01  0.16078657193E+01  0.51100000000E-03 0.  1.
         12    1    3    3    0    0  0.23250567431E+01 -0.60881821428E+01 -0.20316449812E+01  0.68263776626E+01  0.00000000000E+00 0. -1.
</event>
<event>
 7    1  0.1476909E-008  0.4614232E+02  0.7816164E-02  0.1320468E+00
        -11   -1    0    0    0    0  0.00000000000E+00  0.00000000000E+00  0.45593999997E+02  0.45594000000E+02  0.51100000000E-03 0.  1.
         11   -1    0    0    0    0 -0.00000000000E+00 -0.00000000000E+00 -0.45593999997E+02  0.45594000000E+02  0.51100000000E-03 0. -1.
    9900012    2    1    2    0    0 -0.19476687524E+02  0.30448303288E+02 -0.26882577962E+02  0.46142317322E+02  0.99999959966E+01 0.  0.
        -12    1    1    2    0    0  0.19476687524E+02 -0.30448303288E+02  0.26882577962E+02  0.45045682678E+02  0.00000000000E+00 0.  1.
         11    1    3    3    0    0 -0.10353277114E+02  0.23186329329E+02 -0.20753375172E+02  0.32794798308E+02  0.51100000000E-03 0. -1.
        -11    1    3    3    0    0 -0.44027469558E+01  0.22392109585E+01 -0.29846938460E+01  0.57711908727E+01  0.51100000000E-03 0.  1.
         12    1    3    3    0    0 -0.47206634544E+01  0.50227630005E+01 -0.31445089434E+01  0.75763281412E+01  0.00000000000E+00 0. -1.
</event>
<event>
 7    1  0.1476909E-008  0.4614232E+02  0.7816164E-02  0.1320468E+00
        -11   -1    0    0    0    0  0.00000000000E+00  0.00000000000E+00  0.45593999997E+02  0.45594000000E+02  0.51100000000E-03 0.  1.
         11   -1    0    0    0    0 -0.00000000000E+00 -0.00000000000E+00 -0.45593999997E+02  0.45594000000E+02  0.51100000000E-03 0. -1.
    9900012    2    1    2    0    0  0.29538763588E+02 -0.26650117172E+02 -0.21126906751E+02  0.46142317760E+02  0.99999999923E+01 0.  0.
        -12    1    1    2    0    0 -0.29538763588E+02  0.26650117172E+02  0.21126906751E+02  0.45045682240E+02  0.00000000000E+00 0.  1.
         11    1    3    3    0    0  0.12564442858E+02 -0.15981466821E+02 -0.11537397309E+02  0.23374859208E+02  0.51100000000E-03 0. -1.
        -11    1    3    3    0    0  0.89339443854E+01 -0.71078654118E+01 -0.30740748496E+01  0.11823157338E+02  0.51100000000E-03 0.  1.
         12    1    3    3    0    0  0.80403763438E+01 -0.35607849398E+01 -0.65154345923E+01  0.10944301214E+02  0.00000000000E+00 0. -1.
</event>
<event>
 7    1  0.1476909E-008  0.4614232E+02  0.7816164E-02  0.1320468E+00
        -11   -1    0    0    0    0  0.00000000000E+00  0.00000000000E+00  0.45593999997E+02  0.45594000000E+02  0.51100000000E-03 0. -1.
         11   -1    0    0    0    0 -0.00000000000E+00 -0.00000000000E+00 -0.45593999997E+02  0.45594000000E+02  0.51100000000E-03 0.  1.
    9900012    2    1    2    0    0  0.34304094333E+02 -0.43858802655E+01  0.28863586609E+02  0.46142318013E+02  0.10000002298E+02 0.  0.
        -12    1    1    2    0    0 -0.34304094333E+02  0.43858802655E+01 -0.28863586609E+02  0.45045681987E+02  0.00000000000E+00 0.  1.
         11    1    3    3    0    0  0.11014218976E+02  0.18764338587E+01  0.11303117784E+02  0.15893221687E+02  0.51100000000E-03 0. -1.
        -11    1    3    3    0    0  0.20373105718E+01 -0.15680859856E+01  0.34804553438E+01  0.43270194922E+01  0.51100000000E-03 0.  1.
         12    1    3    3    0    0  0.21252564785E+02 -0.46942281386E+01  0.14080013481E+02  0.25922076834E+02  0.00000000000E+00 0. -1.
</event>
<event>
 7    1  0.1476909E-008  0.4614232E+02  0.7816164E-02  0.1320468E+00
        -11   -1    0    0    0    0  0.00000000000E+00  0.00000000000E+00  0.45593999997E+02  0.45594000000E+02  0.51100000000E-03 0.  1.
         11   -1    0    0    0    0 -0.00000000000E+00 -0.00000000000E+00 -0.45593999997E+02  0.45594000000E+02  0.51100000000E-03 0. -1.
    9900012    2    1    2    0    0 -0.38018818362E+02 -0.20428312942E+02 -0.12898334351E+02  0.46142317096E+02  0.99999939328E+01 0.  0.
        -12    1    1    2    0    0  0.38018818362E+02  0.20428312942E+02  0.12898334351E+02  0.45045682904E+02  0.00000000000E+00 0.  1.
         11    1    3    3    0    0 -0.20900280542E+02 -0.13880500059E+02 -0.71886104423E+01  0.26099159545E+02  0.51100000000E-03 0. -1.
        -11    1    3    3    0    0 -0.54112430639E+01 -0.19936403936E+01 -0.47022585450E+01  0.74409266359E+01  0.51100000000E-03 0.  1.
        -12    1    3    3    0    0 -0.11707294756E+02 -0.45541724889E+01 -0.10074653641E+01  0.12602230915E+02  0.00000000000E+00 0.  1.
</event>
<event>
 7    1  0.1476909E-008  0.4614232E+02  0.7816164E-02  0.1320468E+00
        -11   -1    0    0    0    0  0.00000000000E+00  0.00000000000E+00  0.45593999997E+02  0.45594000000E+02  0.51100000000E-03 0.  1.
         11   -1    0    0    0    0 -0.00000000000E+00 -0.00000000000E+00 -0.45593999997E+02  0.45594000000E+02  0.51100000000E-03 0. -1.
    9900012    2    1    2    0    0 -0.86582971427E+01 -0.64663734575E+01 -0.43730234564E+02  0.46142317519E+02  0.99999977939E+01 0.  0.
        -12    1    1    2    0    0  0.86582971427E+01  0.64663734575E+01  0.43730234564E+02  0.45045682481E+02  0.00000000000E+00 0.  1.
         11    1    3    3    0    0 -0.57860644321E+01 -0.16385788944E+01 -0.27924175230E+02  0.28564366699E+02  0.51100000000E-03 0. -1.
        -11    1    3    3    0    0 -0.30935743899E+00  0.98112367784E+00 -0.44513055960E+01  0.45686351864E+01  0.51100000000E-03 0.  1.
         12    1    3    3    0    0 -0.25628752717E+01 -0.58089182410E+01 -0.11354753739E+02  0.13009315634E+02  0.00000000000E+00 0. -1.
</event>
<event>
 7    1  0.1476909E-008  0.4614232E+02  0.7816164E-02  0.1320468E+00
        -11   -1    0    0    0    0  0.00000000000E+00  0.00000000000E+00  0.45593999997E+02  0.45594000000E+02  0.51100000000E-03 0.  1.
         11   -1    0    0    0    0 -0.00000000000E+00 -0.00000000000E+00 -0.45593999997E+02  0.45594000000E+02  0.51100000000E-03 0. -1.
    9900012    2    1    2    0    0  0.25976680101E+02  0.90286069883E+01 -0.35676461413E+02  0.46142317053E+02  0.99999935440E+01 0.  0.
        -12    1    1    2    0    0 -0.25976680101E+02 -0.90286069883E+01  0.35676461413E+02  0.45045682947E+02  0.00000000000E+00 0.  1.
         11    1    3    3    0    0  0.22860076974E+01 -0.21600238505E+00 -0.10561266378E+01  0.25274279336E+01  0.51100000000E-03 0.  1.
        -11    1    3    3    0    0  0.62071549387E+01  0.57536077494E+01 -0.85438486210E+01  0.12026226511E+02  0.51100000000E-03 0. -1.
         12    1    3    3    0    0  0.17483517465E+02  0.34910016239E+01 -0.26076486154E+02  0.31588662609E+02  0.00000000000E+00 0. -1.
</event>
<event>
 7    1  0.1476909E-008  0.4614232E+02  0.7816164E-02  0.1320468E+00
        -11   -1    0    0    0    0  0.00000000000E+00  0.00000000000E+00  0.45593999997E+02  0.45594000000E+02  0.51100000000E-03 0.  1.
         11   -1    0    0    0    0 -0.00000000000E+00 -0.00000000000E+00 -0.45593999997E+02  0.45594000000E+02  0.51100000000E-03 0. -1.
    9900012    2    1    2    0    0  0.32890385435E+02  0.24387050191E+01 -0.30682061974E+02  0.46142315820E+02  0.99999823018E+01 0.  0.
        -12    1    1    2    0    0 -0.32890385435E+02 -0.24387050191E+01  0.30682061974E+02  0.45045684180E+02  0.00000000000E+00 0.  1.
         11    1    3    3    0    0  0.15623162952E+02  0.30562048032E+01 -0.15910745261E+02  0.22507230470E+02  0.51100000000E-03 0. -1.
        -11    1    3    3    0    0 -0.32943337409E+00  0.71329904378E+00 -0.85482331289E+00  0.11610534144E+01  0.51100000000E-03 0.  1.
        -12    1    3    3    0    0  0.17596655858E+02 -0.13307988278E+01 -0.13916493400E+02  0.22474031936E+02  0.00000000000E+00 0.  1.
</event>
<event>
 7    1  0.1476909E-008  0.4614232E+02  0.7816164E-02  0.1320468E+00
        -11   -1    0    0    0    0  0.00000000000E+00  0.00000000000E+00  0.45593999997E+02  0.45594000000E+02  0.51100000000E-03 0.  1.
         11   -1    0    0    0    0 -0.00000000000E+00 -0.00000000000E+00 -0.45593999997E+02  0.45594000000E+02  0.51100000000E-03 0. -1.
    9900012    2    1    2    0    0 -0.15688511314E+02  0.29638692414E+02 -0.30075438667E+02  0.46142317784E+02  0.10000000208E+02 0.  0.
        -12    1    1    2    0    0  0.15688511314E+02 -0.29638692414E+02  0.30075438667E+02  0.45045682216E+02  0.00000000000E+00 0.  1.
         11    1    3    3    0    0 -0.46432401741E+01  0.70541563625E+01 -0.94725258786E+01  0.12690529858E+02  0.51100000000E-03 0. -1.
        -11    1    3    3    0    0 -0.10181888122E+02  0.18989166353E+02 -0.20518180062E+02  0.29753235081E+02  0.51100000000E-03 0.  1.
        -12    1    3    3    0    0 -0.86338301749E+00  0.35953696991E+01 -0.84732727363E-01  0.36985528444E+01  0.00000000000E+00 0.  1.
</event>
<event>
 7    1  0.1476909E-008  0.4614232E+02  0.7816164E-02  0.1320468E+00
        -11   -1    0    0    0    0  0.00000000000E+00  0.00000000000E+00  0.45593999997E+02  0.45594000000E+02  0.51100000000E-03 0.  1.
         11   -1    0    0    0    0 -0.00000000000E+00 -0.00000000000E+00 -0.45593999997E+02  0.45594000000E+02  0.51100000000E-03 0. -1.
    9900012    2    1    2    0    0  0.21934995849E+02  0.23277710351E+01 -0.39275323850E+02  0.46142316252E+02  0.99999862348E+01 0.  0.
        -12    1    1    2    0    0 -0.21934995849E+02 -0.23277710351E+01  0.39275323850E+02  0.45045683748E+02  0.00000000000E+00 0.  1.
         11    1    3    3    0    0  0.15025652111E+02  0.17737776996E+01 -0.20466089114E+02  0.25451469753E+02  0.51100000000E-03 0. -1.
        -11    1    3    3    0    0  0.24461429685E+00 -0.92610524299E+00 -0.68785085385E+01  0.69448820761E+01  0.51100000000E-03 0.  1.
        -12    1    3    3    0    0  0.66647294406E+01  0.14800985785E+01 -0.11930726197E+02  0.13745964423E+02  0.00000000000E+00 0.  1.
</event>
<event>
 7    1  0.1476909E-008  0.4614231E+02  0.7816164E-02  0.1320468E+00
        -11   -1    0    0    0    0  0.00000000000E+00  0.00000000000E+00  0.45593999997E+02  0.45594000000E+02  0.51100000000E-03 0.  1.
         11   -1    0    0    0    0 -0.00000000000E+00 -0.00000000000E+00 -0.45593999997E+02  0.45594000000E+02  0.51100000000E-03 0. -1.
    9900012    2    1    2    0    0 -0.31465081353E+02 -0.47154918838E+01 -0.31887719436E+02  0.46142313646E+02  0.99999624768E+01 0.  0.
        -12    1    1    2    0    0  0.31465081353E+02  0.47154918838E+01  0.31887719436E+02  0.45045686354E+02  0.00000000000E+00 0.  1.
         11    1    3    3    0    0 -0.11246815737E+02 -0.38210519095E+01 -0.16251216187E+02  0.20129414540E+02  0.51100000000E-03 0. -1.
        -11    1    3    3    0    0 -0.18561184271E+02 -0.25974141140E+00 -0.12405528142E+02  0.22326713952E+02  0.51100000000E-03 0.  1.
        -12    1    3    3    0    0 -0.16570813457E+01 -0.63469856286E+00 -0.32309751064E+01  0.36861851541E+01  0.00000000000E+00 0.  1.
</event>
<event>
 7    1  0.1476909E-008  0.4614232E+02  0.7816164E-02  0.1320468E+00
        -11   -1    0    0    0    0  0.00000000000E+00  0.00000000000E+00  0.45593999997E+02  0.45594000000E+02  0.51100000000E-03 0.  1.
         11   -1    0    0    0    0 -0.00000000000E+00 -0.00000000000E+00 -0.45593999997E+02  0.45594000000E+02  0.51100000000E-03 0. -1.
    9900012    2    1    2    0    0 -0.51698657910E+01  0.37800377524E+02 -0.23948224381E+02  0.46142317585E+02  0.99999983928E+01 0.  0.
        -12    1    1    2    0    0  0.51698657910E+01 -0.37800377524E+02  0.23948224381E+02  0.45045682415E+02  0.00000000000E+00 0.  1.
         11    1    3    3    0    0 -0.51622313377E+01  0.20897864043E+02 -0.18185513754E+02  0.28179465302E+02  0.51100000000E-03 0. -1.
        -11    1    3    3    0    0  0.25726546123E-01  0.16415082646E+02 -0.59193813089E+01  0.17449775800E+02  0.51100000000E-03 0.  1.
         12    1    3    3    0    0 -0.33360999420E-01  0.48743083493E+00  0.15667068158E+00  0.51307648317E+00  0.00000000000E+00 0. -1.
</event>
<event>
 7    1  0.1476909E-008  0.4614232E+02  0.7816164E-02  0.1320468E+00
        -11   -1    0    0    0    0  0.00000000000E+00  0.00000000000E+00  0.45593999997E+02  0.45594000000E+02  0.51100000000E-03 0.  1.
         11   -1    0    0    0    0 -0.00000000000E+00 -0.00000000000E+00 -0.45593999997E+02  0.45594000000E+02  0.51100000000E-03 0. -1.
    9900012    2    1    2    0    0  0.12887672937E+02 -0.27111837215E+02 -0.33585260336E+02  0.46142317157E+02  0.99999944951E+01 0.  0.
        -12    1    1    2    0    0 -0.12887672937E+02  0.27111837215E+02  0.33585260336E+02  0.45045682843E+02  0.00000000000E+00 0.  1.
         11    1    3    3    0    0  0.72972519118E+01 -0.15049918765E+02 -0.18421917176E+02  0.24882061269E+02  0.51100000000E-03 0. -1.
        -11    1    3    3    0    0  0.61840296483E+00  0.15567697707E-01 -0.40914427352E+01  0.41379425439E+01  0.51100000000E-03 0.  1.
        -12    1    3    3    0    0  0.49720180607E+01 -0.12077486148E+02 -0.11071900425E+02  0.17122313345E+02  0.00000000000E+00 0.  1.
</event>
<event>
 7    1  0.1476909E-008  0.4614232E+02  0.7816164E-02  0.1320468E+00
        -11   -1    0    0    0    0  0.00000000000E+00  0.00000000000E+00  0.45593999997E+02  0.45594000000E+02  0.51100000000E-03 0.  1.
         11   -1    0    0    0    0 -0.00000000000E+00 -0.00000000000E+00 -0.45593999997E+02  0.45594000000E+02  0.51100000000E-03 0. -1.
    9900012    2    1    2    0    0 -0.26036152113E+02  0.16488870489E+02 -0.32853456617E+02  0.46142315650E+02  0.99999807527E+01 0.  0.
        -12    1    1    2    0    0  0.26036152113E+02 -0.16488870489E+02  0.32853456617E+02  0.45045684350E+02  0.00000000000E+00 0.  1.
         11    1    3    3    0    0 -0.99452387783E+01  0.41003780863E+01 -0.17361719963E+02  0.20424255069E+02  0.51100000000E-03 0. -1.
        -11    1    3    3    0    0 -0.14416488414E+02  0.11724297944E+02 -0.13153412958E+02  0.22766347384E+02  0.51100000000E-03 0.  1.
        -12    1    3    3    0    0 -0.16744249202E+01  0.66419445832E+00 -0.23383236962E+01  0.29517131974E+01  0.00000000000E+00 0.  1.
</event>
<event>
 7    1  0.1476909E-008  0.4614232E+02  0.7816164E-02  0.1320468E+00
        -11   -1    0    0    0    0  0.00000000000E+00  0.00000000000E+00  0.45593999997E+02  0.45594000000E+02  0.51100000000E-03 0.  1.
         11   -1    0    0    0    0 -0.00000000000E+00 -0.00000000000E+00 -0.45593999997E+02  0.45594000000E+02  0.51100000000E-03 0. -1.
    9900012    2    1    2    0    0 -0.35401967956E+02 -0.33492036879E+00  0.27851427621E+02  0.46142317329E+02  0.99999960562E+01 0.  0.
        -12    1    1    2    0    0  0.35401967956E+02  0.33492036879E+00 -0.27851427621E+02  0.45045682671E+02  0.00000000000E+00 0.  1.
         11    1    3    3    0    0 -0.97970160881E+01  0.19050069237E+01  0.10556686491E+02  0.14527704758E+02  0.51100000000E-03 0. -1.
        -11    1    3    3    0    0 -0.10790046537E+02  0.14227078695E+01  0.96521823650E+01  0.14546952486E+02  0.51100000000E-03 0.  1.
         12    1    3    3    0    0 -0.14814905331E+02 -0.36626351619E+01  0.76425587647E+01  0.17067660085E+02  0.00000000000E+00 0. -1.
</event>
<event>
 7    1  0.1476909E-008  0.4614232E+02  0.7816164E-02  0.1320468E+00
        -11   -1    0    0    0    0  0.00000000000E+00  0.00000000000E+00  0.45593999997E+02  0.45594000000E+02  0.51100000000E-03 0. -1.
         11   -1    0    0    0    0 -0.00000000000E+00 -0.00000000000E+00 -0.45593999997E+02  0.45594000000E+02  0.51100000000E-03 0.  1.
    9900012    2    1    2    0    0  0.36286231405E+02  0.24093550315E+02  0.11485813699E+02  0.46142315715E+02  0.99999813422E+01 0.  0.
        -12    1    1    2    0    0 -0.36286231405E+02 -0.24093550315E+02 -0.11485813699E+02  0.45045684285E+02  0.00000000000E+00 0.  1.
         11    1    3    3    0    0  0.30052367972E+02  0.21850183781E+02  0.76615906604E+01  0.37937782271E+02  0.51100000000E-03 0. -1.
        -11    1    3    3    0    0  0.10538030465E+01 -0.10179280889E+00  0.19474467362E+01  0.22166216836E+01  0.51100000000E-03 0.  1.
         12    1    3    3    0    0  0.51800603870E+01  0.23451593434E+01  0.18767763029E+01  0.59879117603E+01  0.00000000000E+00 0. -1.
</event>
<event>
 7    1  0.1476909E-008  0.4614232E+02  0.7816164E-02  0.1320468E+00
        -11   -1    0    0    0    0  0.00000000000E+00  0.00000000000E+00  0.45593999997E+02  0.45594000000E+02  0.51100000000E-03 0.  1.
         11   -1    0    0    0    0 -0.00000000000E+00 -0.00000000000E+00 -0.45593999997E+02  0.45594000000E+02  0.51100000000E-03 0. -1.
    9900012    2    1    2    0    0 -0.14554738932E+01 -0.35767864884E+02 -0.27343278344E+02  0.46142318374E+02  0.10000005585E+02 0.  0.
        -12    1    1    2    0    0  0.14554738932E+01  0.35767864884E+02  0.27343278344E+02  0.45045681626E+02  0.00000000000E+00 0.  1.
         11    1    3    3    0    0 -0.13850053088E+01 -0.59913979246E+00 -0.11739897268E+01  0.19119258187E+01  0.51100000000E-03 0. -1.
        -11    1    3    3    0    0  0.15802349920E+01 -0.79050723290E+01 -0.84167527043E+01  0.11654571528E+02  0.51100000000E-03 0.  1.
         12    1    3    3    0    0 -0.16507035764E+01 -0.27263652762E+02 -0.17752535913E+02  0.32575821027E+02  0.00000000000E+00 0. -1.
</event>
<event>
 7    1  0.1476909E-008  0.4614232E+02  0.7816164E-02  0.1320468E+00
        -11   -1    0    0    0    0  0.00000000000E+00  0.00000000000E+00  0.45593999997E+02  0.45594000000E+02  0.51100000000E-03 0.  1.
         11   -1    0    0    0    0 -0.00000000000E+00 -0.00000000000E+00 -0.45593999997E+02  0.45594000000E+02  0.51100000000E-03 0. -1.
    9900012    2    1    2    0    0 -0.35356884434E+02 -0.41612989278E+01 -0.27598690858E+02  0.46142318490E+02  0.10000006646E+02 0.  0.
        -12    1    1    2    0    0  0.35356884434E+02  0.41612989278E+01  0.27598690858E+02  0.45045681510E+02  0.00000000000E+00 0.  1.
         11    1    3    3    0    0 -0.11865697583E+02 -0.38858148388E+01 -0.11064595189E+02  0.16682913506E+02  0.51100000000E-03 0. -1.
        -11    1    3    3    0    0 -0.19137059566E+02  0.12199899085E+01 -0.10477265934E+02  0.21851510838E+02  0.51100000000E-03 0.  1.
        -12    1    3    3    0    0 -0.43541272847E+01 -0.14954739975E+01 -0.60568297352E+01  0.76078941455E+01  0.00000000000E+00 0.  1.
</event>
<event>
 7    1  0.1476909E-008  0.4614232E+02  0.7816164E-02  0.1320468E+00
        -11   -1    0    0    0    0  0.00000000000E+00  0.00000000000E+00  0.45593999997E+02  0.45594000000E+02  0.51100000000E-03 0.  1.
         11   -1    0    0    0    0 -0.00000000000E+00 -0.00000000000E+00 -0.45593999997E+02  0.45594000000E+02  0.51100000000E-03 0. -1.
    9900012    2    1    2    0    0  0.33149905099E+02 -0.22705879996E+02 -0.20362724326E+02  0.46142315008E+02  0.99999748910E+01 0.  0.
        -12    1    1    2    0    0 -0.33149905099E+02  0.22705879996E+02  0.20362724326E+02  0.45045684992E+02  0.00000000000E+00 0.  1.
         11    1    3    3    0    0  0.22429902472E+02 -0.19594499244E+02 -0.15382649886E+02  0.33521199908E+02  0.51100000000E-03 0.  1.
        -11    1    3    3    0    0  0.37867071823E+01 -0.26920967708E+01 -0.18157496087E+01  0.49883347132E+01  0.51100000000E-03 0. -1.
        -12    1    3    3    0    0  0.69332954450E+01 -0.41928398097E+00 -0.31643248313E+01  0.76327803861E+01  0.00000000000E+00 0.  1.
</event>
<event>
 7    1  0.1476909E-008  0.4614232E+02  0.7816164E-02  0.1320468E+00
        -11   -1    0    0    0    0  0.00000000000E+00  0.00000000000E+00  0.45593999997E+02  0.45594000000E+02  0.51100000000E-03 0.  1.
         11   -1    0    0    0    0 -0.00000000000E+00 -0.00000000000E+00 -0.45593999997E+02  0.45594000000E+02  0.51100000000E-03 0. -1.
    9900012    2    1    2    0    0 -0.16212455048E+02 -0.41923218477E+02 -0.29518759406E+01  0.46142317436E+02  0.99999970320E+01 0.  0.
        -12    1    1    2    0    0  0.16212455048E+02  0.41923218477E+02  0.29518759406E+01  0.45045682564E+02  0.00000000000E+00 0.  1.
         11    1    3    3    0    0 -0.31329106798E+01 -0.93733832328E+01 -0.11858880348E+01  0.99539827832E+01  0.51100000000E-03 0. -1.
        -11    1    3    3    0    0 -0.93160273466E+00 -0.12589301216E+02 -0.22196831260E+01  0.12817385934E+02  0.51100000000E-03 0.  1.
        -12    1    3    3    0    0 -0.12147941633E+02 -0.19960534028E+02  0.45369522021E+00  0.23370948718E+02  0.00000000000E+00 0.  1.
</event>
<event>
 7    1  0.1476909E-008  0.4614232E+02  0.7816164E-02  0.1320468E+00
        -11   -1    0    0    0    0  0.00000000000E+00  0.00000000000E+00  0.45593999997E+02  0.45594000000E+02  0.51100000000E-03 0. -1.
         11   -1    0    0    0    0 -0.00000000000E+00 -0.00000000000E+00 -0.45593999997E+02  0.45594000000E+02  0.51100000000E-03 0.  1.
    9900012    2    1    2    0    0 -0.26611522822E+01  0.47043220848E+00  0.44964546195E+02  0.46142318159E+02  0.10000003632E+02 0.  0.
        -12    1    1    2    0    0  0.26611522822E+01 -0.47043220848E+00 -0.44964546195E+02  0.45045681841E+02  0.00000000000E+00 0.  1.
         11    1    3    3    0    0 -0.25635858966E+01  0.38303002177E+01  0.20298917893E+02  0.20815600887E+02  0.51100000000E-03 0. -1.
        -11    1    3    3    0    0 -0.18353274118E+01 -0.11871347241E+01  0.48893500253E+01  0.53556941187E+01  0.51100000000E-03 0.  1.
         12    1    3    3    0    0  0.17377610262E+01 -0.21727332851E+01  0.19776278277E+02  0.19971023153E+02  0.00000000000E+00 0. -1.
</event>
<event>
 7    1  0.1476909E-008  0.4614232E+02  0.7816164E-02  0.1320468E+00
        -11   -1    0    0    0    0  0.00000000000E+00  0.00000000000E+00  0.45593999997E+02  0.45594000000E+02  0.51100000000E-03 0.  1.
         11   -1    0    0    0    0 -0.00000000000E+00 -0.00000000000E+00 -0.45593999997E+02  0.45594000000E+02  0.51100000000E-03 0. -1.
    9900012    2    1    2    0    0  0.37506306511E+02 -0.11207620498E+02 -0.22288553908E+02  0.46142318513E+02  0.10000006854E+02 0.  0.
        -12    1    1    2    0    0 -0.37506306511E+02  0.11207620498E+02  0.22288553908E+02  0.45045681487E+02  0.00000000000E+00 0.  1.
         11    1    3    3    0    0  0.16944186804E+02 -0.86782024667E+01 -0.13967946299E+02  0.23611865419E+02  0.51100000000E-03 0. -1.
        -11    1    3    3    0    0  0.12818564107E+02 -0.10661768634E+00 -0.53348679696E+01  0.13884803550E+02  0.51100000000E-03 0.  1.
         12    1    3    3    0    0  0.77435556000E+01 -0.24228003452E+01 -0.29857396399E+01  0.86456495441E+01  0.00000000000E+00 0. -1.
</event>
<event>
 7    1  0.1476909E-008  0.4614231E+02  0.7816164E-02  0.1320468E+00
        -11   -1    0    0    0    0  0.00000000000E+00  0.00000000000E+00  0.45593999997E+02  0.45594000000E+02  0.51100000000E-03 0.  1.
         11   -1    0    0    0    0 -0.00000000000E+00 -0.00000000000E+00 -0.45593999997E+02  0.45594000000E+02  0.51100000000E-03 0. -1.
    9900012    2    1    2    0    0  0.17404539058E+02 -0.77930126276E+01 -0.40810108181E+02  0.46142312577E+02  0.99999527299E+01 0.  0.
        -12    1    1    2    0    0 -0.17404539058E+02  0.77930126276E+01  0.40810108181E+02  0.45045687423E+02  0.00000000000E+00 0.  1.
         11    1    3    3    0    0  0.33425384804E+01 -0.22087517255E+01 -0.97439703342E+01  0.10535468941E+02  0.51100000000E-03 0. -1.
        -11    1    3    3    0    0  0.14327963443E+02 -0.43264569302E+01 -0.23014137048E+02  0.27452855413E+02  0.51100000000E-03 0.  1.
        -12    1    3    3    0    0 -0.26596286576E+00 -0.12578039719E+01 -0.80520007990E+01  0.81539882232E+01  0.00000000000E+00 0.  1.
</event>
<event>
 7    1  0.1476909E-008  0.4614232E+02  0.7816164E-02  0.1320468E+00
        -11   -1    0    0    0    0  0.00000000000E+00  0.00000000000E+00  0.45593999997E+02  0.45594000000E+02  0.51100000000E-03 0. -1.
         11   -1    0    0    0    0 -0.00000000000E+00 -0.00000000000E+00 -0.45593999997E+02  0.45594000000E+02  0.51100000000E-03 0.  1.
    9900012    2    1    2    0    0 -0.43773312758E+02 -0.32295848923E+01  0.10128198575E+02  0.46142317247E+02  0.99999953079E+01 0.  0.
        -12    1    1    2    0    0  0.43773312758E+02  0.32295848923E+01 -0.10128198575E+02  0.45045682753E+02  0.00000000000E+00 0.  1.
         11    1    3    3    0    0 -0.12339900661E+02 -0.30003917344E+01  0.29738136155E+01  0.13042970006E+02  0.51100000000E-03 0. -1.
        -11    1    3    3    0    0 -0.62069255377E+01  0.24183167370E+01 -0.27996091781E+00  0.66672752192E+01  0.51100000000E-03 0.  1.
        -12    1    3    3    0    0 -0.25226486559E+02 -0.26475098950E+01  0.74343458772E+01  0.26432072022E+02  0.00000000000E+00 0.  1.
</event>
<event>
 7    1  0.1476909E-008  0.4614232E+02  0.7816164E-02  0.1320468E+00
        -11   -1    0    0    0    0  0.00000000000E+00  0.00000000000E+00  0.45593999997E+02  0.45594000000E+02  0.51100000000E-03 0.  1.
         11   -1    0    0    0    0 -0.00000000000E+00 -0.00000000000E+00 -0.45593999997E+02  0.45594000000E+02  0.51100000000E-03 0. -1.
    9900012    2    1    2    0    0 -0.28598865572E+02  0.10505622376E+02 -0.33179066344E+02  0.46142315889E+02  0.99999829325E+01 0.  0.
        -12    1    1    2    0    0  0.28598865572E+02 -0.10505622376E+02  0.33179066344E+02  0.45045684111E+02  0.00000000000E+00 0.  1.
         11    1    3    3    0    0 -0.16200691396E+02  0.50551491178E+01 -0.22576482554E+02  0.28243840020E+02  0.51100000000E-03 0. -1.
        -11    1    3    3    0    0 -0.70582004043E+01  0.29989857913E+01 -0.28736224203E+01  0.81896162791E+01  0.51100000000E-03 0.  1.
        -12    1    3    3    0    0 -0.53399737719E+01  0.24514874670E+01 -0.77289613703E+01  0.97088595906E+01  0.00000000000E+00 0.  1.
</event>
<event>
 7    1  0.1476909E-008  0.4614232E+02  0.7816164E-02  0.1320468E+00
        -11   -1    0    0    0    0  0.00000000000E+00  0.00000000000E+00  0.45593999997E+02  0.45594000000E+02  0.51100000000E-03 0.  1.
         11   -1    0    0    0    0 -0.00000000000E+00 -0.00000000000E+00 -0.45593999997E+02  0.45594000000E+02  0.51100000000E-03 0. -1.
    9900012    2    1    2    0    0 -0.23346027725E+02  0.33532763850E+02 -0.18963923090E+02  0.46142316068E+02  0.99999845572E+01 0.  0.
        -12    1    1    2    0    0  0.23346027725E+02 -0.33532763850E+02  0.18963923090E+02  0.45045683932E+02  0.00000000000E+00 0.  1.
         11    1    3    3    0    0 -0.88195734727E+01  0.11828785219E+02 -0.21493256528E+01  0.14910554551E+02  0.51100000000E-03 0. -1.
        -11    1    3    3    0    0 -0.10706124229E+02  0.15768076845E+02 -0.10497773105E+02  0.21759057512E+02  0.51100000000E-03 0.  1.
        -12    1    3    3    0    0 -0.38203300233E+01  0.59359017853E+01 -0.63168243329E+01  0.94727040038E+01  0.00000000000E+00 0.  1.
</event>
<event>
 7    1  0.1476909E-008  0.4614232E+02  0.7816164E-02  0.1320468E+00
        -11   -1    0    0    0    0  0.00000000000E+00  0.00000000000E+00  0.45593999997E+02  0.45594000000E+02  0.51100000000E-03 0.  1.
         11   -1    0    0    0    0 -0.00000000000E+00 -0.00000000000E+00 -0.45593999997E+02  0.45594000000E+02  0.51100000000E-03 0. -1.
    9900012    2    1    2    0    0  0.19095420978E+02 -0.40063690244E+02 -0.77057851836E+01  0.46142317592E+02  0.99999984599E+01 0.  0.
        -12    1    1    2    0    0 -0.19095420978E+02  0.40063690244E+02  0.77057851836E+01  0.45045682408E+02  0.00000000000E+00 0.  1.
         11    1    3    3    0    0  0.65344810342E+01 -0.20889551922E+02 -0.22424842014E+01  0.22002308005E+02  0.51100000000E-03 0. -1.
        -11    1    3    3    0    0  0.11195807587E+02 -0.19102929424E+02 -0.50318865371E+01  0.22706560780E+02  0.51100000000E-03 0.  1.
        -12    1    3    3    0    0  0.13651323563E+01 -0.71208898083E-01 -0.43141444519E+00  0.14334488065E+01  0.00000000000E+00 0.  1.
</event>
<event>
 7    1  0.1476909E-008  0.4614232E+02  0.7816164E-02  0.1320468E+00
        -11   -1    0    0    0    0  0.00000000000E+00  0.00000000000E+00  0.45593999997E+02  0.45594000000E+02  0.51100000000E-03 0.  1.
         11   -1    0    0    0    0 -0.00000000000E+00 -0.00000000000E+00 -0.45593999997E+02  0.45594000000E+02  0.51100000000E-03 0. -1.
    9900012    2    1    2    0    0  0.37150003620E+02  0.37314609262E+01 -0.25200530762E+02  0.46142319626E+02  0.10000017006E+02 0.  0.
        -12    1    1    2    0    0 -0.37150003620E+02 -0.37314609262E+01  0.25200530762E+02  0.45045680374E+02  0.00000000000E+00 0.  1.
         11    1    3    3    0    0  0.26111109609E+02  0.14298771200E+01 -0.16989092639E+02  0.31184352848E+02  0.51100000000E-03 0. -1.
        -11    1    3    3    0    0  0.35875740131E+01  0.24540200089E+01 -0.74791275722E+00  0.44104733597E+01  0.51100000000E-03 0.  1.
         12    1    3    3    0    0  0.74513199986E+01 -0.15243620262E+00 -0.74635253667E+01  0.10547493419E+02  0.00000000000E+00 0. -1.
</event>
<event>
 7    1  0.1476909E-008  0.4614232E+02  0.7816164E-02  0.1320468E+00
        -11   -1    0    0    0    0  0.00000000000E+00  0.00000000000E+00  0.45593999997E+02  0.45594000000E+02  0.51100000000E-03 0. -1.
         11   -1    0    0    0    0 -0.00000000000E+00 -0.00000000000E+00 -0.45593999997E+02  0.45594000000E+02  0.51100000000E-03 0.  1.
    9900012    2    1    2    0    0  0.66574952372E+00 -0.44865024608E+02  0.39748877121E+01  0.46142318877E+02  0.10000010174E+02 0.  0.
        -12    1    1    2    0    0 -0.66574952372E+00  0.44865024608E+02 -0.39748877121E+01  0.45045681123E+02  0.00000000000E+00 0.  1.
         11    1    3    3    0    0  0.20644474499E+01 -0.77862336979E+01 -0.21654964106E+01  0.83412680953E+01  0.51100000000E-03 0. -1.
        -11    1    3    3    0    0 -0.18006046706E+01 -0.13797382700E+02  0.36379301580E+01  0.14382088952E+02  0.51100000000E-03 0.  1.
         12    1    3    3    0    0  0.40190674435E+00 -0.23281408211E+02  0.25024539646E+01  0.23418961829E+02  0.00000000000E+00 0. -1.
</event>
<event>
 7    1  0.1476909E-008  0.4614232E+02  0.7816164E-02  0.1320468E+00
        -11   -1    0    0    0    0  0.00000000000E+00  0.00000000000E+00  0.45593999997E+02  0.45594000000E+02  0.51100000000E-03 0.  1.
         11   -1    0    0    0    0 -0.00000000000E+00 -0.00000000000E+00 -0.45593999997E+02  0.45594000000E+02  0.51100000000E-03 0. -1.
    9900012    2    1    2    0    0 -0.36062551492E+02  0.51193869400E+00 -0.26987845253E+02  0.46142317713E+02  0.99999995569E+01 0.  0.
        -12    1    1    2    0    0  0.36062551492E+02 -0.51193869400E+00  0.26987845253E+02  0.45045682287E+02  0.00000000000E+00 0.  1.
         11    1    3    3    0    0 -0.83024072578E+00 -0.40769621823E+00  0.44577494780E+00  0.10267577291E+01  0.51100000000E-03 0. -1.
        -11    1    3    3    0    0 -0.18108048285E+02  0.36501034215E+01 -0.14464903687E+02  0.23461843632E+02  0.51100000000E-03 0.  1.
         12    1    3    3    0    0 -0.17124262482E+02 -0.27304685093E+01 -0.12968716513E+02  0.21653716352E+02  0.00000000000E+00 0. -1.
</event>
<event>
 7    1  0.1476909E-008  0.4614231E+02  0.7816164E-02  0.1320468E+00
        -11   -1    0    0    0    0  0.00000000000E+00  0.00000000000E+00  0.45593999997E+02  0.45594000000E+02  0.51100000000E-03 0.  1.
         11   -1    0    0    0    0 -0.00000000000E+00 -0.00000000000E+00 -0.45593999997E+02  0.45594000000E+02  0.51100000000E-03 0. -1.
    9900012    2    1    2    0    0  0.67998287072E+01  0.10924804008E+01 -0.44516093847E+02  0.46142314355E+02  0.99999689372E+01 0.  0.
        -12    1    1    2    0    0 -0.67998287072E+01 -0.10924804008E+01  0.44516093847E+02  0.45045685645E+02  0.00000000000E+00 0.  1.
         11    1    3    3    0    0  0.32153494646E+01 -0.25035173025E+01 -0.21636804958E+02  0.22017206910E+02  0.51100000000E-03 0. -1.
        -11    1    3    3    0    0  0.15816981408E+01  0.22527627003E+01 -0.20676653482E+02  0.20859067771E+02  0.51100000000E-03 0.  1.
        -12    1    3    3    0    0  0.20027811018E+01  0.13432350029E+01 -0.22026354064E+01  0.32660396734E+01  0.00000000000E+00 0.  1.
</event>
<event>
 7    1  0.1476909E-008  0.4614232E+02  0.7816164E-02  0.1320468E+00
        -11   -1    0    0    0    0  0.00000000000E+00  0.00000000000E+00  0.45593999997E+02  0.45594000000E+02  0.51100000000E-03 0.  1.
         11   -1    0    0    0    0 -0.00000000000E+00 -0.00000000000E+00 -0.45593999997E+02  0.45594000000E+02  0.51100000000E-03 0. -1.
    9900012    2    1    2    0    0  0.22920266604E+02 -0.31167442149E+02 -0.23073044431E+02  0.46142318180E+02  0.10000003819E+02 0.  0.
        -12    1    1    2    0    0 -0.22920266604E+02  0.31167442149E+02  0.23073044431E+02  0.45045681820E+02  0.00000000000E+00 0.  1.
         11    1    3    3    0    0  0.66245142899E+01 -0.15136036749E+02 -0.86834317015E+01  0.18665095350E+02  0.51100000000E-03 0. -1.
        -11    1    3    3    0    0  0.10100491228E+02 -0.68604773617E+01 -0.60966852231E+01  0.13647550829E+02  0.51100000000E-03 0.  1.
         12    1    3    3    0    0  0.61952610860E+01 -0.91709280385E+01 -0.82929275067E+01  0.13829672001E+02  0.00000000000E+00 0. -1.
</event>
<event>
 7    1  0.1476909E-008  0.4614232E+02  0.7816164E-02  0.1320468E+00
        -11   -1    0    0    0    0  0.00000000000E+00  0.00000000000E+00  0.45593999997E+02  0.45594000000E+02  0.51100000000E-03 0. -1.
         11   -1    0    0    0    0 -0.00000000000E+00 -0.00000000000E+00 -0.45593999997E+02  0.45594000000E+02  0.51100000000E-03 0.  1.
    9900012    2    1    2    0    0 -0.22532001532E+02 -0.41998111660E+01  0.38778653982E+02  0.46142317504E+02  0.99999976574E+01 0.  0.
        -12    1    1    2    0    0  0.22532001532E+02  0.41998111660E+01 -0.38778653982E+02  0.45045682496E+02  0.00000000000E+00 0.  1.
         11    1    3    3    0    0 -0.90914769347E+01  0.29374447118E+01  0.17523273825E+02  0.19958673806E+02  0.51100000000E-03 0. -1.
        -11    1    3    3    0    0 -0.81022794944E+01 -0.44155505698E+01  0.14096508484E+02  0.16848013876E+02  0.51100000000E-03 0.  1.
         12    1    3    3    0    0 -0.53382451028E+01 -0.27217053080E+01  0.71588716725E+01  0.93356298226E+01  0.00000000000E+00 0. -1.
</event>
<event>
 7    1  0.1476909E-008  0.4614232E+02  0.7816164E-02  0.1320468E+00
        -11   -1    0    0    0    0  0.00000000000E+00  0.00000000000E+00  0.45593999997E+02  0.45594000000E+02  0.51100000000E-03 0.  1.
         11   -1    0    0    0    0 -0.00000000000E+00 -0.00000000000E+00 -0.45593999997E+02  0.45594000000E+02  0.51100000000E-03 0. -1.
    9900012    2    1    2    0    0  0.48575231633E+01 -0.37083219637E+01 -0.44629208810E+02  0.46142318053E+02  0.10000002663E+02 0.  0.
        -12    1    1    2    0    0 -0.48575231633E+01  0.37083219637E+01  0.44629208810E+02  0.45045681947E+02  0.00000000000E+00 0.  1.
         11    1    3    3    0    0  0.25304023762E+01  0.76505452317E+00 -0.11213968503E+02  0.11521342563E+02  0.51100000000E-03 0. -1.
        -11    1    3    3    0    0  0.14278850827E+01  0.15669072932E+01 -0.35256858616E+01  0.41139415809E+01  0.51100000000E-03 0.  1.
         12    1    3    3    0    0  0.89923570434E+00 -0.60402837801E+01 -0.29889554445E+02  0.30507033909E+02  0.00000000000E+00 0. -1.
</event>
<event>
 7    1  0.1476909E-008  0.4614232E+02  0.7816164E-02  0.1320468E+00
        -11   -1    0    0    0    0  0.00000000000E+00  0.00000000000E+00  0.45593999997E+02  0.45594000000E+02  0.51100000000E-03 0. -1.
         11   -1    0    0    0    0 -0.00000000000E+00 -0.00000000000E+00 -0.45593999997E+02  0.45594000000E+02  0.51100000000E-03 0.  1.
    9900012    2    1    2    0    0  0.34197544190E+02  0.45144328039E+01  0.28970007666E+02  0.46142317894E+02  0.10000001216E+02 0.  0.
        -12    1    1    2    0    0 -0.34197544190E+02 -0.45144328039E+01 -0.28970007666E+02  0.45045682106E+02  0.00000000000E+00 0.  1.
         11    1    3    3    0    0  0.18023804186E+02 -0.16547074406E+00  0.19956362772E+02  0.26891286940E+02  0.51100000000E-03 0. -1.
        -11    1    3    3    0    0  0.39130462860E+01  0.22167516946E+01  0.26379337713E+01  0.52138866650E+01  0.51100000000E-03 0.  1.
         12    1    3    3    0    0  0.12260693718E+02  0.24631518534E+01  0.63757111225E+01  0.14037144290E+02  0.00000000000E+00 0. -1.
</event>
<event>
 7    1  0.1476909E-008  0.4614231E+02  0.7816164E-02  0.1320468E+00
        -11   -1    0    0    0    0  0.00000000000E+00  0.00000000000E+00  0.45593999997E+02  0.45594000000E+02  0.51100000000E-03 0.  1.
         11   -1    0    0    0    0 -0.00000000000E+00 -0.00000000000E+00 -0.45593999997E+02  0.45594000000E+02  0.51100000000E-03 0. -1.
    9900012    2    1    2    0    0  0.22485324490E+02  0.27005033966E+02 -0.28182479264E+02  0.46142314142E+02  0.99999669993E+01 0.  0.
        -12    1    1    2    0    0 -0.22485324490E+02 -0.27005033966E+02  0.28182479264E+02  0.45045685858E+02  0.00000000000E+00 0.  1.
         11    1    3    3    0    0  0.10065316250E+02  0.13809645625E+02 -0.12351696615E+02  0.21085096942E+02  0.51100000000E-03 0. -1.
        -11    1    3    3    0    0  0.49360684889E+01  0.11367945484E+01 -0.27872265438E+01  0.57814968685E+01  0.51100000000E-03 0.  1.
        -12    1    3    3    0    0  0.74839397513E+01  0.12058593792E+02 -0.13043556105E+02  0.19275720332E+02  0.00000000000E+00 0.  1.
</event>
<event>
 7    1  0.1476909E-008  0.4614232E+02  0.7816164E-02  0.1320468E+00
        -11   -1    0    0    0    0  0.00000000000E+00  0.00000000000E+00  0.45593999997E+02  0.45594000000E+02  0.51100000000E-03 0. -1.
         11   -1    0    0    0    0 -0.00000000000E+00 -0.00000000000E+00 -0.45593999997E+02  0.45594000000E+02  0.51100000000E-03 0.  1.
    9900012    2    1    2    0    0  0.78732922687E+01  0.43974707042E+02 -0.57749417972E+01  0.46142317151E+02  0.99999944332E+01 0.  0.
        -12    1    1    2    0    0 -0.78732922687E+01 -0.43974707042E+02  0.57749417972E+01  0.45045682849E+02  0.00000000000E+00 0.  1.
         11    1    3    3    0    0  0.71151022689E+01  0.31348947600E+02 -0.49113737671E+01  0.32519267957E+02  0.51100000000E-03 0. -1.
        -11    1    3    3    0    0 -0.12396082130E+01  0.86235626881E+01 -0.21403847269E+01  0.89712713145E+01  0.51100000000E-03 0.  1.
         12    1    3    3    0    0  0.19977982128E+01  0.40021967540E+01  0.12768166969E+01  0.46517778788E+01  0.00000000000E+00 0. -1.
</event>
<event>
 7    1  0.1476909E-008  0.4614232E+02  0.7816164E-02  0.1320468E+00
        -11   -1    0    0    0    0  0.00000000000E+00  0.00000000000E+00  0.45593999997E+02  0.45594000000E+02  0.51100000000E-03 0.  1.
         11   -1    0    0    0    0 -0.00000000000E+00 -0.00000000000E+00 -0.45593999997E+02  0.45594000000E+02  0.51100000000E-03 0. -1.
    9900012    2    1    2    0    0 -0.32292399256E+02  0.18276985112E+02 -0.25539505048E+02  0.46142317049E+02  0.99999935024E+01 0.  0.
        -12    1    1    2    0    0  0.32292399256E+02 -0.18276985112E+02  0.25539505048E+02  0.45045682951E+02  0.00000000000E+00 0.  1.
         11    1    3    3    0    0 -0.71237387014E+01  0.19989248030E+01 -0.91571279001E+01  0.11772694895E+02  0.51100000000E-03 0. -1.
        -11    1    3    3    0    0 -0.23976615690E+02  0.16308671126E+02 -0.15454265686E+02  0.32858563297E+02  0.51100000000E-03 0.  1.
        -12    1    3    3    0    0 -0.11920448645E+01 -0.30610816314E-01 -0.92811146174E+00  0.15110588560E+01  0.00000000000E+00 0.  1.
</event>
<event>
 7    1  0.1476909E-008  0.4614232E+02  0.7816164E-02  0.1320468E+00
        -11   -1    0    0    0    0  0.00000000000E+00  0.00000000000E+00  0.45593999997E+02  0.45594000000E+02  0.51100000000E-03 0.  1.
         11   -1    0    0    0    0 -0.00000000000E+00 -0.00000000000E+00 -0.45593999997E+02  0.45594000000E+02  0.51100000000E-03 0. -1.
    9900012    2    1    2    0    0  0.11271575871E+02 -0.72711220810E+01 -0.43002276864E+02  0.46142318138E+02  0.10000003433E+02 0.  0.
        -12    1    1    2    0    0 -0.11271575871E+02  0.72711220810E+01  0.43002276864E+02  0.45045681862E+02  0.00000000000E+00 0.  1.
         11    1    3    3    0    0  0.35404088361E+01 -0.12790307356E+00 -0.20735486826E+02  0.21035951799E+02  0.51100000000E-03 0. -1.
        -11    1    3    3    0    0  0.48891704488E+01 -0.67572352936E+01 -0.13365206732E+02  0.15754141288E+02  0.51100000000E-03 0.  1.
        -12    1    3    3    0    0  0.28419965865E+01 -0.38598371381E+00 -0.89015833066E+01  0.93522250502E+01  0.00000000000E+00 0.  1.
</event>
<event>
 7    1  0.1476909E-008  0.4614232E+02  0.7816164E-02  0.1320468E+00
        -11   -1    0    0    0    0  0.00000000000E+00  0.00000000000E+00  0.45593999997E+02  0.45594000000E+02  0.51100000000E-03 0. -1.
         11   -1    0    0    0    0 -0.00000000000E+00 -0.00000000000E+00 -0.45593999997E+02  0.45594000000E+02  0.51100000000E-03 0.  1.
    9900012    2    1    2    0    0 -0.41284871399E+02  0.48971181391E+01 -0.17340445411E+02  0.46142318524E+02  0.10000006959E+02 0.  0.
        -12    1    1    2    0    0  0.41284871399E+02 -0.48971181391E+01  0.17340445411E+02  0.45045681476E+02  0.00000000000E+00 0.  1.
         11    1    3    3    0    0 -0.28455058755E+02 -0.83168649226E+00 -0.92930118157E+01  0.29945653107E+02  0.51100000000E-03 0. -1.
        -11    1    3    3    0    0 -0.59344207151E+00  0.22373209241E+00 -0.44640165179E+00  0.77556704240E+00  0.51100000000E-03 0.  1.
         12    1    3    3    0    0 -0.12236370573E+02  0.55050725390E+01 -0.76010319440E+01  0.15421098375E+02  0.00000000000E+00 0. -1.
</event>
<event>
 7    1  0.1476909E-008  0.4614232E+02  0.7816164E-02  0.1320468E+00
        -11   -1    0    0    0    0  0.00000000000E+00  0.00000000000E+00  0.45593999997E+02  0.45594000000E+02  0.51100000000E-03 0.  1.
         11   -1    0    0    0    0 -0.00000000000E+00 -0.00000000000E+00 -0.45593999997E+02  0.45594000000E+02  0.51100000000E-03 0. -1.
    9900012    2    1    2    0    0 -0.41011919380E+02  0.86717751988E+01 -0.16490489712E+02  0.46142317996E+02  0.10000002140E+02 0.  0.
        -12    1    1    2    0    0  0.41011919380E+02 -0.86717751988E+01  0.16490489712E+02  0.45045682004E+02  0.00000000000E+00 0.  1.
         11    1    3    3    0    0 -0.17024263797E+02  0.23468898288E+01 -0.56953252468E+01  0.18104424311E+02  0.51100000000E-03 0. -1.
        -11    1    3    3    0    0 -0.31276968746E+01  0.44479209814E+00  0.10627947209E+01  0.33331457558E+01  0.51100000000E-03 0.  1.
         12    1    3    3    0    0 -0.20859958708E+02  0.58800932718E+01 -0.11857959186E+02  0.24704747929E+02  0.00000000000E+00 0. -1.
</event>
<event>
 7    1  0.1476909E-008  0.4614232E+02  0.7816164E-02  0.1320468E+00
        -11   -1    0    0    0    0  0.00000000000E+00  0.00000000000E+00  0.45593999997E+02  0.45594000000E+02  0.51100000000E-03 0.  1.
         11   -1    0    0    0    0 -0.00000000000E+00 -0.00000000000E+00 -0.45593999997E+02  0.45594000000E+02  0.51100000000E-03 0. -1.
    9900012    2    1    2    0    0  0.19290131630E+02 -0.39543375651E+01 -0.40513793700E+02  0.46142318255E+02  0.10000004502E+02 0.  0.
        -12    1    1    2    0    0 -0.19290131630E+02  0.39543375651E+01  0.40513793700E+02  0.45045681745E+02  0.00000000000E+00 0.  1.
         11    1    3    3    0    0  0.11397862570E+02 -0.48510537589E+01 -0.22625281060E+02  0.25794327613E+02  0.51100000000E-03 0. -1.
        -11    1    3    3    0    0  0.60246095613E+01  0.13732951111E+01 -0.72040605640E+01  0.94910667841E+01  0.51100000000E-03 0.  1.
        -12    1    3    3    0    0  0.18676594993E+01 -0.47657891731E+00 -0.10684452076E+02  0.10856923857E+02  0.00000000000E+00 0.  1.
</event>
<event>
 7    1  0.1476909E-008  0.4614232E+02  0.7816164E-02  0.1320468E+00
        -11   -1    0    0    0    0  0.00000000000E+00  0.00000000000E+00  0.45593999997E+02  0.45594000000E+02  0.51100000000E-03 0.  1.
         11   -1    0    0    0    0 -0.00000000000E+00 -0.00000000000E+00 -0.45593999997E+02  0.45594000000E+02  0.51100000000E-03 0. -1.
    9900012    2    1    2    0    0 -0.10270530094E+02  0.20935160526E+02 -0.38540222057E+02  0.46142318177E+02  0.10000003794E+02 0.  0.
        -12    1    1    2    0    0  0.10270530094E+02 -0.20935160526E+02  0.38540222057E+02  0.45045681823E+02  0.00000000000E+00 0.  1.
         11    1    3    3    0    0 -0.50211965973E+01  0.40067733189E+01 -0.75381132495E+01  0.99040294487E+01  0.51100000000E-03 0. -1.
        -11    1    3    3    0    0 -0.25418157319E+01  0.12219671457E+02 -0.16061097856E+02  0.20340601327E+02  0.51100000000E-03 0.  1.
         12    1    3    3    0    0 -0.27075177646E+01  0.47087157499E+01 -0.14941010951E+02  0.15897687401E+02  0.00000000000E+00 0. -1.
</event>
<event>
 7    1  0.1476909E-008  0.4614232E+02  0.7816164E-02  0.1320468E+00
        -11   -1    0    0    0    0  0.00000000000E+00  0.00000000000E+00  0.45593999997E+02  0.45594000000E+02  0.51100000000E-03 0.  1.
         11   -1    0    0    0    0 -0.00000000000E+00 -0.00000000000E+00 -0.45593999997E+02  0.45594000000E+02  0.51100000000E-03 0. -1.
    9900012    2    1    2    0    0  0.23435417274E+02 -0.26653286126E+01 -0.38376953572E+02  0.46142319575E+02  0.10000016543E+02 0.  0.
        -12    1    1    2    0    0 -0.23435417274E+02  0.26653286126E+01  0.38376953572E+02  0.45045680425E+02  0.00000000000E+00 0.  1.
         11    1    3    3    0    0  0.49325922222E+01 -0.13812868663E+01 -0.44891746566E+01  0.68111018783E+01  0.51100000000E-03 0. -1.
        -11    1    3    3    0    0  0.16806760418E+02 -0.11804328677E+01 -0.24149882964E+02  0.29446179123E+02  0.51100000000E-03 0.  1.
        -12    1    3    3    0    0  0.16960646340E+01 -0.10360887860E+00 -0.97378959520E+01  0.98850385742E+01  0.00000000000E+00 0.  1.
</event>
<event>
 7    1  0.1476909E-008  0.4614232E+02  0.7816164E-02  0.1320468E+00
        -11   -1    0    0    0    0  0.00000000000E+00  0.00000000000E+00  0.45593999997E+02  0.45594000000E+02  0.51100000000E-03 0.  1.
         11   -1    0    0    0    0 -0.00000000000E+00 -0.00000000000E+00 -0.45593999997E+02  0.45594000000E+02  0.51100000000E-03 0. -1.
    9900012    2    1    2    0    0 -0.37230976012E+02 -0.12274781237E+02 -0.22187781507E+02  0.46142317883E+02  0.10000001109E+02 0.  0.
        -12    1    1    2    0    0  0.37230976012E+02  0.12274781237E+02  0.22187781507E+02  0.45045682117E+02  0.00000000000E+00 0.  1.
         11    1    3    3    0    0 -0.22057811154E+02 -0.11947881925E+02 -0.13208589986E+02  0.28350763043E+02  0.51100000000E-03 0. -1.
        -11    1    3    3    0    0 -0.29656065414E+01  0.71151518859E+00 -0.24287975478E+01  0.38987348988E+01  0.51100000000E-03 0.  1.
         12    1    3    3    0    0 -0.12207558316E+02 -0.10384145004E+01 -0.65503939729E+01  0.13892819941E+02  0.00000000000E+00 0. -1.
</event>
<event>
 7    1  0.1476909E-008  0.4614232E+02  0.7816164E-02  0.1320468E+00
        -11   -1    0    0    0    0  0.00000000000E+00  0.00000000000E+00  0.45593999997E+02  0.45594000000E+02  0.51100000000E-03 0. -1.
         11   -1    0    0    0    0 -0.00000000000E+00 -0.00000000000E+00 -0.45593999997E+02  0.45594000000E+02  0.51100000000E-03 0.  1.
    9900012    2    1    2    0    0  0.61698558198E+01  0.40227458855E+02  0.19307964711E+02  0.46142322427E+02  0.10000042545E+02 0.  0.
        -12    1    1    2    0    0 -0.61698558198E+01 -0.40227458855E+02 -0.19307964711E+02  0.45045677573E+02  0.00000000000E+00 0.  1.
         11    1    3    3    0    0 -0.67798046716E+00  0.57852609425E+01  0.17486707047E+01  0.60816733866E+01  0.51100000000E-03 0.  1.
        -11    1    3    3    0    0  0.57840053497E+01  0.33875343806E+02  0.17978664960E+02  0.38784352900E+02  0.51100000000E-03 0. -1.
        -12    1    3    3    0    0  0.10638309373E+01  0.56685410677E+00 -0.41937095398E+00  0.12762961406E+01  0.00000000000E+00 0.  1.
</event>
<event>
 7    1  0.1476909E-008  0.4614232E+02  0.7816164E-02  0.1320468E+00
        -11   -1    0    0    0    0  0.00000000000E+00  0.00000000000E+00  0.45593999997E+02  0.45594000000E+02  0.51100000000E-03 0. -1.
         11   -1    0    0    0    0 -0.00000000000E+00 -0.00000000000E+00 -0.45593999997E+02  0.45594000000E+02  0.51100000000E-03 0.  1.
    9900012    2    1    2    0    0  0.71821847893E+01 -0.93427706457E+01  0.43476917168E+02  0.46142317986E+02  0.10000002052E+02 0.  0.
        -12    1    1    2    0    0 -0.71821847893E+01  0.93427706457E+01 -0.43476917168E+02  0.45045682014E+02  0.00000000000E+00 0.  1.
         11    1    3    3    0    0  0.57462770430E+01 -0.30803960390E+01  0.26000307763E+02  0.26805308124E+02  0.51100000000E-03 0. -1.
        -11    1    3    3    0    0 -0.19526691221E+01 -0.18442682504E+01  0.63616101907E+01  0.69053838821E+01  0.51100000000E-03 0.  1.
         12    1    3    3    0    0  0.33885768684E+01 -0.44181063564E+01  0.11114999214E+02  0.12431625980E+02  0.00000000000E+00 0. -1.
</event>
<event>
 7    1  0.1476909E-008  0.4614232E+02  0.7816164E-02  0.1320468E+00
        -11   -1    0    0    0    0  0.00000000000E+00  0.00000000000E+00  0.45593999997E+02  0.45594000000E+02  0.51100000000E-03 0.  1.
         11   -1    0    0    0    0 -0.00000000000E+00 -0.00000000000E+00 -0.45593999997E+02  0.45594000000E+02  0.51100000000E-03 0. -1.
    9900012    2    1    2    0    0  0.11560791405E+02  0.26863712702E+02 -0.34260801336E+02  0.46142318007E+02  0.10000002246E+02 0.  0.
        -12    1    1    2    0    0 -0.11560791405E+02 -0.26863712702E+02  0.34260801336E+02  0.45045681993E+02  0.00000000000E+00 0.  1.
         11    1    3    3    0    0  0.10379608790E+02  0.22054344320E+02 -0.23488322549E+02  0.33850135575E+02  0.51100000000E-03 0. -1.
        -11    1    3    3    0    0  0.56493452818E+00  0.35544925424E+01 -0.10136123692E+02  0.10756141130E+02  0.51100000000E-03 0.  1.
        -12    1    3    3    0    0  0.61624808698E+00  0.12548758388E+01 -0.63635509539E+00  0.15360413024E+01  0.00000000000E+00 0.  1.
</event>
<event>
 7    1  0.1476909E-008  0.4614232E+02  0.7816164E-02  0.1320468E+00
        -11   -1    0    0    0    0  0.00000000000E+00  0.00000000000E+00  0.45593999997E+02  0.45594000000E+02  0.51100000000E-03 0. -1.
         11   -1    0    0    0    0 -0.00000000000E+00 -0.00000000000E+00 -0.45593999997E+02  0.45594000000E+02  0.51100000000E-03 0.  1.
    9900012    2    1    2    0    0 -0.26244103248E+02 -0.27779332946E+02  0.23846786417E+02  0.46142317448E+02  0.99999971424E+01 0.  0.
        -12    1    1    2    0    0  0.26244103248E+02  0.27779332946E+02 -0.23846786417E+02  0.45045682552E+02  0.00000000000E+00 0.  1.
         11    1    3    3    0    0 -0.14353151374E+02 -0.19031952338E+02  0.15161211202E+02  0.28250495386E+02  0.51100000000E-03 0. -1.
        -11    1    3    3    0    0 -0.51771581087E+01 -0.23878921891E+01  0.59670432437E+01  0.82529146683E+01  0.51100000000E-03 0.  1.
        -12    1    3    3    0    0 -0.67137937651E+01 -0.63594884190E+01  0.27185319708E+01  0.96389073938E+01  0.00000000000E+00 0.  1.
</event>
<event>
 7    1  0.1476909E-008  0.4614232E+02  0.7816164E-02  0.1320468E+00
        -11   -1    0    0    0    0  0.00000000000E+00  0.00000000000E+00  0.45593999997E+02  0.45594000000E+02  0.51100000000E-03 0.  1.
         11   -1    0    0    0    0 -0.00000000000E+00 -0.00000000000E+00 -0.45593999997E+02  0.45594000000E+02  0.51100000000E-03 0. -1.
    9900012    2    1    2    0    0 -0.44581162094E+02  0.45304053416E+01  0.45944481815E+01  0.46142317185E+02  0.99999947443E+01 0.  0.
        -12    1    1    2    0    0  0.44581162094E+02 -0.45304053416E+01 -0.45944481815E+01  0.45045682815E+02  0.00000000000E+00 0.  1.
         11    1    3    3    0    0 -0.13864865326E+02  0.13001824096E+01  0.11277564281E+01  0.13971284824E+02  0.51100000000E-03 0. -1.
        -11    1    3    3    0    0 -0.24985430105E+02  0.28734834691E+01 -0.56255090578E+00  0.25156412474E+02  0.51100000000E-03 0.  1.
        -12    1    3    3    0    0 -0.57308666631E+01  0.35673946297E+00  0.40292426592E+01  0.70146198871E+01  0.00000000000E+00 0.  1.
</event>
<event>
 7    1  0.1476909E-008  0.4614232E+02  0.7816164E-02  0.1320468E+00
        -11   -1    0    0    0    0  0.00000000000E+00  0.00000000000E+00  0.45593999997E+02  0.45594000000E+02  0.51100000000E-03 0.  1.
         11   -1    0    0    0    0 -0.00000000000E+00 -0.00000000000E+00 -0.45593999997E+02  0.45594000000E+02  0.51100000000E-03 0. -1.
    9900012    2    1    2    0    0  0.16391779180E+02 -0.12478830948E+02 -0.40058727866E+02  0.46142319577E+02  0.10000016563E+02 0.  0.
        -12    1    1    2    0    0 -0.16391779180E+02  0.12478830948E+02  0.40058727866E+02  0.45045680423E+02  0.00000000000E+00 0.  1.
         11    1    3    3    0    0  0.88851639721E+01 -0.74205637136E+01 -0.29455847791E+02  0.31648979035E+02  0.51100000000E-03 0. -1.
        -11    1    3    3    0    0  0.77789573058E+01 -0.53713366003E+01 -0.99946822809E+01  0.13757074827E+02  0.51100000000E-03 0.  1.
        -12    1    3    3    0    0 -0.27234209835E+00  0.31306936602E+00 -0.60819779400E+00  0.73626571501E+00  0.00000000000E+00 0.  1.
</event>
<event>
 7    1  0.1476909E-008  0.4614232E+02  0.7816164E-02  0.1320468E+00
        -11   -1    0    0    0    0  0.00000000000E+00  0.00000000000E+00  0.45593999997E+02  0.45594000000E+02  0.51100000000E-03 0.  1.
         11   -1    0    0    0    0 -0.00000000000E+00 -0.00000000000E+00 -0.45593999997E+02  0.45594000000E+02  0.51100000000E-03 0. -1.
    9900012    2    1    2    0    0 -0.19757819572E+02 -0.31162795513E+02 -0.25838387435E+02  0.46142317370E+02  0.99999964323E+01 0.  0.
        -12    1    1    2    0    0  0.19757819572E+02  0.31162795513E+02  0.25838387435E+02  0.45045682630E+02  0.00000000000E+00 0.  1.
         11    1    3    3    0    0 -0.15427426601E+02 -0.18797796593E+02 -0.17256419625E+02  0.29818562454E+02  0.51100000000E-03 0. -1.
        -11    1    3    3    0    0 -0.16139389308E+01 -0.17101315665E+01 -0.34851308584E+01  0.42042224262E+01  0.51100000000E-03 0.  1.
        -12    1    3    3    0    0 -0.27164540399E+01 -0.10654867353E+02 -0.50968369514E+01  0.12119532490E+02  0.00000000000E+00 0.  1.
</event>
<event>
 7    1  0.1476909E-008  0.4614232E+02  0.7816164E-02  0.1320468E+00
        -11   -1    0    0    0    0  0.00000000000E+00  0.00000000000E+00  0.45593999997E+02  0.45594000000E+02  0.51100000000E-03 0.  1.
         11   -1    0    0    0    0 -0.00000000000E+00 -0.00000000000E+00 -0.45593999997E+02  0.45594000000E+02  0.51100000000E-03 0. -1.
    9900012    2    1    2    0    0 -0.18042497922E+02 -0.34093855667E+02 -0.23263506473E+02  0.46142318088E+02  0.10000002981E+02 0.  0.
        -12    1    1    2    0    0  0.18042497922E+02  0.34093855667E+02  0.23263506473E+02  0.45045681912E+02  0.00000000000E+00 0.  1.
         11    1    3    3    0    0 -0.93288061361E+01 -0.15388295387E+02 -0.95379312065E+01  0.20366599883E+02  0.51100000000E-03 0. -1.
        -11    1    3    3    0    0 -0.21079209539E+01 -0.12316042629E+02 -0.92946308326E+01  0.15573002259E+02  0.51100000000E-03 0.  1.
        -12    1    3    3    0    0 -0.66057708317E+01 -0.63895176515E+01 -0.44309444338E+01  0.10202715946E+02  0.00000000000E+00 0.  1.
</event>
<event>
 7    1  0.1476909E-008  0.4614232E+02  0.7816164E-02  0.1320468E+00
        -11   -1    0    0    0    0  0.00000000000E+00  0.00000000000E+00  0.45593999997E+02  0.45594000000E+02  0.51100000000E-03 0. -1.
         11   -1    0    0    0    0 -0.00000000000E+00 -0.00000000000E+00 -0.45593999997E+02  0.45594000000E+02  0.51100000000E-03 0.  1.
    9900012    2    1    2    0    0  0.50207799352E+01  0.42687147255E+02  0.13480086072E+02  0.46142317716E+02  0.99999995919E+01 0.  0.
        -12    1    1    2    0    0 -0.50207799352E+01 -0.42687147255E+02 -0.13480086072E+02  0.45045682284E+02  0.00000000000E+00 0.  1.
         11    1    3    3    0    0  0.40097456868E+01  0.76737147746E+01  0.14536837130E+01  0.87793596301E+01  0.51100000000E-03 0. -1.
        -11    1    3    3    0    0  0.23494242702E+00  0.12098133595E+02  0.66707319243E+01  0.13817333284E+02  0.51100000000E-03 0.  1.
         12    1    3    3    0    0  0.77609182135E+00  0.22915298885E+02  0.53556704343E+01  0.23545624802E+02  0.00000000000E+00 0. -1.
</event>
<event>
 7    1  0.1476909E-008  0.4614232E+02  0.7816164E-02  0.1320468E+00
        -11   -1    0    0    0    0  0.00000000000E+00  0.00000000000E+00  0.45593999997E+02  0.45594000000E+02  0.51100000000E-03 0. -1.
         11   -1    0    0    0    0 -0.00000000000E+00 -0.00000000000E+00 -0.45593999997E+02  0.45594000000E+02  0.51100000000E-03 0.  1.
    9900012    2    1    2    0    0  0.16087642373E+02 -0.25761808061E+02  0.33266050796E+02  0.46142321769E+02  0.10000036548E+02 0.  0.
        -12    1    1    2    0    0 -0.16087642373E+02  0.25761808061E+02 -0.33266050796E+02  0.45045678231E+02  0.00000000000E+00 0.  1.
         11    1    3    3    0    0  0.27504216403E+01 -0.82421109662E+01  0.11541137113E+02  0.14446281823E+02  0.51100000000E-03 0. -1.
        -11    1    3    3    0    0  0.61344238402E+01 -0.63420574305E+01  0.13278948913E+02  0.15943128074E+02  0.51100000000E-03 0.  1.
         12    1    3    3    0    0  0.72027968921E+01 -0.11177639665E+02  0.84459647704E+01  0.15752911872E+02  0.00000000000E+00 0. -1.
</event>
<event>
 7    1  0.1476909E-008  0.4614232E+02  0.7816164E-02  0.1320468E+00
        -11   -1    0    0    0    0  0.00000000000E+00  0.00000000000E+00  0.45593999997E+02  0.45594000000E+02  0.51100000000E-03 0.  1.
         11   -1    0    0    0    0 -0.00000000000E+00 -0.00000000000E+00 -0.45593999997E+02  0.45594000000E+02  0.51100000000E-03 0. -1.
    9900012    2    1    2    0    0 -0.26752249124E+02 -0.27649384707E+01 -0.36135657868E+02  0.46142317771E+02  0.10000000091E+02 0.  0.
        -12    1    1    2    0    0  0.26752249124E+02  0.27649384707E+01  0.36135657868E+02  0.45045682229E+02  0.00000000000E+00 0.  1.
         11    1    3    3    0    0 -0.51278777365E+01 -0.23112491701E+01 -0.48911049785E+01  0.74538520899E+01  0.51100000000E-03 0. -1.
        -11    1    3    3    0    0 -0.15802694161E+01 -0.20562459478E+01 -0.24485635446E+01  0.35666318171E+01  0.51100000000E-03 0.  1.
        -12    1    3    3    0    0 -0.20044101971E+02  0.16025566472E+01 -0.28795989345E+02  0.35121833864E+02  0.00000000000E+00 0.  1.
</event>
<event>
 7    1  0.1476909E-008  0.4614232E+02  0.7816164E-02  0.1320468E+00
        -11   -1    0    0    0    0  0.00000000000E+00  0.00000000000E+00  0.45593999997E+02  0.45594000000E+02  0.51100000000E-03 0. -1.
         11   -1    0    0    0    0 -0.00000000000E+00 -0.00000000000E+00 -0.45593999997E+02  0.45594000000E+02  0.51100000000E-03 0.  1.
    9900012    2    1    2    0    0  0.43640187992E+02  0.77951732151E+01  0.79926596565E+01  0.46142319388E+02  0.10000014834E+02 0.  0.
        -12    1    1    2    0    0 -0.43640187992E+02 -0.77951732151E+01 -0.79926596565E+01  0.45045680612E+02  0.00000000000E+00 0.  1.
         11    1    3    3    0    0  0.82582820494E+01  0.42590145769E+01 -0.89452932629E+00  0.93348064013E+01  0.51100000000E-03 0. -1.
        -11    1    3    3    0    0  0.60914037813E+01  0.17923827442E+01  0.10428834377E+01  0.64347060581E+01  0.51100000000E-03 0.  1.
         12    1    3    3    0    0  0.29290502161E+02  0.17437758940E+01  0.78443055451E+01  0.30372806928E+02  0.00000000000E+00 0. -1.
</event>
<event>
 7    1  0.1476909E-008  0.4614232E+02  0.7816164E-02  0.1320468E+00
        -11   -1    0    0    0    0  0.00000000000E+00  0.00000000000E+00  0.45593999997E+02  0.45594000000E+02  0.51100000000E-03 0.  1.
         11   -1    0    0    0    0 -0.00000000000E+00 -0.00000000000E+00 -0.45593999997E+02  0.45594000000E+02  0.51100000000E-03 0. -1.
    9900012    2    1    2    0    0 -0.13697027823E+02  0.28944929611E+02 -0.31681160299E+02  0.46142318307E+02  0.10000004974E+02 0.  0.
        -12    1    1    2    0    0  0.13697027823E+02 -0.28944929611E+02  0.31681160299E+02  0.45045681693E+02  0.00000000000E+00 0.  1.
         11    1    3    3    0    0 -0.70184801097E+01  0.12503516666E+02 -0.19153493904E+02  0.23925996762E+02  0.51100000000E-03 0. -1.
        -11    1    3    3    0    0  0.50966550575E+00  0.10421369546E+01 -0.10336531687E+00  0.11646857987E+01  0.51100000000E-03 0.  1.
         12    1    3    3    0    0 -0.71882132193E+01  0.15399275990E+02 -0.12424301078E+02  0.21051635746E+02  0.00000000000E+00 0. -1.
</event>
<event>
 7    1  0.1476909E-008  0.4614232E+02  0.7816164E-02  0.1320468E+00
        -11   -1    0    0    0    0  0.00000000000E+00  0.00000000000E+00  0.45593999997E+02  0.45594000000E+02  0.51100000000E-03 0.  1.
         11   -1    0    0    0    0 -0.00000000000E+00 -0.00000000000E+00 -0.45593999997E+02  0.45594000000E+02  0.51100000000E-03 0. -1.
    9900012    2    1    2    0    0 -0.92762589289E+01 -0.91900442094E+00 -0.44070624560E+02  0.46142317655E+02  0.99999990288E+01 0.  0.
        -12    1    1    2    0    0  0.92762589289E+01  0.91900442094E+00  0.44070624560E+02  0.45045682345E+02  0.00000000000E+00 0.  1.
         11    1    3    3    0    0 -0.52534665322E+01 -0.18301666881E+01 -0.95132621007E+01  0.11020461731E+02  0.51100000000E-03 0. -1.
        -11    1    3    3    0    0 -0.14131670923E+01  0.21959039726E+01 -0.82311817324E+01  0.86354726831E+01  0.51100000000E-03 0.  1.
         12    1    3    3    0    0 -0.26096253044E+01 -0.12847417054E+01 -0.26326180727E+02  0.26486383240E+02  0.00000000000E+00 0. -1.
</event>
<event>
 7    1  0.1476909E-008  0.4614232E+02  0.7816164E-02  0.1320468E+00
        -11   -1    0    0    0    0  0.00000000000E+00  0.00000000000E+00  0.45593999997E+02  0.45594000000E+02  0.51100000000E-03 0. -1.
         11   -1    0    0    0    0 -0.00000000000E+00 -0.00000000000E+00 -0.45593999997E+02  0.45594000000E+02  0.51100000000E-03 0.  1.
    9900012    2    1    2    0    0  0.42722995932E+02 -0.50966528557E+01  0.13337288689E+02  0.46142317395E+02  0.99999966615E+01 0.  0.
        -12    1    1    2    0    0 -0.42722995932E+02  0.50966528557E+01 -0.13337288689E+02  0.45045682605E+02  0.00000000000E+00 0.  1.
         11    1    3    3    0    0  0.18042958258E+02  0.81849379745E+00  0.48292190327E+01  0.18695979020E+02  0.51100000000E-03 0. -1.
        -11    1    3    3    0    0  0.21174785719E+02 -0.71928331840E+01  0.73430688787E+01  0.23537821910E+02  0.51100000000E-03 0.  1.
        -12    1    3    3    0    0  0.35052519557E+01  0.12776865309E+01  0.11650007775E+01  0.39085164648E+01  0.00000000000E+00 0.  1.
</event>
<event>
 7    1  0.1476909E-008  0.4614232E+02  0.7816164E-02  0.1320468E+00
        -11   -1    0    0    0    0  0.00000000000E+00  0.00000000000E+00  0.45593999997E+02  0.45594000000E+02  0.51100000000E-03 0.  1.
         11   -1    0    0    0    0 -0.00000000000E+00 -0.00000000000E+00 -0.45593999997E+02  0.45594000000E+02  0.51100000000E-03 0. -1.
    9900012    2    1    2    0    0  0.22269854505E+02 -0.34202887951E+02 -0.19061204716E+02  0.46142317753E+02  0.99999999220E+01 0.  0.
        -12    1    1    2    0    0 -0.22269854505E+02  0.34202887951E+02  0.19061204716E+02  0.45045682247E+02  0.00000000000E+00 0.  1.
         11    1    3    3    0    0  0.47093894396E+01 -0.11847870829E+02 -0.10265036743E+02  0.16368303873E+02  0.51100000000E-03 0. -1.
        -11    1    3    3    0    0  0.94391311095E+01 -0.11294015707E+02 -0.43151867824E+01  0.15338605678E+02  0.51100000000E-03 0.  1.
         12    1    3    3    0    0  0.81213339563E+01 -0.11061001415E+02 -0.44809811902E+01  0.14435408202E+02  0.00000000000E+00 0. -1.
</event>
<event>
 7    1  0.1476909E-008  0.4614232E+02  0.7816164E-02  0.1320468E+00
        -11   -1    0    0    0    0  0.00000000000E+00  0.00000000000E+00  0.45593999997E+02  0.45594000000E+02  0.51100000000E-03 0. -1.
         11   -1    0    0    0    0 -0.00000000000E+00 -0.00000000000E+00 -0.45593999997E+02  0.45594000000E+02  0.51100000000E-03 0.  1.
    9900012    2    1    2    0    0 -0.73934720249E+01  0.42151619430E+02  0.14060263918E+02  0.46142317959E+02  0.10000001802E+02 0.  0.
        -12    1    1    2    0    0  0.73934720249E+01 -0.42151619430E+02 -0.14060263918E+02  0.45045682041E+02  0.00000000000E+00 0.  1.
         11    1    3    3    0    0 -0.13699870317E+01  0.98263661685E+01  0.70787284088E+01  0.12187810824E+02  0.51100000000E-03 0. -1.
        -11    1    3    3    0    0  0.64298626789E+00  0.70066782264E+01  0.18430557408E+01  0.72735016212E+01  0.51100000000E-03 0.  1.
         12    1    3    3    0    0 -0.66664712611E+01  0.25318575035E+02  0.51384797681E+01  0.26681005513E+02  0.00000000000E+00 0. -1.
</event>
<event>
 7    1  0.1476909E-008  0.4614232E+02  0.7816164E-02  0.1320468E+00
        -11   -1    0    0    0    0  0.00000000000E+00  0.00000000000E+00  0.45593999997E+02  0.45594000000E+02  0.51100000000E-03 0.  1.
         11   -1    0    0    0    0 -0.00000000000E+00 -0.00000000000E+00 -0.45593999997E+02  0.45594000000E+02  0.51100000000E-03 0. -1.
    9900012    2    1    2    0    0 -0.32027417669E+02 -0.29147847208E+02 -0.12400042332E+02  0.46142317307E+02  0.99999958600E+01 0.  0.
        -12    1    1    2    0    0  0.32027417669E+02  0.29147847208E+02  0.12400042332E+02  0.45045682693E+02  0.00000000000E+00 0.  1.
         11    1    3    3    0    0 -0.19944983432E+02 -0.19351617170E+02 -0.93798737126E+01  0.29330350873E+02  0.51100000000E-03 0. -1.
        -11    1    3    3    0    0 -0.73267986932E+01 -0.75736543679E+01 -0.43445119989E+01  0.11398114070E+02  0.51100000000E-03 0.  1.
        -12    1    3    3    0    0 -0.47556355439E+01 -0.22225756702E+01  0.13243433797E+01  0.54138523644E+01  0.00000000000E+00 0.  1.
</event>
<event>
 7    1  0.1476909E-008  0.4614232E+02  0.7816164E-02  0.1320468E+00
        -11   -1    0    0    0    0  0.00000000000E+00  0.00000000000E+00  0.45593999997E+02  0.45594000000E+02  0.51100000000E-03 0.  1.
         11   -1    0    0    0    0 -0.00000000000E+00 -0.00000000000E+00 -0.45593999997E+02  0.45594000000E+02  0.51100000000E-03 0. -1.
    9900012    2    1    2    0    0  0.38321185934E+02 -0.23270200125E+02  0.43701186520E+01  0.46142318273E+02  0.10000004666E+02 0.  0.
        -12    1    1    2    0    0 -0.38321185934E+02  0.23270200125E+02 -0.43701186520E+01  0.45045681727E+02  0.00000000000E+00 0.  1.
         11    1    3    3    0    0  0.90884068478E+01 -0.27537363038E+01  0.23142117137E-03  0.94964310652E+01  0.51100000000E-03 0. -1.
        -11    1    3    3    0    0  0.24542865077E+02 -0.19632950740E+02  0.50256447364E+01  0.31828636260E+02  0.51100000000E-03 0.  1.
        -12    1    3    3    0    0  0.46899140097E+01 -0.88351308136E+00 -0.65575750554E+00  0.48172509474E+01  0.00000000000E+00 0.  1.
</event>
<event>
 7    1  0.1476909E-008  0.4614232E+02  0.7816164E-02  0.1320468E+00
        -11   -1    0    0    0    0  0.00000000000E+00  0.00000000000E+00  0.45593999997E+02  0.45594000000E+02  0.51100000000E-03 0.  1.
         11   -1    0    0    0    0 -0.00000000000E+00 -0.00000000000E+00 -0.45593999997E+02  0.45594000000E+02  0.51100000000E-03 0. -1.
    9900012    2    1    2    0    0 -0.17644600044E+02 -0.10262722172E+02 -0.40155423117E+02  0.46142318933E+02  0.10000010688E+02 0.  0.
        -12    1    1    2    0    0  0.17644600044E+02  0.10262722172E+02  0.40155423117E+02  0.45045681067E+02  0.00000000000E+00 0.  1.
         11    1    3    3    0    0 -0.14151392198E+02 -0.95128137373E+01 -0.28112866249E+02  0.32879914466E+02  0.51100000000E-03 0. -1.
        -11    1    3    3    0    0  0.23634540978E+00  0.78367129397E+00 -0.56167016325E+01  0.56760318304E+01  0.51100000000E-03 0.  1.
         12    1    3    3    0    0 -0.37295532561E+01 -0.15335797287E+01 -0.64258552353E+01  0.75863726365E+01  0.00000000000E+00 0. -1.
</event>
<event>
 7    1  0.1476909E-008  0.4614232E+02  0.7816164E-02  0.1320468E+00
        -11   -1    0    0    0    0  0.00000000000E+00  0.00000000000E+00  0.45593999997E+02  0.45594000000E+02  0.51100000000E-03 0. -1.
         11   -1    0    0    0    0 -0.00000000000E+00 -0.00000000000E+00 -0.45593999997E+02  0.45594000000E+02  0.51100000000E-03 0.  1.
    9900012    2    1    2    0    0  0.10104680088E+02 -0.43812699224E+02  0.27306128033E+01  0.46142318528E+02  0.10000006991E+02 0.  0.
        -12    1    1    2    0    0 -0.10104680088E+02  0.43812699224E+02 -0.27306128033E+01  0.45045681472E+02  0.00000000000E+00 0.  1.
         11    1    3    3    0    0  0.23099585435E+01 -0.11289177622E+02 -0.70822085040E+00  0.11544826413E+02  0.51100000000E-03 0. -1.
        -11    1    3    3    0    0  0.69713065742E+01 -0.15556292204E+02  0.43256193215E+01  0.17587163650E+02  0.51100000000E-03 0.  1.
        -12    1    3    3    0    0  0.82341497071E+00 -0.16967229398E+02 -0.88678566784E+00  0.17010328465E+02  0.00000000000E+00 0.  1.
</event>
<event>
 7    1  0.1476909E-008  0.4614232E+02  0.7816164E-02  0.1320468E+00
        -11   -1    0    0    0    0  0.00000000000E+00  0.00000000000E+00  0.45593999997E+02  0.45594000000E+02  0.51100000000E-03 0.  1.
         11   -1    0    0    0    0 -0.00000000000E+00 -0.00000000000E+00 -0.45593999997E+02  0.45594000000E+02  0.51100000000E-03 0. -1.
    9900012    2    1    2    0    0 -0.28067116147E+01 -0.60055319746E+01 -0.44555239864E+02  0.46142318256E+02  0.10000004515E+02 0.  0.
        -12    1    1    2    0    0  0.28067116147E+01  0.60055319746E+01  0.44555239864E+02  0.45045681744E+02  0.00000000000E+00 0.  1.
         11    1    3    3    0    0  0.16136439315E+01 -0.19455550579E+01 -0.26892451070E+02  0.27010978435E+02  0.51100000000E-03 0. -1.
        -11    1    3    3    0    0 -0.52733088710E+01 -0.34409533439E+01 -0.15181567762E+02  0.16435569547E+02  0.51100000000E-03 0.  1.
        -12    1    3    3    0    0  0.85295332482E+00 -0.61902357277E+00 -0.24812210327E+01  0.26957702742E+01  0.00000000000E+00 0.  1.
</event>
<event>
 7    1  0.1476909E-008  0.4614232E+02  0.7816164E-02  0.1320468E+00
        -11   -1    0    0    0    0  0.00000000000E+00  0.00000000000E+00  0.45593999997E+02  0.45594000000E+02  0.51100000000E-03 0.  1.
         11   -1    0    0    0    0 -0.00000000000E+00 -0.00000000000E+00 -0.45593999997E+02  0.45594000000E+02  0.51100000000E-03 0. -1.
    9900012    2    1    2    0    0 -0.22578105944E+02  0.33005175652E+02 -0.20736466383E+02  0.46142317344E+02  0.99999962002E+01 0.  0.
        -12    1    1    2    0    0  0.22578105944E+02 -0.33005175652E+02  0.20736466383E+02  0.45045682656E+02  0.00000000000E+00 0.  1.
         11    1    3    3    0    0 -0.21808286036E+02  0.32710161920E+02 -0.20252620623E+02  0.44223576009E+02  0.51100000000E-03 0. -1.
        -11    1    3    3    0    0  0.34956252948E+00 -0.35623483380E+00 -0.36486401940E+00  0.61824205018E+00  0.51100000000E-03 0.  1.
         12    1    3    3    0    0 -0.11193824376E+01  0.65124856626E+00 -0.11898174036E+00  0.13004992854E+01  0.00000000000E+00 0. -1.
</event>
<event>
 7    1  0.1476909E-008  0.4614232E+02  0.7816164E-02  0.1320468E+00
        -11   -1    0    0    0    0  0.00000000000E+00  0.00000000000E+00  0.45593999997E+02  0.45594000000E+02  0.51100000000E-03 0.  1.
         11   -1    0    0    0    0 -0.00000000000E+00 -0.00000000000E+00 -0.45593999997E+02  0.45594000000E+02  0.51100000000E-03 0. -1.
    9900012    2    1    2    0    0 -0.99412131921E+01 -0.68632108339E+01 -0.43395647458E+02  0.46142316511E+02  0.99999886005E+01 0.  0.
        -12    1    1    2    0    0  0.99412131921E+01  0.68632108339E+01  0.43395647458E+02  0.45045683489E+02  0.00000000000E+00 0.  1.
         11    1    3    3    0    0 -0.67236516369E+01 -0.47761381611E+01 -0.25380846525E+02  0.26687194638E+02  0.51100000000E-03 0. -1.
        -11    1    3    3    0    0 -0.15634641751E+01 -0.13391829043E+01 -0.17425311687E+02  0.17546490211E+02  0.51100000000E-03 0.  1.
        -12    1    3    3    0    0 -0.16540973801E+01 -0.74788976850E+00 -0.58948924607E+00  0.19086316617E+01  0.00000000000E+00 0.  1.
</event>
<event>
 7    1  0.1476909E-008  0.4614232E+02  0.7816164E-02  0.1320468E+00
        -11   -1    0    0    0    0  0.00000000000E+00  0.00000000000E+00  0.45593999997E+02  0.45594000000E+02  0.51100000000E-03 0. -1.
         11   -1    0    0    0    0 -0.00000000000E+00 -0.00000000000E+00 -0.45593999997E+02  0.45594000000E+02  0.51100000000E-03 0.  1.
    9900012    2    1    2    0    0  0.10772299054E+02 -0.98060849009E+01  0.42625247207E+02  0.46142318437E+02  0.10000006162E+02 0.  0.
        -12    1    1    2    0    0 -0.10772299054E+02  0.98060849009E+01 -0.42625247207E+02  0.45045681563E+02  0.00000000000E+00 0.  1.
         11    1    3    3    0    0  0.46812267151E+01 -0.76014694219E+01  0.21039958558E+02  0.22855548065E+02  0.51100000000E-03 0. -1.
        -11    1    3    3    0    0 -0.35614528213E+00 -0.15530041050E+01  0.15238126374E+01  0.22046919121E+01  0.51100000000E-03 0.  1.
         12    1    3    3    0    0  0.64472176213E+01 -0.65161137390E+00  0.20061476011E+02  0.21082078460E+02  0.00000000000E+00 0. -1.
</event>
