<event>
 7    1  0.2769403E-010  0.4778728E+02  0.7816164E-02  0.1312668E+00
        -11   -1    0    0    0    0  0.00000000000E+00  0.00000000000E+00  0.45593999997E+02  0.45594000000E+02  0.51100000000E-03 0.  1.
         11   -1    0    0    0    0 -0.00000000000E+00 -0.00000000000E+00 -0.45593999997E+02  0.45594000000E+02  0.51100000000E-03 0. -1.
    9900012    2    1    2    0    0  0.17519031506E+02  0.14241577445E+02  0.37065940297E+02  0.47787275086E+02  0.20000018425E+02 0.  0.
         12    1    1    2    0    0 -0.17519031506E+02 -0.14241577445E+02 -0.37065940297E+02  0.43400724914E+02  0.00000000000E+00 0. -1.
         11    1    3    3    0    0  0.81666846916E+01  0.78168826010E+01  0.19072906362E+02  0.22171471530E+02  0.51100000000E-03 0.  1.
        -11    1    3    3    0    0 -0.19402895405E+01  0.88802533033E-01  0.10452815933E+02  0.10631743534E+02  0.51100000000E-03 0. -1.
         12    1    3    3    0    0  0.11292636355E+02  0.63358923108E+01  0.75402180022E+01  0.14984060022E+02  0.00000000000E+00 0. -1.
</event>
<event>
 7    1  0.2769403E-010  0.4778727E+02  0.7816164E-02  0.1312668E+00
        -11   -1    0    0    0    0  0.00000000000E+00  0.00000000000E+00  0.45593999997E+02  0.45594000000E+02  0.51100000000E-03 0. -1.
         11   -1    0    0    0    0 -0.00000000000E+00 -0.00000000000E+00 -0.45593999997E+02  0.45594000000E+02  0.51100000000E-03 0.  1.
    9900012    2    1    2    0    0  0.47286842664E+01 -0.96102009218E+00 -0.43131653979E+02  0.47787267409E+02  0.19999983423E+02 0.  0.
         12    1    1    2    0    0 -0.47286842664E+01  0.96102009218E+00  0.43131653979E+02  0.43400732591E+02  0.00000000000E+00 0. -1.
         11    1    3    3    0    0  0.27322849104E+01 -0.16274362043E+01 -0.12328608810E+02  0.12732184607E+02  0.51100000000E-03 0. -1.
        -11    1    3    3    0    0  0.79723030354E+01  0.44086930361E+01 -0.12718746984E+02  0.15644830299E+02  0.51100000000E-03 0.  1.
         12    1    3    3    0    0 -0.59759036794E+01 -0.37422769241E+01 -0.18084298185E+02  0.19410252503E+02  0.00000000000E+00 0. -1.
</event>
<event>
 7    1  0.2769403E-010  0.4778727E+02  0.7816164E-02  0.1312668E+00
        -11   -1    0    0    0    0  0.00000000000E+00  0.00000000000E+00  0.45593999997E+02  0.45594000000E+02  0.51100000000E-03 0. -1.
         11   -1    0    0    0    0 -0.00000000000E+00 -0.00000000000E+00 -0.45593999997E+02  0.45594000000E+02  0.51100000000E-03 0.  1.
    9900012    2    1    2    0    0  0.35699156688E+02 -0.10465263767E+02 -0.22353339766E+02  0.47787270368E+02  0.19999996914E+02 0.  0.
         12    1    1    2    0    0 -0.35699156688E+02  0.10465263767E+02  0.22353339766E+02  0.43400729632E+02  0.00000000000E+00 0. -1.
         11    1    3    3    0    0  0.10106454783E+02 -0.37280334581E+01 -0.12964419895E+02  0.16855706607E+02  0.51100000000E-03 0. -1.
        -11    1    3    3    0    0  0.75952398202E+01 -0.99844671199E+00 -0.92898844765E+01  0.12041034740E+02  0.51100000000E-03 0.  1.
         12    1    3    3    0    0  0.17997462085E+02 -0.57387835967E+01 -0.99035394300E-01  0.18890529020E+02  0.00000000000E+00 0. -1.
</event>
<event>
 7    1  0.2769403E-010  0.4778727E+02  0.7816164E-02  0.1312668E+00
        -11   -1    0    0    0    0  0.00000000000E+00  0.00000000000E+00  0.45593999997E+02  0.45594000000E+02  0.51100000000E-03 0. -1.
         11   -1    0    0    0    0 -0.00000000000E+00 -0.00000000000E+00 -0.45593999997E+02  0.45594000000E+02  0.51100000000E-03 0.  1.
    9900012    2    1    2    0    0  0.34074322156E+02  0.10277395906E+02 -0.24838258919E+02  0.47787269556E+02  0.19999993214E+02 0.  0.
         12    1    1    2    0    0 -0.34074322156E+02 -0.10277395906E+02  0.24838258919E+02  0.43400730444E+02  0.00000000000E+00 0. -1.
         11    1    3    3    0    0  0.20140658553E+02  0.49046409660E+01 -0.18021939151E+02  0.27468016328E+02  0.51100000000E-03 0. -1.
        -11    1    3    3    0    0  0.55431031272E+01  0.53709675171E+01 -0.87919741376E+01  0.11699234755E+02  0.51100000000E-03 0.  1.
         12    1    3    3    0    0  0.83905604757E+01  0.17874225422E-02  0.19756543705E+01  0.86200184735E+01  0.00000000000E+00 0. -1.
</event>
<event>
 7    1  0.2769403E-010  0.4778727E+02  0.7816164E-02  0.1312668E+00
        -11   -1    0    0    0    0  0.00000000000E+00  0.00000000000E+00  0.45593999997E+02  0.45594000000E+02  0.51100000000E-03 0.  1.
         11   -1    0    0    0    0 -0.00000000000E+00 -0.00000000000E+00 -0.45593999997E+02  0.45594000000E+02  0.51100000000E-03 0. -1.
    9900012    2    1    2    0    0  0.31911454939E+02  0.12200270290E+02  0.26766312631E+02  0.47787273700E+02  0.20000012108E+02 0.  0.
         12    1    1    2    0    0 -0.31911454939E+02 -0.12200270290E+02 -0.26766312631E+02  0.43400726300E+02  0.00000000000E+00 0. -1.
         11    1    3    3    0    0  0.22374080135E+02  0.11378644729E+02  0.15609098276E+02  0.29558703744E+02  0.51100000000E-03 0. -1.
        -11    1    3    3    0    0  0.92016706808E+01  0.32537351477E+01  0.38019611661E+01  0.10474370850E+02  0.51100000000E-03 0.  1.
        -12    1    3    3    0    0  0.33570412286E+00 -0.24321095862E+01  0.73552531896E+01  0.77541991063E+01  0.00000000000E+00 0.  1.
</event>
<event>
 7    1  0.2769403E-010  0.4778728E+02  0.7816164E-02  0.1312668E+00
        -11   -1    0    0    0    0  0.00000000000E+00  0.00000000000E+00  0.45593999997E+02  0.45594000000E+02  0.51100000000E-03 0.  1.
         11   -1    0    0    0    0 -0.00000000000E+00 -0.00000000000E+00 -0.45593999997E+02  0.45594000000E+02  0.51100000000E-03 0. -1.
    9900012    2    1    2    0    0  0.16144099400E+01  0.80263301858E+01  0.42621519000E+02  0.47787283674E+02  0.20000057583E+02 0.  0.
         12    1    1    2    0    0 -0.16144099400E+01 -0.80263301858E+01 -0.42621519000E+02  0.43400716326E+02  0.00000000000E+00 0. -1.
         11    1    3    3    0    0 -0.55344746279E+01  0.65352945522E+01  0.22456821701E+02  0.24034336385E+02  0.51100000000E-03 0.  1.
        -11    1    3    3    0    0  0.20813866225E+01  0.55385862899E+01  0.77958787829E+01  0.97869216111E+01  0.51100000000E-03 0. -1.
         12    1    3    3    0    0  0.50674979454E+01 -0.40475506563E+01  0.12368818516E+02  0.13966025678E+02  0.00000000000E+00 0. -1.
</event>
<event>
 7    1  0.2769403E-010  0.4778727E+02  0.7816164E-02  0.1312668E+00
        -11   -1    0    0    0    0  0.00000000000E+00  0.00000000000E+00  0.45593999997E+02  0.45594000000E+02  0.51100000000E-03 0.  1.
         11   -1    0    0    0    0 -0.00000000000E+00 -0.00000000000E+00 -0.45593999997E+02  0.45594000000E+02  0.51100000000E-03 0. -1.
    9900012    2    1    2    0    0  0.37930322855E+02  0.12958805175E+02  0.16642813168E+02  0.47787271278E+02  0.20000001064E+02 0.  0.
         12    1    1    2    0    0 -0.37930322855E+02 -0.12958805175E+02 -0.16642813168E+02  0.43400728722E+02  0.00000000000E+00 0. -1.
         11    1    3    3    0    0  0.29693433486E+02  0.62215941222E+01  0.11960647299E+02  0.32610815839E+02  0.51100000000E-03 0. -1.
        -11    1    3    3    0    0  0.88298174322E+01  0.82072174916E+01  0.22345247173E+01  0.12260391340E+02  0.51100000000E-03 0.  1.
         12    1    3    3    0    0 -0.59292806352E+00 -0.14700064384E+01  0.24476411521E+01  0.29160640986E+01  0.00000000000E+00 0. -1.
</event>
<event>
 7    1  0.2769403E-010  0.4778728E+02  0.7816164E-02  0.1312668E+00
        -11   -1    0    0    0    0  0.00000000000E+00  0.00000000000E+00  0.45593999997E+02  0.45594000000E+02  0.51100000000E-03 0.  1.
         11   -1    0    0    0    0 -0.00000000000E+00 -0.00000000000E+00 -0.45593999997E+02  0.45594000000E+02  0.51100000000E-03 0. -1.
    9900012    2    1    2    0    0  0.18180003563E+01  0.23334288946E+01  0.43299801190E+02  0.47787276518E+02  0.20000024954E+02 0.  0.
         12    1    1    2    0    0 -0.18180003563E+01 -0.23334288946E+01 -0.43299801190E+02  0.43400723482E+02  0.00000000000E+00 0. -1.
         11    1    3    3    0    0 -0.34838551503E+01 -0.49043931555E+01  0.19012049240E+02  0.19941121721E+02  0.51100000000E-03 0. -1.
        -11    1    3    3    0    0 -0.16761195901E+01 -0.15843233225E+01  0.31793496489E+01  0.39278138604E+01  0.51100000000E-03 0.  1.
        -12    1    3    3    0    0  0.69779750966E+01  0.88221453727E+01  0.21108402301E+02  0.23918340936E+02  0.00000000000E+00 0.  1.
</event>
<event>
 7    1  0.2769403E-010  0.4778728E+02  0.7816164E-02  0.1312668E+00
        -11   -1    0    0    0    0  0.00000000000E+00  0.00000000000E+00  0.45593999997E+02  0.45594000000E+02  0.51100000000E-03 0.  1.
         11   -1    0    0    0    0 -0.00000000000E+00 -0.00000000000E+00 -0.45593999997E+02  0.45594000000E+02  0.51100000000E-03 0. -1.
    9900012    2    1    2    0    0  0.44497335458E+00 -0.14657801375E+02  0.40848177714E+02  0.47787276907E+02  0.20000026729E+02 0.  0.
         12    1    1    2    0    0 -0.44497335458E+00  0.14657801375E+02 -0.40848177714E+02  0.43400723093E+02  0.00000000000E+00 0. -1.
         11    1    3    3    0    0 -0.32591077261E-01  0.13854294682E+01  0.60647047900E+00  0.15127074049E+01  0.51100000000E-03 0. -1.
        -11    1    3    3    0    0  0.82744652145E+01 -0.99881573461E+01  0.22436054482E+02  0.25915373869E+02  0.51100000000E-03 0.  1.
         12    1    3    3    0    0 -0.77969007827E+01 -0.60550734976E+01  0.17805652753E+02  0.20359195633E+02  0.00000000000E+00 0. -1.
</event>
<event>
 7    1  0.2769403E-010  0.4778723E+02  0.7816164E-02  0.1312668E+00
        -11   -1    0    0    0    0  0.00000000000E+00  0.00000000000E+00  0.45593999997E+02  0.45594000000E+02  0.51100000000E-03 0.  1.
         11   -1    0    0    0    0 -0.00000000000E+00 -0.00000000000E+00 -0.45593999997E+02  0.45594000000E+02  0.51100000000E-03 0. -1.
    9900012    2    1    2    0    0  0.12847495058E+01 -0.42940254746E+02 -0.61734205339E+01  0.47787226043E+02  0.19999794820E+02 0.  0.
         12    1    1    2    0    0 -0.12847495058E+01  0.42940254746E+02  0.61734205339E+01  0.43400773957E+02  0.00000000000E+00 0. -1.
         11    1    3    3    0    0 -0.71943859831E+00 -0.16181073807E+02  0.69717857004E+01  0.17633789654E+02  0.51100000000E-03 0. -1.
        -11    1    3    3    0    0  0.81385500168E+00 -0.71078385414E+01 -0.16015895295E+01  0.73313585355E+01  0.51100000000E-03 0.  1.
        -12    1    3    3    0    0  0.11903331024E+01 -0.19651342398E+02 -0.11543616705E+02  0.22822077854E+02  0.00000000000E+00 0.  1.
</event>
<event>
 7    1  0.2769403E-010  0.4778727E+02  0.7816164E-02  0.1312668E+00
        -11   -1    0    0    0    0  0.00000000000E+00  0.00000000000E+00  0.45593999997E+02  0.45594000000E+02  0.51100000000E-03 0.  1.
         11   -1    0    0    0    0 -0.00000000000E+00 -0.00000000000E+00 -0.45593999997E+02  0.45594000000E+02  0.51100000000E-03 0. -1.
    9900012    2    1    2    0    0 -0.24517088781E+02 -0.34615103057E+02  0.91831628786E+01  0.47787268642E+02  0.19999989047E+02 0.  0.
         12    1    1    2    0    0  0.24517088781E+02  0.34615103057E+02 -0.91831628786E+01  0.43400731358E+02  0.00000000000E+00 0. -1.
         11    1    3    3    0    0 -0.98449087071E+01 -0.50424380644E+01  0.57895128482E+01  0.12484665328E+02  0.51100000000E-03 0. -1.
        -11    1    3    3    0    0 -0.13902839453E+02 -0.30741429394E+02  0.32119554138E+01  0.33891607867E+02  0.51100000000E-03 0.  1.
         12    1    3    3    0    0 -0.76934062102E+00  0.11687644008E+01  0.18169461650E+00  0.14109954463E+01  0.00000000000E+00 0. -1.
</event>
<event>
 7    1  0.2769403E-010  0.4778727E+02  0.7816164E-02  0.1312668E+00
        -11   -1    0    0    0    0  0.00000000000E+00  0.00000000000E+00  0.45593999997E+02  0.45594000000E+02  0.51100000000E-03 0.  1.
         11   -1    0    0    0    0 -0.00000000000E+00 -0.00000000000E+00 -0.45593999997E+02  0.45594000000E+02  0.51100000000E-03 0. -1.
    9900012    2    1    2    0    0 -0.57040832961E+00  0.39753195588E+02  0.17406358413E+02  0.47787271454E+02  0.20000001866E+02 0.  0.
         12    1    1    2    0    0  0.57040832961E+00 -0.39753195588E+02 -0.17406358413E+02  0.43400728546E+02  0.00000000000E+00 0. -1.
         11    1    3    3    0    0  0.52978460024E+01  0.29863768187E+02  0.10693726128E+02  0.32160031115E+02  0.51100000000E-03 0. -1.
        -11    1    3    3    0    0 -0.16989654720E+01  0.47988839564E+01 -0.13048535315E+01  0.52553224356E+01  0.51100000000E-03 0.  1.
         12    1    3    3    0    0 -0.41692888600E+01  0.50905434453E+01  0.80174858166E+01  0.10371917903E+02  0.00000000000E+00 0. -1.
</event>
<event>
 7    1  0.2769403E-010  0.4778728E+02  0.7816164E-02  0.1312668E+00
        -11   -1    0    0    0    0  0.00000000000E+00  0.00000000000E+00  0.45593999997E+02  0.45594000000E+02  0.51100000000E-03 0.  1.
         11   -1    0    0    0    0 -0.00000000000E+00 -0.00000000000E+00 -0.45593999997E+02  0.45594000000E+02  0.51100000000E-03 0. -1.
    9900012    2    1    2    0    0 -0.41518179293E+00 -0.41647616617E+02  0.12203545712E+02  0.47787275655E+02  0.20000021020E+02 0.  0.
         12    1    1    2    0    0  0.41518179293E+00  0.41647616617E+02 -0.12203545712E+02  0.43400724345E+02  0.00000000000E+00 0. -1.
         11    1    3    3    0    0  0.18984142194E+01  0.49566568628E+00  0.28012779330E+01  0.34200613065E+01  0.51100000000E-03 0. -1.
        -11    1    3    3    0    0  0.14088969718E+00 -0.28914842016E+01 -0.18807941297E+01  0.34522337137E+01  0.51100000000E-03 0.  1.
        -12    1    3    3    0    0 -0.24544857095E+01 -0.39251798101E+02  0.11283061908E+02  0.40914980634E+02  0.00000000000E+00 0.  1.
</event>
<event>
 7    1  0.2769403E-010  0.4778727E+02  0.7816164E-02  0.1312668E+00
        -11   -1    0    0    0    0  0.00000000000E+00  0.00000000000E+00  0.45593999997E+02  0.45594000000E+02  0.51100000000E-03 0.  1.
         11   -1    0    0    0    0 -0.00000000000E+00 -0.00000000000E+00 -0.45593999997E+02  0.45594000000E+02  0.51100000000E-03 0. -1.
    9900012    2    1    2    0    0 -0.16684600088E+02 -0.90219028429E+01  0.39036556923E+02  0.47787269736E+02  0.19999994036E+02 0.  0.
         12    1    1    2    0    0  0.16684600088E+02  0.90219028429E+01 -0.39036556923E+02  0.43400730264E+02  0.00000000000E+00 0. -1.
         11    1    3    3    0    0 -0.97691780123E+01 -0.10053403620E+01  0.61448535824E+01  0.11584764740E+02  0.51100000000E-03 0. -1.
        -11    1    3    3    0    0  0.18193934634E+01 -0.49870927843E+01  0.75705226735E+01  0.92463020081E+01  0.51100000000E-03 0.  1.
        -12    1    3    3    0    0 -0.87348155389E+01 -0.30294696966E+01  0.25321180667E+02  0.26956202988E+02  0.00000000000E+00 0.  1.
</event>
<event>
 7    1  0.2769403E-010  0.4778727E+02  0.7816164E-02  0.1312668E+00
        -11   -1    0    0    0    0  0.00000000000E+00  0.00000000000E+00  0.45593999997E+02  0.45594000000E+02  0.51100000000E-03 0.  1.
         11   -1    0    0    0    0 -0.00000000000E+00 -0.00000000000E+00 -0.45593999997E+02  0.45594000000E+02  0.51100000000E-03 0. -1.
    9900012    2    1    2    0    0 -0.27936149764E+02  0.20009099357E+02  0.26510956530E+02  0.47787270318E+02  0.19999996689E+02 0.  0.
         12    1    1    2    0    0  0.27936149764E+02 -0.20009099357E+02 -0.26510956530E+02  0.43400729682E+02  0.00000000000E+00 0. -1.
         11    1    3    3    0    0 -0.21250054055E+02  0.97947642354E+01  0.13765074847E+02  0.27147366163E+02  0.51100000000E-03 0.  1.
        -11    1    3    3    0    0 -0.60345169390E+01  0.10298444367E+02  0.51236718604E+01  0.12989432807E+02  0.51100000000E-03 0. -1.
         12    1    3    3    0    0 -0.65157877002E+00 -0.84109245039E-01  0.76222098231E+01  0.76504713480E+01  0.00000000000E+00 0. -1.
</event>
<event>
 7    1  0.2769403E-010  0.4778724E+02  0.7816164E-02  0.1312668E+00
        -11   -1    0    0    0    0  0.00000000000E+00  0.00000000000E+00  0.45593999997E+02  0.45594000000E+02  0.51100000000E-03 0. -1.
         11   -1    0    0    0    0 -0.00000000000E+00 -0.00000000000E+00 -0.45593999997E+02  0.45594000000E+02  0.51100000000E-03 0.  1.
    9900012    2    1    2    0    0 -0.31642530127E+02 -0.25819123583E+02 -0.14688404673E+02  0.47787238633E+02  0.19999852222E+02 0.  0.
         12    1    1    2    0    0  0.31642530127E+02  0.25819123583E+02  0.14688404673E+02  0.43400761367E+02  0.00000000000E+00 0. -1.
         11    1    3    3    0    0  0.22480104579E+01 -0.15955250324E+01 -0.24438919380E+01  0.36840004362E+01  0.51100000000E-03 0. -1.
        -11    1    3    3    0    0 -0.58252415145E+01 -0.37654120490E+01  0.84616301828E+00  0.69876862204E+01  0.51100000000E-03 0.  1.
        -12    1    3    3    0    0 -0.28065299070E+02 -0.20458186502E+02 -0.13090675753E+02  0.37115551976E+02  0.00000000000E+00 0.  1.
</event>
<event>
 7    1  0.2769403E-010  0.4778727E+02  0.7816164E-02  0.1312668E+00
        -11   -1    0    0    0    0  0.00000000000E+00  0.00000000000E+00  0.45593999997E+02  0.45594000000E+02  0.51100000000E-03 0.  1.
         11   -1    0    0    0    0 -0.00000000000E+00 -0.00000000000E+00 -0.45593999997E+02  0.45594000000E+02  0.51100000000E-03 0. -1.
    9900012    2    1    2    0    0  0.40594455608E+01 -0.34221440176E+01  0.43074738367E+02  0.47787271281E+02  0.20000001077E+02 0.  0.
         12    1    1    2    0    0 -0.40594455608E+01  0.34221440176E+01 -0.43074738367E+02  0.43400728719E+02  0.00000000000E+00 0. -1.
         11    1    3    3    0    0 -0.30943729396E+01 -0.25792647105E+01  0.78812954798E+01  0.88511337713E+01  0.51100000000E-03 0. -1.
        -11    1    3    3    0    0 -0.23923694237E+01 -0.87264871281E+00  0.79621026711E-01  0.25478004248E+01  0.51100000000E-03 0.  1.
        -12    1    3    3    0    0  0.95461879242E+01  0.29769405696E-01  0.35113821861E+02  0.36388337085E+02  0.00000000000E+00 0.  1.
</event>
<event>
 7    1  0.2769403E-010  0.4778727E+02  0.7816164E-02  0.1312668E+00
        -11   -1    0    0    0    0  0.00000000000E+00  0.00000000000E+00  0.45593999997E+02  0.45594000000E+02  0.51100000000E-03 0.  1.
         11   -1    0    0    0    0 -0.00000000000E+00 -0.00000000000E+00 -0.45593999997E+02  0.45594000000E+02  0.51100000000E-03 0. -1.
    9900012    2    1    2    0    0  0.20733607750E+02  0.19592353527E+02  0.32709027821E+02  0.47787270651E+02  0.19999998204E+02 0.  0.
         12    1    1    2    0    0 -0.20733607750E+02 -0.19592353527E+02 -0.32709027821E+02  0.43400729349E+02  0.00000000000E+00 0. -1.
         11    1    3    3    0    0  0.10302494298E+01  0.48168121222E+01  0.10104641526E+01  0.50283328224E+01  0.51100000000E-03 0.  1.
        -11    1    3    3    0    0  0.88271958439E+01  0.22149760621E+01  0.29726249866E+01  0.95740276266E+01  0.51100000000E-03 0. -1.
        -12    1    3    3    0    0  0.10876162477E+02  0.12560565343E+02  0.28725938682E+02  0.33184910202E+02  0.00000000000E+00 0.  1.
</event>
<event>
 7    1  0.2769403E-010  0.4778727E+02  0.7816164E-02  0.1312668E+00
        -11   -1    0    0    0    0  0.00000000000E+00  0.00000000000E+00  0.45593999997E+02  0.45594000000E+02  0.51100000000E-03 0.  1.
         11   -1    0    0    0    0 -0.00000000000E+00 -0.00000000000E+00 -0.45593999997E+02  0.45594000000E+02  0.51100000000E-03 0. -1.
    9900012    2    1    2    0    0  0.15029812962E+02  0.20838051138E+02  0.34978617755E+02  0.47787270134E+02  0.19999995847E+02 0.  0.
         12    1    1    2    0    0 -0.15029812962E+02 -0.20838051138E+02 -0.34978617755E+02  0.43400729866E+02  0.00000000000E+00 0. -1.
         11    1    3    3    0    0 -0.13690311053E+01  0.78187572430E+01  0.14545856536E+02  0.16570731837E+02  0.51100000000E-03 0. -1.
        -11    1    3    3    0    0  0.68388609267E+01  0.75053969858E+01  0.16740368334E+02  0.19579094334E+02  0.51100000000E-03 0.  1.
         12    1    3    3    0    0  0.95599831405E+01  0.55138969095E+01  0.36923928841E+01  0.11637443963E+02  0.00000000000E+00 0. -1.
</event>
<event>
 7    1  0.2769403E-010  0.4778726E+02  0.7816164E-02  0.1312668E+00
        -11   -1    0    0    0    0  0.00000000000E+00  0.00000000000E+00  0.45593999997E+02  0.45594000000E+02  0.51100000000E-03 0. -1.
         11   -1    0    0    0    0 -0.00000000000E+00 -0.00000000000E+00 -0.45593999997E+02  0.45594000000E+02  0.51100000000E-03 0.  1.
    9900012    2    1    2    0    0 -0.37393258414E+02  0.21950245147E+02 -0.18854232398E+01  0.47787264320E+02  0.19999969339E+02 0.  0.
         12    1    1    2    0    0  0.37393258414E+02 -0.21950245147E+02  0.18854232398E+01  0.43400735680E+02  0.00000000000E+00 0. -1.
         11    1    3    3    0    0 -0.12534682470E+02  0.86628958149E+01  0.61964236433E+01  0.16448698877E+02  0.51100000000E-03 0. -1.
        -11    1    3    3    0    0 -0.17053183505E+02  0.38205001339E+01 -0.18401649641E+01  0.17572521056E+02  0.51100000000E-03 0.  1.
        -12    1    3    3    0    0 -0.78053924393E+01  0.94668491980E+01 -0.62416819190E+01  0.13766044386E+02  0.00000000000E+00 0.  1.
</event>
<event>
 7    1  0.2769403E-010  0.4778727E+02  0.7816164E-02  0.1312668E+00
        -11   -1    0    0    0    0  0.00000000000E+00  0.00000000000E+00  0.45593999997E+02  0.45594000000E+02  0.51100000000E-03 0.  1.
         11   -1    0    0    0    0 -0.00000000000E+00 -0.00000000000E+00 -0.45593999997E+02  0.45594000000E+02  0.51100000000E-03 0. -1.
    9900012    2    1    2    0    0 -0.20149236396E+02 -0.90249473976E+01  0.37365515546E+02  0.47787272415E+02  0.20000006251E+02 0.  0.
         12    1    1    2    0    0  0.20149236396E+02  0.90249473976E+01 -0.37365515546E+02  0.43400727585E+02  0.00000000000E+00 0. -1.
         11    1    3    3    0    0 -0.11986351009E+02 -0.54447535867E+01  0.22220088219E+02  0.25827316408E+02  0.51100000000E-03 0. -1.
        -11    1    3    3    0    0 -0.48204649241E+01 -0.83908721101E+01  0.11625116128E+02  0.15125704681E+02  0.51100000000E-03 0.  1.
         12    1    3    3    0    0 -0.33424204635E+01  0.48106782993E+01  0.35203111987E+01  0.68342513262E+01  0.00000000000E+00 0. -1.
</event>
<event>
 7    1  0.2769403E-010  0.4778727E+02  0.7816164E-02  0.1312668E+00
        -11   -1    0    0    0    0  0.00000000000E+00  0.00000000000E+00  0.45593999997E+02  0.45594000000E+02  0.51100000000E-03 0.  1.
         11   -1    0    0    0    0 -0.00000000000E+00 -0.00000000000E+00 -0.45593999997E+02  0.45594000000E+02  0.51100000000E-03 0. -1.
    9900012    2    1    2    0    0 -0.98737537076E+01  0.14713082550E+02  0.39618903215E+02  0.47787270717E+02  0.19999998505E+02 0.  0.
         12    1    1    2    0    0  0.98737537076E+01 -0.14713082550E+02 -0.39618903215E+02  0.43400729283E+02  0.00000000000E+00 0. -1.
         11    1    3    3    0    0  0.10004888254E+01  0.36480169157E+01  0.14951110663E+01  0.40674762038E+01  0.51100000000E-03 0. -1.
        -11    1    3    3    0    0 -0.84546856956E+01  0.61108648741E+01  0.81362735944E+01  0.13229638241E+02  0.51100000000E-03 0.  1.
        -12    1    3    3    0    0 -0.24195568374E+01  0.49542007606E+01  0.29987518554E+02  0.30490156272E+02  0.00000000000E+00 0.  1.
</event>
<event>
 7    1  0.2769403E-010  0.4778727E+02  0.7816164E-02  0.1312668E+00
        -11   -1    0    0    0    0  0.00000000000E+00  0.00000000000E+00  0.45593999997E+02  0.45594000000E+02  0.51100000000E-03 0.  1.
         11   -1    0    0    0    0 -0.00000000000E+00 -0.00000000000E+00 -0.45593999997E+02  0.45594000000E+02  0.51100000000E-03 0. -1.
    9900012    2    1    2    0    0 -0.47319713102E+01 -0.60297110841E+01  0.42718545987E+02  0.47787272593E+02  0.20000007060E+02 0.  0.
         12    1    1    2    0    0  0.47319713102E+01  0.60297110841E+01 -0.42718545987E+02  0.43400727407E+02  0.00000000000E+00 0. -1.
         11    1    3    3    0    0 -0.58835958499E+00  0.35926297095E+01  0.11398412099E+02  0.11965657269E+02  0.51100000000E-03 0. -1.
        -11    1    3    3    0    0 -0.32094578630E+00  0.91405384489E+00 -0.11310984748E+01  0.14892564084E+01  0.51100000000E-03 0.  1.
        -12    1    3    3    0    0 -0.38226659389E+01 -0.10536394639E+02  0.32451232363E+02  0.34332358916E+02  0.00000000000E+00 0.  1.
</event>
<event>
 7    1  0.2769403E-010  0.4778727E+02  0.7816164E-02  0.1312668E+00
        -11   -1    0    0    0    0  0.00000000000E+00  0.00000000000E+00  0.45593999997E+02  0.45594000000E+02  0.51100000000E-03 0. -1.
         11   -1    0    0    0    0 -0.00000000000E+00 -0.00000000000E+00 -0.45593999997E+02  0.45594000000E+02  0.51100000000E-03 0.  1.
    9900012    2    1    2    0    0  0.38082299921E+02  0.45606857528E+01 -0.20311615213E+02  0.47787272652E+02  0.20000007328E+02 0.  0.
         12    1    1    2    0    0 -0.38082299921E+02 -0.45606857528E+01  0.20311615213E+02  0.43400727348E+02  0.00000000000E+00 0. -1.
         11    1    3    3    0    0  0.22941509683E+02 -0.19525009371E+01 -0.70214356009E+01  0.24071262630E+02  0.51100000000E-03 0. -1.
        -11    1    3    3    0    0  0.10075846228E+02 -0.95376869976E+00 -0.96581555227E+01  0.13989721952E+02  0.51100000000E-03 0.  1.
         12    1    3    3    0    0  0.50649440100E+01  0.74669553897E+01 -0.36320240889E+01  0.97262880688E+01  0.00000000000E+00 0. -1.
</event>
<event>
 7    1  0.2769403E-010  0.4778727E+02  0.7816164E-02  0.1312668E+00
        -11   -1    0    0    0    0  0.00000000000E+00  0.00000000000E+00  0.45593999997E+02  0.45594000000E+02  0.51100000000E-03 0.  1.
         11   -1    0    0    0    0 -0.00000000000E+00 -0.00000000000E+00 -0.45593999997E+02  0.45594000000E+02  0.51100000000E-03 0. -1.
    9900012    2    1    2    0    0  0.13463777491E+02  0.20154728606E+02  0.36001897196E+02  0.47787274301E+02  0.20000014850E+02 0.  0.
         12    1    1    2    0    0 -0.13463777491E+02 -0.20154728606E+02 -0.36001897196E+02  0.43400725699E+02  0.00000000000E+00 0. -1.
         11    1    3    3    0    0 -0.23624224811E+01  0.47463160480E+01  0.39714632042E+01  0.66242793004E+01  0.51100000000E-03 0. -1.
        -11    1    3    3    0    0  0.33730321652E+01  0.37748786846E+01  0.21026240611E+00  0.50666819134E+01  0.51100000000E-03 0.  1.
        -12    1    3    3    0    0  0.12453167806E+02  0.11633533873E+02  0.31820171585E+02  0.36096313088E+02  0.00000000000E+00 0.  1.
</event>
<event>
 7    1  0.2769403E-010  0.4778727E+02  0.7816164E-02  0.1312668E+00
        -11   -1    0    0    0    0  0.00000000000E+00  0.00000000000E+00  0.45593999997E+02  0.45594000000E+02  0.51100000000E-03 0.  1.
         11   -1    0    0    0    0 -0.00000000000E+00 -0.00000000000E+00 -0.45593999997E+02  0.45594000000E+02  0.51100000000E-03 0. -1.
    9900012    2    1    2    0    0 -0.31339609977E+02 -0.23641471488E+02  0.18507646423E+02  0.47787270700E+02  0.19999998430E+02 0.  0.
         12    1    1    2    0    0  0.31339609977E+02  0.23641471488E+02 -0.18507646423E+02  0.43400729300E+02  0.00000000000E+00 0. -1.
         11    1    3    3    0    0 -0.36042385367E+01 -0.34620830503E+01  0.70999761259E+01  0.86825235806E+01  0.51100000000E-03 0. -1.
        -11    1    3    3    0    0 -0.27772650520E+01 -0.15160051635E+01  0.69326202421E+01  0.76205443708E+01  0.51100000000E-03 0.  1.
         12    1    3    3    0    0 -0.24958106388E+02 -0.18663383275E+02  0.44750500553E+01  0.31484202749E+02  0.00000000000E+00 0. -1.
</event>
<event>
 7    1  0.2769403E-010  0.4778727E+02  0.7816164E-02  0.1312668E+00
        -11   -1    0    0    0    0  0.00000000000E+00  0.00000000000E+00  0.45593999997E+02  0.45594000000E+02  0.51100000000E-03 0. -1.
         11   -1    0    0    0    0 -0.00000000000E+00 -0.00000000000E+00 -0.45593999997E+02  0.45594000000E+02  0.51100000000E-03 0.  1.
    9900012    2    1    2    0    0 -0.43135535059E+02 -0.20716871828E+01 -0.43193793119E+01  0.47787270625E+02  0.19999998090E+02 0.  0.
         12    1    1    2    0    0  0.43135535059E+02  0.20716871828E+01  0.43193793119E+01  0.43400729375E+02  0.00000000000E+00 0. -1.
         11    1    3    3    0    0 -0.39649853483E+01  0.35031626646E+01  0.22240198606E+01  0.57392963043E+01  0.51100000000E-03 0. -1.
        -11    1    3    3    0    0 -0.22008521932E+02  0.32118142664E+01 -0.40394354934E+01  0.22605482252E+02  0.51100000000E-03 0.  1.
         12    1    3    3    0    0 -0.17162027779E+02 -0.87866641139E+01 -0.25039636791E+01  0.19442492069E+02  0.00000000000E+00 0. -1.
</event>
<event>
 7    1  0.2769403E-010  0.4778726E+02  0.7816164E-02  0.1312668E+00
        -11   -1    0    0    0    0  0.00000000000E+00  0.00000000000E+00  0.45593999997E+02  0.45594000000E+02  0.51100000000E-03 0.  1.
         11   -1    0    0    0    0 -0.00000000000E+00 -0.00000000000E+00 -0.45593999997E+02  0.45594000000E+02  0.51100000000E-03 0. -1.
    9900012    2    1    2    0    0  0.81922800139E+01  0.38380011413E+02 -0.18533352088E+02  0.47787264205E+02  0.19999968819E+02 0.  0.
         12    1    1    2    0    0 -0.81922800139E+01 -0.38380011413E+02  0.18533352088E+02  0.43400735795E+02  0.00000000000E+00 0. -1.
         11    1    3    3    0    0  0.66446117678E+01  0.12331289575E+02 -0.10402449805E+02  0.17447708455E+02  0.51100000000E-03 0. -1.
        -11    1    3    3    0    0  0.64568591467E+01  0.97432880523E+01 -0.61170479380E+01  0.13192458749E+02  0.51100000000E-03 0.  1.
        -12    1    3    3    0    0 -0.49091909006E+01  0.16305433786E+02 -0.20138543444E+01  0.17147097001E+02  0.00000000000E+00 0.  1.
</event>
<event>
 7    1  0.2769403E-010  0.4778727E+02  0.7816164E-02  0.1312668E+00
        -11   -1    0    0    0    0  0.00000000000E+00  0.00000000000E+00  0.45593999997E+02  0.45594000000E+02  0.51100000000E-03 0.  1.
         11   -1    0    0    0    0 -0.00000000000E+00 -0.00000000000E+00 -0.45593999997E+02  0.45594000000E+02  0.51100000000E-03 0. -1.
    9900012    2    1    2    0    0 -0.97977848782E+00  0.52644076065E+01  0.43069123591E+02  0.47787270049E+02  0.19999995462E+02 0.  0.
         12    1    1    2    0    0  0.97977848782E+00 -0.52644076065E+01 -0.43069123591E+02  0.43400729951E+02  0.00000000000E+00 0. -1.
         11    1    3    3    0    0  0.10997742928E+01 -0.28274844081E+01 -0.18813825396E+00  0.30396657443E+01  0.51100000000E-03 0. -1.
        -11    1    3    3    0    0  0.81769833111E+00 -0.12404087294E+01  0.90846075101E+01  0.92052886022E+01  0.51100000000E-03 0.  1.
        -12    1    3    3    0    0 -0.28972511117E+01  0.93323007440E+01  0.34172654335E+02  0.35542315703E+02  0.00000000000E+00 0.  1.
</event>
<event>
 7    1  0.2769403E-010  0.4778727E+02  0.7816164E-02  0.1312668E+00
        -11   -1    0    0    0    0  0.00000000000E+00  0.00000000000E+00  0.45593999997E+02  0.45594000000E+02  0.51100000000E-03 0. -1.
         11   -1    0    0    0    0 -0.00000000000E+00 -0.00000000000E+00 -0.45593999997E+02  0.45594000000E+02  0.51100000000E-03 0.  1.
    9900012    2    1    2    0    0  0.17498036700E+02 -0.77689957092E-01 -0.39716948204E+02  0.47787270758E+02  0.19999998693E+02 0.  0.
         12    1    1    2    0    0 -0.17498036700E+02  0.77689957092E-01  0.39716948204E+02  0.43400729242E+02  0.00000000000E+00 0. -1.
         11    1    3    3    0    0  0.14401706582E+00 -0.37438931726E+01 -0.44044530483E+01  0.57824461882E+01  0.51100000000E-03 0. -1.
        -11    1    3    3    0    0  0.17171700226E+01 -0.35962671873E+01 -0.14191095438E+02  0.14740047509E+02  0.51100000000E-03 0.  1.
         12    1    3    3    0    0  0.15636849612E+02  0.72624704028E+01 -0.21121399718E+02  0.27264777061E+02  0.00000000000E+00 0. -1.
</event>
<event>
 7    1  0.2769403E-010  0.4778727E+02  0.7816164E-02  0.1312668E+00
        -11   -1    0    0    0    0  0.00000000000E+00  0.00000000000E+00  0.45593999997E+02  0.45594000000E+02  0.51100000000E-03 0.  1.
         11   -1    0    0    0    0 -0.00000000000E+00 -0.00000000000E+00 -0.45593999997E+02  0.45594000000E+02  0.51100000000E-03 0. -1.
    9900012    2    1    2    0    0  0.20528219940E+02 -0.33841663759E+01  0.38088881144E+02  0.47787271173E+02  0.20000000584E+02 0.  0.
         12    1    1    2    0    0 -0.20528219940E+02  0.33841663759E+01 -0.38088881144E+02  0.43400728827E+02  0.00000000000E+00 0. -1.
         11    1    3    3    0    0  0.10770069787E+02 -0.16659341658E+01  0.91362960144E+01  0.14221168904E+02  0.51100000000E-03 0. -1.
        -11    1    3    3    0    0  0.12040884791E+02 -0.35206139512E+01  0.27682427395E+02  0.30392341401E+02  0.51100000000E-03 0.  1.
         12    1    3    3    0    0 -0.22827346386E+01  0.18023817411E+01  0.12701577349E+01  0.31737608672E+01  0.00000000000E+00 0. -1.
</event>
<event>
 7    1  0.2769403E-010  0.4778727E+02  0.7816164E-02  0.1312668E+00
        -11   -1    0    0    0    0  0.00000000000E+00  0.00000000000E+00  0.45593999997E+02  0.45594000000E+02  0.51100000000E-03 0.  1.
         11   -1    0    0    0    0 -0.00000000000E+00 -0.00000000000E+00 -0.45593999997E+02  0.45594000000E+02  0.51100000000E-03 0. -1.
    9900012    2    1    2    0    0 -0.82494610318E+01 -0.15044935049E+02  0.39865014846E+02  0.47787273202E+02  0.20000009835E+02 0.  0.
         12    1    1    2    0    0  0.82494610318E+01  0.15044935049E+02 -0.39865014846E+02  0.43400726798E+02  0.00000000000E+00 0. -1.
         11    1    3    3    0    0 -0.38945576383E+01 -0.37928526060E+01  0.17303129729E+02  0.18137023151E+02  0.51100000000E-03 0. -1.
        -11    1    3    3    0    0  0.10026029253E+01 -0.83262351356E+01  0.21971227702E+02  0.23517360634E+02  0.51100000000E-03 0.  1.
         12    1    3    3    0    0 -0.53575063188E+01 -0.29258473076E+01  0.59065741465E+00  0.61328894173E+01  0.00000000000E+00 0. -1.
</event>
<event>
 7    1  0.2769403E-010  0.4778727E+02  0.7816164E-02  0.1312668E+00
        -11   -1    0    0    0    0  0.00000000000E+00  0.00000000000E+00  0.45593999997E+02  0.45594000000E+02  0.51100000000E-03 0. -1.
         11   -1    0    0    0    0 -0.00000000000E+00 -0.00000000000E+00 -0.45593999997E+02  0.45594000000E+02  0.51100000000E-03 0.  1.
    9900012    2    1    2    0    0 -0.25906527044E+02  0.31696433515E+02  0.14415656137E+02  0.47787272092E+02  0.20000004777E+02 0.  0.
         12    1    1    2    0    0  0.25906527044E+02 -0.31696433515E+02 -0.14415656137E+02  0.43400727908E+02  0.00000000000E+00 0. -1.
         11    1    3    3    0    0 -0.89312210353E+01  0.64929874651E+01 -0.35445770974E+01  0.11596966089E+02  0.51100000000E-03 0. -1.
        -11    1    3    3    0    0 -0.96920819066E+01  0.16452004816E+02  0.68611510331E+01  0.20289906552E+02  0.51100000000E-03 0.  1.
         12    1    3    3    0    0 -0.72832241024E+01  0.87514412345E+01  0.11099082201E+02  0.15900399451E+02  0.00000000000E+00 0. -1.
</event>
<event>
 7    1  0.2769403E-010  0.4778727E+02  0.7816164E-02  0.1312668E+00
        -11   -1    0    0    0    0  0.00000000000E+00  0.00000000000E+00  0.45593999997E+02  0.45594000000E+02  0.51100000000E-03 0.  1.
         11   -1    0    0    0    0 -0.00000000000E+00 -0.00000000000E+00 -0.45593999997E+02  0.45594000000E+02  0.51100000000E-03 0. -1.
    9900012    2    1    2    0    0 -0.34386574502E+02 -0.19856767619E+01  0.26405369515E+02  0.47787274691E+02  0.20000016625E+02 0.  0.
         12    1    1    2    0    0  0.34386574502E+02  0.19856767619E+01 -0.26405369515E+02  0.43400725309E+02  0.00000000000E+00 0. -1.
         11    1    3    3    0    0 -0.11234193688E+02  0.70070990540E+01  0.73809418938E+01  0.15158655893E+02  0.51100000000E-03 0. -1.
        -11    1    3    3    0    0 -0.19436683326E+02 -0.57978163506E+01  0.10607987469E+02  0.22889489544E+02  0.51100000000E-03 0.  1.
        -12    1    3    3    0    0 -0.37156974874E+01 -0.31949594653E+01  0.84164401519E+01  0.97391292544E+01  0.00000000000E+00 0.  1.
</event>
<event>
 7    1  0.2769403E-010  0.4778727E+02  0.7816164E-02  0.1312668E+00
        -11   -1    0    0    0    0  0.00000000000E+00  0.00000000000E+00  0.45593999997E+02  0.45594000000E+02  0.51100000000E-03 0.  1.
         11   -1    0    0    0    0 -0.00000000000E+00 -0.00000000000E+00 -0.45593999997E+02  0.45594000000E+02  0.51100000000E-03 0. -1.
    9900012    2    1    2    0    0 -0.22986969945E+02  0.13355941579E+02  0.34305120047E+02  0.47787271618E+02  0.20000002613E+02 0.  0.
         12    1    1    2    0    0  0.22986969945E+02 -0.13355941579E+02 -0.34305120047E+02  0.43400728382E+02  0.00000000000E+00 0. -1.
         11    1    3    3    0    0 -0.38616651047E+01  0.90287597371E+01  0.89305163352E+01  0.13273472871E+02  0.51100000000E-03 0. -1.
        -11    1    3    3    0    0 -0.10780554571E+02  0.26759993051E+01  0.45220715193E+01  0.11992933762E+02  0.51100000000E-03 0.  1.
         12    1    3    3    0    0 -0.83447502687E+01  0.16511825364E+01  0.20852532193E+02  0.22520864985E+02  0.00000000000E+00 0. -1.
</event>
<event>
 7    1  0.2769403E-010  0.4778728E+02  0.7816164E-02  0.1312668E+00
        -11   -1    0    0    0    0  0.00000000000E+00  0.00000000000E+00  0.45593999997E+02  0.45594000000E+02  0.51100000000E-03 0. -1.
         11   -1    0    0    0    0 -0.00000000000E+00 -0.00000000000E+00 -0.45593999997E+02  0.45594000000E+02  0.51100000000E-03 0.  1.
    9900012    2    1    2    0    0 -0.49029803307E+01 -0.39192879306E+02 -0.17986149864E+02  0.47787278908E+02  0.20000035852E+02 0.  0.
         12    1    1    2    0    0  0.49029803307E+01  0.39192879306E+02  0.17986149864E+02  0.43400721092E+02  0.00000000000E+00 0. -1.
         11    1    3    3    0    0 -0.47047551233E+01 -0.10294761987E+02 -0.14080929055E+01  0.11406119894E+02  0.51100000000E-03 0. -1.
        -11    1    3    3    0    0 -0.48984893636E+01 -0.25354134263E+02 -0.16196841544E+02  0.30482207902E+02  0.51100000000E-03 0.  1.
         12    1    3    3    0    0  0.47002641561E+01 -0.35439830554E+01 -0.38121541446E+00  0.58989511124E+01  0.00000000000E+00 0. -1.
</event>
<event>
 7    1  0.2769403E-010  0.4778727E+02  0.7816164E-02  0.1312668E+00
        -11   -1    0    0    0    0  0.00000000000E+00  0.00000000000E+00  0.45593999997E+02  0.45594000000E+02  0.51100000000E-03 0. -1.
         11   -1    0    0    0    0 -0.00000000000E+00 -0.00000000000E+00 -0.45593999997E+02  0.45594000000E+02  0.51100000000E-03 0.  1.
    9900012    2    1    2    0    0  0.15519986641E+02 -0.30755233605E+01 -0.40414036097E+02  0.47787272553E+02  0.20000006878E+02 0.  0.
         12    1    1    2    0    0 -0.15519986641E+02  0.30755233605E+01  0.40414036097E+02  0.43400727447E+02  0.00000000000E+00 0. -1.
         11    1    3    3    0    0  0.44389935384E+00  0.20368232012E+01 -0.51304911925E+01  0.55378367190E+01  0.51100000000E-03 0. -1.
        -11    1    3    3    0    0  0.69828313193E+01 -0.33572293943E+01 -0.20709636454E+01  0.80199634115E+01  0.51100000000E-03 0.  1.
        -12    1    3    3    0    0  0.80932559676E+01 -0.17551171673E+01 -0.33212581259E+02  0.34229472423E+02  0.00000000000E+00 0.  1.
</event>
<event>
 7    1  0.2769403E-010  0.4778727E+02  0.7816164E-02  0.1312668E+00
        -11   -1    0    0    0    0  0.00000000000E+00  0.00000000000E+00  0.45593999997E+02  0.45594000000E+02  0.51100000000E-03 0.  1.
         11   -1    0    0    0    0 -0.00000000000E+00 -0.00000000000E+00 -0.45593999997E+02  0.45594000000E+02  0.51100000000E-03 0. -1.
    9900012    2    1    2    0    0  0.30458747480E+02  0.10376991926E+02  0.29123977306E+02  0.47787270587E+02  0.19999997913E+02 0.  0.
         12    1    1    2    0    0 -0.30458747480E+02 -0.10376991926E+02 -0.29123977306E+02  0.43400729413E+02  0.00000000000E+00 0. -1.
         11    1    3    3    0    0 -0.18596552668E+01  0.34685424564E-01  0.42179154602E+00  0.19072045405E+01  0.51100000000E-03 0. -1.
        -11    1    3    3    0    0  0.14321353695E+02 -0.33664645242E+00  0.78383881449E+01  0.16329569237E+02  0.51100000000E-03 0.  1.
         12    1    3    3    0    0  0.17997049052E+02  0.10678952953E+02  0.20863797615E+02  0.29550496809E+02  0.00000000000E+00 0. -1.
</event>
<event>
 7    1  0.2769403E-010  0.4778727E+02  0.7816164E-02  0.1312668E+00
        -11   -1    0    0    0    0  0.00000000000E+00  0.00000000000E+00  0.45593999997E+02  0.45594000000E+02  0.51100000000E-03 0.  1.
         11   -1    0    0    0    0 -0.00000000000E+00 -0.00000000000E+00 -0.45593999997E+02  0.45594000000E+02  0.51100000000E-03 0. -1.
    9900012    2    1    2    0    0  0.37952375511E+02 -0.84754358875E+01  0.19271935740E+02  0.47787270426E+02  0.19999997181E+02 0.  0.
         12    1    1    2    0    0 -0.37952375511E+02  0.84754358875E+01 -0.19271935740E+02  0.43400729574E+02  0.00000000000E+00 0. -1.
         11    1    3    3    0    0  0.20397668639E+02 -0.77660965635E+01  0.55680409296E+01  0.22525102038E+02  0.51100000000E-03 0. -1.
        -11    1    3    3    0    0  0.18564036117E+02 -0.25894892765E+01  0.10716897806E+02  0.21591220218E+02  0.51100000000E-03 0.  1.
        -12    1    3    3    0    0 -0.10093292450E+01  0.18801499525E+01  0.29869970040E+01  0.36709481705E+01  0.00000000000E+00 0.  1.
</event>
<event>
 7    1  0.2769403E-010  0.4778727E+02  0.7816164E-02  0.1312668E+00
        -11   -1    0    0    0    0  0.00000000000E+00  0.00000000000E+00  0.45593999997E+02  0.45594000000E+02  0.51100000000E-03 0.  1.
         11   -1    0    0    0    0 -0.00000000000E+00 -0.00000000000E+00 -0.45593999997E+02  0.45594000000E+02  0.51100000000E-03 0. -1.
    9900012    2    1    2    0    0  0.33918416225E+02 -0.87811674076E+01  0.25613587388E+02  0.47787265914E+02  0.19999976610E+02 0.  0.
         12    1    1    2    0    0 -0.33918416225E+02  0.87811674076E+01 -0.25613587388E+02  0.43400734086E+02  0.00000000000E+00 0. -1.
         11    1    3    3    0    0  0.16007445853E+02 -0.90897515665E+01  0.53739979482E+01  0.19176594080E+02  0.51100000000E-03 0. -1.
        -11    1    3    3    0    0  0.14697452985E+02 -0.32632777336E+01  0.12835096755E+02  0.19783928194E+02  0.51100000000E-03 0.  1.
         12    1    3    3    0    0  0.32135173870E+01  0.35718618925E+01  0.74044926850E+01  0.88267436407E+01  0.00000000000E+00 0. -1.
</event>
<event>
 7    1  0.2769403E-010  0.4778727E+02  0.7816164E-02  0.1312668E+00
        -11   -1    0    0    0    0  0.00000000000E+00  0.00000000000E+00  0.45593999997E+02  0.45594000000E+02  0.51100000000E-03 0.  1.
         11   -1    0    0    0    0 -0.00000000000E+00 -0.00000000000E+00 -0.45593999997E+02  0.45594000000E+02  0.51100000000E-03 0. -1.
    9900012    2    1    2    0    0  0.17866224330E+02 -0.26874272719E+02  0.29020591676E+02  0.47787271351E+02  0.20000001400E+02 0.  0.
         12    1    1    2    0    0 -0.17866224330E+02  0.26874272719E+02 -0.29020591676E+02  0.43400728649E+02  0.00000000000E+00 0. -1.
         11    1    3    3    0    0  0.26096003312E+01  0.76938945850E+00  0.13003897185E+01  0.30154581258E+01  0.51100000000E-03 0. -1.
        -11    1    3    3    0    0  0.52352169295E+01 -0.14472390219E+02  0.22795480256E+02  0.27504390474E+02  0.51100000000E-03 0.  1.
         12    1    3    3    0    0  0.10021407069E+02 -0.13171271959E+02  0.49247217013E+01  0.17267422752E+02  0.00000000000E+00 0. -1.
</event>
<event>
 7    1  0.2769403E-010  0.4778727E+02  0.7816164E-02  0.1312668E+00
        -11   -1    0    0    0    0  0.00000000000E+00  0.00000000000E+00  0.45593999997E+02  0.45594000000E+02  0.51100000000E-03 0.  1.
         11   -1    0    0    0    0 -0.00000000000E+00 -0.00000000000E+00 -0.45593999997E+02  0.45594000000E+02  0.51100000000E-03 0. -1.
    9900012    2    1    2    0    0 -0.20570454149E+02 -0.16839949575E+02  0.34305915245E+02  0.47787270670E+02  0.19999998292E+02 0.  0.
         12    1    1    2    0    0  0.20570454149E+02  0.16839949575E+02 -0.34305915245E+02  0.43400729330E+02  0.00000000000E+00 0. -1.
         11    1    3    3    0    0 -0.12568547591E+02 -0.26024734870E+01  0.19682324621E+02  0.23497556459E+02  0.51100000000E-03 0. -1.
        -11    1    3    3    0    0 -0.55108191971E+01 -0.98156389619E+01  0.15482604446E+02  0.19142281399E+02  0.51100000000E-03 0.  1.
         12    1    3    3    0    0 -0.24910873604E+01 -0.44218371257E+01 -0.85901382177E+00  0.51474328116E+01  0.00000000000E+00 0. -1.
</event>
<event>
 7    1  0.2769403E-010  0.4778727E+02  0.7816164E-02  0.1312668E+00
        -11   -1    0    0    0    0  0.00000000000E+00  0.00000000000E+00  0.45593999997E+02  0.45594000000E+02  0.51100000000E-03 0.  1.
         11   -1    0    0    0    0 -0.00000000000E+00 -0.00000000000E+00 -0.45593999997E+02  0.45594000000E+02  0.51100000000E-03 0. -1.
    9900012    2    1    2    0    0 -0.17830351431E+02 -0.29981807298E+02  0.25822344333E+02  0.47787266505E+02  0.19999979304E+02 0.  0.
         12    1    1    2    0    0  0.17830351431E+02  0.29981807298E+02 -0.25822344333E+02  0.43400733495E+02  0.00000000000E+00 0. -1.
         11    1    3    3    0    0 -0.11205744780E+02 -0.17403075867E+02  0.13467772447E+02  0.24694466195E+02  0.51100000000E-03 0. -1.
        -11    1    3    3    0    0 -0.10630776957E+02 -0.85753399006E+01  0.10143216137E+02  0.17012780695E+02  0.51100000000E-03 0.  1.
         12    1    3    3    0    0  0.40061703062E+01 -0.40033915303E+01  0.22113557486E+01  0.60800196147E+01  0.00000000000E+00 0. -1.
</event>
<event>
 7    1  0.2769403E-010  0.4778727E+02  0.7816164E-02  0.1312668E+00
        -11   -1    0    0    0    0  0.00000000000E+00  0.00000000000E+00  0.45593999997E+02  0.45594000000E+02  0.51100000000E-03 0. -1.
         11   -1    0    0    0    0 -0.00000000000E+00 -0.00000000000E+00 -0.45593999997E+02  0.45594000000E+02  0.51100000000E-03 0.  1.
    9900012    2    1    2    0    0 -0.38353004075E+02  0.22908755964E+01 -0.20184707674E+02  0.47787268941E+02  0.19999990409E+02 0.  0.
         12    1    1    2    0    0  0.38353004075E+02 -0.22908755964E+01  0.20184707674E+02  0.43400731059E+02  0.00000000000E+00 0. -1.
         11    1    3    3    0    0 -0.10713560319E+01  0.36380934212E+01  0.20539606569E+01  0.43130363006E+01  0.51100000000E-03 0. -1.
        -11    1    3    3    0    0 -0.51764496094E+01 -0.46386441544E+00 -0.24075798833E+01  0.57277606366E+01  0.51100000000E-03 0.  1.
         12    1    3    3    0    0 -0.32105198434E+02 -0.88335340942E+00 -0.19831088447E+02  0.37746472004E+02  0.00000000000E+00 0. -1.
</event>
<event>
 7    1  0.2769403E-010  0.4778728E+02  0.7816164E-02  0.1312668E+00
        -11   -1    0    0    0    0  0.00000000000E+00  0.00000000000E+00  0.45593999997E+02  0.45594000000E+02  0.51100000000E-03 0.  1.
         11   -1    0    0    0    0 -0.00000000000E+00 -0.00000000000E+00 -0.45593999997E+02  0.45594000000E+02  0.51100000000E-03 0. -1.
    9900012    2    1    2    0    0 -0.87658932329E+01 -0.42435696247E+02 -0.24481661867E+01  0.47787277450E+02  0.20000029206E+02 0.  0.
         12    1    1    2    0    0  0.87658932329E+01  0.42435696247E+02  0.24481661867E+01  0.43400722550E+02  0.00000000000E+00 0. -1.
         11    1    3    3    0    0 -0.26307361774E+01 -0.21073996284E+02 -0.10375505267E+01  0.21262892643E+02  0.51100000000E-03 0. -1.
        -11    1    3    3    0    0 -0.95671001253E+01 -0.19597308230E+02 -0.35764605695E+01  0.22099207342E+02  0.51100000000E-03 0.  1.
         12    1    3    3    0    0  0.34319430698E+01 -0.17643917331E+01  0.21658449095E+01  0.44251774647E+01  0.00000000000E+00 0. -1.
</event>
<event>
 7    1  0.2769403E-010  0.4778727E+02  0.7816164E-02  0.1312668E+00
        -11   -1    0    0    0    0  0.00000000000E+00  0.00000000000E+00  0.45593999997E+02  0.45594000000E+02  0.51100000000E-03 0.  1.
         11   -1    0    0    0    0 -0.00000000000E+00 -0.00000000000E+00 -0.45593999997E+02  0.45594000000E+02  0.51100000000E-03 0. -1.
    9900012    2    1    2    0    0  0.62041009009E+01  0.27917370875E+02  0.32645865419E+02  0.47787274275E+02  0.20000014729E+02 0.  0.
         12    1    1    2    0    0 -0.62041009009E+01 -0.27917370875E+02 -0.32645865419E+02  0.43400725725E+02  0.00000000000E+00 0. -1.
         11    1    3    3    0    0  0.32565389828E+01  0.37937101440E+01  0.81742075688E+00  0.50661089367E+01  0.51100000000E-03 0. -1.
        -11    1    3    3    0    0  0.19439391980E+01 -0.50252947728E+00 -0.50000537088E+00  0.20691643514E+01  0.51100000000E-03 0.  1.
        -12    1    3    3    0    0  0.10036227200E+01  0.24626190208E+02  0.32328450033E+02  0.40652000987E+02  0.00000000000E+00 0.  1.
</event>
<event>
 7    1  0.2769403E-010  0.4778726E+02  0.7816164E-02  0.1312668E+00
        -11   -1    0    0    0    0  0.00000000000E+00  0.00000000000E+00  0.45593999997E+02  0.45594000000E+02  0.51100000000E-03 0.  1.
         11   -1    0    0    0    0 -0.00000000000E+00 -0.00000000000E+00 -0.45593999997E+02  0.45594000000E+02  0.51100000000E-03 0. -1.
    9900012    2    1    2    0    0 -0.79613954522E+01 -0.23546712322E+02  0.35577983996E+02  0.47787257795E+02  0.19999939591E+02 0.  0.
         12    1    1    2    0    0  0.79613954522E+01  0.23546712322E+02 -0.35577983996E+02  0.43400742205E+02  0.00000000000E+00 0. -1.
         11    1    3    3    0    0  0.10989250839E+01 -0.72447489113E+01  0.48867451667E+01  0.88076274736E+01  0.51100000000E-03 0. -1.
        -11    1    3    3    0    0  0.35571376009E+00 -0.35897610395E+01 -0.83873181378E+00  0.37035642179E+01  0.51100000000E-03 0.  1.
        -12    1    3    3    0    0 -0.94160342962E+01 -0.12712202371E+02  0.31529970643E+02  0.35276066104E+02  0.00000000000E+00 0.  1.
</event>
<event>
 7    1  0.2769403E-010  0.4778727E+02  0.7816164E-02  0.1312668E+00
        -11   -1    0    0    0    0  0.00000000000E+00  0.00000000000E+00  0.45593999997E+02  0.45594000000E+02  0.51100000000E-03 0.  1.
         11   -1    0    0    0    0 -0.00000000000E+00 -0.00000000000E+00 -0.45593999997E+02  0.45594000000E+02  0.51100000000E-03 0. -1.
    9900012    2    1    2    0    0  0.15139037638E+02  0.34490118261E+02  0.21560715119E+02  0.47787272417E+02  0.20000006259E+02 0.  0.
         12    1    1    2    0    0 -0.15139037638E+02 -0.34490118261E+02 -0.21560715119E+02  0.43400727583E+02  0.00000000000E+00 0. -1.
         11    1    3    3    0    0  0.51919047938E+01  0.22476202467E+01  0.25089014940E+01  0.61888818965E+01  0.51100000000E-03 0. -1.
        -11    1    3    3    0    0  0.48633394584E+01  0.31399682511E+02  0.17138095377E+02  0.36101335791E+02  0.51100000000E-03 0.  1.
         12    1    3    3    0    0  0.50837933862E+01  0.84281550280E+00  0.19137182478E+01  0.54970547294E+01  0.00000000000E+00 0. -1.
</event>
<event>
 7    1  0.2769403E-010  0.4778728E+02  0.7816164E-02  0.1312668E+00
        -11   -1    0    0    0    0  0.00000000000E+00  0.00000000000E+00  0.45593999997E+02  0.45594000000E+02  0.51100000000E-03 0.  1.
         11   -1    0    0    0    0 -0.00000000000E+00 -0.00000000000E+00 -0.45593999997E+02  0.45594000000E+02  0.51100000000E-03 0. -1.
    9900012    2    1    2    0    0  0.10034465742E+02 -0.34942804977E+02  0.23705119461E+02  0.47787276377E+02  0.20000024313E+02 0.  0.
         12    1    1    2    0    0 -0.10034465742E+02  0.34942804977E+02 -0.23705119461E+02  0.43400723623E+02  0.00000000000E+00 0. -1.
         11    1    3    3    0    0 -0.35291124008E+01 -0.66561396655E+01  0.73507391843E-01  0.75342042170E+01  0.51100000000E-03 0. -1.
        -11    1    3    3    0    0  0.17676622207E+00 -0.24770396962E+01  0.53768402803E+01  0.59226162812E+01  0.51100000000E-03 0.  1.
        -12    1    3    3    0    0  0.13386811921E+02 -0.25809625615E+02  0.18254771788E+02  0.34330455879E+02  0.00000000000E+00 0.  1.
</event>
<event>
 7    1  0.2769403E-010  0.4778727E+02  0.7816164E-02  0.1312668E+00
        -11   -1    0    0    0    0  0.00000000000E+00  0.00000000000E+00  0.45593999997E+02  0.45594000000E+02  0.51100000000E-03 0.  1.
         11   -1    0    0    0    0 -0.00000000000E+00 -0.00000000000E+00 -0.45593999997E+02  0.45594000000E+02  0.51100000000E-03 0. -1.
    9900012    2    1    2    0    0 -0.22575372390E+02  0.30323979320E+02  0.21317408690E+02  0.47787273352E+02  0.20000010520E+02 0.  0.
         12    1    1    2    0    0  0.22575372390E+02 -0.30323979320E+02 -0.21317408690E+02  0.43400726648E+02  0.00000000000E+00 0. -1.
         11    1    3    3    0    0 -0.54901233349E+01  0.23460586818E+02  0.12360202085E+02  0.27079792908E+02  0.51100000000E-03 0. -1.
        -11    1    3    3    0    0 -0.37652295486E+01  0.23502902170E+01  0.33764758316E+01  0.55768635415E+01  0.51100000000E-03 0.  1.
         12    1    3    3    0    0 -0.13320019506E+02  0.45131022846E+01  0.55807307739E+01  0.15130616903E+02  0.00000000000E+00 0. -1.
</event>
<event>
 7    1  0.2769403E-010  0.4778727E+02  0.7816164E-02  0.1312668E+00
        -11   -1    0    0    0    0  0.00000000000E+00  0.00000000000E+00  0.45593999997E+02  0.45594000000E+02  0.51100000000E-03 0.  1.
         11   -1    0    0    0    0 -0.00000000000E+00 -0.00000000000E+00 -0.45593999997E+02  0.45594000000E+02  0.51100000000E-03 0. -1.
    9900012    2    1    2    0    0  0.81106290138E+01 -0.34230535274E+02  0.25418723444E+02  0.47787270171E+02  0.19999996017E+02 0.  0.
         12    1    1    2    0    0 -0.81106290138E+01  0.34230535274E+02 -0.25418723444E+02  0.43400729829E+02  0.00000000000E+00 0. -1.
         11    1    3    3    0    0  0.41517342109E+01 -0.22856240687E+02  0.14160237913E+02  0.27205826091E+02  0.51100000000E-03 0. -1.
        -11    1    3    3    0    0  0.82077036722E+01 -0.81735711564E+01  0.94939123967E+01  0.14976916835E+02  0.51100000000E-03 0.  1.
         12    1    3    3    0    0 -0.42488088694E+01 -0.32007234308E+01  0.17645731350E+01  0.56045272448E+01  0.00000000000E+00 0. -1.
</event>
<event>
 7    1  0.2769403E-010  0.4778728E+02  0.7816164E-02  0.1312668E+00
        -11   -1    0    0    0    0  0.00000000000E+00  0.00000000000E+00  0.45593999997E+02  0.45594000000E+02  0.51100000000E-03 0.  1.
         11   -1    0    0    0    0 -0.00000000000E+00 -0.00000000000E+00 -0.45593999997E+02  0.45594000000E+02  0.51100000000E-03 0. -1.
    9900012    2    1    2    0    0  0.26792040008E+02  0.39374824993E+01 -0.33916156583E+02  0.47787275887E+02  0.20000022077E+02 0.  0.
         12    1    1    2    0    0 -0.26792040008E+02 -0.39374824993E+01  0.33916156583E+02  0.43400724113E+02  0.00000000000E+00 0. -1.
         11    1    3    3    0    0  0.12572132882E+02  0.37363566941E+01 -0.20604977497E+02  0.24425068771E+02  0.51100000000E-03 0. -1.
        -11    1    3    3    0    0 -0.61684933789E+00  0.33371728702E+01 -0.50755938450E+01  0.61056432103E+01  0.51100000000E-03 0.  1.
         12    1    3    3    0    0  0.14836756464E+02 -0.31360470650E+01 -0.82355852405E+01  0.17256563905E+02  0.00000000000E+00 0. -1.
</event>
<event>
 7    1  0.2769403E-010  0.4778726E+02  0.7816164E-02  0.1312668E+00
        -11   -1    0    0    0    0  0.00000000000E+00  0.00000000000E+00  0.45593999997E+02  0.45594000000E+02  0.51100000000E-03 0.  1.
         11   -1    0    0    0    0 -0.00000000000E+00 -0.00000000000E+00 -0.45593999997E+02  0.45594000000E+02  0.51100000000E-03 0. -1.
    9900012    2    1    2    0    0  0.32197584036E+02 -0.76911615049E+01  0.28067517516E+02  0.47787263571E+02  0.19999965927E+02 0.  0.
         12    1    1    2    0    0 -0.32197584036E+02  0.76911615049E+01 -0.28067517516E+02  0.43400736429E+02  0.00000000000E+00 0. -1.
         11    1    3    3    0    0 -0.98445562023E+00 -0.97533339655E+00 -0.34994714845E+00  0.14292975094E+01  0.51100000000E-03 0. -1.
        -11    1    3    3    0    0 -0.11141478500E+01  0.46242817582E-01  0.28170889628E+01  0.30297614287E+01  0.51100000000E-03 0.  1.
        -12    1    3    3    0    0  0.34296187506E+02 -0.67620709260E+01  0.25600375702E+02  0.43328204633E+02  0.00000000000E+00 0.  1.
</event>
<event>
 7    1  0.2769403E-010  0.4778727E+02  0.7816164E-02  0.1312668E+00
        -11   -1    0    0    0    0  0.00000000000E+00  0.00000000000E+00  0.45593999997E+02  0.45594000000E+02  0.51100000000E-03 0.  1.
         11   -1    0    0    0    0 -0.00000000000E+00 -0.00000000000E+00 -0.45593999997E+02  0.45594000000E+02  0.51100000000E-03 0. -1.
    9900012    2    1    2    0    0 -0.29706537631E+02 -0.10086799421E+02  0.29990020932E+02  0.47787271249E+02  0.20000000934E+02 0.  0.
         12    1    1    2    0    0  0.29706537631E+02  0.10086799421E+02 -0.29990020932E+02  0.43400728751E+02  0.00000000000E+00 0. -1.
         11    1    3    3    0    0 -0.11320842137E+02  0.88129496334E+00  0.38492006078E+01  0.11989766181E+02  0.51100000000E-03 0. -1.
        -11    1    3    3    0    0 -0.18620948807E+02 -0.67722039596E+01  0.18662768778E+02  0.27219504398E+02  0.51100000000E-03 0.  1.
         12    1    3    3    0    0  0.23525331201E+00 -0.41958904252E+01  0.74780515461E+01  0.85780006707E+01  0.00000000000E+00 0. -1.
</event>
<event>
 7    1  0.2769403E-010  0.4778727E+02  0.7816164E-02  0.1312668E+00
        -11   -1    0    0    0    0  0.00000000000E+00  0.00000000000E+00  0.45593999997E+02  0.45594000000E+02  0.51100000000E-03 0.  1.
         11   -1    0    0    0    0 -0.00000000000E+00 -0.00000000000E+00 -0.45593999997E+02  0.45594000000E+02  0.51100000000E-03 0. -1.
    9900012    2    1    2    0    0  0.35859264952E+02 -0.24442746250E+02 -0.53690970250E+00  0.47787274209E+02  0.20000014430E+02 0.  0.
         12    1    1    2    0    0 -0.35859264952E+02  0.24442746250E+02  0.53690970250E+00  0.43400725791E+02  0.00000000000E+00 0. -1.
         11    1    3    3    0    0  0.19319352492E+02 -0.71916803380E+01 -0.57549752782E+01  0.21402742523E+02  0.51100000000E-03 0. -1.
        -11    1    3    3    0    0  0.14407271311E+02 -0.85742138541E+01  0.19860745736E+01  0.16882864162E+02  0.51100000000E-03 0.  1.
        -12    1    3    3    0    0  0.21326411489E+01 -0.86768520578E+01  0.32319910021E+01  0.95016675243E+01  0.00000000000E+00 0.  1.
</event>
<event>
 7    1  0.2769403E-010  0.4778727E+02  0.7816164E-02  0.1312668E+00
        -11   -1    0    0    0    0  0.00000000000E+00  0.00000000000E+00  0.45593999997E+02  0.45594000000E+02  0.51100000000E-03 0. -1.
         11   -1    0    0    0    0 -0.00000000000E+00 -0.00000000000E+00 -0.45593999997E+02  0.45594000000E+02  0.51100000000E-03 0.  1.
    9900012    2    1    2    0    0  0.20962900529E+02 -0.37916909341E+02  0.25472508140E+01  0.47787266144E+02  0.19999977657E+02 0.  0.
         12    1    1    2    0    0 -0.20962900529E+02  0.37916909341E+02 -0.25472508140E+01  0.43400733856E+02  0.00000000000E+00 0. -1.
         11    1    3    3    0    0 -0.91481772893E-01  0.19155366231E+01 -0.10427880412E+01  0.21829009664E+01  0.51100000000E-03 0. -1.
        -11    1    3    3    0    0  0.81249461344E+01 -0.15393009518E+02  0.43649621655E+01  0.17944703583E+02  0.51100000000E-03 0.  1.
         12    1    3    3    0    0  0.12929436168E+02 -0.24439436446E+02 -0.77492331036E+00  0.27659661595E+02  0.00000000000E+00 0. -1.
</event>
<event>
 7    1  0.2769403E-010  0.4778727E+02  0.7816164E-02  0.1312668E+00
        -11   -1    0    0    0    0  0.00000000000E+00  0.00000000000E+00  0.45593999997E+02  0.45594000000E+02  0.51100000000E-03 0. -1.
         11   -1    0    0    0    0 -0.00000000000E+00 -0.00000000000E+00 -0.45593999997E+02  0.45594000000E+02  0.51100000000E-03 0.  1.
    9900012    2    1    2    0    0 -0.34666585330E+02  0.20700980249E+01 -0.26030093642E+02  0.47787271674E+02  0.20000002870E+02 0.  0.
         12    1    1    2    0    0  0.34666585330E+02 -0.20700980249E+01  0.26030093642E+02  0.43400728326E+02  0.00000000000E+00 0. -1.
         11    1    3    3    0    0 -0.17899597778E+00 -0.17114634213E+01  0.57914284371E+00  0.18156412908E+01  0.51100000000E-03 0. -1.
        -11    1    3    3    0    0 -0.18328984362E+01  0.38282684711E+01 -0.73274602057E+00  0.43072117612E+01  0.51100000000E-03 0.  1.
        -12    1    3    3    0    0 -0.32654690916E+02 -0.46707024862E-01 -0.25876490465E+02  0.41664418622E+02  0.00000000000E+00 0.  1.
</event>
<event>
 7    1  0.2769403E-010  0.4778728E+02  0.7816164E-02  0.1312668E+00
        -11   -1    0    0    0    0  0.00000000000E+00  0.00000000000E+00  0.45593999997E+02  0.45594000000E+02  0.51100000000E-03 0. -1.
         11   -1    0    0    0    0 -0.00000000000E+00 -0.00000000000E+00 -0.45593999997E+02  0.45594000000E+02  0.51100000000E-03 0.  1.
    9900012    2    1    2    0    0 -0.40706888448E+02  0.38711102251E+01  0.14546007954E+02  0.47787278705E+02  0.20000034930E+02 0.  0.
         12    1    1    2    0    0  0.40706888448E+02 -0.38711102251E+01 -0.14546007954E+02  0.43400721295E+02  0.00000000000E+00 0. -1.
         11    1    3    3    0    0 -0.98291416207E+01 -0.11875556958E+01  0.96117630862E+00  0.99471691294E+01  0.51100000000E-03 0. -1.
        -11    1    3    3    0    0 -0.81721173790E+01  0.86454739399E+01  0.18789310669E+01  0.12044006988E+02  0.51100000000E-03 0.  1.
         12    1    3    3    0    0 -0.22705629448E+02 -0.35868080190E+01  0.11705900578E+02  0.25796102588E+02  0.00000000000E+00 0. -1.
</event>
<event>
 7    1  0.2769403E-010  0.4778723E+02  0.7816164E-02  0.1312668E+00
        -11   -1    0    0    0    0  0.00000000000E+00  0.00000000000E+00  0.45593999997E+02  0.45594000000E+02  0.51100000000E-03 0.  1.
         11   -1    0    0    0    0 -0.00000000000E+00 -0.00000000000E+00 -0.45593999997E+02  0.45594000000E+02  0.51100000000E-03 0. -1.
    9900012    2    1    2    0    0  0.17032128583E+02 -0.34844202459E+02  0.19478571235E+02  0.47787232882E+02  0.19999826001E+02 0.  0.
         12    1    1    2    0    0 -0.17032128583E+02  0.34844202459E+02 -0.19478571235E+02  0.43400767118E+02  0.00000000000E+00 0. -1.
         11    1    3    3    0    0  0.14583669378E+01 -0.82590404923E+00 -0.36314806878E+00  0.17148843707E+01  0.51100000000E-03 0. -1.
        -11    1    3    3    0    0  0.19247152950E+02 -0.31600921620E+02  0.19003521461E+02  0.41595732619E+02  0.51100000000E-03 0.  1.
        -12    1    3    3    0    0 -0.36733913049E+01 -0.24173767899E+01  0.83819784252E+00  0.44766158922E+01  0.00000000000E+00 0.  1.
</event>
<event>
 7    1  0.2769403E-010  0.4778727E+02  0.7816164E-02  0.1312668E+00
        -11   -1    0    0    0    0  0.00000000000E+00  0.00000000000E+00  0.45593999997E+02  0.45594000000E+02  0.51100000000E-03 0. -1.
         11   -1    0    0    0    0 -0.00000000000E+00 -0.00000000000E+00 -0.45593999997E+02  0.45594000000E+02  0.51100000000E-03 0.  1.
    9900012    2    1    2    0    0  0.15002656259E+02  0.78346174678E+01 -0.39964514578E+02  0.47787270154E+02  0.19999995940E+02 0.  0.
         12    1    1    2    0    0 -0.15002656259E+02 -0.78346174678E+01  0.39964514578E+02  0.43400729846E+02  0.00000000000E+00 0. -1.
         11    1    3    3    0    0  0.77894862711E+01  0.16074756046E+01 -0.10410534495E+02  0.13101118385E+02  0.51100000000E-03 0. -1.
        -11    1    3    3    0    0  0.70771152795E+01  0.86534850913E+01 -0.10052992349E+02  0.15034328064E+02  0.51100000000E-03 0.  1.
         12    1    3    3    0    0  0.13605470843E+00 -0.24263432281E+01 -0.19500987734E+02  0.19651823705E+02  0.00000000000E+00 0. -1.
</event>
<event>
 7    1  0.2769403E-010  0.4778727E+02  0.7816164E-02  0.1312668E+00
        -11   -1    0    0    0    0  0.00000000000E+00  0.00000000000E+00  0.45593999997E+02  0.45594000000E+02  0.51100000000E-03 0.  1.
         11   -1    0    0    0    0 -0.00000000000E+00 -0.00000000000E+00 -0.45593999997E+02  0.45594000000E+02  0.51100000000E-03 0. -1.
    9900012    2    1    2    0    0 -0.32014926862E+02  0.51549802739E+01  0.28846036755E+02  0.47787271895E+02  0.20000003879E+02 0.  0.
         12    1    1    2    0    0  0.32014926862E+02 -0.51549802739E+01 -0.28846036755E+02  0.43400728105E+02  0.00000000000E+00 0. -1.
         11    1    3    3    0    0 -0.13988959157E+02 -0.44453387292E+01  0.91831949229E+01  0.17314245116E+02  0.51100000000E-03 0. -1.
        -11    1    3    3    0    0 -0.25679870713E+01 -0.24111629291E+01  0.17286990896E+01  0.39238584420E+01  0.51100000000E-03 0.  1.
        -12    1    3    3    0    0 -0.15457980634E+02  0.12011481932E+02  0.17934142742E+02  0.26549168337E+02  0.00000000000E+00 0.  1.
</event>
<event>
 7    1  0.2769403E-010  0.4778724E+02  0.7816164E-02  0.1312668E+00
        -11   -1    0    0    0    0  0.00000000000E+00  0.00000000000E+00  0.45593999997E+02  0.45594000000E+02  0.51100000000E-03 0.  1.
         11   -1    0    0    0    0 -0.00000000000E+00 -0.00000000000E+00 -0.45593999997E+02  0.45594000000E+02  0.51100000000E-03 0. -1.
    9900012    2    1    2    0    0  0.37096050705E+02 -0.60899523572E+01  0.21689194839E+02  0.47787243435E+02  0.19999874118E+02 0.  0.
         12    1    1    2    0    0 -0.37096050705E+02  0.60899523572E+01 -0.21689194839E+02  0.43400756565E+02  0.00000000000E+00 0. -1.
         11    1    3    3    0    0 -0.50635147852E-01 -0.34659457207E+01  0.51478689717E+00  0.35043329561E+01  0.51100000000E-03 0. -1.
        -11    1    3    3    0    0  0.52615553484E+01 -0.42168609449E+01  0.19606487509E+01  0.70221097042E+01  0.51100000000E-03 0.  1.
        -12    1    3    3    0    0  0.31885130504E+02  0.15928543084E+01  0.19213759191E+02  0.37260800775E+02  0.00000000000E+00 0.  1.
</event>
<event>
 7    1  0.2769403E-010  0.4778727E+02  0.7816164E-02  0.1312668E+00
        -11   -1    0    0    0    0  0.00000000000E+00  0.00000000000E+00  0.45593999997E+02  0.45594000000E+02  0.51100000000E-03 0. -1.
         11   -1    0    0    0    0 -0.00000000000E+00 -0.00000000000E+00 -0.45593999997E+02  0.45594000000E+02  0.51100000000E-03 0.  1.
    9900012    2    1    2    0    0 -0.72736237412E+01 -0.40748305515E+02  0.13049646549E+02  0.47787270977E+02  0.19999999692E+02 0.  0.
         12    1    1    2    0    0  0.72736237412E+01  0.40748305515E+02 -0.13049646549E+02  0.43400729023E+02  0.00000000000E+00 0. -1.
         11    1    3    3    0    0  0.25169222496E+01 -0.14899417316E+02  0.95560385932E+01  0.17878629920E+02  0.51100000000E-03 0. -1.
        -11    1    3    3    0    0  0.12850613652E+01 -0.51788069152E+01  0.36375440252E+01  0.64577976566E+01  0.51100000000E-03 0.  1.
         12    1    3    3    0    0 -0.11075607356E+02 -0.20670081284E+02 -0.14393606970E+00  0.23450843400E+02  0.00000000000E+00 0. -1.
</event>
<event>
 7    1  0.2769403E-010  0.4778722E+02  0.7816164E-02  0.1312668E+00
        -11   -1    0    0    0    0  0.00000000000E+00  0.00000000000E+00  0.45593999997E+02  0.45594000000E+02  0.51100000000E-03 0.  1.
         11   -1    0    0    0    0 -0.00000000000E+00 -0.00000000000E+00 -0.45593999997E+02  0.45594000000E+02  0.51100000000E-03 0. -1.
    9900012    2    1    2    0    0 -0.25959803871E+02  0.90035149321E+01 -0.33595429138E+02  0.47787221699E+02  0.19999775014E+02 0.  0.
         12    1    1    2    0    0  0.25959803871E+02 -0.90035149321E+01  0.33595429138E+02  0.43400778301E+02  0.00000000000E+00 0. -1.
         11    1    3    3    0    0 -0.37347312649E+01 -0.79434054905E+00 -0.29111138549E+01  0.48014350632E+01  0.51100000000E-03 0. -1.
        -11    1    3    3    0    0 -0.16547505812E+02 -0.16924950271E+01 -0.12826812466E+02  0.21005037641E+02  0.51100000000E-03 0.  1.
         12    1    3    3    0    0 -0.56775667942E+01  0.11490350508E+02 -0.17857502817E+02  0.21980748995E+02  0.00000000000E+00 0. -1.
</event>
<event>
 7    1  0.2769403E-010  0.4778727E+02  0.7816164E-02  0.1312668E+00
        -11   -1    0    0    0    0  0.00000000000E+00  0.00000000000E+00  0.45593999997E+02  0.45594000000E+02  0.51100000000E-03 0. -1.
         11   -1    0    0    0    0 -0.00000000000E+00 -0.00000000000E+00 -0.45593999997E+02  0.45594000000E+02  0.51100000000E-03 0.  1.
    9900012    2    1    2    0    0  0.42082758923E+01  0.27169169943E+02 -0.33581988273E+02  0.47787270539E+02  0.19999997694E+02 0.  0.
         12    1    1    2    0    0 -0.42082758923E+01 -0.27169169943E+02  0.33581988273E+02  0.43400729461E+02  0.00000000000E+00 0. -1.
         11    1    3    3    0    0 -0.93643969342E-01  0.93969054398E+01 -0.42786046387E+01  0.10325553687E+02  0.51100000000E-03 0. -1.
        -11    1    3    3    0    0 -0.11467046109E+01  0.16294140458E+02 -0.15373140203E+02  0.22430947031E+02  0.51100000000E-03 0.  1.
         12    1    3    3    0    0  0.54486244725E+01  0.14781240451E+01 -0.13930243431E+02  0.15030769820E+02  0.00000000000E+00 0. -1.
</event>
<event>
 7    1  0.2769403E-010  0.4778727E+02  0.7816164E-02  0.1312668E+00
        -11   -1    0    0    0    0  0.00000000000E+00  0.00000000000E+00  0.45593999997E+02  0.45594000000E+02  0.51100000000E-03 0.  1.
         11   -1    0    0    0    0 -0.00000000000E+00 -0.00000000000E+00 -0.45593999997E+02  0.45594000000E+02  0.51100000000E-03 0. -1.
    9900012    2    1    2    0    0  0.36754605244E+02  0.18072510739E+02  0.14356423197E+02  0.47787268001E+02  0.19999986124E+02 0.  0.
         12    1    1    2    0    0 -0.36754605244E+02 -0.18072510739E+02 -0.14356423197E+02  0.43400731999E+02  0.00000000000E+00 0. -1.
         11    1    3    3    0    0  0.11866698776E+02  0.45751277798E+01  0.13482879012E+02  0.18534787853E+02  0.51100000000E-03 0. -1.
        -11    1    3    3    0    0  0.83898570093E+01  0.84958393482E+00  0.72246070306E+00  0.84636542479E+01  0.51100000000E-03 0.  1.
        -12    1    3    3    0    0  0.16498049458E+02  0.12647799024E+02  0.15108348150E+00  0.20788825900E+02  0.00000000000E+00 0.  1.
</event>
<event>
 7    1  0.2769403E-010  0.4778728E+02  0.7816164E-02  0.1312668E+00
        -11   -1    0    0    0    0  0.00000000000E+00  0.00000000000E+00  0.45593999997E+02  0.45594000000E+02  0.51100000000E-03 0.  1.
         11   -1    0    0    0    0 -0.00000000000E+00 -0.00000000000E+00 -0.45593999997E+02  0.45594000000E+02  0.51100000000E-03 0. -1.
    9900012    2    1    2    0    0  0.17684064667E+02 -0.22642064808E+02  0.32530503361E+02  0.47787275457E+02  0.20000020120E+02 0.  0.
         12    1    1    2    0    0 -0.17684064667E+02  0.22642064808E+02 -0.32530503361E+02  0.43400724543E+02  0.00000000000E+00 0. -1.
         11    1    3    3    0    0  0.60438291286E+01 -0.73981048484E+01  0.92821541115E+01  0.13319842758E+02  0.51100000000E-03 0. -1.
        -11    1    3    3    0    0  0.42073675710E+01  0.28224328257E+01  0.88553534281E+01  0.10202222970E+02  0.51100000000E-03 0.  1.
        -12    1    3    3    0    0  0.74328679677E+01 -0.18066392785E+02  0.14392995821E+02  0.24265209729E+02  0.00000000000E+00 0.  1.
</event>
<event>
 7    1  0.2769403E-010  0.4778727E+02  0.7816164E-02  0.1312668E+00
        -11   -1    0    0    0    0  0.00000000000E+00  0.00000000000E+00  0.45593999997E+02  0.45594000000E+02  0.51100000000E-03 0.  1.
         11   -1    0    0    0    0 -0.00000000000E+00 -0.00000000000E+00 -0.45593999997E+02  0.45594000000E+02  0.51100000000E-03 0. -1.
    9900012    2    1    2    0    0 -0.40955870313E+02 -0.13276364829E+02 -0.54752560087E+01  0.47787267235E+02  0.19999982630E+02 0.  0.
         12    1    1    2    0    0  0.40955870313E+02  0.13276364829E+02  0.54752560087E+01  0.43400732765E+02  0.00000000000E+00 0. -1.
         11    1    3    3    0    0 -0.12458173075E+02 -0.39138123835E+01 -0.82369675066E+01  0.15439288769E+02  0.51100000000E-03 0. -1.
        -11    1    3    3    0    0 -0.15159838935E+02 -0.10964482358E+01 -0.32520503879E+01  0.15543447084E+02  0.51100000000E-03 0.  1.
        -12    1    3    3    0    0 -0.13337858303E+02 -0.82661042095E+01  0.60137618858E+01  0.16804531381E+02  0.00000000000E+00 0.  1.
</event>
<event>
 7    1  0.2769403E-010  0.4778726E+02  0.7816164E-02  0.1312668E+00
        -11   -1    0    0    0    0  0.00000000000E+00  0.00000000000E+00  0.45593999997E+02  0.45594000000E+02  0.51100000000E-03 0. -1.
         11   -1    0    0    0    0 -0.00000000000E+00 -0.00000000000E+00 -0.45593999997E+02  0.45594000000E+02  0.51100000000E-03 0.  1.
    9900012    2    1    2    0    0  0.27308213754E+02 -0.29097150729E+02 -0.17065795655E+02  0.47787261523E+02  0.19999956589E+02 0.  0.
         12    1    1    2    0    0 -0.27308213754E+02  0.29097150729E+02  0.17065795655E+02  0.43400738477E+02  0.00000000000E+00 0. -1.
         11    1    3    3    0    0  0.14666373209E+02 -0.60021639026E+01 -0.93378348405E+01  0.18393575900E+02  0.51100000000E-03 0. -1.
        -11    1    3    3    0    0  0.87557078788E+01 -0.74364349404E+01 -0.65345635623E+01  0.13216032169E+02  0.51100000000E-03 0.  1.
         12    1    3    3    0    0  0.38861326653E+01 -0.15658551886E+02 -0.11933972525E+01  0.16177653454E+02  0.00000000000E+00 0. -1.
</event>
<event>
 7    1  0.2801793E-010  0.4778727E+02  0.7816164E-02  0.1312668E+00
        -11   -1    0    0    0    0  0.00000000000E+00  0.00000000000E+00  0.45593999997E+02  0.45594000000E+02  0.51100000000E-03 0.  1.
         11   -1    0    0    0    0 -0.00000000000E+00 -0.00000000000E+00 -0.45593999997E+02  0.45594000000E+02  0.51100000000E-03 0. -1.
    9900012    2    1    2    0    0  0.33998508353E+02  0.40743667511E+00  0.26973292563E+02  0.47787273202E+02  0.20000009839E+02 0.  0.
         12    1    1    2    0    0 -0.33998508353E+02 -0.40743667511E+00 -0.26973292563E+02  0.43400726798E+02  0.00000000000E+00 0. -1.
         11    1    3    3    0    0  0.22111892973E+02 -0.50624200687E+00  0.18658292834E+02  0.28936550996E+02  0.51100000000E-03 0. -1.
        -11    1    3    3    0    0  0.81057517277E+01 -0.50725722671E+01  0.64328180148E+01  0.11524554150E+02  0.51100000000E-03 0.  1.
         12    1    3    3    0    0  0.37808636524E+01  0.59862509491E+01  0.18821817138E+01  0.73261680562E+01  0.00000000000E+00 0. -1.
</event>
<event>
 7    1  0.2769403E-010  0.4778727E+02  0.7816164E-02  0.1312668E+00
        -11   -1    0    0    0    0  0.00000000000E+00  0.00000000000E+00  0.45593999997E+02  0.45594000000E+02  0.51100000000E-03 0.  1.
         11   -1    0    0    0    0 -0.00000000000E+00 -0.00000000000E+00 -0.45593999997E+02  0.45594000000E+02  0.51100000000E-03 0. -1.
    9900012    2    1    2    0    0 -0.33647422518E+02 -0.17590390339E+02 -0.21025048125E+02  0.47787268173E+02  0.19999986910E+02 0.  0.
         12    1    1    2    0    0  0.33647422518E+02  0.17590390339E+02  0.21025048125E+02  0.43400731827E+02  0.00000000000E+00 0. -1.
         11    1    3    3    0    0 -0.12071916196E+02 -0.43068640631E+01 -0.14979916259E+02  0.19714921509E+02  0.51100000000E-03 0. -1.
        -11    1    3    3    0    0 -0.14842767046E+02 -0.92711893397E+01 -0.90211998179E+01  0.19688695532E+02  0.51100000000E-03 0.  1.
        -12    1    3    3    0    0 -0.67327392768E+01 -0.40123369363E+01  0.29760679518E+01  0.83836511326E+01  0.00000000000E+00 0.  1.
</event>
<event>
 7    1  0.2769403E-010  0.4778727E+02  0.7816164E-02  0.1312668E+00
        -11   -1    0    0    0    0  0.00000000000E+00  0.00000000000E+00  0.45593999997E+02  0.45594000000E+02  0.51100000000E-03 0.  1.
         11   -1    0    0    0    0 -0.00000000000E+00 -0.00000000000E+00 -0.45593999997E+02  0.45594000000E+02  0.51100000000E-03 0. -1.
    9900012    2    1    2    0    0 -0.45315213033E+01  0.10852449604E+01  0.43149864135E+02  0.47787271702E+02  0.20000002998E+02 0.  0.
         12    1    1    2    0    0  0.45315213033E+01 -0.10852449604E+01 -0.43149864135E+02  0.43400728298E+02  0.00000000000E+00 0. -1.
         11    1    3    3    0    0 -0.28151943114E+00  0.13841343595E+01  0.15447423802E+02  0.15511865893E+02  0.51100000000E-03 0. -1.
        -11    1    3    3    0    0  0.24349048126E+01 -0.28132659866E+01  0.23892785204E+02  0.24180744654E+02  0.51100000000E-03 0.  1.
         12    1    3    3    0    0 -0.66849066847E+01  0.25143765874E+01  0.38096551291E+01  0.80946611547E+01  0.00000000000E+00 0. -1.
</event>
<event>
 7    1  0.2769403E-010  0.4778727E+02  0.7816164E-02  0.1312668E+00
        -11   -1    0    0    0    0  0.00000000000E+00  0.00000000000E+00  0.45593999997E+02  0.45594000000E+02  0.51100000000E-03 0. -1.
         11   -1    0    0    0    0 -0.00000000000E+00 -0.00000000000E+00 -0.45593999997E+02  0.45594000000E+02  0.51100000000E-03 0.  1.
    9900012    2    1    2    0    0  0.39320699371E+01 -0.32177286043E+01 -0.43102301227E+02  0.47787270485E+02  0.19999997450E+02 0.  0.
         12    1    1    2    0    0 -0.39320699371E+01  0.32177286043E+01  0.43102301227E+02  0.43400729515E+02  0.00000000000E+00 0. -1.
         11    1    3    3    0    0 -0.42609468207E+01  0.36336603147E+01 -0.86477971981E+01  0.10302599271E+02  0.51100000000E-03 0. -1.
        -11    1    3    3    0    0 -0.13972232960E+01 -0.47425623580E+01 -0.11739345583E+02  0.12737989073E+02  0.51100000000E-03 0.  1.
         12    1    3    3    0    0  0.95902400539E+01 -0.21088265610E+01 -0.22715158446E+02  0.24746682141E+02  0.00000000000E+00 0. -1.
</event>
<event>
 7    1  0.2769403E-010  0.4778727E+02  0.7816164E-02  0.1312668E+00
        -11   -1    0    0    0    0  0.00000000000E+00  0.00000000000E+00  0.45593999997E+02  0.45594000000E+02  0.51100000000E-03 0.  1.
         11   -1    0    0    0    0 -0.00000000000E+00 -0.00000000000E+00 -0.45593999997E+02  0.45594000000E+02  0.51100000000E-03 0. -1.
    9900012    2    1    2    0    0 -0.32374280303E+02  0.67446087832E+01  0.28107639500E+02  0.47787272229E+02  0.20000005402E+02 0.  0.
         12    1    1    2    0    0  0.32374280303E+02 -0.67446087832E+01 -0.28107639500E+02  0.43400727771E+02  0.00000000000E+00 0. -1.
         11    1    3    3    0    0 -0.99394474322E+01 -0.55439987835E+01  0.47020716005E+01  0.12314138840E+02  0.51100000000E-03 0. -1.
        -11    1    3    3    0    0 -0.16106336675E+01  0.11356715409E+01  0.54666460608E+01  0.58110334773E+01  0.51100000000E-03 0.  1.
        -12    1    3    3    0    0 -0.20824199203E+02  0.11152936026E+02  0.17938921839E+02  0.29662099912E+02  0.00000000000E+00 0.  1.
</event>
<event>
 7    1  0.2769403E-010  0.4778726E+02  0.7816164E-02  0.1312668E+00
        -11   -1    0    0    0    0  0.00000000000E+00  0.00000000000E+00  0.45593999997E+02  0.45594000000E+02  0.51100000000E-03 0.  1.
         11   -1    0    0    0    0 -0.00000000000E+00 -0.00000000000E+00 -0.45593999997E+02  0.45594000000E+02  0.51100000000E-03 0. -1.
    9900012    2    1    2    0    0 -0.41194102002E+02  0.91620141298E+01 -0.10135449127E+02  0.47787264157E+02  0.19999968597E+02 0.  0.
         12    1    1    2    0    0  0.41194102002E+02 -0.91620141298E+01  0.10135449127E+02  0.43400735843E+02  0.00000000000E+00 0. -1.
         11    1    3    3    0    0 -0.75130328930E+01  0.17055533924E+01 -0.38284598169E+01  0.86030041530E+01  0.51100000000E-03 0. -1.
        -11    1    3    3    0    0 -0.26381206748E+02  0.11060870554E+02 -0.99199704685E+01  0.30277330484E+02  0.51100000000E-03 0.  1.
         12    1    3    3    0    0 -0.72998623619E+01 -0.36044098165E+01  0.36129811581E+01  0.89069295202E+01  0.00000000000E+00 0. -1.
</event>
<event>
 7    1  0.2769403E-010  0.4778727E+02  0.7816164E-02  0.1312668E+00
        -11   -1    0    0    0    0  0.00000000000E+00  0.00000000000E+00  0.45593999997E+02  0.45594000000E+02  0.51100000000E-03 0. -1.
         11   -1    0    0    0    0 -0.00000000000E+00 -0.00000000000E+00 -0.45593999997E+02  0.45594000000E+02  0.51100000000E-03 0.  1.
    9900012    2    1    2    0    0 -0.36254438811E+02 -0.10949265734E+02 -0.21197940327E+02  0.47787269272E+02  0.19999991920E+02 0.  0.
         12    1    1    2    0    0  0.36254438811E+02  0.10949265734E+02  0.21197940327E+02  0.43400730728E+02  0.00000000000E+00 0. -1.
         11    1    3    3    0    0 -0.31514849182E+01 -0.69187356305E+01 -0.44087483223E+01  0.87885051029E+01  0.51100000000E-03 0.  1.
        -11    1    3    3    0    0 -0.77838594358E+01 -0.19737857008E+01 -0.97654741513E+01  0.12643131866E+02  0.51100000000E-03 0. -1.
        -12    1    3    3    0    0 -0.25319094457E+02 -0.20567444024E+01 -0.70237178535E+01  0.26355632304E+02  0.00000000000E+00 0.  1.
</event>
<event>
 7    1  0.2769403E-010  0.4778727E+02  0.7816164E-02  0.1312668E+00
        -11   -1    0    0    0    0  0.00000000000E+00  0.00000000000E+00  0.45593999997E+02  0.45594000000E+02  0.51100000000E-03 0.  1.
         11   -1    0    0    0    0 -0.00000000000E+00 -0.00000000000E+00 -0.45593999997E+02  0.45594000000E+02  0.51100000000E-03 0. -1.
    9900012    2    1    2    0    0  0.38848075830E+02  0.24793447487E+01  0.19191224573E+02  0.47787271358E+02  0.20000001428E+02 0.  0.
         12    1    1    2    0    0 -0.38848075830E+02 -0.24793447487E+01 -0.19191224573E+02  0.43400728642E+02  0.00000000000E+00 0. -1.
         11    1    3    3    0    0  0.29194505053E+00 -0.42141045673E+00 -0.14914994388E+01  0.15771460055E+01  0.51100000000E-03 0. -1.
        -11    1    3    3    0    0  0.10495755048E+02  0.61754977207E+01  0.10811054276E+02  0.16284242105E+02  0.51100000000E-03 0.  1.
        -12    1    3    3    0    0  0.28060375732E+02 -0.32747425152E+01  0.98716697361E+01  0.29925883247E+02  0.00000000000E+00 0.  1.
</event>
<event>
 7    1  0.2769403E-010  0.4778726E+02  0.7816164E-02  0.1312668E+00
        -11   -1    0    0    0    0  0.00000000000E+00  0.00000000000E+00  0.45593999997E+02  0.45594000000E+02  0.51100000000E-03 0. -1.
         11   -1    0    0    0    0 -0.00000000000E+00 -0.00000000000E+00 -0.45593999997E+02  0.45594000000E+02  0.51100000000E-03 0.  1.
    9900012    2    1    2    0    0 -0.23909831276E+02 -0.31781583346E+02  0.17374560330E+02  0.47787257861E+02  0.19999939890E+02 0.  0.
         12    1    1    2    0    0  0.23909831276E+02  0.31781583346E+02 -0.17374560330E+02  0.43400742139E+02  0.00000000000E+00 0. -1.
         11    1    3    3    0    0 -0.11651196832E+02 -0.88367776377E+01  0.12778404931E+02  0.19419749212E+02  0.51100000000E-03 0. -1.
        -11    1    3    3    0    0 -0.52194062074E+01 -0.17885460280E+01  0.22103650142E+01  0.59436362447E+01  0.51100000000E-03 0.  1.
        -12    1    3    3    0    0 -0.70392282363E+01 -0.21156259680E+02  0.23857903847E+01  0.22423872404E+02  0.00000000000E+00 0.  1.
</event>
<event>
 7    1  0.2769403E-010  0.4778727E+02  0.7816164E-02  0.1312668E+00
        -11   -1    0    0    0    0  0.00000000000E+00  0.00000000000E+00  0.45593999997E+02  0.45594000000E+02  0.51100000000E-03 0.  1.
         11   -1    0    0    0    0 -0.00000000000E+00 -0.00000000000E+00 -0.45593999997E+02  0.45594000000E+02  0.51100000000E-03 0. -1.
    9900012    2    1    2    0    0  0.18638794165E+01  0.27517473268E+02  0.33510265663E+02  0.47787270901E+02  0.19999999344E+02 0.  0.
         12    1    1    2    0    0 -0.18638794165E+01 -0.27517473268E+02 -0.33510265663E+02  0.43400729099E+02  0.00000000000E+00 0. -1.
         11    1    3    3    0    0 -0.14537061572E+00  0.17422602076E+02  0.18149962178E+02  0.25159279065E+02  0.51100000000E-03 0. -1.
        -11    1    3    3    0    0  0.60522042116E-01  0.11903166845E+02  0.68972692979E+01  0.13757229659E+02  0.51100000000E-03 0.  1.
         12    1    3    3    0    0  0.19487279901E+01 -0.18082956532E+01  0.84630341871E+01  0.88707621770E+01  0.00000000000E+00 0. -1.
</event>
<event>
 7    1  0.2769403E-010  0.4778726E+02  0.7816164E-02  0.1312668E+00
        -11   -1    0    0    0    0  0.00000000000E+00  0.00000000000E+00  0.45593999997E+02  0.45594000000E+02  0.51100000000E-03 0. -1.
         11   -1    0    0    0    0 -0.00000000000E+00 -0.00000000000E+00 -0.45593999997E+02  0.45594000000E+02  0.51100000000E-03 0.  1.
    9900012    2    1    2    0    0 -0.29852989748E+02  0.13667465101E+02 -0.28383502595E+02  0.47787264767E+02  0.19999971378E+02 0.  0.
         12    1    1    2    0    0  0.29852989748E+02 -0.13667465101E+02  0.28383502595E+02  0.43400735233E+02  0.00000000000E+00 0. -1.
         11    1    3    3    0    0 -0.21509922017E+01  0.36700744494E-01  0.10007874610E+00  0.21536319121E+01  0.51100000000E-03 0. -1.
        -11    1    3    3    0    0 -0.22144868428E+02  0.18012868833E+02 -0.23556539048E+02  0.37010392777E+02  0.51100000000E-03 0.  1.
        -12    1    3    3    0    0 -0.55571291185E+01 -0.43821044767E+01 -0.49270422932E+01  0.86232400781E+01  0.00000000000E+00 0.  1.
</event>
<event>
 7    1  0.2769403E-010  0.4778727E+02  0.7816164E-02  0.1312668E+00
        -11   -1    0    0    0    0  0.00000000000E+00  0.00000000000E+00  0.45593999997E+02  0.45594000000E+02  0.51100000000E-03 0. -1.
         11   -1    0    0    0    0 -0.00000000000E+00 -0.00000000000E+00 -0.45593999997E+02  0.45594000000E+02  0.51100000000E-03 0.  1.
    9900012    2    1    2    0    0 -0.13829445711E+02 -0.33629524336E+01 -0.41000733367E+02  0.47787272421E+02  0.20000006278E+02 0.  0.
         12    1    1    2    0    0  0.13829445711E+02  0.33629524336E+01  0.41000733367E+02  0.43400727579E+02  0.00000000000E+00 0. -1.
         11    1    3    3    0    0 -0.23832249860E+01 -0.19129384495E+01  0.13263866904E+01  0.33314256346E+01  0.51100000000E-03 0. -1.
        -11    1    3    3    0    0 -0.84884099786E+00  0.21375453184E+01 -0.95030025294E+01  0.97773558983E+01  0.51100000000E-03 0.  1.
        -12    1    3    3    0    0 -0.10597379727E+02 -0.35875593025E+01 -0.32824117528E+02  0.34678490888E+02  0.00000000000E+00 0.  1.
</event>
<event>
 7    1  0.2769403E-010  0.4778727E+02  0.7816164E-02  0.1312668E+00
        -11   -1    0    0    0    0  0.00000000000E+00  0.00000000000E+00  0.45593999997E+02  0.45594000000E+02  0.51100000000E-03 0. -1.
         11   -1    0    0    0    0 -0.00000000000E+00 -0.00000000000E+00 -0.45593999997E+02  0.45594000000E+02  0.51100000000E-03 0.  1.
    9900012    2    1    2    0    0  0.33008010403E+02  0.93894221348E+01 -0.26569402487E+02  0.47787272502E+02  0.20000006646E+02 0.  0.
         12    1    1    2    0    0 -0.33008010403E+02 -0.93894221348E+01  0.26569402487E+02  0.43400727498E+02  0.00000000000E+00 0. -1.
         11    1    3    3    0    0 -0.23949677336E+00 -0.10558947501E+01  0.13201273310E+01  0.17073397023E+01  0.51100000000E-03 0. -1.
        -11    1    3    3    0    0  0.45406422314E+01 -0.22692903631E+01 -0.57056792082E+01  0.76368767250E+01  0.51100000000E-03 0.  1.
        -12    1    3    3    0    0  0.28706864945E+02  0.12714607248E+02 -0.22183850610E+02  0.38443056075E+02  0.00000000000E+00 0.  1.
</event>
<event>
 7    1  0.2769403E-010  0.4778727E+02  0.7816164E-02  0.1312668E+00
        -11   -1    0    0    0    0  0.00000000000E+00  0.00000000000E+00  0.45593999997E+02  0.45594000000E+02  0.51100000000E-03 0.  1.
         11   -1    0    0    0    0 -0.00000000000E+00 -0.00000000000E+00 -0.45593999997E+02  0.45594000000E+02  0.51100000000E-03 0. -1.
    9900012    2    1    2    0    0  0.23887591604E+02 -0.18250197151E+02  0.31303933106E+02  0.47787274700E+02  0.20000016666E+02 0.  0.
         12    1    1    2    0    0 -0.23887591604E+02  0.18250197151E+02 -0.31303933106E+02  0.43400725300E+02  0.00000000000E+00 0. -1.
         11    1    3    3    0    0  0.13007078474E-01 -0.31473260429E+01  0.75221977657E+00  0.32359952500E+01  0.51100000000E-03 0. -1.
        -11    1    3    3    0    0 -0.79476700141E+00 -0.60521147343E+01  0.66946395463E+01  0.90596879780E+01  0.51100000000E-03 0.  1.
         12    1    3    3    0    0  0.24669351527E+02 -0.90507563740E+01  0.23857073783E+02  0.35491591472E+02  0.00000000000E+00 0. -1.
</event>
<event>
 7    1  0.2769403E-010  0.4778727E+02  0.7816164E-02  0.1312668E+00
        -11   -1    0    0    0    0  0.00000000000E+00  0.00000000000E+00  0.45593999997E+02  0.45594000000E+02  0.51100000000E-03 0.  1.
         11   -1    0    0    0    0 -0.00000000000E+00 -0.00000000000E+00 -0.45593999997E+02  0.45594000000E+02  0.51100000000E-03 0. -1.
    9900012    2    1    2    0    0  0.73105142346E+01  0.22767921678E+02  0.36218798815E+02  0.47787271164E+02  0.20000000546E+02 0.  0.
         12    1    1    2    0    0 -0.73105142346E+01 -0.22767921678E+02 -0.36218798815E+02  0.43400728836E+02  0.00000000000E+00 0. -1.
         11    1    3    3    0    0 -0.12414847041E+01  0.98369780886E+01  0.22128713808E+02  0.24248451440E+02  0.51100000000E-03 0. -1.
        -11    1    3    3    0    0  0.28334712003E-01  0.70004047646E+00  0.69924864906E+01  0.70274979265E+01  0.51100000000E-03 0.  1.
         12    1    3    3    0    0  0.85236642266E+01  0.12230903113E+02  0.70975985160E+01  0.16511321797E+02  0.00000000000E+00 0. -1.
</event>
<event>
 7    1  0.2769403E-010  0.4778727E+02  0.7816164E-02  0.1312668E+00
        -11   -1    0    0    0    0  0.00000000000E+00  0.00000000000E+00  0.45593999997E+02  0.45594000000E+02  0.51100000000E-03 0. -1.
         11   -1    0    0    0    0 -0.00000000000E+00 -0.00000000000E+00 -0.45593999997E+02  0.45594000000E+02  0.51100000000E-03 0.  1.
    9900012    2    1    2    0    0 -0.36944968786E+02 -0.89096234239E+01 -0.20959762708E+02  0.47787265433E+02  0.19999974417E+02 0.  0.
         12    1    1    2    0    0  0.36944968786E+02  0.89096234239E+01  0.20959762708E+02  0.43400734567E+02  0.00000000000E+00 0. -1.
         11    1    3    3    0    0 -0.62379594149E+01 -0.12447784310E+01  0.43413052828E+00  0.63757415710E+01  0.51100000000E-03 0. -1.
        -11    1    3    3    0    0 -0.32457563856E+02 -0.69223168486E+01 -0.18636963146E+02  0.38062426585E+02  0.51100000000E-03 0.  1.
         12    1    3    3    0    0  0.17505544845E+01 -0.74252814432E+00 -0.27569300904E+01  0.33490972771E+01  0.00000000000E+00 0. -1.
</event>
<event>
 7    1  0.2769403E-010  0.4778727E+02  0.7816164E-02  0.1312668E+00
        -11   -1    0    0    0    0  0.00000000000E+00  0.00000000000E+00  0.45593999997E+02  0.45594000000E+02  0.51100000000E-03 0.  1.
         11   -1    0    0    0    0 -0.00000000000E+00 -0.00000000000E+00 -0.45593999997E+02  0.45594000000E+02  0.51100000000E-03 0. -1.
    9900012    2    1    2    0    0  0.94745230838E+01 -0.37867585876E+02  0.18971096167E+02  0.47787272615E+02  0.20000007162E+02 0.  0.
         12    1    1    2    0    0 -0.94745230838E+01  0.37867585876E+02 -0.18971096167E+02  0.43400727385E+02  0.00000000000E+00 0. -1.
         11    1    3    3    0    0 -0.22120154473E+00 -0.10822557937E+02  0.43649397289E+01  0.11671734640E+02  0.51100000000E-03 0.  1.
        -11    1    3    3    0    0  0.84171601564E+01 -0.16508269837E+02  0.59742713423E+00  0.18539915791E+02  0.51100000000E-03 0. -1.
         12    1    3    3    0    0  0.12785644721E+01 -0.10536758102E+02  0.14008729304E+02  0.17575622183E+02  0.00000000000E+00 0. -1.
</event>
<event>
 7    1  0.2769403E-010  0.4778730E+02  0.7816164E-02  0.1312668E+00
        -11   -1    0    0    0    0  0.00000000000E+00  0.00000000000E+00  0.45593999997E+02  0.45594000000E+02  0.51100000000E-03 0. -1.
         11   -1    0    0    0    0 -0.00000000000E+00 -0.00000000000E+00 -0.45593999997E+02  0.45594000000E+02  0.51100000000E-03 0.  1.
    9900012    2    1    2    0    0  0.13479585675E+02 -0.14815573007E+02 -0.38502214360E+02  0.47787297884E+02  0.20000122372E+02 0.  0.
         12    1    1    2    0    0 -0.13479585675E+02  0.14815573007E+02  0.38502214360E+02  0.43400702116E+02  0.00000000000E+00 0. -1.
         11    1    3    3    0    0  0.72348126520E+01 -0.73694175608E+01 -0.13948798771E+02  0.17355685429E+02  0.51100000000E-03 0. -1.
        -11    1    3    3    0    0  0.19385649575E+01 -0.11734249875E+02 -0.15824972033E+02  0.19795969143E+02  0.51100000000E-03 0.  1.
         12    1    3    3    0    0  0.43062080660E+01  0.42880944286E+01 -0.87284435568E+01  0.10635643312E+02  0.00000000000E+00 0. -1.
</event>
<event>
 7    1  0.2769403E-010  0.4778727E+02  0.7816164E-02  0.1312668E+00
        -11   -1    0    0    0    0  0.00000000000E+00  0.00000000000E+00  0.45593999997E+02  0.45594000000E+02  0.51100000000E-03 0.  1.
         11   -1    0    0    0    0 -0.00000000000E+00 -0.00000000000E+00 -0.45593999997E+02  0.45594000000E+02  0.51100000000E-03 0. -1.
    9900012    2    1    2    0    0  0.10902001960E+02  0.30345692697E+02  0.29050104356E+02  0.47787271030E+02  0.19999999935E+02 0.  0.
         12    1    1    2    0    0 -0.10902001960E+02 -0.30345692697E+02 -0.29050104356E+02  0.43400728970E+02  0.00000000000E+00 0. -1.
         11    1    3    3    0    0  0.67050899739E+01  0.10967095728E+02  0.94365053019E+01  0.15946255136E+02  0.51100000000E-03 0. -1.
        -11    1    3    3    0    0  0.93475230469E+01  0.81040496165E+01  0.12317747373E+02  0.17457912473E+02  0.51100000000E-03 0.  1.
         12    1    3    3    0    0 -0.51506110605E+01  0.11274547352E+02  0.72958516815E+01  0.14383103422E+02  0.00000000000E+00 0. -1.
</event>
<event>
 7    1  0.2769403E-010  0.4778727E+02  0.7816164E-02  0.1312668E+00
        -11   -1    0    0    0    0  0.00000000000E+00  0.00000000000E+00  0.45593999997E+02  0.45594000000E+02  0.51100000000E-03 0. -1.
         11   -1    0    0    0    0 -0.00000000000E+00 -0.00000000000E+00 -0.45593999997E+02  0.45594000000E+02  0.51100000000E-03 0.  1.
    9900012    2    1    2    0    0  0.80339737563E+01  0.19556459241E+02 -0.37902816615E+02  0.47787270286E+02  0.19999996540E+02 0.  0.
         12    1    1    2    0    0 -0.80339737563E+01 -0.19556459241E+02  0.37902816615E+02  0.43400729714E+02  0.00000000000E+00 0. -1.
         11    1    3    3    0    0 -0.29245419893E+01  0.13906025925E+02 -0.12079741518E+02  0.18650754898E+02  0.51100000000E-03 0. -1.
        -11    1    3    3    0    0  0.46492649619E+01  0.53555567213E+01 -0.15292552061E+02  0.16857040110E+02  0.51100000000E-03 0.  1.
        -12    1    3    3    0    0  0.63092507837E+01  0.29487659468E+00 -0.10530523036E+02  0.12279475277E+02  0.00000000000E+00 0.  1.
</event>
<event>
 7    1  0.2769403E-010  0.4778727E+02  0.7816164E-02  0.1312668E+00
        -11   -1    0    0    0    0  0.00000000000E+00  0.00000000000E+00  0.45593999997E+02  0.45594000000E+02  0.51100000000E-03 0.  1.
         11   -1    0    0    0    0 -0.00000000000E+00 -0.00000000000E+00 -0.45593999997E+02  0.45594000000E+02  0.51100000000E-03 0. -1.
    9900012    2    1    2    0    0  0.23939349813E+01  0.42466827023E+02  0.86291046303E+01  0.47787265342E+02  0.19999974002E+02 0.  0.
         12    1    1    2    0    0 -0.23939349813E+01 -0.42466827023E+02 -0.86291046303E+01  0.43400734658E+02  0.00000000000E+00 0. -1.
         11    1    3    3    0    0  0.24926887577E-01  0.78702266160E+01  0.36550342839E+01  0.86775782459E+01  0.51100000000E-03 0. -1.
        -11    1    3    3    0    0  0.63302876592E+01  0.32121277426E+02  0.77931372422E+01  0.33653855554E+02  0.51100000000E-03 0.  1.
         12    1    3    3    0    0 -0.39612795654E+01  0.24753229816E+01 -0.28190668958E+01  0.54558315426E+01  0.00000000000E+00 0. -1.
</event>
<event>
 7    1  0.2769403E-010  0.4778727E+02  0.7816164E-02  0.1312668E+00
        -11   -1    0    0    0    0  0.00000000000E+00  0.00000000000E+00  0.45593999997E+02  0.45594000000E+02  0.51100000000E-03 0.  1.
         11   -1    0    0    0    0 -0.00000000000E+00 -0.00000000000E+00 -0.45593999997E+02  0.45594000000E+02  0.51100000000E-03 0. -1.
    9900012    2    1    2    0    0 -0.41591388131E+02  0.16535592533E+01  0.12290060704E+02  0.47787269395E+02  0.19999992481E+02 0.  0.
         12    1    1    2    0    0  0.41591388131E+02 -0.16535592533E+01 -0.12290060704E+02  0.43400730605E+02  0.00000000000E+00 0. -1.
         11    1    3    3    0    0 -0.15110030508E+02 -0.63414963531E+01  0.85083413543E+01  0.18464004734E+02  0.51100000000E-03 0. -1.
        -11    1    3    3    0    0 -0.23107405667E+01  0.37719149259E+01 -0.36529591172E+00  0.44385026235E+01  0.51100000000E-03 0.  1.
        -12    1    3    3    0    0 -0.24170617056E+02  0.42231406805E+01  0.41470152619E+01  0.24884762038E+02  0.00000000000E+00 0.  1.
</event>
<event>
 7    1  0.2769403E-010  0.4778727E+02  0.7816164E-02  0.1312668E+00
        -11   -1    0    0    0    0  0.00000000000E+00  0.00000000000E+00  0.45593999997E+02  0.45594000000E+02  0.51100000000E-03 0.  1.
         11   -1    0    0    0    0 -0.00000000000E+00 -0.00000000000E+00 -0.45593999997E+02  0.45594000000E+02  0.51100000000E-03 0. -1.
    9900012    2    1    2    0    0 -0.56142083062E+01  0.79012819778E+01  0.42304540845E+02  0.47787265353E+02  0.19999974051E+02 0.  0.
         12    1    1    2    0    0  0.56142083062E+01 -0.79012819778E+01 -0.42304540845E+02  0.43400734647E+02  0.00000000000E+00 0. -1.
         11    1    3    3    0    0 -0.30142983378E+01  0.51753729813E+01  0.17909511120E+01  0.62512387662E+01  0.51100000000E-03 0. -1.
        -11    1    3    3    0    0 -0.34978559779E+01  0.36456606844E+01  0.12354857480E+02  0.13347971452E+02  0.51100000000E-03 0.  1.
         12    1    3    3    0    0  0.89794600946E+00 -0.91975168791E+00  0.28158732253E+02  0.28188055135E+02  0.00000000000E+00 0. -1.
</event>
<event>
 7    1  0.2769403E-010  0.4778725E+02  0.7816164E-02  0.1312668E+00
        -11   -1    0    0    0    0  0.00000000000E+00  0.00000000000E+00  0.45593999997E+02  0.45594000000E+02  0.51100000000E-03 0. -1.
         11   -1    0    0    0    0 -0.00000000000E+00 -0.00000000000E+00 -0.45593999997E+02  0.45594000000E+02  0.51100000000E-03 0.  1.
    9900012    2    1    2    0    0  0.40236161216E+02  0.11665173235E+02 -0.11340210901E+02  0.47787247480E+02  0.19999892560E+02 0.  0.
         12    1    1    2    0    0 -0.40236161216E+02 -0.11665173235E+02  0.11340210901E+02  0.43400752520E+02  0.00000000000E+00 0. -1.
         11    1    3    3    0    0  0.14624727609E+02  0.67611421164E+01 -0.31254788411E+01  0.16412322158E+02  0.51100000000E-03 0.  1.
        -11    1    3    3    0    0  0.23960557239E+02 -0.11665298049E+01 -0.64382310109E+01  0.24837872570E+02  0.51100000000E-03 0. -1.
         12    1    3    3    0    0  0.16508763683E+01  0.60705609238E+01 -0.17765010486E+01  0.65370527524E+01  0.00000000000E+00 0. -1.
</event>
<event>
 7    1  0.2769403E-010  0.4778727E+02  0.7816164E-02  0.1312668E+00
        -11   -1    0    0    0    0  0.00000000000E+00  0.00000000000E+00  0.45593999997E+02  0.45594000000E+02  0.51100000000E-03 0.  1.
         11   -1    0    0    0    0 -0.00000000000E+00 -0.00000000000E+00 -0.45593999997E+02  0.45594000000E+02  0.51100000000E-03 0. -1.
    9900012    2    1    2    0    0 -0.25869853255E+02 -0.33821952266E+02  0.83934256008E+01  0.47787270100E+02  0.19999995694E+02 0.  0.
         12    1    1    2    0    0  0.25869853255E+02  0.33821952266E+02 -0.83934256008E+01  0.43400729900E+02  0.00000000000E+00 0. -1.
         11    1    3    3    0    0 -0.14324897446E+02 -0.13145251789E+02  0.34935682957E+01  0.19753616153E+02  0.51100000000E-03 0. -1.
        -11    1    3    3    0    0 -0.13447908422E+02 -0.17422724450E+02  0.77223597883E+01  0.23324502335E+02  0.51100000000E-03 0.  1.
         12    1    3    3    0    0  0.19029526136E+01 -0.32539760278E+01 -0.28225024831E+01  0.47091516121E+01  0.00000000000E+00 0. -1.
</event>
<event>
 7    1  0.2769403E-010  0.4778730E+02  0.7816164E-02  0.1312668E+00
        -11   -1    0    0    0    0  0.00000000000E+00  0.00000000000E+00  0.45593999997E+02  0.45594000000E+02  0.51100000000E-03 0.  1.
         11   -1    0    0    0    0 -0.00000000000E+00 -0.00000000000E+00 -0.45593999997E+02  0.45594000000E+02  0.51100000000E-03 0. -1.
    9900012    2    1    2    0    0 -0.21396239603E+02  0.35605320542E+02  0.12573103158E+02  0.47787299049E+02  0.20000127683E+02 0.  0.
         12    1    1    2    0    0  0.21396239603E+02 -0.35605320542E+02 -0.12573103158E+02  0.43400700951E+02  0.00000000000E+00 0. -1.
         11    1    3    3    0    0 -0.31026129184E+01  0.55606982706E+01 -0.88601102381E+00  0.64290425394E+01  0.51100000000E-03 0. -1.
        -11    1    3    3    0    0 -0.21235054700E+02  0.29077867716E+02  0.12222091641E+02  0.38024064267E+02  0.51100000000E-03 0.  1.
         12    1    3    3    0    0  0.29414280162E+01  0.96675455603E+00  0.12370225407E+01  0.33341922428E+01  0.00000000000E+00 0. -1.
</event>
<event>
 7    1  0.2769403E-010  0.4778727E+02  0.7816164E-02  0.1312668E+00
        -11   -1    0    0    0    0  0.00000000000E+00  0.00000000000E+00  0.45593999997E+02  0.45594000000E+02  0.51100000000E-03 0. -1.
         11   -1    0    0    0    0 -0.00000000000E+00 -0.00000000000E+00 -0.45593999997E+02  0.45594000000E+02  0.51100000000E-03 0.  1.
    9900012    2    1    2    0    0 -0.22956734542E+02 -0.35784688654E+02 -0.87216902296E+01  0.47787268631E+02  0.19999988998E+02 0.  0.
         12    1    1    2    0    0  0.22956734542E+02  0.35784688654E+02  0.87216902296E+01  0.43400731369E+02  0.00000000000E+00 0. -1.
         11    1    3    3    0    0 -0.91808633768E+01 -0.16659124473E+02 -0.72776625751E+01  0.20366125144E+02  0.51100000000E-03 0.  1.
        -11    1    3    3    0    0 -0.59626026965E+01 -0.10640852662E+01 -0.44473703836E+01  0.75142539191E+01  0.51100000000E-03 0. -1.
        -12    1    3    3    0    0 -0.78132684682E+01 -0.18061478914E+02  0.30033427291E+01  0.19906889568E+02  0.00000000000E+00 0.  1.
</event>
<event>
 7    1  0.2769403E-010  0.4778728E+02  0.7816164E-02  0.1312668E+00
        -11   -1    0    0    0    0  0.00000000000E+00  0.00000000000E+00  0.45593999997E+02  0.45594000000E+02  0.51100000000E-03 0. -1.
         11   -1    0    0    0    0 -0.00000000000E+00 -0.00000000000E+00 -0.45593999997E+02  0.45594000000E+02  0.51100000000E-03 0.  1.
    9900012    2    1    2    0    0  0.35768484591E+02  0.18309184466E+02 -0.16401591023E+02  0.47787275193E+02  0.20000018914E+02 0.  0.
         12    1    1    2    0    0 -0.35768484591E+02 -0.18309184466E+02  0.16401591023E+02  0.43400724807E+02  0.00000000000E+00 0. -1.
         11    1    3    3    0    0  0.18792314095E+01  0.73453655386E+01 -0.26047163738E+01  0.80168855071E+01  0.51100000000E-03 0. -1.
        -11    1    3    3    0    0  0.10175682273E+02  0.67819662420E+01 -0.44465865735E+00  0.12236719225E+02  0.51100000000E-03 0.  1.
        -12    1    3    3    0    0  0.23713570908E+02  0.41818526850E+01 -0.13352215992E+02  0.27533670460E+02  0.00000000000E+00 0.  1.
</event>
<event>
 7    1  0.2769403E-010  0.4778727E+02  0.7816164E-02  0.1312668E+00
        -11   -1    0    0    0    0  0.00000000000E+00  0.00000000000E+00  0.45593999997E+02  0.45594000000E+02  0.51100000000E-03 0. -1.
         11   -1    0    0    0    0 -0.00000000000E+00 -0.00000000000E+00 -0.45593999997E+02  0.45594000000E+02  0.51100000000E-03 0.  1.
    9900012    2    1    2    0    0 -0.42035405555E+02 -0.10180226223E+02  0.36070836540E+01  0.47787269837E+02  0.19999994497E+02 0.  0.
         12    1    1    2    0    0  0.42035405555E+02  0.10180226223E+02 -0.36070836540E+01  0.43400730163E+02  0.00000000000E+00 0. -1.
         11    1    3    3    0    0 -0.84100245497E+01  0.36571556168E+01  0.25162215964E+01  0.95097145864E+01  0.51100000000E-03 0. -1.
        -11    1    3    3    0    0 -0.17256894002E+02 -0.27799957779E+01  0.49154964742E+01  0.18157391689E+02  0.51100000000E-03 0.  1.
         12    1    3    3    0    0 -0.16368487004E+02 -0.11057386062E+02 -0.38246344167E+01  0.20120163562E+02  0.00000000000E+00 0. -1.
</event>
<event>
 7    1  0.3489408E-010  0.4778729E+02  0.7816164E-02  0.1312668E+00
        -11   -1    0    0    0    0  0.00000000000E+00  0.00000000000E+00  0.45593999997E+02  0.45594000000E+02  0.51100000000E-03 0.  1.
         11   -1    0    0    0    0 -0.00000000000E+00 -0.00000000000E+00 -0.45593999997E+02  0.45594000000E+02  0.51100000000E-03 0. -1.
    9900012    2    1    2    0    0  0.65389791190E+01  0.39721218382E+02  0.16220003271E+02  0.47787286368E+02  0.20000069867E+02 0.  0.
         12    1    1    2    0    0 -0.65389791190E+01 -0.39721218382E+02 -0.16220003271E+02  0.43400713632E+02  0.00000000000E+00 0. -1.
         11    1    3    3    0    0 -0.19629092642E+01  0.15470738026E+01  0.45355788659E+01  0.51786027112E+01  0.51100000000E-03 0. -1.
        -11    1    3    3    0    0  0.40971631921E+01  0.21580830789E+02  0.12766307277E+02  0.25406644909E+02  0.51100000000E-03 0.  1.
         12    1    3    3    0    0  0.44047251912E+01  0.16593313790E+02 -0.10818828724E+01  0.17202038748E+02  0.00000000000E+00 0. -1.
</event>
<event>
 7    1  0.2769403E-010  0.4778728E+02  0.7816164E-02  0.1312668E+00
        -11   -1    0    0    0    0  0.00000000000E+00  0.00000000000E+00  0.45593999997E+02  0.45594000000E+02  0.51100000000E-03 0.  1.
         11   -1    0    0    0    0 -0.00000000000E+00 -0.00000000000E+00 -0.45593999997E+02  0.45594000000E+02  0.51100000000E-03 0. -1.
    9900012    2    1    2    0    0  0.15352821656E+02  0.16007168584E+02  0.37305282114E+02  0.47787278203E+02  0.20000032640E+02 0.  0.
         12    1    1    2    0    0 -0.15352821656E+02 -0.16007168584E+02 -0.37305282114E+02  0.43400721797E+02  0.00000000000E+00 0. -1.
         11    1    3    3    0    0  0.79779640013E+00  0.31860983416E+01 -0.99333179110E-01  0.32859654715E+01  0.51100000000E-03 0. -1.
        -11    1    3    3    0    0  0.96663412248E+01  0.11309484526E+02  0.13613280239E+02  0.20165911634E+02  0.51100000000E-03 0.  1.
        -12    1    3    3    0    0  0.48886840314E+01  0.15115857167E+01  0.23791335054E+02  0.24335401098E+02  0.00000000000E+00 0.  1.
</event>
<event>
 7    1  0.2769403E-010  0.4778727E+02  0.7816164E-02  0.1312668E+00
        -11   -1    0    0    0    0  0.00000000000E+00  0.00000000000E+00  0.45593999997E+02  0.45594000000E+02  0.51100000000E-03 0. -1.
         11   -1    0    0    0    0 -0.00000000000E+00 -0.00000000000E+00 -0.45593999997E+02  0.45594000000E+02  0.51100000000E-03 0.  1.
    9900012    2    1    2    0    0  0.72859625321E+01 -0.23936138229E+02 -0.35462649539E+02  0.47787268719E+02  0.19999989398E+02 0.  0.
         12    1    1    2    0    0 -0.72859625321E+01  0.23936138229E+02  0.35462649539E+02  0.43400731281E+02  0.00000000000E+00 0. -1.
         11    1    3    3    0    0 -0.23762332884E+00 -0.42571459349E+01 -0.10676717198E+02  0.11496610229E+02  0.51100000000E-03 0. -1.
        -11    1    3    3    0    0 -0.25798911267E+01 -0.43264266979E+00 -0.91433726010E+01  0.95102198022E+01  0.51100000000E-03 0.  1.
         12    1    3    3    0    0  0.10103476988E+02 -0.19246349625E+02 -0.15642559740E+02  0.26780438688E+02  0.00000000000E+00 0. -1.
</event>
<event>
 7    1  0.2769403E-010  0.4778727E+02  0.7816164E-02  0.1312668E+00
        -11   -1    0    0    0    0  0.00000000000E+00  0.00000000000E+00  0.45593999997E+02  0.45594000000E+02  0.51100000000E-03 0.  1.
         11   -1    0    0    0    0 -0.00000000000E+00 -0.00000000000E+00 -0.45593999997E+02  0.45594000000E+02  0.51100000000E-03 0. -1.
    9900012    2    1    2    0    0  0.11044197110E+01  0.95043108444E+01  0.42332864407E+02  0.47787273319E+02  0.20000010372E+02 0.  0.
         12    1    1    2    0    0 -0.11044197110E+01 -0.95043108444E+01 -0.42332864407E+02  0.43400726681E+02  0.00000000000E+00 0. -1.
         11    1    3    3    0    0 -0.24294176525E+01  0.82877512977E+01  0.12619561945E+02  0.15291900982E+02  0.51100000000E-03 0. -1.
        -11    1    3    3    0    0 -0.18094723723E+01  0.58249239872E+01  0.13766951920E+02  0.15057652378E+02  0.51100000000E-03 0.  1.
         12    1    3    3    0    0  0.53433097358E+01 -0.46083644404E+01  0.15946350542E+02  0.17437719959E+02  0.00000000000E+00 0. -1.
</event>
<event>
 7    1  0.2769403E-010  0.4778726E+02  0.7816164E-02  0.1312668E+00
        -11   -1    0    0    0    0  0.00000000000E+00  0.00000000000E+00  0.45593999997E+02  0.45594000000E+02  0.51100000000E-03 0.  1.
         11   -1    0    0    0    0 -0.00000000000E+00 -0.00000000000E+00 -0.45593999997E+02  0.45594000000E+02  0.51100000000E-03 0. -1.
    9900012    2    1    2    0    0 -0.47164728137E+00  0.11855032192E+01  0.43381978691E+02  0.47787263322E+02  0.19999964790E+02 0.  0.
         12    1    1    2    0    0  0.47164728137E+00 -0.11855032192E+01 -0.43381978691E+02  0.43400736678E+02  0.00000000000E+00 0. -1.
         11    1    3    3    0    0  0.52375160929E+00  0.44079285844E+00  0.24565984468E+02  0.24575520488E+02  0.51100000000E-03 0.  1.
        -11    1    3    3    0    0 -0.28443102065E+01  0.67384736250E+01  0.98023967144E+01  0.12230458248E+02  0.51100000000E-03 0. -1.
         12    1    3    3    0    0  0.18489113159E+01 -0.59937632643E+01  0.90135975086E+01  0.10981284586E+02  0.00000000000E+00 0. -1.
</event>
<event>
 7    1  0.2769403E-010  0.4778727E+02  0.7816164E-02  0.1312668E+00
        -11   -1    0    0    0    0  0.00000000000E+00  0.00000000000E+00  0.45593999997E+02  0.45594000000E+02  0.51100000000E-03 0. -1.
         11   -1    0    0    0    0 -0.00000000000E+00 -0.00000000000E+00 -0.45593999997E+02  0.45594000000E+02  0.51100000000E-03 0.  1.
    9900012    2    1    2    0    0 -0.10050910615E+02  0.19515914478E+02 -0.37439704382E+02  0.47787272053E+02  0.20000004598E+02 0.  0.
         12    1    1    2    0    0  0.10050910615E+02 -0.19515914478E+02  0.37439704382E+02  0.43400727947E+02  0.00000000000E+00 0. -1.
         11    1    3    3    0    0  0.27347680956E+01  0.76547753990E+00 -0.36902257223E+01  0.46564663150E+01  0.51100000000E-03 0. -1.
        -11    1    3    3    0    0 -0.69972135473E+01 -0.23816027316E+00 -0.91007758150E+01  0.11482240131E+02  0.51100000000E-03 0.  1.
        -12    1    3    3    0    0 -0.57884651636E+01  0.18988597211E+02 -0.24648702845E+02  0.31648565606E+02  0.00000000000E+00 0.  1.
</event>
<event>
 7    1  0.2769403E-010  0.4778727E+02  0.7816164E-02  0.1312668E+00
        -11   -1    0    0    0    0  0.00000000000E+00  0.00000000000E+00  0.45593999997E+02  0.45594000000E+02  0.51100000000E-03 0.  1.
         11   -1    0    0    0    0 -0.00000000000E+00 -0.00000000000E+00 -0.45593999997E+02  0.45594000000E+02  0.51100000000E-03 0. -1.
    9900012    2    1    2    0    0  0.30835641396E+02  0.17223036277E+02  0.25222088975E+02  0.47787268080E+02  0.19999986484E+02 0.  0.
         12    1    1    2    0    0 -0.30835641396E+02 -0.17223036277E+02 -0.25222088975E+02  0.43400731920E+02  0.00000000000E+00 0. -1.
         11    1    3    3    0    0  0.10530582759E+02  0.33472531156E+01  0.74270571196E+01  0.13313844463E+02  0.51100000000E-03 0. -1.
        -11    1    3    3    0    0  0.17148484345E+02  0.98781147763E+01  0.20676636271E+02  0.28621162705E+02  0.51100000000E-03 0.  1.
         12    1    3    3    0    0  0.31565742923E+01  0.39976683850E+01 -0.28816044147E+01  0.58522609120E+01  0.00000000000E+00 0. -1.
</event>
<event>
 7    1  0.2769403E-010  0.4778727E+02  0.7816164E-02  0.1312668E+00
        -11   -1    0    0    0    0  0.00000000000E+00  0.00000000000E+00  0.45593999997E+02  0.45594000000E+02  0.51100000000E-03 0. -1.
         11   -1    0    0    0    0 -0.00000000000E+00 -0.00000000000E+00 -0.45593999997E+02  0.45594000000E+02  0.51100000000E-03 0.  1.
    9900012    2    1    2    0    0  0.68343808276E+00 -0.38798592164E+02  0.19437735140E+02  0.47787269720E+02  0.19999993959E+02 0.  0.
         12    1    1    2    0    0 -0.68343808276E+00  0.38798592164E+02 -0.19437735140E+02  0.43400730280E+02  0.00000000000E+00 0. -1.
         11    1    3    3    0    0  0.48157429606E+01 -0.77633225066E+01  0.71003937483E+01  0.11570486085E+02  0.51100000000E-03 0. -1.
        -11    1    3    3    0    0  0.28306871598E+01 -0.68785079131E+01  0.75997305272E+01  0.10634028646E+02  0.51100000000E-03 0.  1.
        -12    1    3    3    0    0 -0.69629920376E+01 -0.24156761744E+02  0.47376108648E+01  0.25582754988E+02  0.00000000000E+00 0.  1.
</event>
<event>
 7    1  0.2769403E-010  0.4778727E+02  0.7816164E-02  0.1312668E+00
        -11   -1    0    0    0    0  0.00000000000E+00  0.00000000000E+00  0.45593999997E+02  0.45594000000E+02  0.51100000000E-03 0.  1.
         11   -1    0    0    0    0 -0.00000000000E+00 -0.00000000000E+00 -0.45593999997E+02  0.45594000000E+02  0.51100000000E-03 0. -1.
    9900012    2    1    2    0    0 -0.17676150469E+02 -0.19015108680E+02  0.34779344144E+02  0.47787269216E+02  0.19999991663E+02 0.  0.
         12    1    1    2    0    0  0.17676150469E+02  0.19015108680E+02 -0.34779344144E+02  0.43400730784E+02  0.00000000000E+00 0. -1.
         11    1    3    3    0    0  0.42405507866E+00  0.11546904435E+01  0.23089099862E+01  0.26161418760E+01  0.51100000000E-03 0. -1.
        -11    1    3    3    0    0 -0.15478864068E+02 -0.79896854940E+01  0.25538629432E+02  0.30913619986E+02  0.51100000000E-03 0.  1.
         12    1    3    3    0    0 -0.26213414798E+01 -0.12180113630E+02  0.69318047254E+01  0.14257507354E+02  0.00000000000E+00 0. -1.
</event>
<event>
 7    1  0.2769403E-010  0.4778727E+02  0.7816164E-02  0.1312668E+00
        -11   -1    0    0    0    0  0.00000000000E+00  0.00000000000E+00  0.45593999997E+02  0.45594000000E+02  0.51100000000E-03 0.  1.
         11   -1    0    0    0    0 -0.00000000000E+00 -0.00000000000E+00 -0.45593999997E+02  0.45594000000E+02  0.51100000000E-03 0. -1.
    9900012    2    1    2    0    0  0.10082145771E+02  0.15486775876E+02  0.39270005436E+02  0.47787271696E+02  0.20000002970E+02 0.  0.
         12    1    1    2    0    0 -0.10082145771E+02 -0.15486775876E+02 -0.39270005436E+02  0.43400728304E+02  0.00000000000E+00 0. -1.
         11    1    3    3    0    0  0.74165160784E+01  0.91826611140E+01  0.94434501515E+01  0.15116372809E+02  0.51100000000E-03 0. -1.
        -11    1    3    3    0    0  0.68007798584E+01  0.19518445408E+01  0.12926111006E+02  0.14735828779E+02  0.51100000000E-03 0.  1.
         12    1    3    3    0    0 -0.41351501662E+01  0.43522702215E+01  0.16900444278E+02  0.17935070108E+02  0.00000000000E+00 0. -1.
</event>
<event>
 7    1  0.2769403E-010  0.4778727E+02  0.7816164E-02  0.1312668E+00
        -11   -1    0    0    0    0  0.00000000000E+00  0.00000000000E+00  0.45593999997E+02  0.45594000000E+02  0.51100000000E-03 0.  1.
         11   -1    0    0    0    0 -0.00000000000E+00 -0.00000000000E+00 -0.45593999997E+02  0.45594000000E+02  0.51100000000E-03 0. -1.
    9900012    2    1    2    0    0 -0.22749414934E+02  0.12050869714E+02  0.34940862992E+02  0.47787271350E+02  0.20000001394E+02 0.  0.
         12    1    1    2    0    0  0.22749414934E+02 -0.12050869714E+02 -0.34940862992E+02  0.43400728650E+02  0.00000000000E+00 0. -1.
         11    1    3    3    0    0  0.61769936537E+00 -0.24713427765E+01  0.38337830347E+00  0.25760564454E+01  0.51100000000E-03 0. -1.
        -11    1    3    3    0    0 -0.18528439656E+01  0.46634999623E+01  0.33017746259E+01  0.60069109033E+01  0.51100000000E-03 0.  1.
        -12    1    3    3    0    0 -0.21514270334E+02  0.98587125285E+01  0.31255710063E+02  0.39204304001E+02  0.00000000000E+00 0.  1.
</event>
<event>
 7    1  0.2769403E-010  0.4778727E+02  0.7816164E-02  0.1312668E+00
        -11   -1    0    0    0    0  0.00000000000E+00  0.00000000000E+00  0.45593999997E+02  0.45594000000E+02  0.51100000000E-03 0.  1.
         11   -1    0    0    0    0 -0.00000000000E+00 -0.00000000000E+00 -0.45593999997E+02  0.45594000000E+02  0.51100000000E-03 0. -1.
    9900012    2    1    2    0    0 -0.34899634983E+02 -0.24714372252E+02  0.74053109318E+01  0.47787270193E+02  0.19999996119E+02 0.  0.
         12    1    1    2    0    0  0.34899634983E+02  0.24714372252E+02 -0.74053109318E+01  0.43400729807E+02  0.00000000000E+00 0. -1.
         11    1    3    3    0    0 -0.26981520279E+01 -0.14459119032E+01 -0.17230275471E+01  0.35127638388E+01  0.51100000000E-03 0. -1.
        -11    1    3    3    0    0 -0.17453629162E+02 -0.26467948479E+01  0.63916824459E+01  0.18774671732E+02  0.51100000000E-03 0.  1.
        -12    1    3    3    0    0 -0.14747853793E+02 -0.20621665501E+02  0.27366560329E+01  0.25499834622E+02  0.00000000000E+00 0.  1.
</event>
<event>
 7    1  0.2769403E-010  0.4778727E+02  0.7816164E-02  0.1312668E+00
        -11   -1    0    0    0    0  0.00000000000E+00  0.00000000000E+00  0.45593999997E+02  0.45594000000E+02  0.51100000000E-03 0.  1.
         11   -1    0    0    0    0 -0.00000000000E+00 -0.00000000000E+00 -0.45593999997E+02  0.45594000000E+02  0.51100000000E-03 0. -1.
    9900012    2    1    2    0    0 -0.69774343395E+01 -0.42178602976E+02 -0.74768880716E+01  0.47787274266E+02  0.20000014690E+02 0.  0.
         12    1    1    2    0    0  0.69774343395E+01  0.42178602976E+02  0.74768880716E+01  0.43400725734E+02  0.00000000000E+00 0. -1.
         11    1    3    3    0    0 -0.99420258171E+01 -0.17906803140E+02  0.30194568342E+01  0.20703009343E+02  0.51100000000E-03 0. -1.
        -11    1    3    3    0    0  0.25843140019E+01 -0.44904507783E+01 -0.20522912225E+01  0.55726767873E+01  0.51100000000E-03 0.  1.
        -12    1    3    3    0    0  0.38027747570E+00 -0.19781349058E+02 -0.84440536832E+01  0.21511588136E+02  0.00000000000E+00 0.  1.
</event>
<event>
 7    1  0.2769403E-010  0.4778726E+02  0.7816164E-02  0.1312668E+00
        -11   -1    0    0    0    0  0.00000000000E+00  0.00000000000E+00  0.45593999997E+02  0.45594000000E+02  0.51100000000E-03 0. -1.
         11   -1    0    0    0    0 -0.00000000000E+00 -0.00000000000E+00 -0.45593999997E+02  0.45594000000E+02  0.51100000000E-03 0.  1.
    9900012    2    1    2    0    0  0.96664627613E+01  0.12244879359E+02 -0.40499954829E+02  0.47787263670E+02  0.19999966378E+02 0.  0.
         12    1    1    2    0    0 -0.96664627613E+01 -0.12244879359E+02  0.40499954829E+02  0.43400736330E+02  0.00000000000E+00 0. -1.
         11    1    3    3    0    0 -0.11338248105E+00  0.44621776455E+01 -0.28295363877E+01  0.52848993706E+01  0.51100000000E-03 0. -1.
        -11    1    3    3    0    0  0.78138330507E+01  0.11661280018E+02 -0.20893029347E+02  0.25170620059E+02  0.51100000000E-03 0.  1.
        -12    1    3    3    0    0  0.19660121917E+01 -0.38785783047E+01 -0.16777389094E+02  0.17331744240E+02  0.00000000000E+00 0.  1.
</event>
<event>
 7    1  0.2769403E-010  0.4778727E+02  0.7816164E-02  0.1312668E+00
        -11   -1    0    0    0    0  0.00000000000E+00  0.00000000000E+00  0.45593999997E+02  0.45594000000E+02  0.51100000000E-03 0.  1.
         11   -1    0    0    0    0 -0.00000000000E+00 -0.00000000000E+00 -0.45593999997E+02  0.45594000000E+02  0.51100000000E-03 0. -1.
    9900012    2    1    2    0    0  0.91932231324E+01  0.41054275666E+02 -0.10660875987E+02  0.47787272140E+02  0.20000004993E+02 0.  0.
         12    1    1    2    0    0 -0.91932231324E+01 -0.41054275666E+02  0.10660875987E+02  0.43400727860E+02  0.00000000000E+00 0. -1.
         11    1    3    3    0    0 -0.18755333273E+01  0.95454475353E+01 -0.90986654493E+01  0.13319868886E+02  0.51100000000E-03 0. -1.
        -11    1    3    3    0    0  0.21040211945E+01  0.25573417328E+01 -0.24935204176E+01  0.41454247381E+01  0.51100000000E-03 0.  1.
        -12    1    3    3    0    0  0.89647352652E+01  0.28951486398E+02  0.93130987998E+00  0.30321978516E+02  0.00000000000E+00 0.  1.
</event>
<event>
 7    1  0.2769403E-010  0.4778725E+02  0.7816164E-02  0.1312668E+00
        -11   -1    0    0    0    0  0.00000000000E+00  0.00000000000E+00  0.45593999997E+02  0.45594000000E+02  0.51100000000E-03 0.  1.
         11   -1    0    0    0    0 -0.00000000000E+00 -0.00000000000E+00 -0.45593999997E+02  0.45594000000E+02  0.51100000000E-03 0. -1.
    9900012    2    1    2    0    0 -0.30789736614E+02 -0.30472830143E+02 -0.26502879830E+01  0.47787247886E+02  0.19999894411E+02 0.  0.
         12    1    1    2    0    0  0.30789736614E+02  0.30472830143E+02  0.26502879830E+01  0.43400752114E+02  0.00000000000E+00 0. -1.
         11    1    3    3    0    0 -0.58737378086E+01 -0.13147344338E+02  0.10555887989E+01  0.14438411511E+02  0.51100000000E-03 0. -1.
        -11    1    3    3    0    0 -0.20566004707E+02 -0.18979288184E+02 -0.51935370143E+01  0.28463077075E+02  0.51100000000E-03 0.  1.
         12    1    3    3    0    0 -0.43499940987E+01  0.16538023797E+01  0.14876602324E+01  0.48857592999E+01  0.00000000000E+00 0. -1.
</event>
<event>
 7    1  0.2769403E-010  0.4778728E+02  0.7816164E-02  0.1312668E+00
        -11   -1    0    0    0    0  0.00000000000E+00  0.00000000000E+00  0.45593999997E+02  0.45594000000E+02  0.51100000000E-03 0. -1.
         11   -1    0    0    0    0 -0.00000000000E+00 -0.00000000000E+00 -0.45593999997E+02  0.45594000000E+02  0.51100000000E-03 0.  1.
    9900012    2    1    2    0    0 -0.12457759500E+02 -0.15020966562E+02 -0.38765932555E+02  0.47787277252E+02  0.20000028303E+02 0.  0.
         12    1    1    2    0    0  0.12457759500E+02  0.15020966562E+02  0.38765932555E+02  0.43400722748E+02  0.00000000000E+00 0. -1.
         11    1    3    3    0    0 -0.60575588101E+01 -0.10298168332E+02 -0.22232904436E+02  0.25239816355E+02  0.51100000000E-03 0. -1.
        -11    1    3    3    0    0  0.23102391285E+00 -0.79290874825E+01 -0.78315799093E+01  0.11147082331E+02  0.51100000000E-03 0.  1.
        -12    1    3    3    0    0 -0.66312246028E+01  0.32062892526E+01 -0.87014482099E+01  0.11400378566E+02  0.00000000000E+00 0.  1.
</event>
<event>
 7    1  0.2769403E-010  0.4778727E+02  0.7816164E-02  0.1312668E+00
        -11   -1    0    0    0    0  0.00000000000E+00  0.00000000000E+00  0.45593999997E+02  0.45594000000E+02  0.51100000000E-03 0. -1.
         11   -1    0    0    0    0 -0.00000000000E+00 -0.00000000000E+00 -0.45593999997E+02  0.45594000000E+02  0.51100000000E-03 0.  1.
    9900012    2    1    2    0    0  0.79224969028E+01  0.42563781884E+02  0.30301985321E+01  0.47787267418E+02  0.19999983468E+02 0.  0.
         12    1    1    2    0    0 -0.79224969028E+01 -0.42563781884E+02 -0.30301985321E+01  0.43400732582E+02  0.00000000000E+00 0. -1.
         11    1    3    3    0    0  0.50037298066E+00  0.25895886907E+01 -0.39702679078E+01  0.47664840530E+01  0.51100000000E-03 0. -1.
        -11    1    3    3    0    0 -0.60862036753E+00  0.16568303941E+02 -0.19778918831E+01  0.16697040779E+02  0.51100000000E-03 0.  1.
         12    1    3    3    0    0  0.80307442897E+01  0.23405889253E+02  0.89783583230E+01  0.26323742586E+02  0.00000000000E+00 0. -1.
</event>
<event>
 7    1  0.2769403E-010  0.4778727E+02  0.7816164E-02  0.1312668E+00
        -11   -1    0    0    0    0  0.00000000000E+00  0.00000000000E+00  0.45593999997E+02  0.45594000000E+02  0.51100000000E-03 0.  1.
         11   -1    0    0    0    0 -0.00000000000E+00 -0.00000000000E+00 -0.45593999997E+02  0.45594000000E+02  0.51100000000E-03 0. -1.
    9900012    2    1    2    0    0  0.45063206469E+01 -0.16476393827E+02  0.39897932519E+02  0.47787268455E+02  0.19999988196E+02 0.  0.
         12    1    1    2    0    0 -0.45063206469E+01  0.16476393827E+02 -0.39897932519E+02  0.43400731545E+02  0.00000000000E+00 0. -1.
         11    1    3    3    0    0 -0.46618141428E+01 -0.95450706371E+01  0.18212172798E+02  0.21083740723E+02  0.51100000000E-03 0. -1.
        -11    1    3    3    0    0 -0.18654559218E+01 -0.19835129335E+01  0.79504838178E+01  0.84038349907E+01  0.51100000000E-03 0.  1.
        -12    1    3    3    0    0  0.11033590712E+02 -0.49478102565E+01  0.13735275903E+02  0.18299692742E+02  0.00000000000E+00 0.  1.
</event>
<event>
 7    1  0.2769403E-010  0.4778727E+02  0.7816164E-02  0.1312668E+00
        -11   -1    0    0    0    0  0.00000000000E+00  0.00000000000E+00  0.45593999997E+02  0.45594000000E+02  0.51100000000E-03 0.  1.
         11   -1    0    0    0    0 -0.00000000000E+00 -0.00000000000E+00 -0.45593999997E+02  0.45594000000E+02  0.51100000000E-03 0. -1.
    9900012    2    1    2    0    0  0.20783426871E+02 -0.37801087517E+02  0.47697207316E+01  0.47787270907E+02  0.19999999371E+02 0.  0.
         12    1    1    2    0    0 -0.20783426871E+02  0.37801087517E+02 -0.47697207316E+01  0.43400729093E+02  0.00000000000E+00 0. -1.
         11    1    3    3    0    0  0.12009741776E+02 -0.16122306934E+02  0.12110330248E+01  0.20140240308E+02  0.51100000000E-03 0. -1.
        -11    1    3    3    0    0  0.75682641389E+01 -0.15400258767E+02 -0.41281346242E+01  0.17649025126E+02  0.51100000000E-03 0.  1.
         12    1    3    3    0    0  0.12054209560E+01 -0.62785218155E+01  0.76868223311E+01  0.99980054720E+01  0.00000000000E+00 0. -1.
</event>
<event>
 7    1  0.2769403E-010  0.4778727E+02  0.7816164E-02  0.1312668E+00
        -11   -1    0    0    0    0  0.00000000000E+00  0.00000000000E+00  0.45593999997E+02  0.45594000000E+02  0.51100000000E-03 0. -1.
         11   -1    0    0    0    0 -0.00000000000E+00 -0.00000000000E+00 -0.45593999997E+02  0.45594000000E+02  0.51100000000E-03 0.  1.
    9900012    2    1    2    0    0 -0.36919081414E+02 -0.32539825345E+01 -0.22583542014E+02  0.47787270229E+02  0.19999996280E+02 0.  0.
         12    1    1    2    0    0  0.36919081414E+02  0.32539825345E+01  0.22583542014E+02  0.43400729771E+02  0.00000000000E+00 0. -1.
         11    1    3    3    0    0 -0.19336425731E+01 -0.25607613370E+01  0.13779106625E+01  0.34921498079E+01  0.51100000000E-03 0. -1.
        -11    1    3    3    0    0 -0.83020008222E+01  0.53436233086E+00  0.13576173696E+00  0.83202879915E+01  0.51100000000E-03 0.  1.
        -12    1    3    3    0    0 -0.26683438019E+02 -0.12275835284E+01 -0.24097214414E+02  0.35974832429E+02  0.00000000000E+00 0.  1.
</event>
<event>
 7    1  0.2769403E-010  0.4778727E+02  0.7816164E-02  0.1312668E+00
        -11   -1    0    0    0    0  0.00000000000E+00  0.00000000000E+00  0.45593999997E+02  0.45594000000E+02  0.51100000000E-03 0.  1.
         11   -1    0    0    0    0 -0.00000000000E+00 -0.00000000000E+00 -0.45593999997E+02  0.45594000000E+02  0.51100000000E-03 0. -1.
    9900012    2    1    2    0    0 -0.32856844577E+02 -0.20710191500E+02  0.19368506851E+02  0.47787270453E+02  0.19999997304E+02 0.  0.
         12    1    1    2    0    0  0.32856844577E+02  0.20710191500E+02 -0.19368506851E+02  0.43400729547E+02  0.00000000000E+00 0. -1.
         11    1    3    3    0    0 -0.31072476591E+02 -0.19750271302E+02  0.17793016173E+02  0.40892095114E+02  0.51100000000E-03 0. -1.
        -11    1    3    3    0    0 -0.20322639035E+01 -0.29694025695E+01 -0.88819238293E+00  0.37062560844E+01  0.51100000000E-03 0.  1.
         12    1    3    3    0    0  0.24789591749E+00  0.20094823712E+01  0.24636830615E+01  0.31889192548E+01  0.00000000000E+00 0. -1.
</event>
<event>
 7    1  0.2769403E-010  0.4778726E+02  0.7816164E-02  0.1312668E+00
        -11   -1    0    0    0    0  0.00000000000E+00  0.00000000000E+00  0.45593999997E+02  0.45594000000E+02  0.51100000000E-03 0.  1.
         11   -1    0    0    0    0 -0.00000000000E+00 -0.00000000000E+00 -0.45593999997E+02  0.45594000000E+02  0.51100000000E-03 0. -1.
    9900012    2    1    2    0    0 -0.34081534338E+02  0.21291647556E+02  0.16393259075E+02  0.47787260587E+02  0.19999952321E+02 0.  0.
         12    1    1    2    0    0  0.34081534338E+02 -0.21291647556E+02 -0.16393259075E+02  0.43400739413E+02  0.00000000000E+00 0. -1.
         11    1    3    3    0    0 -0.47223324266E+01  0.54844680624E+01 -0.12997801145E+01  0.73531790460E+01  0.51100000000E-03 0. -1.
        -11    1    3    3    0    0 -0.22577886121E+02  0.12379307050E+02  0.59180761798E+01  0.26420291646E+02  0.51100000000E-03 0.  1.
        -12    1    3    3    0    0 -0.67813157901E+01  0.34278724442E+01  0.11774963010E+02  0.14013789895E+02  0.00000000000E+00 0.  1.
</event>
<event>
 7    1  0.3032883E-010  0.4778727E+02  0.7816164E-02  0.1312668E+00
        -11   -1    0    0    0    0  0.00000000000E+00  0.00000000000E+00  0.45593999997E+02  0.45594000000E+02  0.51100000000E-03 0.  1.
         11   -1    0    0    0    0 -0.00000000000E+00 -0.00000000000E+00 -0.45593999997E+02  0.45594000000E+02  0.51100000000E-03 0. -1.
    9900012    2    1    2    0    0  0.28734226216E+02  0.28290747304E+02  0.16049958244E+02  0.47787270757E+02  0.19999998688E+02 0.  0.
         12    1    1    2    0    0 -0.28734226216E+02 -0.28290747304E+02 -0.16049958244E+02  0.43400729243E+02  0.00000000000E+00 0. -1.
         11    1    3    3    0    0  0.33706628036E+00 -0.11632954522E+01 -0.16343396673E+01  0.20341918286E+01  0.51100000000E-03 0. -1.
        -11    1    3    3    0    0  0.14029399257E+02  0.75959632695E+01  0.52908620878E+01  0.16808210000E+02  0.51100000000E-03 0.  1.
         12    1    3    3    0    0  0.14367760678E+02  0.21858079487E+02  0.12393435823E+02  0.28944868928E+02  0.00000000000E+00 0. -1.
</event>
<event>
 7    1  0.2769403E-010  0.4778727E+02  0.7816164E-02  0.1312668E+00
        -11   -1    0    0    0    0  0.00000000000E+00  0.00000000000E+00  0.45593999997E+02  0.45594000000E+02  0.51100000000E-03 0.  1.
         11   -1    0    0    0    0 -0.00000000000E+00 -0.00000000000E+00 -0.45593999997E+02  0.45594000000E+02  0.51100000000E-03 0. -1.
    9900012    2    1    2    0    0 -0.40848005958E+02  0.40423089955E+01  0.14096930173E+02  0.47787270823E+02  0.19999998992E+02 0.  0.
         12    1    1    2    0    0  0.40848005958E+02 -0.40423089955E+01 -0.14096930173E+02  0.43400729177E+02  0.00000000000E+00 0. -1.
         11    1    3    3    0    0 -0.13636469848E+02  0.56736039390E+01  0.79472790579E+01  0.16772070125E+02  0.51100000000E-03 0. -1.
        -11    1    3    3    0    0 -0.14935068829E+02 -0.38529007673E+01  0.94774617457E+01  0.18103132509E+02  0.51100000000E-03 0.  1.
        -12    1    3    3    0    0 -0.12276467281E+02  0.22216058238E+01 -0.33278106307E+01  0.12912068189E+02  0.00000000000E+00 0.  1.
</event>
<event>
 7    1  0.2769403E-010  0.4778727E+02  0.7816164E-02  0.1312668E+00
        -11   -1    0    0    0    0  0.00000000000E+00  0.00000000000E+00  0.45593999997E+02  0.45594000000E+02  0.51100000000E-03 0.  1.
         11   -1    0    0    0    0 -0.00000000000E+00 -0.00000000000E+00 -0.45593999997E+02  0.45594000000E+02  0.51100000000E-03 0. -1.
    9900012    2    1    2    0    0  0.10401677054E+02 -0.40779827224E+01  0.41938032544E+02  0.47787269565E+02  0.19999993256E+02 0.  0.
         12    1    1    2    0    0 -0.10401677054E+02  0.40779827224E+01 -0.41938032544E+02  0.43400730435E+02  0.00000000000E+00 0. -1.
         11    1    3    3    0    0 -0.14666428761E+01 -0.11165851584E+01  0.26683614517E+02  0.26747207101E+02  0.51100000000E-03 0. -1.
        -11    1    3    3    0    0  0.48482978290E+01 -0.19345939008E+01  0.12286812990E+02  0.13349697342E+02  0.51100000000E-03 0.  1.
        -12    1    3    3    0    0  0.70200221013E+01 -0.10268036632E+01  0.29676050364E+01  0.76903651225E+01  0.00000000000E+00 0.  1.
</event>
<event>
 7    1  0.2769403E-010  0.4778727E+02  0.7816164E-02  0.1312668E+00
        -11   -1    0    0    0    0  0.00000000000E+00  0.00000000000E+00  0.45593999997E+02  0.45594000000E+02  0.51100000000E-03 0.  1.
         11   -1    0    0    0    0 -0.00000000000E+00 -0.00000000000E+00 -0.45593999997E+02  0.45594000000E+02  0.51100000000E-03 0. -1.
    9900012    2    1    2    0    0  0.26694462937E+01 -0.15687428756E+02  0.40378234691E+02  0.47787271881E+02  0.20000003814E+02 0.  0.
         12    1    1    2    0    0 -0.26694462937E+01  0.15687428756E+02 -0.40378234691E+02  0.43400728119E+02  0.00000000000E+00 0. -1.
         11    1    3    3    0    0 -0.12795643579E+01  0.41456777158E+00 -0.77908114494E+00  0.15543870415E+01  0.51100000000E-03 0. -1.
        -11    1    3    3    0    0 -0.32586829868E+01 -0.16595762093E+01  0.15461197145E+02  0.15887788563E+02  0.51100000000E-03 0.  1.
        -12    1    3    3    0    0  0.72076936384E+01 -0.14442420318E+02  0.25696118691E+02  0.30345096276E+02  0.00000000000E+00 0.  1.
</event>
<event>
 7    1  0.2769403E-010  0.4778727E+02  0.7816164E-02  0.1312668E+00
        -11   -1    0    0    0    0  0.00000000000E+00  0.00000000000E+00  0.45593999997E+02  0.45594000000E+02  0.51100000000E-03 0.  1.
         11   -1    0    0    0    0 -0.00000000000E+00 -0.00000000000E+00 -0.45593999997E+02  0.45594000000E+02  0.51100000000E-03 0. -1.
    9900012    2    1    2    0    0  0.41177216902E+02 -0.12333326603E+02 -0.59957530031E+01  0.47787271999E+02  0.20000004353E+02 0.  0.
         12    1    1    2    0    0 -0.41177216902E+02  0.12333326603E+02  0.59957530031E+01  0.43400728001E+02  0.00000000000E+00 0. -1.
         11    1    3    3    0    0  0.46207100914E+01 -0.23187261625E+01  0.40871181428E+01  0.65902949660E+01  0.51100000000E-03 0. -1.
        -11    1    3    3    0    0  0.17534589380E+01 -0.38406053634E+01 -0.29165602471E+01  0.51313927681E+01  0.51100000000E-03 0.  1.
        -12    1    3    3    0    0  0.34803047873E+02 -0.61739950774E+01 -0.71663108988E+01  0.36065584265E+02  0.00000000000E+00 0.  1.
</event>
<event>
 7    1  0.2769403E-010  0.4778727E+02  0.7816164E-02  0.1312668E+00
        -11   -1    0    0    0    0  0.00000000000E+00  0.00000000000E+00  0.45593999997E+02  0.45594000000E+02  0.51100000000E-03 0. -1.
         11   -1    0    0    0    0 -0.00000000000E+00 -0.00000000000E+00 -0.45593999997E+02  0.45594000000E+02  0.51100000000E-03 0.  1.
    9900012    2    1    2    0    0  0.31236487201E+02  0.29700111061E+02 -0.50801935461E+01  0.47787273092E+02  0.20000009335E+02 0.  0.
         12    1    1    2    0    0 -0.31236487201E+02 -0.29700111061E+02  0.50801935461E+01  0.43400726908E+02  0.00000000000E+00 0. -1.
         11    1    3    3    0    0  0.14260080804E+02  0.51190707553E+01 -0.58946426663E+01  0.16257355331E+02  0.51100000000E-03 0. -1.
        -11    1    3    3    0    0  0.15711812817E+02  0.14644830192E+02 -0.22459443542E-01  0.21478654940E+02  0.51100000000E-03 0.  1.
         12    1    3    3    0    0  0.12645935798E+01  0.99362101138E+01  0.83690856378E+00  0.10051262821E+02  0.00000000000E+00 0. -1.
</event>
<event>
 7    1  0.2769403E-010  0.4778727E+02  0.7816164E-02  0.1312668E+00
        -11   -1    0    0    0    0  0.00000000000E+00  0.00000000000E+00  0.45593999997E+02  0.45594000000E+02  0.51100000000E-03 0.  1.
         11   -1    0    0    0    0 -0.00000000000E+00 -0.00000000000E+00 -0.45593999997E+02  0.45594000000E+02  0.51100000000E-03 0. -1.
    9900012    2    1    2    0    0 -0.96996440547E+01  0.17690968738E+02  0.38426159108E+02  0.47787272201E+02  0.20000005274E+02 0.  0.
         12    1    1    2    0    0  0.96996440547E+01 -0.17690968738E+02 -0.38426159108E+02  0.43400727799E+02  0.00000000000E+00 0. -1.
         11    1    3    3    0    0 -0.30511369753E+01 -0.27719204779E+01  0.30358148678E+01  0.51194874890E+01  0.51100000000E-03 0.  1.
        -11    1    3    3    0    0  0.13147073872E+01  0.22178349617E+01  0.10414954448E+02  0.10729330075E+02  0.51100000000E-03 0. -1.
         12    1    3    3    0    0 -0.79632144666E+01  0.18245054254E+02  0.24975389792E+02  0.31938454638E+02  0.00000000000E+00 0. -1.
</event>
<event>
 7    1  0.2769403E-010  0.4778727E+02  0.7816164E-02  0.1312668E+00
        -11   -1    0    0    0    0  0.00000000000E+00  0.00000000000E+00  0.45593999997E+02  0.45594000000E+02  0.51100000000E-03 0. -1.
         11   -1    0    0    0    0 -0.00000000000E+00 -0.00000000000E+00 -0.45593999997E+02  0.45594000000E+02  0.51100000000E-03 0.  1.
    9900012    2    1    2    0    0  0.26843646673E+02  0.65317991063E+00 -0.34097141734E+02  0.47787273219E+02  0.20000009914E+02 0.  0.
         12    1    1    2    0    0 -0.26843646673E+02 -0.65317991063E+00  0.34097141734E+02  0.43400726781E+02  0.00000000000E+00 0. -1.
         11    1    3    3    0    0  0.11052547981E+01 -0.43716653073E+01 -0.32782695506E+01  0.55749526666E+01  0.51100000000E-03 0. -1.
        -11    1    3    3    0    0  0.66864082864E+01 -0.13720953839E+01 -0.20650959145E+01  0.71312918123E+01  0.51100000000E-03 0.  1.
        -12    1    3    3    0    0  0.19051983588E+02  0.63969406018E+01 -0.28753776269E+02  0.35081028740E+02  0.00000000000E+00 0.  1.
</event>
<event>
 7    1  0.2769403E-010  0.4778727E+02  0.7816164E-02  0.1312668E+00
        -11   -1    0    0    0    0  0.00000000000E+00  0.00000000000E+00  0.45593999997E+02  0.45594000000E+02  0.51100000000E-03 0.  1.
         11   -1    0    0    0    0 -0.00000000000E+00 -0.00000000000E+00 -0.45593999997E+02  0.45594000000E+02  0.51100000000E-03 0. -1.
    9900012    2    1    2    0    0  0.11879244755E+02  0.40295196442E+02  0.10899733128E+02  0.47787268502E+02  0.19999988410E+02 0.  0.
         12    1    1    2    0    0 -0.11879244755E+02 -0.40295196442E+02 -0.10899733128E+02  0.43400731498E+02  0.00000000000E+00 0. -1.
         11    1    3    3    0    0  0.61481691286E+01  0.32326264464E+02  0.53189490061E+01  0.33332845312E+02  0.51100000000E-03 0.  1.
        -11    1    3    3    0    0  0.59310615309E+01  0.72794567369E+01  0.77465361567E+01  0.12172789490E+02  0.51100000000E-03 0. -1.
        -12    1    3    3    0    0 -0.19998590463E+00  0.68947524154E+00 -0.21657520343E+01  0.22816337009E+01  0.00000000000E+00 0.  1.
</event>
<event>
 7    1  0.2769403E-010  0.4778729E+02  0.7816164E-02  0.1312668E+00
        -11   -1    0    0    0    0  0.00000000000E+00  0.00000000000E+00  0.45593999997E+02  0.45594000000E+02  0.51100000000E-03 0.  1.
         11   -1    0    0    0    0 -0.00000000000E+00 -0.00000000000E+00 -0.45593999997E+02  0.45594000000E+02  0.51100000000E-03 0. -1.
    9900012    2    1    2    0    0 -0.84096041440E+00 -0.27706422125E+02  0.33395642200E+02  0.47787286188E+02  0.20000069046E+02 0.  0.
         12    1    1    2    0    0  0.84096041440E+00  0.27706422125E+02 -0.33395642200E+02  0.43400713812E+02  0.00000000000E+00 0. -1.
         11    1    3    3    0    0  0.59391505820E+01 -0.10568357400E+02  0.96240040501E+01  0.15478538109E+02  0.51100000000E-03 0. -1.
        -11    1    3    3    0    0 -0.78587004166E+00 -0.13523708948E+02  0.20526185393E+02  0.24593344272E+02  0.51100000000E-03 0.  1.
        -12    1    3    3    0    0 -0.59942409547E+01 -0.36143557769E+01  0.32454527570E+01  0.77154038069E+01  0.00000000000E+00 0.  1.
</event>
<event>
 7    1  0.2769403E-010  0.4778727E+02  0.7816164E-02  0.1312668E+00
        -11   -1    0    0    0    0  0.00000000000E+00  0.00000000000E+00  0.45593999997E+02  0.45594000000E+02  0.51100000000E-03 0.  1.
         11   -1    0    0    0    0 -0.00000000000E+00 -0.00000000000E+00 -0.45593999997E+02  0.45594000000E+02  0.51100000000E-03 0. -1.
    9900012    2    1    2    0    0  0.12557482938E-01 -0.20529215465E+02  0.38238393526E+02  0.47787267463E+02  0.19999983672E+02 0.  0.
         12    1    1    2    0    0 -0.12557482938E-01  0.20529215465E+02 -0.38238393526E+02  0.43400732537E+02  0.00000000000E+00 0. -1.
         11    1    3    3    0    0  0.26848016120E+01 -0.11971534956E+01 -0.54698981810E+00  0.29900726262E+01  0.51100000000E-03 0. -1.
        -11    1    3    3    0    0  0.30358222496E+00 -0.32950946358E+01  0.72283028509E+00  0.33870776059E+01  0.51100000000E-03 0.  1.
        -12    1    3    3    0    0 -0.29758263540E+01 -0.16036967333E+02  0.38062553059E+02  0.41410117231E+02  0.00000000000E+00 0.  1.
</event>
<event>
 7    1  0.2769403E-010  0.4778727E+02  0.7816164E-02  0.1312668E+00
        -11   -1    0    0    0    0  0.00000000000E+00  0.00000000000E+00  0.45593999997E+02  0.45594000000E+02  0.51100000000E-03 0.  1.
         11   -1    0    0    0    0 -0.00000000000E+00 -0.00000000000E+00 -0.45593999997E+02  0.45594000000E+02  0.51100000000E-03 0. -1.
    9900012    2    1    2    0    0  0.27599954248E+02 -0.33460241790E+02  0.15094139339E+01  0.47787267453E+02  0.19999983627E+02 0.  0.
         12    1    1    2    0    0 -0.27599954248E+02  0.33460241790E+02 -0.15094139339E+01  0.43400732547E+02  0.00000000000E+00 0. -1.
         11    1    3    3    0    0  0.11037609089E+01 -0.95221581725E-01  0.22247638339E+01  0.24853429686E+01  0.51100000000E-03 0. -1.
        -11    1    3    3    0    0  0.26125493237E+02 -0.25148712962E+02  0.27714684721E+01  0.36368670559E+02  0.51100000000E-03 0.  1.
         12    1    3    3    0    0  0.37070010235E+00 -0.82163072466E+01 -0.34868183721E+01  0.89332539255E+01  0.00000000000E+00 0. -1.
</event>
<event>
 7    1  0.2769403E-010  0.4778727E+02  0.7816164E-02  0.1312668E+00
        -11   -1    0    0    0    0  0.00000000000E+00  0.00000000000E+00  0.45593999997E+02  0.45594000000E+02  0.51100000000E-03 0.  1.
         11   -1    0    0    0    0 -0.00000000000E+00 -0.00000000000E+00 -0.45593999997E+02  0.45594000000E+02  0.51100000000E-03 0. -1.
    9900012    2    1    2    0    0  0.17528431492E+02  0.29778912455E+02  0.26260117013E+02  0.47787270938E+02  0.19999999515E+02 0.  0.
         12    1    1    2    0    0 -0.17528431492E+02 -0.29778912455E+02 -0.26260117013E+02  0.43400729062E+02  0.00000000000E+00 0. -1.
         11    1    3    3    0    0  0.19649557017E+01  0.45067745926E+01  0.12340685396E+02  0.13283997307E+02  0.51100000000E-03 0. -1.
        -11    1    3    3    0    0  0.10073487584E+01  0.61992315626E+01  0.72676776086E+01  0.96054339606E+01  0.51100000000E-03 0.  1.
        -12    1    3    3    0    0  0.14556127032E+02  0.19072906300E+02  0.66517540082E+01  0.24897839671E+02  0.00000000000E+00 0.  1.
</event>
<event>
 7    1  0.3042798E-010  0.4778725E+02  0.7816164E-02  0.1312668E+00
        -11   -1    0    0    0    0  0.00000000000E+00  0.00000000000E+00  0.45593999997E+02  0.45594000000E+02  0.51100000000E-03 0.  1.
         11   -1    0    0    0    0 -0.00000000000E+00 -0.00000000000E+00 -0.45593999997E+02  0.45594000000E+02  0.51100000000E-03 0. -1.
    9900012    2    1    2    0    0  0.13443097644E+01  0.39102561070E+02  0.18783185668E+02  0.47787245227E+02  0.19999882288E+02 0.  0.
         12    1    1    2    0    0 -0.13443097644E+01 -0.39102561070E+02 -0.18783185668E+02  0.43400754773E+02  0.00000000000E+00 0. -1.
         11    1    3    3    0    0 -0.33114479363E+01  0.53945628690E+01  0.80468378113E+01  0.10238095282E+02  0.51100000000E-03 0. -1.
        -11    1    3    3    0    0  0.42105229794E+01  0.17640487372E+02  0.11470048265E+02  0.21458734957E+02  0.51100000000E-03 0.  1.
         12    1    3    3    0    0  0.44523472128E+00  0.16067510829E+02 -0.73370040790E+00  0.16090414988E+02  0.00000000000E+00 0. -1.
</event>
<event>
 7    1  0.2769403E-010  0.4778726E+02  0.7816164E-02  0.1312668E+00
        -11   -1    0    0    0    0  0.00000000000E+00  0.00000000000E+00  0.45593999997E+02  0.45594000000E+02  0.51100000000E-03 0.  1.
         11   -1    0    0    0    0 -0.00000000000E+00 -0.00000000000E+00 -0.45593999997E+02  0.45594000000E+02  0.51100000000E-03 0. -1.
    9900012    2    1    2    0    0  0.16947945488E+02 -0.11270927930E+02  0.38332194904E+02  0.47787264536E+02  0.19999970325E+02 0.  0.
         12    1    1    2    0    0 -0.16947945488E+02  0.11270927930E+02 -0.38332194904E+02  0.43400735464E+02  0.00000000000E+00 0. -1.
         11    1    3    3    0    0  0.17879149946E+01  0.41485712553E+01  0.38784181963E+01  0.59539408340E+01  0.51100000000E-03 0. -1.
        -11    1    3    3    0    0  0.40254852691E+01 -0.27695392949E+01  0.20291048451E+01  0.52907604643E+01  0.51100000000E-03 0.  1.
        -12    1    3    3    0    0  0.11134545224E+02 -0.12649959891E+02  0.32424671863E+02  0.36542563238E+02  0.00000000000E+00 0.  1.
</event>
<event>
 7    1  0.2769403E-010  0.4778727E+02  0.7816164E-02  0.1312668E+00
        -11   -1    0    0    0    0  0.00000000000E+00  0.00000000000E+00  0.45593999997E+02  0.45594000000E+02  0.51100000000E-03 0.  1.
         11   -1    0    0    0    0 -0.00000000000E+00 -0.00000000000E+00 -0.45593999997E+02  0.45594000000E+02  0.51100000000E-03 0. -1.
    9900012    2    1    2    0    0  0.34318511887E+02  0.90997305810E+01  0.24961123367E+02  0.47787273802E+02  0.20000012573E+02 0.  0.
         12    1    1    2    0    0 -0.34318511887E+02 -0.90997305810E+01 -0.24961123367E+02  0.43400726198E+02  0.00000000000E+00 0. -1.
         11    1    3    3    0    0  0.12712807292E+02  0.80264060804E+01  0.90528969662E+01  0.17549746652E+02  0.51100000000E-03 0. -1.
        -11    1    3    3    0    0  0.20991720405E+02  0.50606430122E+01  0.12458775939E+02  0.24929571424E+02  0.51100000000E-03 0.  1.
        -12    1    3    3    0    0  0.61398419020E+00 -0.39873185115E+01  0.34494504617E+01  0.53079557257E+01  0.00000000000E+00 0.  1.
</event>
<event>
 7    1  0.2769403E-010  0.4778726E+02  0.7816164E-02  0.1312668E+00
        -11   -1    0    0    0    0  0.00000000000E+00  0.00000000000E+00  0.45593999997E+02  0.45594000000E+02  0.51100000000E-03 0.  1.
         11   -1    0    0    0    0 -0.00000000000E+00 -0.00000000000E+00 -0.45593999997E+02  0.45594000000E+02  0.51100000000E-03 0. -1.
    9900012    2    1    2    0    0 -0.14155488601E+01 -0.24481008843E+02  0.35809221008E+02  0.47787264041E+02  0.19999968071E+02 0.  0.
         12    1    1    2    0    0  0.14155488601E+01  0.24481008843E+02 -0.35809221008E+02  0.43400735959E+02  0.00000000000E+00 0. -1.
         11    1    3    3    0    0 -0.34528697604E+01  0.43617094392E+00  0.25917592222E+01  0.43393283814E+01  0.51100000000E-03 0. -1.
        -11    1    3    3    0    0 -0.43034382135E+01 -0.69198930563E+01  0.56312472673E+01  0.99053241449E+01  0.51100000000E-03 0.  1.
         12    1    3    3    0    0  0.63407591138E+01 -0.17997286731E+02  0.27586214518E+02  0.33542611515E+02  0.00000000000E+00 0. -1.
</event>
<event>
 7    1  0.2769403E-010  0.4778728E+02  0.7816164E-02  0.1312668E+00
        -11   -1    0    0    0    0  0.00000000000E+00  0.00000000000E+00  0.45593999997E+02  0.45594000000E+02  0.51100000000E-03 0.  1.
         11   -1    0    0    0    0 -0.00000000000E+00 -0.00000000000E+00 -0.45593999997E+02  0.45594000000E+02  0.51100000000E-03 0. -1.
    9900012    2    1    2    0    0 -0.43041419065E+02  0.46139383326E+01  0.31257598946E+01  0.47787279303E+02  0.20000037654E+02 0.  0.
         12    1    1    2    0    0  0.43041419065E+02 -0.46139383326E+01 -0.31257598946E+01  0.43400720697E+02  0.00000000000E+00 0. -1.
         11    1    3    3    0    0 -0.19992100340E+02 -0.44432652491E+01  0.39254161222E+01  0.20852711433E+02  0.51100000000E-03 0.  1.
        -11    1    3    3    0    0 -0.31762407536E+01  0.21021878340E+01 -0.41295592914E+01  0.56179141339E+01  0.51100000000E-03 0. -1.
        -12    1    3    3    0    0 -0.19873077971E+02  0.69550157477E+01  0.33299030638E+01  0.21316653736E+02  0.00000000000E+00 0.  1.
</event>
<event>
 7    1  0.2769403E-010  0.4778727E+02  0.7816164E-02  0.1312668E+00
        -11   -1    0    0    0    0  0.00000000000E+00  0.00000000000E+00  0.45593999997E+02  0.45594000000E+02  0.51100000000E-03 0.  1.
         11   -1    0    0    0    0 -0.00000000000E+00 -0.00000000000E+00 -0.45593999997E+02  0.45594000000E+02  0.51100000000E-03 0. -1.
    9900012    2    1    2    0    0  0.20764395381E+02 -0.16884369691E+02  0.34166957314E+02  0.47787273883E+02  0.20000012940E+02 0.  0.
         12    1    1    2    0    0 -0.20764395381E+02  0.16884369691E+02 -0.34166957314E+02  0.43400726117E+02  0.00000000000E+00 0. -1.
         11    1    3    3    0    0  0.54737977874E+01 -0.51097792533E+01  0.57163535531E+01  0.94206690017E+01  0.51100000000E-03 0. -1.
        -11    1    3    3    0    0  0.18167504655E+02 -0.59351567480E+01  0.22759131983E+02  0.29719730818E+02  0.51100000000E-03 0.  1.
         12    1    3    3    0    0 -0.28769070615E+01 -0.58394336898E+01  0.56914717786E+01  0.86468740632E+01  0.00000000000E+00 0. -1.
</event>
<event>
 7    1  0.2769403E-010  0.4778727E+02  0.7816164E-02  0.1312668E+00
        -11   -1    0    0    0    0  0.00000000000E+00  0.00000000000E+00  0.45593999997E+02  0.45594000000E+02  0.51100000000E-03 0.  1.
         11   -1    0    0    0    0 -0.00000000000E+00 -0.00000000000E+00 -0.45593999997E+02  0.45594000000E+02  0.51100000000E-03 0. -1.
    9900012    2    1    2    0    0 -0.31893152144E+02 -0.11386454236E+02  0.27144038742E+02  0.47787270364E+02  0.19999996896E+02 0.  0.
         12    1    1    2    0    0  0.31893152144E+02  0.11386454236E+02 -0.27144038742E+02  0.43400729636E+02  0.00000000000E+00 0. -1.
         11    1    3    3    0    0 -0.78157784933E+01 -0.35409055870E+01  0.94329859625E+01  0.12751691271E+02  0.51100000000E-03 0. -1.
        -11    1    3    3    0    0 -0.22781221562E+02 -0.26224373312E+01  0.18668152799E+02  0.29569598621E+02  0.51100000000E-03 0.  1.
         12    1    3    3    0    0 -0.12961520886E+01 -0.52231113180E+01 -0.95710001949E+00  0.54659804723E+01  0.00000000000E+00 0. -1.
</event>
<event>
 7    1  0.2769403E-010  0.4778727E+02  0.7816164E-02  0.1312668E+00
        -11   -1    0    0    0    0  0.00000000000E+00  0.00000000000E+00  0.45593999997E+02  0.45594000000E+02  0.51100000000E-03 0. -1.
         11   -1    0    0    0    0 -0.00000000000E+00 -0.00000000000E+00 -0.45593999997E+02  0.45594000000E+02  0.51100000000E-03 0.  1.
    9900012    2    1    2    0    0  0.33389279254E+02 -0.22348472428E+02 -0.16411130707E+02  0.47787269591E+02  0.19999993372E+02 0.  0.
         12    1    1    2    0    0 -0.33389279254E+02  0.22348472428E+02  0.16411130707E+02  0.43400730409E+02  0.00000000000E+00 0. -1.
         11    1    3    3    0    0  0.12612313086E+02 -0.88117396688E+01 -0.43382479144E+01  0.15985543238E+02  0.51100000000E-03 0. -1.
        -11    1    3    3    0    0  0.16140433817E+02 -0.57944504507E+01 -0.14499014167E+02  0.22456862468E+02  0.51100000000E-03 0.  1.
         12    1    3    3    0    0  0.46365323506E+01 -0.77422823089E+01  0.24261313742E+01  0.93448638853E+01  0.00000000000E+00 0. -1.
</event>
<event>
 7    1  0.2769403E-010  0.4778727E+02  0.7816164E-02  0.1312668E+00
        -11   -1    0    0    0    0  0.00000000000E+00  0.00000000000E+00  0.45593999997E+02  0.45594000000E+02  0.51100000000E-03 0.  1.
         11   -1    0    0    0    0 -0.00000000000E+00 -0.00000000000E+00 -0.45593999997E+02  0.45594000000E+02  0.51100000000E-03 0. -1.
    9900012    2    1    2    0    0 -0.19308850176E+02 -0.68222772596E+01  0.38265496254E+02  0.47787269987E+02  0.19999995177E+02 0.  0.
         12    1    1    2    0    0  0.19308850176E+02  0.68222772596E+01 -0.38265496254E+02  0.43400730013E+02  0.00000000000E+00 0. -1.
         11    1    3    3    0    0 -0.39312180085E+00 -0.28849847493E+01  0.43927076053E+00  0.29445951872E+01  0.51100000000E-03 0. -1.
        -11    1    3    3    0    0 -0.15520717074E+02 -0.95175878482E+00  0.15113889520E+02  0.21684744867E+02  0.51100000000E-03 0.  1.
        -12    1    3    3    0    0 -0.33950113011E+01 -0.29855337255E+01  0.22712335974E+02  0.23157929933E+02  0.00000000000E+00 0.  1.
</event>
<event>
 7    1  0.2769403E-010  0.4778727E+02  0.7816164E-02  0.1312668E+00
        -11   -1    0    0    0    0  0.00000000000E+00  0.00000000000E+00  0.45593999997E+02  0.45594000000E+02  0.51100000000E-03 0.  1.
         11   -1    0    0    0    0 -0.00000000000E+00 -0.00000000000E+00 -0.45593999997E+02  0.45594000000E+02  0.51100000000E-03 0. -1.
    9900012    2    1    2    0    0 -0.75364840496E+01  0.20846527678E+02  0.37312823088E+02  0.47787273337E+02  0.20000010454E+02 0.  0.
         12    1    1    2    0    0  0.75364840496E+01 -0.20846527678E+02 -0.37312823088E+02  0.43400726663E+02  0.00000000000E+00 0. -1.
         11    1    3    3    0    0 -0.34379946770E+01  0.12241593215E+02  0.27206974397E+02  0.30031581176E+02  0.51100000000E-03 0. -1.
        -11    1    3    3    0    0 -0.32145533380E+00  0.21891956125E+01  0.10070411354E+02  0.10310630245E+02  0.51100000000E-03 0.  1.
         12    1    3    3    0    0 -0.37770340389E+01  0.64157388503E+01  0.35437337612E-01  0.74450619158E+01  0.00000000000E+00 0. -1.
</event>
<event>
 7    1  0.2769403E-010  0.4778727E+02  0.7816164E-02  0.1312668E+00
        -11   -1    0    0    0    0  0.00000000000E+00  0.00000000000E+00  0.45593999997E+02  0.45594000000E+02  0.51100000000E-03 0.  1.
         11   -1    0    0    0    0 -0.00000000000E+00 -0.00000000000E+00 -0.45593999997E+02  0.45594000000E+02  0.51100000000E-03 0. -1.
    9900012    2    1    2    0    0 -0.19773092142E+02 -0.38323384638E+02 -0.48955314170E+01  0.47787271770E+02  0.20000003310E+02 0.  0.
         12    1    1    2    0    0  0.19773092142E+02  0.38323384638E+02  0.48955314170E+01  0.43400728230E+02  0.00000000000E+00 0. -1.
         11    1    3    3    0    0 -0.16190067717E+01  0.14391279461E+01  0.21456310391E+01  0.30489350582E+01  0.51100000000E-03 0. -1.
        -11    1    3    3    0    0 -0.66831037577E+01 -0.10104529728E+02  0.23705840436E+00  0.12116996072E+02  0.51100000000E-03 0.  1.
         12    1    3    3    0    0 -0.11470981613E+02 -0.29657982856E+02 -0.72782208605E+01  0.32621340640E+02  0.00000000000E+00 0. -1.
</event>
<event>
 7    1  0.2769403E-010  0.4778727E+02  0.7816164E-02  0.1312668E+00
        -11   -1    0    0    0    0  0.00000000000E+00  0.00000000000E+00  0.45593999997E+02  0.45594000000E+02  0.51100000000E-03 0. -1.
         11   -1    0    0    0    0 -0.00000000000E+00 -0.00000000000E+00 -0.45593999997E+02  0.45594000000E+02  0.51100000000E-03 0.  1.
    9900012    2    1    2    0    0 -0.21878752789E+02 -0.24229156002E+02 -0.28598798769E+02  0.47787272872E+02  0.20000008333E+02 0.  0.
         12    1    1    2    0    0  0.21878752789E+02  0.24229156002E+02  0.28598798769E+02  0.43400727128E+02  0.00000000000E+00 0. -1.
         11    1    3    3    0    0  0.11985024122E+01 -0.18062150953E+01 -0.26970274158E+01  0.34601702480E+01  0.51100000000E-03 0. -1.
        -11    1    3    3    0    0 -0.10997490120E+02 -0.12850380699E+02 -0.37229815079E+01  0.17318708515E+02  0.51100000000E-03 0.  1.
        -12    1    3    3    0    0 -0.12079765082E+02 -0.95725602073E+01 -0.22178789846E+02  0.27008394109E+02  0.00000000000E+00 0.  1.
</event>
<event>
 7    1  0.2769403E-010  0.4778727E+02  0.7816164E-02  0.1312668E+00
        -11   -1    0    0    0    0  0.00000000000E+00  0.00000000000E+00  0.45593999997E+02  0.45594000000E+02  0.51100000000E-03 0.  1.
         11   -1    0    0    0    0 -0.00000000000E+00 -0.00000000000E+00 -0.45593999997E+02  0.45594000000E+02  0.51100000000E-03 0. -1.
    9900012    2    1    2    0    0  0.42327707719E+02 -0.90626764009E+01  0.31394845221E+01  0.47787270658E+02  0.19999998240E+02 0.  0.
         12    1    1    2    0    0 -0.42327707719E+02  0.90626764009E+01 -0.31394845221E+01  0.43400729342E+02  0.00000000000E+00 0. -1.
         11    1    3    3    0    0  0.20992945823E+01 -0.46016387827E+01 -0.85676010666E+00  0.51299274236E+01  0.51100000000E-03 0. -1.
        -11    1    3    3    0    0  0.12675963840E+02 -0.22339857320E+01  0.73342030355E+01  0.14814225797E+02  0.51100000000E-03 0.  1.
         12    1    3    3    0    0  0.27552449297E+02 -0.22270518862E+01 -0.33379584067E+01  0.27843117438E+02  0.00000000000E+00 0. -1.
</event>
<event>
 7    1  0.2769403E-010  0.4778727E+02  0.7816164E-02  0.1312668E+00
        -11   -1    0    0    0    0  0.00000000000E+00  0.00000000000E+00  0.45593999997E+02  0.45594000000E+02  0.51100000000E-03 0. -1.
         11   -1    0    0    0    0 -0.00000000000E+00 -0.00000000000E+00 -0.45593999997E+02  0.45594000000E+02  0.51100000000E-03 0.  1.
    9900012    2    1    2    0    0  0.16695946551E+02 -0.37598335256E+02  0.13828749495E+02  0.47787265469E+02  0.19999974578E+02 0.  0.
         12    1    1    2    0    0 -0.16695946551E+02  0.37598335256E+02 -0.13828749495E+02  0.43400734531E+02  0.00000000000E+00 0. -1.
         11    1    3    3    0    0  0.25436728024E+01 -0.14501964542E+01 -0.26300758047E+01  0.39358150465E+01  0.51100000000E-03 0. -1.
        -11    1    3    3    0    0  0.10267318706E+02 -0.21002633690E+02  0.36965062305E+01  0.23668388494E+02  0.51100000000E-03 0.  1.
        -12    1    3    3    0    0  0.38849550428E+01 -0.15145505112E+02  0.12762319070E+02  0.20183061929E+02  0.00000000000E+00 0.  1.
</event>
<event>
 7    1  0.2769403E-010  0.4778727E+02  0.7816164E-02  0.1312668E+00
        -11   -1    0    0    0    0  0.00000000000E+00  0.00000000000E+00  0.45593999997E+02  0.45594000000E+02  0.51100000000E-03 0.  1.
         11   -1    0    0    0    0 -0.00000000000E+00 -0.00000000000E+00 -0.45593999997E+02  0.45594000000E+02  0.51100000000E-03 0. -1.
    9900012    2    1    2    0    0 -0.10634189339E+02 -0.18258484631E+02  0.37909955381E+02  0.47787274650E+02  0.20000016438E+02 0.  0.
         12    1    1    2    0    0  0.10634189339E+02  0.18258484631E+02 -0.37909955381E+02  0.43400725350E+02  0.00000000000E+00 0. -1.
         11    1    3    3    0    0 -0.19253251388E+01 -0.38306642239E+01  0.30422738942E+00  0.42980716434E+01  0.51100000000E-03 0. -1.
        -11    1    3    3    0    0  0.21045521846E+01  0.65346578101E+00  0.99034790030E+01  0.10145691403E+02  0.51100000000E-03 0.  1.
        -12    1    3    3    0    0 -0.10813416385E+02 -0.15081286189E+02  0.27702248989E+02  0.33343511603E+02  0.00000000000E+00 0.  1.
</event>
<event>
 7    1  0.2769403E-010  0.4778727E+02  0.7816164E-02  0.1312668E+00
        -11   -1    0    0    0    0  0.00000000000E+00  0.00000000000E+00  0.45593999997E+02  0.45594000000E+02  0.51100000000E-03 0. -1.
         11   -1    0    0    0    0 -0.00000000000E+00 -0.00000000000E+00 -0.45593999997E+02  0.45594000000E+02  0.51100000000E-03 0.  1.
    9900012    2    1    2    0    0 -0.43979376613E+01  0.19540401856E+02 -0.38502652089E+02  0.47787269842E+02  0.19999994519E+02 0.  0.
         12    1    1    2    0    0  0.43979376613E+01 -0.19540401856E+02  0.38502652089E+02  0.43400730158E+02  0.00000000000E+00 0. -1.
         11    1    3    3    0    0 -0.20040886826E+01  0.11597926189E+02 -0.18201975111E+02  0.21675796676E+02  0.51100000000E-03 0. -1.
        -11    1    3    3    0    0 -0.16907640198E+01  0.11520323632E+02 -0.10591828315E+02  0.15740500846E+02  0.51100000000E-03 0.  1.
         12    1    3    3    0    0 -0.70308495889E+00 -0.35778479656E+01 -0.97088486620E+01  0.10370972320E+02  0.00000000000E+00 0. -1.
</event>
<event>
 7    1  0.2769403E-010  0.4778725E+02  0.7816164E-02  0.1312668E+00
        -11   -1    0    0    0    0  0.00000000000E+00  0.00000000000E+00  0.45593999997E+02  0.45594000000E+02  0.51100000000E-03 0.  1.
         11   -1    0    0    0    0 -0.00000000000E+00 -0.00000000000E+00 -0.45593999997E+02  0.45594000000E+02  0.51100000000E-03 0. -1.
    9900012    2    1    2    0    0 -0.65787999653E+01  0.28632165290E+02  0.31945945759E+02  0.47787251750E+02  0.19999912031E+02 0.  0.
         12    1    1    2    0    0  0.65787999653E+01 -0.28632165290E+02 -0.31945945759E+02  0.43400748250E+02  0.00000000000E+00 0. -1.
         11    1    3    3    0    0 -0.20864811932E+01  0.72190957154E+01  0.38665962369E+01  0.84509948194E+01  0.51100000000E-03 0. -1.
        -11    1    3    3    0    0 -0.84653667416E+01  0.67824890523E+01  0.18368794331E+02  0.21332538462E+02  0.51100000000E-03 0.  1.
         12    1    3    3    0    0  0.39730479694E+01  0.14630580522E+02  0.97105551917E+01  0.18003718469E+02  0.00000000000E+00 0. -1.
</event>
<event>
 7    1  0.2769403E-010  0.4778727E+02  0.7816164E-02  0.1312668E+00
        -11   -1    0    0    0    0  0.00000000000E+00  0.00000000000E+00  0.45593999997E+02  0.45594000000E+02  0.51100000000E-03 0. -1.
         11   -1    0    0    0    0 -0.00000000000E+00 -0.00000000000E+00 -0.45593999997E+02  0.45594000000E+02  0.51100000000E-03 0.  1.
    9900012    2    1    2    0    0 -0.23580220115E+02 -0.35782206343E+02 -0.68724271272E+01  0.47787270443E+02  0.19999997259E+02 0.  0.
         12    1    1    2    0    0  0.23580220115E+02  0.35782206343E+02  0.68724271272E+01  0.43400729557E+02  0.00000000000E+00 0. -1.
         11    1    3    3    0    0  0.15782549116E+01  0.19569432870E+00 -0.38071849507E+00  0.16352772455E+01  0.51100000000E-03 0. -1.
        -11    1    3    3    0    0 -0.53834394781E+01 -0.78489084344E+01  0.38183316060E+01  0.10255069027E+02  0.51100000000E-03 0.  1.
         12    1    3    3    0    0 -0.19775035549E+02 -0.28128992237E+02 -0.10310040238E+02  0.35896924171E+02  0.00000000000E+00 0. -1.
</event>
<event>
 7    1  0.2769403E-010  0.4778727E+02  0.7816164E-02  0.1312668E+00
        -11   -1    0    0    0    0  0.00000000000E+00  0.00000000000E+00  0.45593999997E+02  0.45594000000E+02  0.51100000000E-03 0.  1.
         11   -1    0    0    0    0 -0.00000000000E+00 -0.00000000000E+00 -0.45593999997E+02  0.45594000000E+02  0.51100000000E-03 0. -1.
    9900012    2    1    2    0    0 -0.36634469639E+02 -0.10832222674E+02  0.20596155931E+02  0.47787273590E+02  0.20000011604E+02 0.  0.
         12    1    1    2    0    0  0.36634469639E+02  0.10832222674E+02 -0.20596155931E+02  0.43400726410E+02  0.00000000000E+00 0. -1.
         11    1    3    3    0    0 -0.14936393150E+02 -0.80972452597E+01  0.10635696946E+02  0.20044432417E+02  0.51100000000E-03 0. -1.
        -11    1    3    3    0    0 -0.20921926618E+02 -0.65201578888E+01  0.93722162569E+01  0.23834385038E+02  0.51100000000E-03 0.  1.
         12    1    3    3    0    0 -0.77614987109E+00  0.37851804747E+01  0.58824272794E+00  0.39084561345E+01  0.00000000000E+00 0. -1.
</event>
<event>
 7    1  0.2769403E-010  0.4778727E+02  0.7816164E-02  0.1312668E+00
        -11   -1    0    0    0    0  0.00000000000E+00  0.00000000000E+00  0.45593999997E+02  0.45594000000E+02  0.51100000000E-03 0.  1.
         11   -1    0    0    0    0 -0.00000000000E+00 -0.00000000000E+00 -0.45593999997E+02  0.45594000000E+02  0.51100000000E-03 0. -1.
    9900012    2    1    2    0    0 -0.16484561130E+02  0.11342112334E+02  0.38512846232E+02  0.47787267371E+02  0.19999983252E+02 0.  0.
         12    1    1    2    0    0  0.16484561130E+02 -0.11342112334E+02 -0.38512846232E+02  0.43400732629E+02  0.00000000000E+00 0. -1.
         11    1    3    3    0    0 -0.93216263090E+01  0.38108570590E+01  0.79916251969E+01  0.12856182253E+02  0.51100000000E-03 0. -1.
        -11    1    3    3    0    0 -0.10120138668E+02  0.52877134200E+01  0.14345637007E+02  0.18335059893E+02  0.51100000000E-03 0.  1.
        -12    1    3    3    0    0  0.29572038469E+01  0.22435418546E+01  0.16175584028E+02  0.16596025226E+02  0.00000000000E+00 0.  1.
</event>
<event>
 7    1  0.2769403E-010  0.4778727E+02  0.7816164E-02  0.1312668E+00
        -11   -1    0    0    0    0  0.00000000000E+00  0.00000000000E+00  0.45593999997E+02  0.45594000000E+02  0.51100000000E-03 0.  1.
         11   -1    0    0    0    0 -0.00000000000E+00 -0.00000000000E+00 -0.45593999997E+02  0.45594000000E+02  0.51100000000E-03 0. -1.
    9900012    2    1    2    0    0  0.50951157797E+00  0.12225353556E+00  0.43397568514E+02  0.47787268429E+02  0.19999988073E+02 0.  0.
         12    1    1    2    0    0 -0.50951157797E+00 -0.12225353556E+00 -0.43397568514E+02  0.43400731571E+02  0.00000000000E+00 0. -1.
         11    1    3    3    0    0 -0.72688169034E+01 -0.47560203486E+01  0.21810488663E+02  0.23476644665E+02  0.51100000000E-03 0. -1.
        -11    1    3    3    0    0  0.41135316798E+00  0.35543720010E+01  0.54150087471E+01  0.64903845604E+01  0.51100000000E-03 0.  1.
         12    1    3    3    0    0  0.73669753134E+01  0.13239018832E+01  0.16172071104E+02  0.17820239204E+02  0.00000000000E+00 0. -1.
</event>
<event>
 7    1  0.2769403E-010  0.4778727E+02  0.7816164E-02  0.1312668E+00
        -11   -1    0    0    0    0  0.00000000000E+00  0.00000000000E+00  0.45593999997E+02  0.45594000000E+02  0.51100000000E-03 0.  1.
         11   -1    0    0    0    0 -0.00000000000E+00 -0.00000000000E+00 -0.45593999997E+02  0.45594000000E+02  0.51100000000E-03 0. -1.
    9900012    2    1    2    0    0  0.38912532370E+01  0.17966879019E+02  0.39315046399E+02  0.47787268822E+02  0.19999989868E+02 0.  0.
         12    1    1    2    0    0 -0.38912532370E+01 -0.17966879019E+02 -0.39315046399E+02  0.43400731178E+02  0.00000000000E+00 0. -1.
         11    1    3    3    0    0  0.26820811487E+01  0.43128301050E+01  0.44543573278E+01  0.67553950490E+01  0.51100000000E-03 0. -1.
        -11    1    3    3    0    0  0.66572975879E+01  0.13172369162E+02  0.17838602681E+02  0.23152681624E+02  0.51100000000E-03 0.  1.
         12    1    3    3    0    0 -0.54481254996E+01  0.48167975159E+00  0.17022086390E+02  0.17879192149E+02  0.00000000000E+00 0. -1.
</event>
<event>
 7    1  0.2769403E-010  0.4778730E+02  0.7816164E-02  0.1312668E+00
        -11   -1    0    0    0    0  0.00000000000E+00  0.00000000000E+00  0.45593999997E+02  0.45594000000E+02  0.51100000000E-03 0.  1.
         11   -1    0    0    0    0 -0.00000000000E+00 -0.00000000000E+00 -0.45593999997E+02  0.45594000000E+02  0.51100000000E-03 0. -1.
    9900012    2    1    2    0    0 -0.41346122552E+02  0.24574996770E+01 -0.12964560103E+02  0.47787297547E+02  0.20000120836E+02 0.  0.
         12    1    1    2    0    0  0.41346122552E+02 -0.24574996770E+01  0.12964560103E+02  0.43400702453E+02  0.00000000000E+00 0. -1.
         11    1    3    3    0    0 -0.17029324286E+01 -0.19912780297E+01 -0.10859214048E+01  0.28362638464E+01  0.51100000000E-03 0. -1.
        -11    1    3    3    0    0 -0.11248902858E+02 -0.20116057159E+01  0.35894101494E+01  0.11977822780E+02  0.51100000000E-03 0.  1.
         12    1    3    3    0    0 -0.28394287266E+02  0.64603834225E+01 -0.15468048848E+02  0.32973210921E+02  0.00000000000E+00 0. -1.
</event>
<event>
 7    1  0.2769403E-010  0.4778727E+02  0.7816164E-02  0.1312668E+00
        -11   -1    0    0    0    0  0.00000000000E+00  0.00000000000E+00  0.45593999997E+02  0.45594000000E+02  0.51100000000E-03 0.  1.
         11   -1    0    0    0    0 -0.00000000000E+00 -0.00000000000E+00 -0.45593999997E+02  0.45594000000E+02  0.51100000000E-03 0. -1.
    9900012    2    1    2    0    0 -0.12415963060E+02  0.15919028725E+02  0.38419420420E+02  0.47787268674E+02  0.19999989192E+02 0.  0.
         12    1    1    2    0    0  0.12415963060E+02 -0.15919028725E+02 -0.38419420420E+02  0.43400731326E+02  0.00000000000E+00 0. -1.
         11    1    3    3    0    0 -0.47064099686E+01 -0.12979959659E+01  0.70375845165E+01  0.85652019479E+01  0.51100000000E-03 0. -1.
        -11    1    3    3    0    0 -0.11673281887E+02  0.11193459239E+02  0.19627057951E+02  0.25431878496E+02  0.51100000000E-03 0.  1.
        -12    1    3    3    0    0  0.39637287956E+01  0.60235654515E+01  0.11754777952E+02  0.13790188230E+02  0.00000000000E+00 0.  1.
</event>
<event>
 7    1  0.2769403E-010  0.4778727E+02  0.7816164E-02  0.1312668E+00
        -11   -1    0    0    0    0  0.00000000000E+00  0.00000000000E+00  0.45593999997E+02  0.45594000000E+02  0.51100000000E-03 0.  1.
         11   -1    0    0    0    0 -0.00000000000E+00 -0.00000000000E+00 -0.45593999997E+02  0.45594000000E+02  0.51100000000E-03 0. -1.
    9900012    2    1    2    0    0 -0.40188410074E+02  0.82596711923E+01 -0.14152488341E+02  0.47787269607E+02  0.19999993444E+02 0.  0.
         12    1    1    2    0    0  0.40188410074E+02 -0.82596711923E+01  0.14152488341E+02  0.43400730393E+02  0.00000000000E+00 0. -1.
         11    1    3    3    0    0 -0.70801763532E+01  0.75846372365E+01 -0.28374900471E+01  0.10756717400E+02  0.51100000000E-03 0. -1.
        -11    1    3    3    0    0 -0.17796998966E+02  0.29581129039E+01 -0.32221724527E+00  0.18044041354E+02  0.51100000000E-03 0.  1.
        -12    1    3    3    0    0 -0.15311234754E+02 -0.22830789481E+01 -0.10992781048E+02  0.18986510853E+02  0.00000000000E+00 0.  1.
</event>
<event>
 7    1  0.2769403E-010  0.4778727E+02  0.7816164E-02  0.1312668E+00
        -11   -1    0    0    0    0  0.00000000000E+00  0.00000000000E+00  0.45593999997E+02  0.45594000000E+02  0.51100000000E-03 0.  1.
         11   -1    0    0    0    0 -0.00000000000E+00 -0.00000000000E+00 -0.45593999997E+02  0.45594000000E+02  0.51100000000E-03 0. -1.
    9900012    2    1    2    0    0 -0.18314290051E+02  0.13091574729E+02  0.37105533673E+02  0.47787272147E+02  0.20000005028E+02 0.  0.
         12    1    1    2    0    0  0.18314290051E+02 -0.13091574729E+02 -0.37105533673E+02  0.43400727853E+02  0.00000000000E+00 0. -1.
         11    1    3    3    0    0 -0.38796604164E+01  0.74285973984E+01  0.15805295652E+02  0.17889751120E+02  0.51100000000E-03 0. -1.
        -11    1    3    3    0    0 -0.13404246287E+02  0.98478925795E+01  0.17614630451E+02  0.24226638499E+02  0.51100000000E-03 0.  1.
         12    1    3    3    0    0 -0.10303833474E+01 -0.41849152484E+01  0.36856075708E+01  0.56708825279E+01  0.00000000000E+00 0. -1.
</event>
<event>
 7    1  0.2769403E-010  0.4778727E+02  0.7816164E-02  0.1312668E+00
        -11   -1    0    0    0    0  0.00000000000E+00  0.00000000000E+00  0.45593999997E+02  0.45594000000E+02  0.51100000000E-03 0.  1.
         11   -1    0    0    0    0 -0.00000000000E+00 -0.00000000000E+00 -0.45593999997E+02  0.45594000000E+02  0.51100000000E-03 0. -1.
    9900012    2    1    2    0    0 -0.18972592974E+01  0.41363903701E+02  0.13001974266E+02  0.47787268934E+02  0.19999990379E+02 0.  0.
         12    1    1    2    0    0  0.18972592974E+01 -0.41363903701E+02 -0.13001974266E+02  0.43400731066E+02  0.00000000000E+00 0. -1.
         11    1    3    3    0    0 -0.58209415502E+01  0.42946863860E+01  0.12421323717E+01  0.73396583555E+01  0.51100000000E-03 0.  1.
        -11    1    3    3    0    0 -0.23742909646E+01  0.21162376061E+01  0.11265263481E+01  0.33741341207E+01  0.51100000000E-03 0. -1.
        -12    1    3    3    0    0  0.62979732174E+01  0.34952979709E+02  0.10633315546E+02  0.37073476458E+02  0.00000000000E+00 0.  1.
</event>
<event>
 7    1  0.2769403E-010  0.4778727E+02  0.7816164E-02  0.1312668E+00
        -11   -1    0    0    0    0  0.00000000000E+00  0.00000000000E+00  0.45593999997E+02  0.45594000000E+02  0.51100000000E-03 0. -1.
         11   -1    0    0    0    0 -0.00000000000E+00 -0.00000000000E+00 -0.45593999997E+02  0.45594000000E+02  0.51100000000E-03 0.  1.
    9900012    2    1    2    0    0  0.27825921340E+02  0.26324406703E+01  0.33202580133E+02  0.47787274548E+02  0.20000015974E+02 0.  0.
         12    1    1    2    0    0 -0.27825921340E+02 -0.26324406703E+01 -0.33202580133E+02  0.43400725452E+02  0.00000000000E+00 0. -1.
         11    1    3    3    0    0 -0.38283539148E+00 -0.15804858663E+01  0.38431768600E+01  0.41730692719E+01  0.51100000000E-03 0. -1.
        -11    1    3    3    0    0  0.10277215238E+02  0.89642856422E+01  0.13812805668E+02  0.19410645812E+02  0.51100000000E-03 0.  1.
        -12    1    3    3    0    0  0.17931541493E+02 -0.47513591057E+01  0.15546597604E+02  0.24203559464E+02  0.00000000000E+00 0.  1.
</event>
<event>
 7    1  0.2769403E-010  0.4778727E+02  0.7816164E-02  0.1312668E+00
        -11   -1    0    0    0    0  0.00000000000E+00  0.00000000000E+00  0.45593999997E+02  0.45594000000E+02  0.51100000000E-03 0. -1.
         11   -1    0    0    0    0 -0.00000000000E+00 -0.00000000000E+00 -0.45593999997E+02  0.45594000000E+02  0.51100000000E-03 0.  1.
    9900012    2    1    2    0    0  0.20165696597E+02 -0.29109445148E+02 -0.25091995743E+02  0.47787269979E+02  0.19999995140E+02 0.  0.
         12    1    1    2    0    0 -0.20165696597E+02  0.29109445148E+02  0.25091995743E+02  0.43400730021E+02  0.00000000000E+00 0. -1.
         11    1    3    3    0    0  0.10506855929E+02 -0.16390414516E+02 -0.94521377971E+01  0.21642149124E+02  0.51100000000E-03 0.  1.
        -11    1    3    3    0    0  0.36703339450E+01  0.21744125246E+01 -0.61904121928E+01  0.75180199836E+01  0.51100000000E-03 0. -1.
         12    1    3    3    0    0  0.59885067233E+01 -0.14893443156E+02 -0.94494457527E+01  0.18627100871E+02  0.00000000000E+00 0. -1.
</event>
<event>
 7    1  0.2916732E-010  0.4778728E+02  0.7816164E-02  0.1312668E+00
        -11   -1    0    0    0    0  0.00000000000E+00  0.00000000000E+00  0.45593999997E+02  0.45594000000E+02  0.51100000000E-03 0. -1.
         11   -1    0    0    0    0 -0.00000000000E+00 -0.00000000000E+00 -0.45593999997E+02  0.45594000000E+02  0.51100000000E-03 0.  1.
    9900012    2    1    2    0    0 -0.26692185997E+02 -0.21796639036E+01 -0.34152584346E+02  0.47787277131E+02  0.20000027749E+02 0.  0.
         12    1    1    2    0    0  0.26692185997E+02  0.21796639036E+01  0.34152584346E+02  0.43400722869E+02  0.00000000000E+00 0. -1.
         11    1    3    3    0    0 -0.12013142900E+02  0.21008193581E+01 -0.54269390644E+01  0.13348434821E+02  0.51100000000E-03 0. -1.
        -11    1    3    3    0    0 -0.46673014260E+01  0.36856649080E+01 -0.11879340709E+02  0.13284824589E+02  0.51100000000E-03 0.  1.
         12    1    3    3    0    0 -0.10011741672E+02 -0.79661481698E+01 -0.16846304573E+02  0.21154017721E+02  0.00000000000E+00 0. -1.
</event>
<event>
 7    1  0.2769403E-010  0.4778730E+02  0.7816164E-02  0.1312668E+00
        -11   -1    0    0    0    0  0.00000000000E+00  0.00000000000E+00  0.45593999997E+02  0.45594000000E+02  0.51100000000E-03 0. -1.
         11   -1    0    0    0    0 -0.00000000000E+00 -0.00000000000E+00 -0.45593999997E+02  0.45594000000E+02  0.51100000000E-03 0.  1.
    9900012    2    1    2    0    0  0.31151056124E+02 -0.71753394552E+01 -0.29355533509E+02  0.47787295610E+02  0.20000112005E+02 0.  0.
         12    1    1    2    0    0 -0.31151056124E+02  0.71753394552E+01  0.29355533509E+02  0.43400704390E+02  0.00000000000E+00 0. -1.
         11    1    3    3    0    0  0.74692907386E+00  0.28822827223E+01  0.33229714917E+00  0.29959770342E+01  0.51100000000E-03 0. -1.
        -11    1    3    3    0    0  0.60937014067E+00  0.14693671497E+01 -0.15116518254E+01  0.21944163897E+01  0.51100000000E-03 0.  1.
        -12    1    3    3    0    0  0.29794756909E+02 -0.11526989327E+02 -0.28176178833E+02  0.42596902186E+02  0.00000000000E+00 0.  1.
</event>
<event>
 7    1  0.2769403E-010  0.4778726E+02  0.7816164E-02  0.1312668E+00
        -11   -1    0    0    0    0  0.00000000000E+00  0.00000000000E+00  0.45593999997E+02  0.45594000000E+02  0.51100000000E-03 0.  1.
         11   -1    0    0    0    0 -0.00000000000E+00 -0.00000000000E+00 -0.45593999997E+02  0.45594000000E+02  0.51100000000E-03 0. -1.
    9900012    2    1    2    0    0 -0.48875211627E+01 -0.18734645057E+02  0.38842623326E+02  0.47787260659E+02  0.19999952647E+02 0.  0.
         12    1    1    2    0    0  0.48875211627E+01  0.18734645057E+02 -0.38842623326E+02  0.43400739341E+02  0.00000000000E+00 0. -1.
         11    1    3    3    0    0 -0.89798848675E+01 -0.10640289901E+02  0.13776479449E+02  0.19586870288E+02  0.51100000000E-03 0. -1.
        -11    1    3    3    0    0 -0.32203548474E+00  0.15614871241E+01  0.96324371207E+00  0.18627365896E+01  0.51100000000E-03 0.  1.
        -12    1    3    3    0    0  0.44143991895E+01 -0.96558422804E+01  0.24102900165E+02  0.26337653781E+02  0.00000000000E+00 0.  1.
</event>
<event>
 7    1  0.2769403E-010  0.4778727E+02  0.7816164E-02  0.1312668E+00
        -11   -1    0    0    0    0  0.00000000000E+00  0.00000000000E+00  0.45593999997E+02  0.45594000000E+02  0.51100000000E-03 0. -1.
         11   -1    0    0    0    0 -0.00000000000E+00 -0.00000000000E+00 -0.45593999997E+02  0.45594000000E+02  0.51100000000E-03 0.  1.
    9900012    2    1    2    0    0  0.25268860221E+02 -0.19991562090E+02 -0.29076542962E+02  0.47787271869E+02  0.20000003760E+02 0.  0.
         12    1    1    2    0    0 -0.25268860221E+02  0.19991562090E+02  0.29076542962E+02  0.43400728131E+02  0.00000000000E+00 0. -1.
         11    1    3    3    0    0  0.68880833170E+01 -0.26367448958E+01 -0.56295107477E+01  0.92784431316E+01  0.51100000000E-03 0. -1.
        -11    1    3    3    0    0  0.12883379971E+02 -0.23876610788E+01 -0.16620309877E+02  0.21164052201E+02  0.51100000000E-03 0.  1.
         12    1    3    3    0    0  0.54973969330E+01 -0.14967156115E+02 -0.68267223374E+01  0.17344776536E+02  0.00000000000E+00 0. -1.
</event>
<event>
 7    1  0.2769403E-010  0.4778728E+02  0.7816164E-02  0.1312668E+00
        -11   -1    0    0    0    0  0.00000000000E+00  0.00000000000E+00  0.45593999997E+02  0.45594000000E+02  0.51100000000E-03 0. -1.
         11   -1    0    0    0    0 -0.00000000000E+00 -0.00000000000E+00 -0.45593999997E+02  0.45594000000E+02  0.51100000000E-03 0.  1.
    9900012    2    1    2    0    0 -0.12410482763E+02  0.36060824802E+02  0.20717619094E+02  0.47787275251E+02  0.20000019180E+02 0.  0.
         12    1    1    2    0    0  0.12410482763E+02 -0.36060824802E+02 -0.20717619094E+02  0.43400724749E+02  0.00000000000E+00 0. -1.
         11    1    3    3    0    0 -0.52580743636E+01  0.27672936402E+01  0.40207816364E+01  0.71743951197E+01  0.51100000000E-03 0. -1.
        -11    1    3    3    0    0 -0.81120388265E+01  0.17143384086E+02  0.15311499152E+02  0.24375044582E+02  0.51100000000E-03 0.  1.
        -12    1    3    3    0    0  0.95963042679E+00  0.16150147075E+02  0.13853383061E+01  0.16237835549E+02  0.00000000000E+00 0.  1.
</event>
<event>
 7    1  0.2769403E-010  0.4778727E+02  0.7816164E-02  0.1312668E+00
        -11   -1    0    0    0    0  0.00000000000E+00  0.00000000000E+00  0.45593999997E+02  0.45594000000E+02  0.51100000000E-03 0. -1.
         11   -1    0    0    0    0 -0.00000000000E+00 -0.00000000000E+00 -0.45593999997E+02  0.45594000000E+02  0.51100000000E-03 0.  1.
    9900012    2    1    2    0    0  0.20109148761E+02 -0.11411724479E+02 -0.36728981559E+02  0.47787269524E+02  0.19999993069E+02 0.  0.
         12    1    1    2    0    0 -0.20109148761E+02  0.11411724479E+02  0.36728981559E+02  0.43400730476E+02  0.00000000000E+00 0. -1.
         11    1    3    3    0    0 -0.16499298995E+00  0.16169860487E+01 -0.37304059830E+01  0.40691271333E+01  0.51100000000E-03 0. -1.
        -11    1    3    3    0    0  0.22559147131E+02 -0.12187321839E+02 -0.26954616285E+02  0.37202113814E+02  0.51100000000E-03 0.  1.
        -12    1    3    3    0    0 -0.22850053794E+01 -0.84138868860E+00 -0.60439592910E+01  0.65160285773E+01  0.00000000000E+00 0.  1.
</event>
<event>
 7    1  0.2769403E-010  0.4778727E+02  0.7816164E-02  0.1312668E+00
        -11   -1    0    0    0    0  0.00000000000E+00  0.00000000000E+00  0.45593999997E+02  0.45594000000E+02  0.51100000000E-03 0.  1.
         11   -1    0    0    0    0 -0.00000000000E+00 -0.00000000000E+00 -0.45593999997E+02  0.45594000000E+02  0.51100000000E-03 0. -1.
    9900012    2    1    2    0    0 -0.56470793255E+01  0.11483835359E+02  0.41471134457E+02  0.47787274515E+02  0.20000015825E+02 0.  0.
         12    1    1    2    0    0  0.56470793255E+01 -0.11483835359E+02 -0.41471134457E+02  0.43400725485E+02  0.00000000000E+00 0. -1.
         11    1    3    3    0    0 -0.30121242007E+01  0.87411746316E+01  0.88794385680E+01  0.12818949087E+02  0.51100000000E-03 0. -1.
        -11    1    3    3    0    0 -0.39286727707E+01  0.63991143596E+01  0.27838937909E+02  0.28833827330E+02  0.51100000000E-03 0.  1.
         12    1    3    3    0    0  0.12937176458E+01 -0.36564536323E+01  0.47527579800E+01  0.61344980992E+01  0.00000000000E+00 0. -1.
</event>
<event>
 7    1  0.2769403E-010  0.4778727E+02  0.7816164E-02  0.1312668E+00
        -11   -1    0    0    0    0  0.00000000000E+00  0.00000000000E+00  0.45593999997E+02  0.45594000000E+02  0.51100000000E-03 0.  1.
         11   -1    0    0    0    0 -0.00000000000E+00 -0.00000000000E+00 -0.45593999997E+02  0.45594000000E+02  0.51100000000E-03 0. -1.
    9900012    2    1    2    0    0 -0.98581269104E+01  0.86930716470E+00  0.42257365447E+02  0.47787270793E+02  0.19999998854E+02 0.  0.
         12    1    1    2    0    0  0.98581269104E+01 -0.86930716470E+00 -0.42257365447E+02  0.43400729207E+02  0.00000000000E+00 0. -1.
         11    1    3    3    0    0 -0.25493687966E+01 -0.19972514344E+00 -0.79443858761E+00  0.26777423933E+01  0.51100000000E-03 0. -1.
        -11    1    3    3    0    0  0.20722637044E+01  0.13912709190E+01  0.26857737734E+01  0.36665096009E+01  0.51100000000E-03 0.  1.
        -12    1    3    3    0    0 -0.93810218182E+01 -0.32223861084E+00  0.40366030262E+02  0.41443018799E+02  0.00000000000E+00 0.  1.
</event>
<event>
 7    1  0.2769403E-010  0.4778727E+02  0.7816164E-02  0.1312668E+00
        -11   -1    0    0    0    0  0.00000000000E+00  0.00000000000E+00  0.45593999997E+02  0.45594000000E+02  0.51100000000E-03 0. -1.
         11   -1    0    0    0    0 -0.00000000000E+00 -0.00000000000E+00 -0.45593999997E+02  0.45594000000E+02  0.51100000000E-03 0.  1.
    9900012    2    1    2    0    0 -0.16006237414E+02  0.13005256758E+02  0.38187520970E+02  0.47787273078E+02  0.20000009273E+02 0.  0.
         12    1    1    2    0    0  0.16006237414E+02 -0.13005256758E+02 -0.38187520970E+02  0.43400726922E+02  0.00000000000E+00 0. -1.
         11    1    3    3    0    0 -0.73181033327E+01  0.24057647664E+00  0.70238497262E+01  0.10146279055E+02  0.51100000000E-03 0. -1.
        -11    1    3    3    0    0 -0.99554875884E+01  0.89114081003E+01  0.11702472575E+02  0.17761553763E+02  0.51100000000E-03 0.  1.
         12    1    3    3    0    0  0.12673535072E+01  0.38532721813E+01  0.19461198669E+02  0.19879440260E+02  0.00000000000E+00 0. -1.
</event>
<event>
 7    1  0.2769403E-010  0.4778727E+02  0.7816164E-02  0.1312668E+00
        -11   -1    0    0    0    0  0.00000000000E+00  0.00000000000E+00  0.45593999997E+02  0.45594000000E+02  0.51100000000E-03 0.  1.
         11   -1    0    0    0    0 -0.00000000000E+00 -0.00000000000E+00 -0.45593999997E+02  0.45594000000E+02  0.51100000000E-03 0. -1.
    9900012    2    1    2    0    0 -0.78378202597E+01 -0.27433826207E+02  0.32704390579E+02  0.47787269477E+02  0.19999992855E+02 0.  0.
         12    1    1    2    0    0  0.78378202597E+01  0.27433826207E+02 -0.32704390579E+02  0.43400730523E+02  0.00000000000E+00 0. -1.
         11    1    3    3    0    0 -0.49434797318E+01 -0.20842529790E+02  0.13139584055E+02  0.25129618169E+02  0.51100000000E-03 0.  1.
        -11    1    3    3    0    0  0.15021794143E+01 -0.46628094912E+01  0.38641291126E+01  0.62393773251E+01  0.51100000000E-03 0. -1.
        -12    1    3    3    0    0 -0.43965199422E+01 -0.19284869257E+01  0.15700677411E+02  0.16418273984E+02  0.00000000000E+00 0.  1.
</event>
<event>
 7    1  0.2769403E-010  0.4778727E+02  0.7816164E-02  0.1312668E+00
        -11   -1    0    0    0    0  0.00000000000E+00  0.00000000000E+00  0.45593999997E+02  0.45594000000E+02  0.51100000000E-03 0.  1.
         11   -1    0    0    0    0 -0.00000000000E+00 -0.00000000000E+00 -0.45593999997E+02  0.45594000000E+02  0.51100000000E-03 0. -1.
    9900012    2    1    2    0    0 -0.27635004419E+02  0.60278193537E+01  0.32918013293E+02  0.47787266429E+02  0.19999978954E+02 0.  0.
         12    1    1    2    0    0  0.27635004419E+02 -0.60278193537E+01 -0.32918013293E+02  0.43400733571E+02  0.00000000000E+00 0. -1.
         11    1    3    3    0    0 -0.10831351445E+02 -0.14586723245E+01  0.95946861137E+01  0.14543173689E+02  0.51100000000E-03 0. -1.
        -11    1    3    3    0    0 -0.13852766385E+02 -0.97168160343E+00  0.18303871949E+02  0.22975531120E+02  0.51100000000E-03 0.  1.
        -12    1    3    3    0    0 -0.29508865894E+01  0.84581732817E+01  0.50194552295E+01  0.10268561619E+02  0.00000000000E+00 0.  1.
</event>
<event>
 7    1  0.2769403E-010  0.4778723E+02  0.7816164E-02  0.1312668E+00
        -11   -1    0    0    0    0  0.00000000000E+00  0.00000000000E+00  0.45593999997E+02  0.45594000000E+02  0.51100000000E-03 0.  1.
         11   -1    0    0    0    0 -0.00000000000E+00 -0.00000000000E+00 -0.45593999997E+02  0.45594000000E+02  0.51100000000E-03 0. -1.
    9900012    2    1    2    0    0 -0.39118017096E+02  0.91155532851E+01  0.16441223991E+02  0.47787234805E+02  0.19999834768E+02 0.  0.
         12    1    1    2    0    0  0.39118017096E+02 -0.91155532851E+01 -0.16441223991E+02  0.43400765195E+02  0.00000000000E+00 0. -1.
         11    1    3    3    0    0  0.80266038368E-01  0.49174606606E+00  0.46222070764E+00  0.67963598646E+00  0.51100000000E-03 0. -1.
        -11    1    3    3    0    0 -0.19767330583E+02 -0.38287818644E+01  0.12678760739E+02  0.23794072856E+02  0.51100000000E-03 0.  1.
         12    1    3    3    0    0 -0.19430952552E+02  0.12452589083E+02  0.33002425442E+01  0.23313525962E+02  0.00000000000E+00 0. -1.
</event>
<event>
 7    1  0.2769403E-010  0.4778728E+02  0.7816164E-02  0.1312668E+00
        -11   -1    0    0    0    0  0.00000000000E+00  0.00000000000E+00  0.45593999997E+02  0.45594000000E+02  0.51100000000E-03 0.  1.
         11   -1    0    0    0    0 -0.00000000000E+00 -0.00000000000E+00 -0.45593999997E+02  0.45594000000E+02  0.51100000000E-03 0. -1.
    9900012    2    1    2    0    0 -0.20882407963E+02 -0.26766230216E+02  0.27039172473E+02  0.47787275463E+02  0.20000020144E+02 0.  0.
         12    1    1    2    0    0  0.20882407963E+02  0.26766230216E+02 -0.27039172473E+02  0.43400724537E+02  0.00000000000E+00 0. -1.
         11    1    3    3    0    0 -0.83517548068E+01 -0.15438382681E+02  0.39434909079E+01  0.17990180348E+02  0.51100000000E-03 0. -1.
        -11    1    3    3    0    0 -0.86970852981E+01 -0.29712073563E+01  0.83350517002E+01  0.12407274195E+02  0.51100000000E-03 0.  1.
        -12    1    3    3    0    0 -0.38335678585E+01 -0.83566401791E+01  0.14760629865E+02  0.17389820920E+02  0.00000000000E+00 0.  1.
</event>
<event>
 7    1  0.2769403E-010  0.4778727E+02  0.7816164E-02  0.1312668E+00
        -11   -1    0    0    0    0  0.00000000000E+00  0.00000000000E+00  0.45593999997E+02  0.45594000000E+02  0.51100000000E-03 0.  1.
         11   -1    0    0    0    0 -0.00000000000E+00 -0.00000000000E+00 -0.45593999997E+02  0.45594000000E+02  0.51100000000E-03 0. -1.
    9900012    2    1    2    0    0  0.41526871314E+01  0.41715963154E+02 -0.11231962067E+02  0.47787270004E+02  0.19999995258E+02 0.  0.
         12    1    1    2    0    0 -0.41526871314E+01 -0.41715963154E+02  0.11231962067E+02  0.43400729996E+02  0.00000000000E+00 0. -1.
         11    1    3    3    0    0  0.12197965391E+01  0.11603872025E+02 -0.26978093714E+00  0.11670926766E+02  0.51100000000E-03 0. -1.
        -11    1    3    3    0    0 -0.22497633429E+01  0.22512882048E+02 -0.11313030207E+01  0.22653280998E+02  0.51100000000E-03 0.  1.
         12    1    3    3    0    0  0.51826539352E+01  0.75992090814E+01 -0.98308781095E+01  0.13463062240E+02  0.00000000000E+00 0. -1.
</event>
<event>
 7    1  0.2769403E-010  0.4778727E+02  0.7816164E-02  0.1312668E+00
        -11   -1    0    0    0    0  0.00000000000E+00  0.00000000000E+00  0.45593999997E+02  0.45594000000E+02  0.51100000000E-03 0.  1.
         11   -1    0    0    0    0 -0.00000000000E+00 -0.00000000000E+00 -0.45593999997E+02  0.45594000000E+02  0.51100000000E-03 0. -1.
    9900012    2    1    2    0    0  0.93600832073E+00 -0.23630797446E+02  0.36391378288E+02  0.47787272895E+02  0.20000008439E+02 0.  0.
         12    1    1    2    0    0 -0.93600832073E+00  0.23630797446E+02 -0.36391378288E+02  0.43400727105E+02  0.00000000000E+00 0. -1.
         11    1    3    3    0    0 -0.46030611094E+01 -0.71127400625E+00  0.44396419591E+01  0.64346331111E+01  0.51100000000E-03 0. -1.
        -11    1    3    3    0    0 -0.26602717118E+01 -0.12301493744E+01  0.50320661516E+01  0.58234013325E+01  0.51100000000E-03 0.  1.
        -12    1    3    3    0    0  0.81993411419E+01 -0.21689374065E+02  0.26919670177E+02  0.35529238452E+02  0.00000000000E+00 0.  1.
</event>
<event>
 7    1  0.2769403E-010  0.4778727E+02  0.7816164E-02  0.1312668E+00
        -11   -1    0    0    0    0  0.00000000000E+00  0.00000000000E+00  0.45593999997E+02  0.45594000000E+02  0.51100000000E-03 0. -1.
         11   -1    0    0    0    0 -0.00000000000E+00 -0.00000000000E+00 -0.45593999997E+02  0.45594000000E+02  0.51100000000E-03 0.  1.
    9900012    2    1    2    0    0  0.15919337884E+01 -0.43331775602E+02 -0.18564530130E+01  0.47787269041E+02  0.19999990867E+02 0.  0.
         12    1    1    2    0    0 -0.15919337884E+01  0.43331775602E+02  0.18564530130E+01  0.43400730959E+02  0.00000000000E+00 0. -1.
         11    1    3    3    0    0  0.32324252687E+01 -0.46724556167E+01  0.24556353597E+01  0.61895524788E+01  0.51100000000E-03 0. -1.
        -11    1    3    3    0    0 -0.63348599887E+01 -0.21622418394E+02  0.24761797235E+01  0.22666956006E+02  0.51100000000E-03 0.  1.
         12    1    3    3    0    0  0.46943685084E+01 -0.17036901591E+02 -0.67882680962E+01  0.18930760556E+02  0.00000000000E+00 0. -1.
</event>
<event>
 7    1  0.2769403E-010  0.4778727E+02  0.7816164E-02  0.1312668E+00
        -11   -1    0    0    0    0  0.00000000000E+00  0.00000000000E+00  0.45593999997E+02  0.45594000000E+02  0.51100000000E-03 0.  1.
         11   -1    0    0    0    0 -0.00000000000E+00 -0.00000000000E+00 -0.45593999997E+02  0.45594000000E+02  0.51100000000E-03 0. -1.
    9900012    2    1    2    0    0 -0.19945120108E+02 -0.22185704447E+02  0.31521574906E+02  0.47787274401E+02  0.20000015305E+02 0.  0.
         12    1    1    2    0    0  0.19945120108E+02  0.22185704447E+02 -0.31521574906E+02  0.43400725599E+02  0.00000000000E+00 0. -1.
         11    1    3    3    0    0 -0.22972280131E+01  0.13895296414E+01  0.57874665541E+01  0.63798760603E+01  0.51100000000E-03 0. -1.
        -11    1    3    3    0    0 -0.18486979094E+02 -0.17177332933E+02  0.16532385598E+02  0.30168674756E+02  0.51100000000E-03 0.  1.
        -12    1    3    3    0    0  0.83908699829E+00 -0.63979011550E+01  0.92017227545E+01  0.11238723585E+02  0.00000000000E+00 0.  1.
</event>
<event>
 7    1  0.2769403E-010  0.4778727E+02  0.7816164E-02  0.1312668E+00
        -11   -1    0    0    0    0  0.00000000000E+00  0.00000000000E+00  0.45593999997E+02  0.45594000000E+02  0.51100000000E-03 0.  1.
         11   -1    0    0    0    0 -0.00000000000E+00 -0.00000000000E+00 -0.45593999997E+02  0.45594000000E+02  0.51100000000E-03 0. -1.
    9900012    2    1    2    0    0 -0.32126623753E+01 -0.54973588111E+01  0.42931125514E+02  0.47787266235E+02  0.19999978072E+02 0.  0.
         12    1    1    2    0    0  0.32126623753E+01  0.54973588111E+01 -0.42931125514E+02  0.43400733765E+02  0.00000000000E+00 0. -1.
         11    1    3    3    0    0 -0.20686841680E+01 -0.84212840571E-01 -0.10606314214E+01  0.23262599301E+01  0.51100000000E-03 0. -1.
        -11    1    3    3    0    0 -0.59022283218E+00 -0.57686044269E+01  0.10762569278E+02  0.12225303994E+02  0.51100000000E-03 0.  1.
        -12    1    3    3    0    0 -0.55375537507E+00  0.35545845631E+00  0.33229187657E+02  0.33235702311E+02  0.00000000000E+00 0.  1.
</event>
<event>
 7    1  0.2769403E-010  0.4778727E+02  0.7816164E-02  0.1312668E+00
        -11   -1    0    0    0    0  0.00000000000E+00  0.00000000000E+00  0.45593999997E+02  0.45594000000E+02  0.51100000000E-03 0. -1.
         11   -1    0    0    0    0 -0.00000000000E+00 -0.00000000000E+00 -0.45593999997E+02  0.45594000000E+02  0.51100000000E-03 0.  1.
    9900012    2    1    2    0    0 -0.89934675549E+00  0.41835048868E+02  0.11517088113E+02  0.47787268935E+02  0.19999990381E+02 0.  0.
         12    1    1    2    0    0  0.89934675549E+00 -0.41835048868E+02 -0.11517088113E+02  0.43400731065E+02  0.00000000000E+00 0. -1.
         11    1    3    3    0    0  0.10833486743E+01  0.15190878191E+02 -0.31135318377E+01  0.15544468641E+02  0.51100000000E-03 0.  1.
        -11    1    3    3    0    0 -0.42479251337E+01  0.36103697741E+01  0.24686089529E+01  0.60970212621E+01  0.51100000000E-03 0. -1.
        -12    1    3    3    0    0  0.22652297039E+01  0.23033800903E+02  0.12162010998E+02  0.26145779031E+02  0.00000000000E+00 0.  1.
</event>
<event>
 7    1  0.2769403E-010  0.4778727E+02  0.7816164E-02  0.1312668E+00
        -11   -1    0    0    0    0  0.00000000000E+00  0.00000000000E+00  0.45593999997E+02  0.45594000000E+02  0.51100000000E-03 0.  1.
         11   -1    0    0    0    0 -0.00000000000E+00 -0.00000000000E+00 -0.45593999997E+02  0.45594000000E+02  0.51100000000E-03 0. -1.
    9900012    2    1    2    0    0  0.36144321098E+02 -0.10845803570E+02  0.21437809463E+02  0.47787273309E+02  0.20000010326E+02 0.  0.
         12    1    1    2    0    0 -0.36144321098E+02  0.10845803570E+02 -0.21437809463E+02  0.43400726691E+02  0.00000000000E+00 0. -1.
         11    1    3    3    0    0  0.18806961356E+01 -0.46900959276E+01  0.33577771989E+01  0.60670162141E+01  0.51100000000E-03 0. -1.
        -11    1    3    3    0    0  0.66904169352E+01 -0.48418318419E+01 -0.76892342175E+00  0.82943509597E+01  0.51100000000E-03 0.  1.
         12    1    3    3    0    0  0.27573208027E+02 -0.13138758005E+01  0.18848955686E+02  0.33425906135E+02  0.00000000000E+00 0. -1.
</event>
<event>
 7    1  0.2769403E-010  0.4778727E+02  0.7816164E-02  0.1312668E+00
        -11   -1    0    0    0    0  0.00000000000E+00  0.00000000000E+00  0.45593999997E+02  0.45594000000E+02  0.51100000000E-03 0.  1.
         11   -1    0    0    0    0 -0.00000000000E+00 -0.00000000000E+00 -0.45593999997E+02  0.45594000000E+02  0.51100000000E-03 0. -1.
    9900012    2    1    2    0    0 -0.91443009958E+01 -0.25852269412E+02  0.33640230420E+02  0.47787272159E+02  0.20000005081E+02 0.  0.
         12    1    1    2    0    0  0.91443009958E+01  0.25852269412E+02 -0.33640230420E+02  0.43400727841E+02  0.00000000000E+00 0. -1.
         11    1    3    3    0    0 -0.19808778122E+01 -0.14421034490E+02  0.16263497209E+02  0.21826393527E+02  0.51100000000E-03 0. -1.
        -11    1    3    3    0    0 -0.69902469838E+01 -0.11306960600E+02  0.19624518778E+02  0.23703009270E+02  0.51100000000E-03 0.  1.
         12    1    3    3    0    0 -0.17317619980E+00 -0.12427432102E+00 -0.22477855667E+01  0.22578693622E+01  0.00000000000E+00 0. -1.
</event>
<event>
 7    1  0.2769403E-010  0.4778727E+02  0.7816164E-02  0.1312668E+00
        -11   -1    0    0    0    0  0.00000000000E+00  0.00000000000E+00  0.45593999997E+02  0.45594000000E+02  0.51100000000E-03 0.  1.
         11   -1    0    0    0    0 -0.00000000000E+00 -0.00000000000E+00 -0.45593999997E+02  0.45594000000E+02  0.51100000000E-03 0. -1.
    9900012    2    1    2    0    0  0.37707547215E+02 -0.21486247593E+02  0.32439734214E+00  0.47787272054E+02  0.20000004604E+02 0.  0.
         12    1    1    2    0    0 -0.37707547215E+02  0.21486247593E+02 -0.32439734214E+00  0.43400727946E+02  0.00000000000E+00 0. -1.
         11    1    3    3    0    0  0.60180331665E+01 -0.82115691605E+01 -0.32690882768E+01  0.10692685804E+02  0.51100000000E-03 0. -1.
        -11    1    3    3    0    0  0.31263882718E+02 -0.15319372068E+02  0.36428108249E+01  0.35005479487E+02  0.51100000000E-03 0.  1.
         12    1    3    3    0    0  0.42563133050E+00  0.20446936356E+01 -0.49325206000E-01  0.20891067634E+01  0.00000000000E+00 0. -1.
</event>
<event>
 7    1  0.2769403E-010  0.4778727E+02  0.7816164E-02  0.1312668E+00
        -11   -1    0    0    0    0  0.00000000000E+00  0.00000000000E+00  0.45593999997E+02  0.45594000000E+02  0.51100000000E-03 0. -1.
         11   -1    0    0    0    0 -0.00000000000E+00 -0.00000000000E+00 -0.45593999997E+02  0.45594000000E+02  0.51100000000E-03 0.  1.
    9900012    2    1    2    0    0  0.28037392502E+02  0.71809535709E-01  0.33128882000E+02  0.47787270081E+02  0.19999995610E+02 0.  0.
         12    1    1    2    0    0 -0.28037392502E+02 -0.71809535709E-01 -0.33128882000E+02  0.43400729919E+02  0.00000000000E+00 0. -1.
         11    1    3    3    0    0  0.77887751501E+01 -0.27886045779E+01  0.11789423537E+02  0.14402494278E+02  0.51100000000E-03 0. -1.
        -11    1    3    3    0    0  0.18310767348E+02 -0.24651088501E+01  0.20596640149E+02  0.27669162405E+02  0.51100000000E-03 0.  1.
         12    1    3    3    0    0  0.19378500032E+01  0.53255229637E+01  0.74281831408E+00  0.57156133983E+01  0.00000000000E+00 0. -1.
</event>
<event>
 7    1  0.2769403E-010  0.4778727E+02  0.7816164E-02  0.1312668E+00
        -11   -1    0    0    0    0  0.00000000000E+00  0.00000000000E+00  0.45593999997E+02  0.45594000000E+02  0.51100000000E-03 0. -1.
         11   -1    0    0    0    0 -0.00000000000E+00 -0.00000000000E+00 -0.45593999997E+02  0.45594000000E+02  0.51100000000E-03 0.  1.
    9900012    2    1    2    0    0 -0.95034383263E+00  0.30262310477E+02  0.31095219910E+02  0.47787270858E+02  0.19999999151E+02 0.  0.
         12    1    1    2    0    0  0.95034383263E+00 -0.30262310477E+02 -0.31095219910E+02  0.43400729142E+02  0.00000000000E+00 0. -1.
         11    1    3    3    0    0  0.31224135593E+01  0.23573611936E+01  0.78507195161E+01  0.87715685835E+01  0.51100000000E-03 0. -1.
        -11    1    3    3    0    0  0.27732609136E+01  0.87374059512E+01  0.13825501004E+02  0.16588481459E+02  0.51100000000E-03 0.  1.
        -12    1    3    3    0    0 -0.68460183055E+01  0.19167543332E+02  0.94189993904E+01  0.22427220816E+02  0.00000000000E+00 0.  1.
</event>
<event>
 7    1  0.3094336E-010  0.4778727E+02  0.7816164E-02  0.1312668E+00
        -11   -1    0    0    0    0  0.00000000000E+00  0.00000000000E+00  0.45593999997E+02  0.45594000000E+02  0.51100000000E-03 0. -1.
         11   -1    0    0    0    0 -0.00000000000E+00 -0.00000000000E+00 -0.45593999997E+02  0.45594000000E+02  0.51100000000E-03 0.  1.
    9900012    2    1    2    0    0  0.67063867517E+01  0.13629749233E+01 -0.42857785002E+02  0.47787273517E+02  0.20000011275E+02 0.  0.
         12    1    1    2    0    0 -0.67063867517E+01 -0.13629749233E+01  0.42857785002E+02  0.43400726483E+02  0.00000000000E+00 0. -1.
         11    1    3    3    0    0 -0.39091136938E+01 -0.27444642457E+00 -0.83287028887E+01  0.92045522857E+01  0.51100000000E-03 0. -1.
        -11    1    3    3    0    0  0.41307860291E+01 -0.26310824501E+01 -0.28039803002E+02  0.28464302920E+02  0.51100000000E-03 0.  1.
         12    1    3    3    0    0  0.64847144164E+01  0.42685037979E+01 -0.64892791117E+01  0.10118418311E+02  0.00000000000E+00 0. -1.
</event>
<event>
 7    1  0.2769403E-010  0.4778727E+02  0.7816164E-02  0.1312668E+00
        -11   -1    0    0    0    0  0.00000000000E+00  0.00000000000E+00  0.45593999997E+02  0.45594000000E+02  0.51100000000E-03 0.  1.
         11   -1    0    0    0    0 -0.00000000000E+00 -0.00000000000E+00 -0.45593999997E+02  0.45594000000E+02  0.51100000000E-03 0. -1.
    9900012    2    1    2    0    0  0.99169613761E+01 -0.56296894351E+01  0.41875815031E+02  0.47787269470E+02  0.19999992821E+02 0.  0.
         12    1    1    2    0    0 -0.99169613761E+01  0.56296894351E+01 -0.41875815031E+02  0.43400730530E+02  0.00000000000E+00 0. -1.
         11    1    3    3    0    0  0.29535300995E+01  0.10047348533E+01  0.47062061974E+01  0.56463447652E+01  0.51100000000E-03 0.  1.
        -11    1    3    3    0    0  0.99463052477E+00  0.57730872076E+01  0.83352957804E+01  0.10187982224E+02  0.51100000000E-03 0. -1.
         12    1    3    3    0    0  0.59688007517E+01 -0.12407511496E+02  0.28834313053E+02  0.31952942481E+02  0.00000000000E+00 0. -1.
</event>
<event>
 7    1  0.2769403E-010  0.4778727E+02  0.7816164E-02  0.1312668E+00
        -11   -1    0    0    0    0  0.00000000000E+00  0.00000000000E+00  0.45593999997E+02  0.45594000000E+02  0.51100000000E-03 0.  1.
         11   -1    0    0    0    0 -0.00000000000E+00 -0.00000000000E+00 -0.45593999997E+02  0.45594000000E+02  0.51100000000E-03 0. -1.
    9900012    2    1    2    0    0 -0.32335449668E+02 -0.28943884321E+02  0.54163350413E+00  0.47787272913E+02  0.20000008521E+02 0.  0.
         12    1    1    2    0    0  0.32335449668E+02  0.28943884321E+02 -0.54163350413E+00  0.43400727087E+02  0.00000000000E+00 0. -1.
         11    1    3    3    0    0 -0.28662813164E+01  0.56867151902E+00 -0.34895928259E+01  0.45515068091E+01  0.51100000000E-03 0. -1.
        -11    1    3    3    0    0 -0.88630023955E+01 -0.43591251509E+01  0.41649106769E+01  0.10719200752E+02  0.51100000000E-03 0.  1.
        -12    1    3    3    0    0 -0.20606165956E+02 -0.25153430689E+02 -0.13368434682E+00  0.32516565353E+02  0.00000000000E+00 0.  1.
</event>
<event>
 7    1  0.2769403E-010  0.4778727E+02  0.7816164E-02  0.1312668E+00
        -11   -1    0    0    0    0  0.00000000000E+00  0.00000000000E+00  0.45593999997E+02  0.45594000000E+02  0.51100000000E-03 0.  1.
         11   -1    0    0    0    0 -0.00000000000E+00 -0.00000000000E+00 -0.45593999997E+02  0.45594000000E+02  0.51100000000E-03 0. -1.
    9900012    2    1    2    0    0  0.36886059789E+01  0.20456157117E+02  0.38099382235E+02  0.47787272993E+02  0.20000008882E+02 0.  0.
         12    1    1    2    0    0 -0.36886059789E+01 -0.20456157117E+02 -0.38099382235E+02  0.43400727007E+02  0.00000000000E+00 0. -1.
         11    1    3    3    0    0 -0.49724450701E+01  0.46755558462E+01  0.39490553635E+01  0.78854975094E+01  0.51100000000E-03 0. -1.
        -11    1    3    3    0    0 -0.23159734468E+01  0.26961396846E+01  0.55882814210E+01  0.66228235448E+01  0.51100000000E-03 0.  1.
        -12    1    3    3    0    0  0.10977024496E+02  0.13084461587E+02  0.28562045451E+02  0.33278951938E+02  0.00000000000E+00 0.  1.
</event>
<event>
 7    1  0.2769403E-010  0.4778728E+02  0.7816164E-02  0.1312668E+00
        -11   -1    0    0    0    0  0.00000000000E+00  0.00000000000E+00  0.45593999997E+02  0.45594000000E+02  0.51100000000E-03 0.  1.
         11   -1    0    0    0    0 -0.00000000000E+00 -0.00000000000E+00 -0.45593999997E+02  0.45594000000E+02  0.51100000000E-03 0. -1.
    9900012    2    1    2    0    0  0.10044802529E+02 -0.30576529861E+02  0.29117009134E+02  0.47787280454E+02  0.20000042903E+02 0.  0.
         12    1    1    2    0    0 -0.10044802529E+02  0.30576529861E+02 -0.29117009134E+02  0.43400719546E+02  0.00000000000E+00 0. -1.
         11    1    3    3    0    0 -0.32708319892E+01 -0.14030283225E+02  0.13732846466E+02  0.19903222393E+02  0.51100000000E-03 0. -1.
        -11    1    3    3    0    0  0.16692381541E+01  0.48498790004E+00  0.39021617391E+01  0.42718187904E+01  0.51100000000E-03 0.  1.
        -12    1    3    3    0    0  0.11646396364E+02 -0.17031234536E+02  0.11482000929E+02  0.23612239271E+02  0.00000000000E+00 0.  1.
</event>
<event>
 7    1  0.2769403E-010  0.4778727E+02  0.7816164E-02  0.1312668E+00
        -11   -1    0    0    0    0  0.00000000000E+00  0.00000000000E+00  0.45593999997E+02  0.45594000000E+02  0.51100000000E-03 0.  1.
         11   -1    0    0    0    0 -0.00000000000E+00 -0.00000000000E+00 -0.45593999997E+02  0.45594000000E+02  0.51100000000E-03 0. -1.
    9900012    2    1    2    0    0  0.14452900424E+01  0.93406156632E+01  0.42359027086E+02  0.47787272587E+02  0.20000007035E+02 0.  0.
         12    1    1    2    0    0 -0.14452900424E+01 -0.93406156632E+01 -0.42359027086E+02  0.43400727413E+02  0.00000000000E+00 0. -1.
         11    1    3    3    0    0  0.27784569990E+01  0.33319849942E+01  0.80021562274E+01  0.91025519414E+01  0.51100000000E-03 0. -1.
        -11    1    3    3    0    0 -0.43081268440E+01  0.91995860598E+01  0.11200451706E+02  0.15120927857E+02  0.51100000000E-03 0.  1.
        -12    1    3    3    0    0  0.29749598873E+01 -0.31909553909E+01  0.23156419153E+02  0.23563792789E+02  0.00000000000E+00 0.  1.
</event>
<event>
 7    1  0.3028211E-010  0.4778727E+02  0.7816164E-02  0.1312668E+00
        -11   -1    0    0    0    0  0.00000000000E+00  0.00000000000E+00  0.45593999997E+02  0.45594000000E+02  0.51100000000E-03 0. -1.
         11   -1    0    0    0    0 -0.00000000000E+00 -0.00000000000E+00 -0.45593999997E+02  0.45594000000E+02  0.51100000000E-03 0.  1.
    9900012    2    1    2    0    0 -0.15955716692E+02 -0.16869955197E+02 -0.36666650033E+02  0.47787268346E+02  0.19999987696E+02 0.  0.
         12    1    1    2    0    0  0.15955716692E+02  0.16869955197E+02  0.36666650033E+02  0.43400731654E+02  0.00000000000E+00 0. -1.
         11    1    3    3    0    0 -0.78886127554E+01 -0.27856559876E+01 -0.11816772795E+02  0.14478474023E+02  0.51100000000E-03 0. -1.
        -11    1    3    3    0    0 -0.12427740016E+02 -0.11349478794E+02 -0.20818756609E+02  0.26770880034E+02  0.51100000000E-03 0.  1.
         12    1    3    3    0    0  0.43606360797E+01 -0.27348204155E+01 -0.40311206291E+01  0.65379142891E+01  0.00000000000E+00 0. -1.
</event>
<event>
 7    1  0.2769403E-010  0.4778727E+02  0.7816164E-02  0.1312668E+00
        -11   -1    0    0    0    0  0.00000000000E+00  0.00000000000E+00  0.45593999997E+02  0.45594000000E+02  0.51100000000E-03 0.  1.
         11   -1    0    0    0    0 -0.00000000000E+00 -0.00000000000E+00 -0.45593999997E+02  0.45594000000E+02  0.51100000000E-03 0. -1.
    9900012    2    1    2    0    0 -0.30075610824E+02  0.24936622311E+02  0.18900938886E+02  0.47787274321E+02  0.20000014938E+02 0.  0.
         12    1    1    2    0    0  0.30075610824E+02 -0.24936622311E+02 -0.18900938886E+02  0.43400725679E+02  0.00000000000E+00 0. -1.
         11    1    3    3    0    0 -0.35413146786E+01  0.52375894957E+01  0.23850997010E+00  0.63269376988E+01  0.51100000000E-03 0. -1.
        -11    1    3    3    0    0 -0.28875711272E+02  0.18255372918E+02  0.18068296325E+02  0.38646198703E+02  0.51100000000E-03 0.  1.
         12    1    3    3    0    0  0.23414151263E+01  0.14436598978E+01  0.59413259058E+00  0.28141379194E+01  0.00000000000E+00 0. -1.
</event>
<event>
 7    1  0.2769403E-010  0.4778728E+02  0.7816164E-02  0.1312668E+00
        -11   -1    0    0    0    0  0.00000000000E+00  0.00000000000E+00  0.45593999997E+02  0.45594000000E+02  0.51100000000E-03 0. -1.
         11   -1    0    0    0    0 -0.00000000000E+00 -0.00000000000E+00 -0.45593999997E+02  0.45594000000E+02  0.51100000000E-03 0.  1.
    9900012    2    1    2    0    0 -0.14131890874E+00  0.13674798985E+02 -0.41189831336E+02  0.47787282220E+02  0.20000050953E+02 0.  0.
         12    1    1    2    0    0  0.14131890874E+00 -0.13674798985E+02  0.41189831336E+02  0.43400717780E+02  0.00000000000E+00 0. -1.
         11    1    3    3    0    0 -0.65532778282E+00 -0.14302489309E+01 -0.68570727078E+00  0.17161763399E+01  0.51100000000E-03 0. -1.
        -11    1    3    3    0    0  0.22686125695E+01 -0.29933797663E+01 -0.75815478515E+01  0.84608979134E+01  0.51100000000E-03 0.  1.
         12    1    3    3    0    0 -0.17546036954E+01  0.18098427683E+02 -0.32922576214E+02  0.37610207966E+02  0.00000000000E+00 0. -1.
</event>
<event>
 7    1  0.2769403E-010  0.4778727E+02  0.7816164E-02  0.1312668E+00
        -11   -1    0    0    0    0  0.00000000000E+00  0.00000000000E+00  0.45593999997E+02  0.45594000000E+02  0.51100000000E-03 0.  1.
         11   -1    0    0    0    0 -0.00000000000E+00 -0.00000000000E+00 -0.45593999997E+02  0.45594000000E+02  0.51100000000E-03 0. -1.
    9900012    2    1    2    0    0  0.42281499864E+02  0.55739674617E+01  0.80516351253E+01  0.47787272216E+02  0.20000005340E+02 0.  0.
         12    1    1    2    0    0 -0.42281499864E+02 -0.55739674617E+01 -0.80516351253E+01  0.43400727784E+02  0.00000000000E+00 0. -1.
         11    1    3    3    0    0 -0.40657679008E+00 -0.99131066540E+00 -0.23982314429E+00  0.10979603468E+01  0.51100000000E-03 0. -1.
        -11    1    3    3    0    0  0.28022199686E+02  0.81553977512E+01 -0.10933293168E+01  0.29205300152E+02  0.51100000000E-03 0.  1.
         12    1    3    3    0    0  0.14665876968E+02 -0.15901196241E+01  0.93847875864E+01  0.17484011717E+02  0.00000000000E+00 0. -1.
</event>
<event>
 7    1  0.2769403E-010  0.4778727E+02  0.7816164E-02  0.1312668E+00
        -11   -1    0    0    0    0  0.00000000000E+00  0.00000000000E+00  0.45593999997E+02  0.45594000000E+02  0.51100000000E-03 0. -1.
         11   -1    0    0    0    0 -0.00000000000E+00 -0.00000000000E+00 -0.45593999997E+02  0.45594000000E+02  0.51100000000E-03 0.  1.
    9900012    2    1    2    0    0 -0.10394451265E+02  0.35786147553E+02 -0.22247031332E+02  0.47787269858E+02  0.19999994591E+02 0.  0.
         12    1    1    2    0    0  0.10394451265E+02 -0.35786147553E+02  0.22247031332E+02  0.43400730142E+02  0.00000000000E+00 0. -1.
         11    1    3    3    0    0 -0.62664996004E+01  0.88807043673E+01  0.23864916843E+00  0.10871654933E+02  0.51100000000E-03 0. -1.
        -11    1    3    3    0    0  0.18582423205E+01  0.62444084501E+00 -0.32722800225E+01  0.38145520965E+01  0.51100000000E-03 0.  1.
        -12    1    3    3    0    0 -0.59861939849E+01  0.26281002340E+02 -0.19213400478E+02  0.33101062828E+02  0.00000000000E+00 0.  1.
</event>
<event>
 7    1  0.2769403E-010  0.4778727E+02  0.7816164E-02  0.1312668E+00
        -11   -1    0    0    0    0  0.00000000000E+00  0.00000000000E+00  0.45593999997E+02  0.45594000000E+02  0.51100000000E-03 0. -1.
         11   -1    0    0    0    0 -0.00000000000E+00 -0.00000000000E+00 -0.45593999997E+02  0.45594000000E+02  0.51100000000E-03 0.  1.
    9900012    2    1    2    0    0 -0.92604976080E+00  0.19783957135E+02 -0.38618137883E+02  0.47787273029E+02  0.20000009048E+02 0.  0.
         12    1    1    2    0    0  0.92604976080E+00 -0.19783957135E+02  0.38618137883E+02  0.43400726971E+02  0.00000000000E+00 0. -1.
         11    1    3    3    0    0  0.14989202023E+01  0.10793317648E+02 -0.73673460945E+01  0.13153716446E+02  0.51100000000E-03 0. -1.
        -11    1    3    3    0    0  0.60179997330E+00  0.10674918393E+02 -0.27611749281E+02  0.29609538067E+02  0.51100000000E-03 0.  1.
        -12    1    3    3    0    0 -0.30267699364E+01 -0.16842789050E+01 -0.36390425067E+01  0.50240185154E+01  0.00000000000E+00 0.  1.
</event>
<event>
 7    1  0.2769403E-010  0.4778727E+02  0.7816164E-02  0.1312668E+00
        -11   -1    0    0    0    0  0.00000000000E+00  0.00000000000E+00  0.45593999997E+02  0.45594000000E+02  0.51100000000E-03 0. -1.
         11   -1    0    0    0    0 -0.00000000000E+00 -0.00000000000E+00 -0.45593999997E+02  0.45594000000E+02  0.51100000000E-03 0.  1.
    9900012    2    1    2    0    0 -0.15253109327E+02  0.38651489863E+02  0.12531085582E+02  0.47787272833E+02  0.20000008153E+02 0.  0.
         12    1    1    2    0    0  0.15253109327E+02 -0.38651489863E+02 -0.12531085582E+02  0.43400727167E+02  0.00000000000E+00 0. -1.
         11    1    3    3    0    0 -0.12299496179E+02  0.16071928626E+02  0.75817185672E+01  0.21611731830E+02  0.51100000000E-03 0.  1.
        -11    1    3    3    0    0 -0.60961264233E+01  0.18898401752E+02  0.92142628696E+00  0.19878666273E+02  0.51100000000E-03 0. -1.
         12    1    3    3    0    0  0.31425132756E+01  0.36811594855E+01  0.40279407275E+01  0.62968747287E+01  0.00000000000E+00 0. -1.
</event>
<event>
 7    1  0.2769403E-010  0.4778727E+02  0.7816164E-02  0.1312668E+00
        -11   -1    0    0    0    0  0.00000000000E+00  0.00000000000E+00  0.45593999997E+02  0.45594000000E+02  0.51100000000E-03 0.  1.
         11   -1    0    0    0    0 -0.00000000000E+00 -0.00000000000E+00 -0.45593999997E+02  0.45594000000E+02  0.51100000000E-03 0. -1.
    9900012    2    1    2    0    0 -0.31063664963E+02  0.21368406114E+02  0.21495657846E+02  0.47787269972E+02  0.19999995109E+02 0.  0.
         12    1    1    2    0    0  0.31063664963E+02 -0.21368406114E+02 -0.21495657846E+02  0.43400730028E+02  0.00000000000E+00 0. -1.
         11    1    3    3    0    0  0.11625156882E+01  0.38254838813E+01  0.77453328522E+00  0.40725510092E+01  0.51100000000E-03 0. -1.
        -11    1    3    3    0    0 -0.14207127275E+01 -0.10233932689E+01 -0.66059970221E+00  0.18714033944E+01  0.51100000000E-03 0.  1.
        -12    1    3    3    0    0 -0.30805467924E+02  0.18566315501E+02  0.21381724263E+02  0.41843315568E+02  0.00000000000E+00 0.  1.
</event>
<event>
 7    1  0.2769403E-010  0.4778727E+02  0.7816164E-02  0.1312668E+00
        -11   -1    0    0    0    0  0.00000000000E+00  0.00000000000E+00  0.45593999997E+02  0.45594000000E+02  0.51100000000E-03 0. -1.
         11   -1    0    0    0    0 -0.00000000000E+00 -0.00000000000E+00 -0.45593999997E+02  0.45594000000E+02  0.51100000000E-03 0.  1.
    9900012    2    1    2    0    0  0.80338188169E+01  0.38193263954E+02 -0.18983040708E+02  0.47787268546E+02  0.19999988607E+02 0.  0.
         12    1    1    2    0    0 -0.80338188169E+01 -0.38193263954E+02  0.18983040708E+02  0.43400731454E+02  0.00000000000E+00 0. -1.
         11    1    3    3    0    0  0.31223668622E+00  0.33989376240E+01  0.85475446286E+00  0.35186466394E+01  0.51100000000E-03 0. -1.
        -11    1    3    3    0    0  0.12733511932E+02  0.30195820874E+02 -0.16601073196E+02  0.36735889208E+02  0.51100000000E-03 0.  1.
         12    1    3    3    0    0 -0.50119298011E+01  0.45985054554E+01 -0.32367219748E+01  0.75327326979E+01  0.00000000000E+00 0. -1.
</event>
<event>
 7    1  0.2769403E-010  0.4778726E+02  0.7816164E-02  0.1312668E+00
        -11   -1    0    0    0    0  0.00000000000E+00  0.00000000000E+00  0.45593999997E+02  0.45594000000E+02  0.51100000000E-03 0.  1.
         11   -1    0    0    0    0 -0.00000000000E+00 -0.00000000000E+00 -0.45593999997E+02  0.45594000000E+02  0.51100000000E-03 0. -1.
    9900012    2    1    2    0    0 -0.88408073463E+01  0.17136799506E+02  0.38881803765E+02  0.47787257658E+02  0.19999938964E+02 0.  0.
         12    1    1    2    0    0  0.88408073463E+01 -0.17136799506E+02 -0.38881803765E+02  0.43400742342E+02  0.00000000000E+00 0. -1.
         11    1    3    3    0    0 -0.30404931813E+01  0.16799766758E+01  0.51895649651E+00  0.35122978978E+01  0.51100000000E-03 0. -1.
        -11    1    3    3    0    0 -0.32010119168E+01  0.90727703160E+01  0.63478991725E+01  0.11526381161E+02  0.51100000000E-03 0.  1.
        -12    1    3    3    0    0 -0.25993022482E+01  0.63840525147E+01  0.32014948096E+02  0.32748578599E+02  0.00000000000E+00 0.  1.
</event>
<event>
 7    1  0.2769403E-010  0.4778727E+02  0.7816164E-02  0.1312668E+00
        -11   -1    0    0    0    0  0.00000000000E+00  0.00000000000E+00  0.45593999997E+02  0.45594000000E+02  0.51100000000E-03 0.  1.
         11   -1    0    0    0    0 -0.00000000000E+00 -0.00000000000E+00 -0.45593999997E+02  0.45594000000E+02  0.51100000000E-03 0. -1.
    9900012    2    1    2    0    0 -0.39123958257E+02  0.71231659844E-01 -0.18786541621E+02  0.47787270402E+02  0.19999997069E+02 0.  0.
         12    1    1    2    0    0  0.39123958257E+02 -0.71231659844E-01  0.18786541621E+02  0.43400729598E+02  0.00000000000E+00 0. -1.
         11    1    3    3    0    0 -0.19586726398E+01  0.23602819039E+01 -0.12690353144E+01  0.33193041539E+01  0.51100000000E-03 0. -1.
        -11    1    3    3    0    0 -0.36912511599E+02 -0.53019221465E+01 -0.14007544559E+02  0.39835351082E+02  0.51100000000E-03 0.  1.
        -12    1    3    3    0    0 -0.25277401757E+00  0.30128719024E+01 -0.35099617472E+01  0.46326151655E+01  0.00000000000E+00 0.  1.
</event>
<event>
 7    1  0.2769403E-010  0.4778727E+02  0.7816164E-02  0.1312668E+00
        -11   -1    0    0    0    0  0.00000000000E+00  0.00000000000E+00  0.45593999997E+02  0.45594000000E+02  0.51100000000E-03 0.  1.
         11   -1    0    0    0    0 -0.00000000000E+00 -0.00000000000E+00 -0.45593999997E+02  0.45594000000E+02  0.51100000000E-03 0. -1.
    9900012    2    1    2    0    0  0.20984189558E+02 -0.34048807262E+02  0.16851286315E+02  0.47787270308E+02  0.19999996641E+02 0.  0.
         12    1    1    2    0    0 -0.20984189558E+02  0.34048807262E+02 -0.16851286315E+02  0.43400729692E+02  0.00000000000E+00 0. -1.
         11    1    3    3    0    0  0.17880022879E+01  0.74314480377E+00  0.17069455718E+01  0.25812554750E+01  0.51100000000E-03 0. -1.
        -11    1    3    3    0    0  0.20503341306E+01 -0.56172245581E+01  0.90111713276E+01  0.10814725643E+02  0.51100000000E-03 0.  1.
        -12    1    3    3    0    0  0.17145853140E+02 -0.29174727507E+02  0.61331694150E+01  0.34391289189E+02  0.00000000000E+00 0.  1.
</event>
<event>
 7    1  0.2769403E-010  0.4778727E+02  0.7816164E-02  0.1312668E+00
        -11   -1    0    0    0    0  0.00000000000E+00  0.00000000000E+00  0.45593999997E+02  0.45594000000E+02  0.51100000000E-03 0.  1.
         11   -1    0    0    0    0 -0.00000000000E+00 -0.00000000000E+00 -0.45593999997E+02  0.45594000000E+02  0.51100000000E-03 0. -1.
    9900012    2    1    2    0    0 -0.29929139645E+02 -0.19463150403E+02  0.24679048407E+02  0.47787273580E+02  0.20000011560E+02 0.  0.
         12    1    1    2    0    0  0.29929139645E+02  0.19463150403E+02 -0.24679048407E+02  0.43400726420E+02  0.00000000000E+00 0. -1.
         11    1    3    3    0    0 -0.11098903797E+02 -0.13914204559E+02  0.96643475457E+01  0.20253156982E+02  0.51100000000E-03 0. -1.
        -11    1    3    3    0    0 -0.28943958262E+01 -0.54601986953E+01  0.89825822289E+00  0.62448510860E+01  0.51100000000E-03 0.  1.
        -12    1    3    3    0    0 -0.15935840022E+02 -0.88747149467E-01  0.14116442638E+02  0.21289265512E+02  0.00000000000E+00 0.  1.
</event>
<event>
 7    1  0.2769403E-010  0.4778728E+02  0.7816164E-02  0.1312668E+00
        -11   -1    0    0    0    0  0.00000000000E+00  0.00000000000E+00  0.45593999997E+02  0.45594000000E+02  0.51100000000E-03 0. -1.
         11   -1    0    0    0    0 -0.00000000000E+00 -0.00000000000E+00 -0.45593999997E+02  0.45594000000E+02  0.51100000000E-03 0.  1.
    9900012    2    1    2    0    0 -0.22727564974E+02  0.35256530760E+02 -0.11138093168E+02  0.47787282376E+02  0.20000051664E+02 0.  0.
         12    1    1    2    0    0  0.22727564974E+02 -0.35256530760E+02  0.11138093168E+02  0.43400717624E+02  0.00000000000E+00 0. -1.
         11    1    3    3    0    0 -0.48416016840E+01  0.53023799891E+01 -0.61935403853E+00  0.72069369431E+01  0.51100000000E-03 0. -1.
        -11    1    3    3    0    0 -0.20160619127E+02  0.29876142306E+02 -0.75243429514E+01  0.36819155066E+02  0.51100000000E-03 0.  1.
         12    1    3    3    0    0  0.22746558373E+01  0.78008464600E-01 -0.29943961783E+01  0.37611903663E+01  0.00000000000E+00 0. -1.
</event>
<event>
 7    1  0.2769403E-010  0.4778727E+02  0.7816164E-02  0.1312668E+00
        -11   -1    0    0    0    0  0.00000000000E+00  0.00000000000E+00  0.45593999997E+02  0.45594000000E+02  0.51100000000E-03 0. -1.
         11   -1    0    0    0    0 -0.00000000000E+00 -0.00000000000E+00 -0.45593999997E+02  0.45594000000E+02  0.51100000000E-03 0.  1.
    9900012    2    1    2    0    0  0.54298517803E+01  0.34960178246E+02 -0.25138133491E+02  0.47787272947E+02  0.20000008675E+02 0.  0.
         12    1    1    2    0    0 -0.54298517803E+01 -0.34960178246E+02  0.25138133491E+02  0.43400727053E+02  0.00000000000E+00 0. -1.
         11    1    3    3    0    0 -0.38395881905E+01  0.99516827200E+01 -0.54993671801E+01  0.12000894386E+02  0.51100000000E-03 0. -1.
        -11    1    3    3    0    0  0.10920173460E+02  0.22684009439E+02 -0.12518029582E+02  0.28116108150E+02  0.51100000000E-03 0.  1.
         12    1    3    3    0    0 -0.16507334891E+01  0.23244860865E+01 -0.71207367282E+01  0.76702704105E+01  0.00000000000E+00 0. -1.
</event>
<event>
 7    1  0.2769403E-010  0.4778729E+02  0.7816164E-02  0.1312668E+00
        -11   -1    0    0    0    0  0.00000000000E+00  0.00000000000E+00  0.45593999997E+02  0.45594000000E+02  0.51100000000E-03 0. -1.
         11   -1    0    0    0    0 -0.00000000000E+00 -0.00000000000E+00 -0.45593999997E+02  0.45594000000E+02  0.51100000000E-03 0.  1.
    9900012    2    1    2    0    0 -0.35682136454E+02  0.16215473076E+01 -0.24653139403E+02  0.47787290789E+02  0.20000090024E+02 0.  0.
         12    1    1    2    0    0  0.35682136454E+02 -0.16215473076E+01  0.24653139403E+02  0.43400709211E+02  0.00000000000E+00 0. -1.
         11    1    3    3    0    0 -0.85167680670E+01  0.39120634192E+01 -0.90471647213E+01  0.13026540917E+02  0.51100000000E-03 0. -1.
        -11    1    3    3    0    0 -0.13600022906E+02 -0.22167357392E+01 -0.16093209746E+02  0.21186456537E+02  0.51100000000E-03 0.  1.
         12    1    3    3    0    0 -0.13565345481E+02 -0.73780372324E-01  0.48723506427E+00  0.13574293336E+02  0.00000000000E+00 0. -1.
</event>
<event>
 7    1  0.2769403E-010  0.4778727E+02  0.7816164E-02  0.1312668E+00
        -11   -1    0    0    0    0  0.00000000000E+00  0.00000000000E+00  0.45593999997E+02  0.45594000000E+02  0.51100000000E-03 0.  1.
         11   -1    0    0    0    0 -0.00000000000E+00 -0.00000000000E+00 -0.45593999997E+02  0.45594000000E+02  0.51100000000E-03 0. -1.
    9900012    2    1    2    0    0  0.23686766212E+01  0.94805708641E+01  0.42286301134E+02  0.47787272858E+02  0.20000008267E+02 0.  0.
         12    1    1    2    0    0 -0.23686766212E+01 -0.94805708641E+01 -0.42286301134E+02  0.43400727142E+02  0.00000000000E+00 0. -1.
         11    1    3    3    0    0  0.32093713471E+01 -0.15113015863E+01  0.27610548626E+01  0.44952776492E+01  0.51100000000E-03 0. -1.
        -11    1    3    3    0    0  0.55886294985E+01  0.87014941018E+01  0.28576018146E+02  0.30389761312E+02  0.51100000000E-03 0.  1.
         12    1    3    3    0    0 -0.64293242243E+01  0.22903783486E+01  0.10949228126E+02  0.12902233896E+02  0.00000000000E+00 0. -1.
</event>
<event>
 7    1  0.2769403E-010  0.4778727E+02  0.7816164E-02  0.1312668E+00
        -11   -1    0    0    0    0  0.00000000000E+00  0.00000000000E+00  0.45593999997E+02  0.45594000000E+02  0.51100000000E-03 0.  1.
         11   -1    0    0    0    0 -0.00000000000E+00 -0.00000000000E+00 -0.45593999997E+02  0.45594000000E+02  0.51100000000E-03 0. -1.
    9900012    2    1    2    0    0 -0.29410152867E+02 -0.17866468470E+02 -0.26447215702E+02  0.47787274135E+02  0.20000014091E+02 0.  0.
         12    1    1    2    0    0  0.29410152867E+02  0.17866468470E+02  0.26447215702E+02  0.43400725865E+02  0.00000000000E+00 0. -1.
         11    1    3    3    0    0 -0.47499643963E+01 -0.50210587294E+01 -0.23837675997E+01  0.73113296164E+01  0.51100000000E-03 0. -1.
        -11    1    3    3    0    0 -0.20005295472E+02 -0.15927684927E+02 -0.14484590001E+02  0.29388881262E+02  0.51100000000E-03 0.  1.
         12    1    3    3    0    0 -0.46548929988E+01  0.30822751858E+01 -0.95788581005E+01  0.11087063257E+02  0.00000000000E+00 0. -1.
</event>
<event>
 7    1  0.2769403E-010  0.4778727E+02  0.7816164E-02  0.1312668E+00
        -11   -1    0    0    0    0  0.00000000000E+00  0.00000000000E+00  0.45593999997E+02  0.45594000000E+02  0.51100000000E-03 0. -1.
         11   -1    0    0    0    0 -0.00000000000E+00 -0.00000000000E+00 -0.45593999997E+02  0.45594000000E+02  0.51100000000E-03 0.  1.
    9900012    2    1    2    0    0 -0.36639594620E+02 -0.21640370338E+02  0.85356665480E+01  0.47787272752E+02  0.20000007785E+02 0.  0.
         12    1    1    2    0    0  0.36639594620E+02  0.21640370338E+02 -0.85356665480E+01  0.43400727248E+02  0.00000000000E+00 0. -1.
         11    1    3    3    0    0 -0.87577240430E+01 -0.86495198665E+00  0.18892777557E+01  0.90008467963E+01  0.51100000000E-03 0. -1.
        -11    1    3    3    0    0 -0.21243504724E+02 -0.19287868968E+02  0.10977703018E+02  0.30721626684E+02  0.51100000000E-03 0.  1.
        -12    1    3    3    0    0 -0.66383658530E+01 -0.14875493828E+01 -0.43313142261E+01  0.80647992715E+01  0.00000000000E+00 0.  1.
</event>
<event>
 7    1  0.2769403E-010  0.4778726E+02  0.7816164E-02  0.1312668E+00
        -11   -1    0    0    0    0  0.00000000000E+00  0.00000000000E+00  0.45593999997E+02  0.45594000000E+02  0.51100000000E-03 0. -1.
         11   -1    0    0    0    0 -0.00000000000E+00 -0.00000000000E+00 -0.45593999997E+02  0.45594000000E+02  0.51100000000E-03 0.  1.
    9900012    2    1    2    0    0  0.39745359422E+02  0.13816991820E+02  0.10631160946E+02  0.47787257591E+02  0.19999938662E+02 0.  0.
         12    1    1    2    0    0 -0.39745359422E+02 -0.13816991820E+02 -0.10631160946E+02  0.43400742409E+02  0.00000000000E+00 0. -1.
         11    1    3    3    0    0  0.10245765896E+02 -0.20857832611E+01  0.42333215264E+01  0.11280391040E+02  0.51100000000E-03 0. -1.
        -11    1    3    3    0    0  0.17351768343E+02  0.31296310787E+01  0.67403777045E+01  0.18876205847E+02  0.51100000000E-03 0.  1.
        -12    1    3    3    0    0  0.12147825183E+02  0.12773144003E+02 -0.34253828546E+00  0.17630660704E+02  0.00000000000E+00 0.  1.
</event>
<event>
 7    1  0.2769403E-010  0.4778727E+02  0.7816164E-02  0.1312668E+00
        -11   -1    0    0    0    0  0.00000000000E+00  0.00000000000E+00  0.45593999997E+02  0.45594000000E+02  0.51100000000E-03 0.  1.
         11   -1    0    0    0    0 -0.00000000000E+00 -0.00000000000E+00 -0.45593999997E+02  0.45594000000E+02  0.51100000000E-03 0. -1.
    9900012    2    1    2    0    0  0.13560212305E+02 -0.20723305182E+02  0.35641113460E+02  0.47787266088E+02  0.19999977400E+02 0.  0.
         12    1    1    2    0    0 -0.13560212305E+02  0.20723305182E+02 -0.35641113460E+02  0.43400733912E+02  0.00000000000E+00 0. -1.
         11    1    3    3    0    0  0.11002802645E+02 -0.78493948227E+01  0.73848233178E+01  0.15401632408E+02  0.51100000000E-03 0. -1.
        -11    1    3    3    0    0  0.21211337539E+01 -0.65237758167E+01  0.56097948976E+01  0.88616397107E+01  0.51100000000E-03 0.  1.
        -12    1    3    3    0    0  0.43627590590E+00 -0.63501345429E+01  0.22646495245E+02  0.23523993969E+02  0.00000000000E+00 0.  1.
</event>
<event>
 7    1  0.2769403E-010  0.4778727E+02  0.7816164E-02  0.1312668E+00
        -11   -1    0    0    0    0  0.00000000000E+00  0.00000000000E+00  0.45593999997E+02  0.45594000000E+02  0.51100000000E-03 0. -1.
         11   -1    0    0    0    0 -0.00000000000E+00 -0.00000000000E+00 -0.45593999997E+02  0.45594000000E+02  0.51100000000E-03 0.  1.
    9900012    2    1    2    0    0  0.12606038022E+02 -0.13075240441E+02 -0.39417628711E+02  0.47787267743E+02  0.19999984949E+02 0.  0.
         12    1    1    2    0    0 -0.12606038022E+02  0.13075240441E+02  0.39417628711E+02  0.43400732257E+02  0.00000000000E+00 0. -1.
         11    1    3    3    0    0  0.49509537643E+01 -0.56174527259E+01 -0.95765343527E+01  0.12156386337E+02  0.51100000000E-03 0. -1.
        -11    1    3    3    0    0  0.62414968672E+01 -0.99866956448E+01 -0.96287095247E+01  0.15211917053E+02  0.51100000000E-03 0.  1.
         12    1    3    3    0    0  0.14135873908E+01  0.25289079293E+01 -0.20212384833E+02  0.20418964354E+02  0.00000000000E+00 0. -1.
</event>
<event>
 7    1  0.2769403E-010  0.4778728E+02  0.7816164E-02  0.1312668E+00
        -11   -1    0    0    0    0  0.00000000000E+00  0.00000000000E+00  0.45593999997E+02  0.45594000000E+02  0.51100000000E-03 0. -1.
         11   -1    0    0    0    0 -0.00000000000E+00 -0.00000000000E+00 -0.45593999997E+02  0.45594000000E+02  0.51100000000E-03 0.  1.
    9900012    2    1    2    0    0  0.20814438602E+02 -0.18313792455E+02  0.33391410022E+02  0.47787284434E+02  0.20000061049E+02 0.  0.
         12    1    1    2    0    0 -0.20814438602E+02  0.18313792455E+02 -0.33391410022E+02  0.43400715566E+02  0.00000000000E+00 0. -1.
         11    1    3    3    0    0  0.84498294643E+01 -0.45665220529E+01  0.14976532083E+02  0.17791831135E+02  0.51100000000E-03 0. -1.
        -11    1    3    3    0    0  0.11141626053E+02 -0.13701001862E+01  0.92589085429E+01  0.14551302117E+02  0.51100000000E-03 0.  1.
         12    1    3    3    0    0  0.12229830845E+01 -0.12377170216E+02  0.91559693958E+01  0.15444151183E+02  0.00000000000E+00 0. -1.
</event>
<event>
 7    1  0.2769403E-010  0.4778728E+02  0.7816164E-02  0.1312668E+00
        -11   -1    0    0    0    0  0.00000000000E+00  0.00000000000E+00  0.45593999997E+02  0.45594000000E+02  0.51100000000E-03 0.  1.
         11   -1    0    0    0    0 -0.00000000000E+00 -0.00000000000E+00 -0.45593999997E+02  0.45594000000E+02  0.51100000000E-03 0. -1.
    9900012    2    1    2    0    0 -0.15365521166E+02  0.36495196579E+02 -0.17765811871E+02  0.47787277823E+02  0.20000030906E+02 0.  0.
         12    1    1    2    0    0  0.15365521166E+02 -0.36495196579E+02  0.17765811871E+02  0.43400722177E+02  0.00000000000E+00 0. -1.
         11    1    3    3    0    0 -0.44468657786E+01  0.63452137972E+01 -0.50599051605E+01  0.92541338805E+01  0.51100000000E-03 0. -1.
        -11    1    3    3    0    0 -0.67774273303E+01  0.94882253512E+01  0.32460206086E+01  0.12103577636E+02  0.51100000000E-03 0.  1.
         12    1    3    3    0    0 -0.41412280568E+01  0.20661757431E+02 -0.15951927319E+02  0.26429566307E+02  0.00000000000E+00 0. -1.
</event>
<event>
 7    1  0.2769403E-010  0.4778727E+02  0.7816164E-02  0.1312668E+00
        -11   -1    0    0    0    0  0.00000000000E+00  0.00000000000E+00  0.45593999997E+02  0.45594000000E+02  0.51100000000E-03 0.  1.
         11   -1    0    0    0    0 -0.00000000000E+00 -0.00000000000E+00 -0.45593999997E+02  0.45594000000E+02  0.51100000000E-03 0. -1.
    9900012    2    1    2    0    0  0.26728679863E+02  0.23035314913E+01  0.34115905601E+02  0.47787267293E+02  0.19999982896E+02 0.  0.
         12    1    1    2    0    0 -0.26728679863E+02 -0.23035314913E+01 -0.34115905601E+02  0.43400732707E+02  0.00000000000E+00 0. -1.
         11    1    3    3    0    0  0.35241277038E+01  0.51608644146E+01  0.69416182750E+01  0.93402388682E+01  0.51100000000E-03 0. -1.
        -11    1    3    3    0    0  0.24107092062E+01  0.25930512069E+01  0.10970406673E+02  0.11527586749E+02  0.51100000000E-03 0.  1.
         12    1    3    3    0    0  0.20793842953E+02 -0.54503841302E+01  0.16203880653E+02  0.26919441676E+02  0.00000000000E+00 0. -1.
</event>
<event>
 7    1  0.2769403E-010  0.4778727E+02  0.7816164E-02  0.1312668E+00
        -11   -1    0    0    0    0  0.00000000000E+00  0.00000000000E+00  0.45593999997E+02  0.45594000000E+02  0.51100000000E-03 0.  1.
         11   -1    0    0    0    0 -0.00000000000E+00 -0.00000000000E+00 -0.45593999997E+02  0.45594000000E+02  0.51100000000E-03 0. -1.
    9900012    2    1    2    0    0  0.12238727544E+01 -0.38409080153E+02  0.20170968627E+02  0.47787270996E+02  0.19999999781E+02 0.  0.
         12    1    1    2    0    0 -0.12238727544E+01  0.38409080153E+02 -0.20170968627E+02  0.43400729004E+02  0.00000000000E+00 0. -1.
         11    1    3    3    0    0  0.13337285968E+01 -0.25709814718E+01 -0.20453133152E+01  0.35457135413E+01  0.51100000000E-03 0. -1.
        -11    1    3    3    0    0  0.30168544297E+01 -0.12735588977E+01  0.52937425787E+00  0.33171675089E+01  0.51100000000E-03 0.  1.
         12    1    3    3    0    0 -0.31267102721E+01 -0.34564539783E+02  0.21686907684E+02  0.40924389946E+02  0.00000000000E+00 0. -1.
</event>
<event>
 7    1  0.2769403E-010  0.4778727E+02  0.7816164E-02  0.1312668E+00
        -11   -1    0    0    0    0  0.00000000000E+00  0.00000000000E+00  0.45593999997E+02  0.45594000000E+02  0.51100000000E-03 0. -1.
         11   -1    0    0    0    0 -0.00000000000E+00 -0.00000000000E+00 -0.45593999997E+02  0.45594000000E+02  0.51100000000E-03 0.  1.
    9900012    2    1    2    0    0  0.19328002413E+01 -0.19984185049E+02 -0.38477525550E+02  0.47787270268E+02  0.19999996458E+02 0.  0.
         12    1    1    2    0    0 -0.19328002413E+01  0.19984185049E+02  0.38477525550E+02  0.43400729732E+02  0.00000000000E+00 0. -1.
         11    1    3    3    0    0  0.63782904786E+00  0.42998161635E+00  0.26094084579E-01  0.76966957005E+00  0.51100000000E-03 0. -1.
        -11    1    3    3    0    0  0.69689082804E+01 -0.18263169723E+02 -0.34783946452E+02  0.39900275463E+02  0.51100000000E-03 0.  1.
        -12    1    3    3    0    0 -0.56739370869E+01 -0.21509969417E+01 -0.37196731828E+01  0.71173252347E+01  0.00000000000E+00 0.  1.
</event>
<event>
 7    1  0.2769403E-010  0.4778727E+02  0.7816164E-02  0.1312668E+00
        -11   -1    0    0    0    0  0.00000000000E+00  0.00000000000E+00  0.45593999997E+02  0.45594000000E+02  0.51100000000E-03 0.  1.
         11   -1    0    0    0    0 -0.00000000000E+00 -0.00000000000E+00 -0.45593999997E+02  0.45594000000E+02  0.51100000000E-03 0. -1.
    9900012    2    1    2    0    0 -0.60238979562E+01  0.11573969768E+02  0.41392982578E+02  0.47787272708E+02  0.20000007583E+02 0.  0.
         12    1    1    2    0    0  0.60238979562E+01 -0.11573969768E+02 -0.41392982578E+02  0.43400727292E+02  0.00000000000E+00 0. -1.
         11    1    3    3    0    0  0.51185002560E+01  0.23476198877E+01  0.35484478070E+01  0.66559631991E+01  0.51100000000E-03 0. -1.
        -11    1    3    3    0    0 -0.28659944483E+01 -0.70221566988E+00  0.10125033205E+02  0.10546247138E+02  0.51100000000E-03 0.  1.
        -12    1    3    3    0    0 -0.82764037639E+01  0.99285655498E+01  0.27719501566E+02  0.30585062371E+02  0.00000000000E+00 0.  1.
</event>
<event>
 7    1  0.2769403E-010  0.4778727E+02  0.7816164E-02  0.1312668E+00
        -11   -1    0    0    0    0  0.00000000000E+00  0.00000000000E+00  0.45593999997E+02  0.45594000000E+02  0.51100000000E-03 0.  1.
         11   -1    0    0    0    0 -0.00000000000E+00 -0.00000000000E+00 -0.45593999997E+02  0.45594000000E+02  0.51100000000E-03 0. -1.
    9900012    2    1    2    0    0 -0.22553121991E+02 -0.21567989533E+01  0.37017946484E+02  0.47787268956E+02  0.19999990476E+02 0.  0.
         12    1    1    2    0    0  0.22553121991E+02  0.21567989533E+01 -0.37017946484E+02  0.43400731044E+02  0.00000000000E+00 0. -1.
         11    1    3    3    0    0 -0.67014225624E+01 -0.15309681058E+01  0.19263080045E+01  0.71388787978E+01  0.51100000000E-03 0. -1.
        -11    1    3    3    0    0 -0.10040285142E+02  0.15628426835E+01  0.82234677272E+01  0.13071925058E+02  0.51100000000E-03 0.  1.
        -12    1    3    3    0    0 -0.58114142869E+01 -0.21886735310E+01  0.26868170752E+02  0.27576465100E+02  0.00000000000E+00 0.  1.
</event>
<event>
 7    1  0.2769403E-010  0.4778727E+02  0.7816164E-02  0.1312668E+00
        -11   -1    0    0    0    0  0.00000000000E+00  0.00000000000E+00  0.45593999997E+02  0.45594000000E+02  0.51100000000E-03 0. -1.
         11   -1    0    0    0    0 -0.00000000000E+00 -0.00000000000E+00 -0.45593999997E+02  0.45594000000E+02  0.51100000000E-03 0.  1.
    9900012    2    1    2    0    0  0.37048188920E+02 -0.97801916310E+01 -0.20381426960E+02  0.47787274020E+02  0.20000013568E+02 0.  0.
         12    1    1    2    0    0 -0.37048188920E+02  0.97801916310E+01  0.20381426960E+02  0.43400725980E+02  0.00000000000E+00 0. -1.
         11    1    3    3    0    0  0.12357205446E+02 -0.57707760447E+00 -0.23770740259E+01  0.12596984805E+02  0.51100000000E-03 0. -1.
        -11    1    3    3    0    0  0.20729406655E+02 -0.90036997707E+01 -0.72610467842E+01  0.23738106717E+02  0.51100000000E-03 0.  1.
         12    1    3    3    0    0  0.39615768194E+01 -0.19941425589E+00 -0.10743306150E+02  0.11452182498E+02  0.00000000000E+00 0. -1.
</event>
<event>
 7    1  0.2769403E-010  0.4778727E+02  0.7816164E-02  0.1312668E+00
        -11   -1    0    0    0    0  0.00000000000E+00  0.00000000000E+00  0.45593999997E+02  0.45594000000E+02  0.51100000000E-03 0.  1.
         11   -1    0    0    0    0 -0.00000000000E+00 -0.00000000000E+00 -0.45593999997E+02  0.45594000000E+02  0.51100000000E-03 0. -1.
    9900012    2    1    2    0    0  0.44105813269E+01 -0.37586270282E+02  0.21247178350E+02  0.47787268103E+02  0.19999986590E+02 0.  0.
         12    1    1    2    0    0 -0.44105813269E+01  0.37586270282E+02 -0.21247178350E+02  0.43400731897E+02  0.00000000000E+00 0. -1.
         11    1    3    3    0    0  0.34362630313E+00 -0.36990932173E+01 -0.19059172178E+01  0.41753910438E+01  0.51100000000E-03 0. -1.
        -11    1    3    3    0    0  0.25087647667E+01 -0.78653359249E+01 -0.68932347510E+00  0.82844780753E+01  0.51100000000E-03 0.  1.
        -12    1    3    3    0    0  0.15581902571E+01 -0.26021841140E+02  0.23842419043E+02  0.35327398984E+02  0.00000000000E+00 0.  1.
</event>
<event>
 7    1  0.2769403E-010  0.4778727E+02  0.7816164E-02  0.1312668E+00
        -11   -1    0    0    0    0  0.00000000000E+00  0.00000000000E+00  0.45593999997E+02  0.45594000000E+02  0.51100000000E-03 0.  1.
         11   -1    0    0    0    0 -0.00000000000E+00 -0.00000000000E+00 -0.45593999997E+02  0.45594000000E+02  0.51100000000E-03 0. -1.
    9900012    2    1    2    0    0  0.45966433031E-01 -0.34225829282E+01  0.43265542231E+02  0.47787270382E+02  0.19999996982E+02 0.  0.
         12    1    1    2    0    0 -0.45966433031E-01  0.34225829282E+01 -0.43265542231E+02  0.43400729618E+02  0.00000000000E+00 0. -1.
         11    1    3    3    0    0  0.10534205555E+01 -0.72716005090E+01  0.25726015601E+02  0.26754695809E+02  0.51100000000E-03 0. -1.
        -11    1    3    3    0    0 -0.32377265179E+01  0.67302687505E+01  0.14405917272E+02  0.16226824803E+02  0.51100000000E-03 0.  1.
         12    1    3    3    0    0  0.22302723955E+01 -0.28812511697E+01  0.31336093572E+01  0.48057497713E+01  0.00000000000E+00 0. -1.
</event>
<event>
 7    1  0.2769403E-010  0.4778727E+02  0.7816164E-02  0.1312668E+00
        -11   -1    0    0    0    0  0.00000000000E+00  0.00000000000E+00  0.45593999997E+02  0.45594000000E+02  0.51100000000E-03 0.  1.
         11   -1    0    0    0    0 -0.00000000000E+00 -0.00000000000E+00 -0.45593999997E+02  0.45594000000E+02  0.51100000000E-03 0. -1.
    9900012    2    1    2    0    0 -0.11477970735E+02 -0.50669666971E+01  0.41547628617E+02  0.47787269506E+02  0.19999992987E+02 0.  0.
         12    1    1    2    0    0  0.11477970735E+02  0.50669666971E+01 -0.41547628617E+02  0.43400730494E+02  0.00000000000E+00 0. -1.
         11    1    3    3    0    0  0.13071270948E+01 -0.30675670129E+01  0.11065712354E+02  0.11557185591E+02  0.51100000000E-03 0. -1.
        -11    1    3    3    0    0 -0.29821128115E+01  0.61286062807E+01  0.11636256038E+02  0.13485372320E+02  0.51100000000E-03 0.  1.
         12    1    3    3    0    0 -0.98029850188E+01 -0.81280059649E+01  0.18845660224E+02  0.22744711595E+02  0.00000000000E+00 0. -1.
</event>
<event>
 7    1  0.2769403E-010  0.4778725E+02  0.7816164E-02  0.1312668E+00
        -11   -1    0    0    0    0  0.00000000000E+00  0.00000000000E+00  0.45593999997E+02  0.45594000000E+02  0.51100000000E-03 0.  1.
         11   -1    0    0    0    0 -0.00000000000E+00 -0.00000000000E+00 -0.45593999997E+02  0.45594000000E+02  0.51100000000E-03 0. -1.
    9900012    2    1    2    0    0  0.34195733721E+02 -0.24148477497E+02  0.11451099526E+02  0.47787252881E+02  0.19999917186E+02 0.  0.
         12    1    1    2    0    0 -0.34195733721E+02  0.24148477497E+02 -0.11451099526E+02  0.43400747119E+02  0.00000000000E+00 0. -1.
         11    1    3    3    0    0  0.17957927132E+02 -0.87394118965E+01  0.75789266167E+01  0.21361287323E+02  0.51100000000E-03 0. -1.
        -11    1    3    3    0    0  0.18279610819E+02 -0.11772060888E+02  0.19382248967E+01  0.21828474643E+02  0.51100000000E-03 0.  1.
         12    1    3    3    0    0 -0.20418042304E+01 -0.36370047125E+01  0.19339480131E+01  0.45974909148E+01  0.00000000000E+00 0. -1.
</event>
<event>
 7    1  0.2769403E-010  0.4778728E+02  0.7816164E-02  0.1312668E+00
        -11   -1    0    0    0    0  0.00000000000E+00  0.00000000000E+00  0.45593999997E+02  0.45594000000E+02  0.51100000000E-03 0.  1.
         11   -1    0    0    0    0 -0.00000000000E+00 -0.00000000000E+00 -0.45593999997E+02  0.45594000000E+02  0.51100000000E-03 0. -1.
    9900012    2    1    2    0    0  0.32262864049E+02 -0.21861537132E+02  0.19099832767E+02  0.47787276341E+02  0.20000024147E+02 0.  0.
         12    1    1    2    0    0 -0.32262864049E+02  0.21861537132E+02 -0.19099832767E+02  0.43400723659E+02  0.00000000000E+00 0. -1.
         11    1    3    3    0    0  0.61062310721E+01 -0.59280763702E+01  0.26014772460E+01  0.88992039801E+01  0.51100000000E-03 0. -1.
        -11    1    3    3    0    0  0.25233476577E+02 -0.12105880105E+02  0.73617240715E+01  0.28939171634E+02  0.51100000000E-03 0.  1.
         12    1    3    3    0    0  0.92315640017E+00 -0.38275806565E+01  0.91366314497E+01  0.99489007267E+01  0.00000000000E+00 0. -1.
</event>
<event>
 7    1  0.2769403E-010  0.4778726E+02  0.7816164E-02  0.1312668E+00
        -11   -1    0    0    0    0  0.00000000000E+00  0.00000000000E+00  0.45593999997E+02  0.45594000000E+02  0.51100000000E-03 0. -1.
         11   -1    0    0    0    0 -0.00000000000E+00 -0.00000000000E+00 -0.45593999997E+02  0.45594000000E+02  0.51100000000E-03 0.  1.
    9900012    2    1    2    0    0  0.33862088880E+02  0.24934854226E+02  0.10734798311E+02  0.47787263677E+02  0.19999966408E+02 0.  0.
         12    1    1    2    0    0 -0.33862088880E+02 -0.24934854226E+02 -0.10734798311E+02  0.43400736323E+02  0.00000000000E+00 0. -1.
         11    1    3    3    0    0  0.66166288720E+00  0.53664001499E+01  0.40211862323E+01  0.67383964948E+01  0.51100000000E-03 0. -1.
        -11    1    3    3    0    0  0.22039611788E+02  0.11143735181E+02  0.10065642533E+02  0.26669167243E+02  0.51100000000E-03 0.  1.
         12    1    3    3    0    0  0.11160814205E+02  0.84247188956E+01 -0.33520304543E+01  0.14379699939E+02  0.00000000000E+00 0. -1.
</event>
<event>
 7    1  0.2769403E-010  0.4778727E+02  0.7816164E-02  0.1312668E+00
        -11   -1    0    0    0    0  0.00000000000E+00  0.00000000000E+00  0.45593999997E+02  0.45594000000E+02  0.51100000000E-03 0.  1.
         11   -1    0    0    0    0 -0.00000000000E+00 -0.00000000000E+00 -0.45593999997E+02  0.45594000000E+02  0.51100000000E-03 0. -1.
    9900012    2    1    2    0    0 -0.24403107694E+01 -0.12562255566E+02  0.41471170757E+02  0.47787269758E+02  0.19999994136E+02 0.  0.
         12    1    1    2    0    0  0.24403107694E+01  0.12562255566E+02 -0.41471170757E+02  0.43400730242E+02  0.00000000000E+00 0. -1.
         11    1    3    3    0    0  0.28742658517E+01 -0.11026211773E+02  0.88795504352E+01  0.14445939445E+02  0.51100000000E-03 0. -1.
        -11    1    3    3    0    0 -0.22130295821E+01 -0.24546283349E+01  0.10326837055E+02  0.10842797794E+02  0.51100000000E-03 0.  1.
         12    1    3    3    0    0 -0.31015470390E+01  0.91858454182E+00  0.22264783267E+02  0.22498532520E+02  0.00000000000E+00 0. -1.
</event>
<event>
 7    1  0.2769403E-010  0.4778727E+02  0.7816164E-02  0.1312668E+00
        -11   -1    0    0    0    0  0.00000000000E+00  0.00000000000E+00  0.45593999997E+02  0.45594000000E+02  0.51100000000E-03 0.  1.
         11   -1    0    0    0    0 -0.00000000000E+00 -0.00000000000E+00 -0.45593999997E+02  0.45594000000E+02  0.51100000000E-03 0. -1.
    9900012    2    1    2    0    0  0.35313375805E+02  0.80374038437E+01  0.23916286936E+02  0.47787272447E+02  0.20000006396E+02 0.  0.
         12    1    1    2    0    0 -0.35313375805E+02 -0.80374038437E+01 -0.23916286936E+02  0.43400727553E+02  0.00000000000E+00 0. -1.
         11    1    3    3    0    0  0.17541915391E+01  0.26801029075E+01  0.55954466145E+01  0.64474151896E+01  0.51100000000E-03 0. -1.
        -11    1    3    3    0    0  0.11239111793E+01 -0.30575822097E+01  0.24617803666E+00  0.32668928961E+01  0.51100000000E-03 0.  1.
        -12    1    3    3    0    0  0.32435273086E+02  0.84148831459E+01  0.18074662285E+02  0.38072964362E+02  0.00000000000E+00 0.  1.
</event>
<event>
 7    1  0.2769403E-010  0.4778727E+02  0.7816164E-02  0.1312668E+00
        -11   -1    0    0    0    0  0.00000000000E+00  0.00000000000E+00  0.45593999997E+02  0.45594000000E+02  0.51100000000E-03 0.  1.
         11   -1    0    0    0    0 -0.00000000000E+00 -0.00000000000E+00 -0.45593999997E+02  0.45594000000E+02  0.51100000000E-03 0. -1.
    9900012    2    1    2    0    0  0.31146075587E+02  0.11874992511E+02  0.27794418129E+02  0.47787272463E+02  0.20000006467E+02 0.  0.
         12    1    1    2    0    0 -0.31146075587E+02 -0.11874992511E+02 -0.27794418129E+02  0.43400727537E+02  0.00000000000E+00 0. -1.
         11    1    3    3    0    0 -0.81555914112E+00  0.30708093609E+01  0.26835198364E+01  0.41588803562E+01  0.51100000000E-03 0. -1.
        -11    1    3    3    0    0  0.16917748919E+02  0.99465836541E+01  0.19107846553E+02  0.27390774999E+02  0.51100000000E-03 0.  1.
         12    1    3    3    0    0  0.15043885809E+02 -0.11424005041E+01  0.60030517396E+01  0.16237617108E+02  0.00000000000E+00 0. -1.
</event>
<event>
 7    1  0.2769403E-010  0.4778727E+02  0.7816164E-02  0.1312668E+00
        -11   -1    0    0    0    0  0.00000000000E+00  0.00000000000E+00  0.45593999997E+02  0.45594000000E+02  0.51100000000E-03 0.  1.
         11   -1    0    0    0    0 -0.00000000000E+00 -0.00000000000E+00 -0.45593999997E+02  0.45594000000E+02  0.51100000000E-03 0. -1.
    9900012    2    1    2    0    0 -0.78876398692E+01 -0.17622556486E+02  0.38869703910E+02  0.47787271414E+02  0.20000001683E+02 0.  0.
         12    1    1    2    0    0  0.78876398692E+01  0.17622556486E+02 -0.38869703910E+02  0.43400728586E+02  0.00000000000E+00 0. -1.
         11    1    3    3    0    0 -0.82034602608E+01 -0.77822094451E+01  0.14101238774E+02  0.18074968307E+02  0.51100000000E-03 0. -1.
        -11    1    3    3    0    0 -0.21348658019E+01 -0.17456415210E+00 -0.78566987424E+00  0.22815350201E+01  0.51100000000E-03 0.  1.
        -12    1    3    3    0    0  0.24506861935E+01 -0.96657828884E+01  0.25554135010E+02  0.27430768086E+02  0.00000000000E+00 0.  1.
</event>
<event>
 7    1  0.2769403E-010  0.4778728E+02  0.7816164E-02  0.1312668E+00
        -11   -1    0    0    0    0  0.00000000000E+00  0.00000000000E+00  0.45593999997E+02  0.45594000000E+02  0.51100000000E-03 0.  1.
         11   -1    0    0    0    0 -0.00000000000E+00 -0.00000000000E+00 -0.45593999997E+02  0.45594000000E+02  0.51100000000E-03 0. -1.
    9900012    2    1    2    0    0  0.39001938633E+02  0.60311206809E+01  0.18058151528E+02  0.47787280301E+02  0.20000042206E+02 0.  0.
         12    1    1    2    0    0 -0.39001938633E+02 -0.60311206809E+01 -0.18058151528E+02  0.43400719699E+02  0.00000000000E+00 0. -1.
         11    1    3    3    0    0  0.93742503607E+01  0.16104717596E+01  0.95621446112E+01  0.13487208716E+02  0.51100000000E-03 0. -1.
        -11    1    3    3    0    0  0.64549444166E+01  0.18342855094E+01  0.86940529459E+01  0.10982598401E+02  0.51100000000E-03 0.  1.
         12    1    3    3    0    0  0.23172743855E+02  0.25863634119E+01 -0.19804602949E+00  0.23317473185E+02  0.00000000000E+00 0. -1.
</event>
<event>
 7    1  0.2769403E-010  0.4778729E+02  0.7816164E-02  0.1312668E+00
        -11   -1    0    0    0    0  0.00000000000E+00  0.00000000000E+00  0.45593999997E+02  0.45594000000E+02  0.51100000000E-03 0.  1.
         11   -1    0    0    0    0 -0.00000000000E+00 -0.00000000000E+00 -0.45593999997E+02  0.45594000000E+02  0.51100000000E-03 0. -1.
    9900012    2    1    2    0    0  0.41185801638E+02  0.11683353354E+02 -0.71309385241E+01  0.47787293942E+02  0.20000104397E+02 0.  0.
         12    1    1    2    0    0 -0.41185801638E+02 -0.11683353354E+02  0.71309385241E+01  0.43400706058E+02  0.00000000000E+00 0. -1.
         11    1    3    3    0    0  0.36905066905E+01  0.35149908868E+01  0.37061566382E+01  0.63016345383E+01  0.51100000000E-03 0. -1.
        -11    1    3    3    0    0  0.11317032581E+02 -0.27325386931E+01 -0.22587964626E+01  0.11859348880E+02  0.51100000000E-03 0.  1.
        -12    1    3    3    0    0  0.26178262366E+02  0.10900901161E+02 -0.85782986997E+01  0.29626310523E+02  0.00000000000E+00 0.  1.
</event>
<event>
 7    1  0.2845381E-010  0.4778727E+02  0.7816164E-02  0.1312668E+00
        -11   -1    0    0    0    0  0.00000000000E+00  0.00000000000E+00  0.45593999997E+02  0.45594000000E+02  0.51100000000E-03 0.  1.
         11   -1    0    0    0    0 -0.00000000000E+00 -0.00000000000E+00 -0.45593999997E+02  0.45594000000E+02  0.51100000000E-03 0. -1.
    9900012    2    1    2    0    0  0.71427213013E+01  0.39945700264E+02 -0.15393043601E+02  0.47787271568E+02  0.20000002386E+02 0.  0.
         12    1    1    2    0    0 -0.71427213013E+01 -0.39945700264E+02  0.15393043601E+02  0.43400728432E+02  0.00000000000E+00 0. -1.
         11    1    3    3    0    0  0.63213123981E+01  0.13202309692E+02 -0.49754996705E+00  0.14646075511E+02  0.51100000000E-03 0. -1.
        -11    1    3    3    0    0  0.36094531651E+01  0.25396262145E+02 -0.10393458319E+02  0.27677107132E+02  0.51100000000E-03 0.  1.
         12    1    3    3    0    0 -0.27880442619E+01  0.13471284260E+01 -0.45020353147E+01  0.54640889247E+01  0.00000000000E+00 0. -1.
</event>
<event>
 7    1  0.2769403E-010  0.4778727E+02  0.7816164E-02  0.1312668E+00
        -11   -1    0    0    0    0  0.00000000000E+00  0.00000000000E+00  0.45593999997E+02  0.45594000000E+02  0.51100000000E-03 0. -1.
         11   -1    0    0    0    0 -0.00000000000E+00 -0.00000000000E+00 -0.45593999997E+02  0.45594000000E+02  0.51100000000E-03 0.  1.
    9900012    2    1    2    0    0 -0.39935955603E+02 -0.81228398731E+01 -0.14925215362E+02  0.47787272689E+02  0.20000007498E+02 0.  0.
         12    1    1    2    0    0  0.39935955603E+02  0.81228398731E+01  0.14925215362E+02  0.43400727311E+02  0.00000000000E+00 0. -1.
         11    1    3    3    0    0 -0.10963285292E+02 -0.91277235624E+01 -0.37339437665E+01  0.14746229963E+02  0.51100000000E-03 0. -1.
        -11    1    3    3    0    0 -0.15236418114E+02  0.13563355671E+00 -0.11787712491E+02  0.19264397199E+02  0.51100000000E-03 0.  1.
         12    1    3    3    0    0 -0.13736252198E+02  0.86925013262E+00  0.59644089598E+00  0.13776645527E+02  0.00000000000E+00 0. -1.
</event>
<event>
 7    1  0.2769403E-010  0.4778727E+02  0.7816164E-02  0.1312668E+00
        -11   -1    0    0    0    0  0.00000000000E+00  0.00000000000E+00  0.45593999997E+02  0.45594000000E+02  0.51100000000E-03 0. -1.
         11   -1    0    0    0    0 -0.00000000000E+00 -0.00000000000E+00 -0.45593999997E+02  0.45594000000E+02  0.51100000000E-03 0.  1.
    9900012    2    1    2    0    0 -0.26114876586E+02  0.31719074626E+02  0.13983461789E+02  0.47787266391E+02  0.19999978782E+02 0.  0.
         12    1    1    2    0    0  0.26114876586E+02 -0.31719074626E+02 -0.13983461789E+02  0.43400733609E+02  0.00000000000E+00 0. -1.
         11    1    3    3    0    0 -0.11819896542E+02  0.28758691426E+01  0.61397129554E+01  0.13626322065E+02  0.51100000000E-03 0. -1.
        -11    1    3    3    0    0 -0.11492756260E+00  0.51219444111E+01  0.34521365039E+01  0.61777641262E+01  0.51100000000E-03 0.  1.
        -12    1    3    3    0    0 -0.14180052481E+02  0.23721261072E+02  0.43916123296E+01  0.27983180199E+02  0.00000000000E+00 0.  1.
</event>
<event>
 7    1  0.2769403E-010  0.4778727E+02  0.7816164E-02  0.1312668E+00
        -11   -1    0    0    0    0  0.00000000000E+00  0.00000000000E+00  0.45593999997E+02  0.45594000000E+02  0.51100000000E-03 0. -1.
         11   -1    0    0    0    0 -0.00000000000E+00 -0.00000000000E+00 -0.45593999997E+02  0.45594000000E+02  0.51100000000E-03 0.  1.
    9900012    2    1    2    0    0  0.12901794478E+02  0.38029328221E+02 -0.16460170619E+02  0.47787270484E+02  0.19999997444E+02 0.  0.
         12    1    1    2    0    0 -0.12901794478E+02 -0.38029328221E+02  0.16460170619E+02  0.43400729516E+02  0.00000000000E+00 0. -1.
         11    1    3    3    0    0  0.26003698830E+01  0.58111909025E+01  0.17948576976E+01  0.66146335990E+01  0.51100000000E-03 0. -1.
        -11    1    3    3    0    0  0.84048824951E+01  0.15396651448E+02 -0.16622183891E+02  0.24166007596E+02  0.51100000000E-03 0.  1.
         12    1    3    3    0    0  0.18965420995E+01  0.16821485871E+02 -0.16328444259E+01  0.17006629289E+02  0.00000000000E+00 0. -1.
</event>
<event>
 7    1  0.2769403E-010  0.4778727E+02  0.7816164E-02  0.1312668E+00
        -11   -1    0    0    0    0  0.00000000000E+00  0.00000000000E+00  0.45593999997E+02  0.45594000000E+02  0.51100000000E-03 0.  1.
         11   -1    0    0    0    0 -0.00000000000E+00 -0.00000000000E+00 -0.45593999997E+02  0.45594000000E+02  0.51100000000E-03 0. -1.
    9900012    2    1    2    0    0  0.19440643218E+02 -0.78842175597E+01  0.37993734401E+02  0.47787270179E+02  0.19999996053E+02 0.  0.
         12    1    1    2    0    0 -0.19440643218E+02  0.78842175597E+01 -0.37993734401E+02  0.43400729821E+02  0.00000000000E+00 0. -1.
         11    1    3    3    0    0  0.35929023852E+01  0.19435957985E+01  0.79176069121E+01  0.89092654946E+01  0.51100000000E-03 0.  1.
        -11    1    3    3    0    0  0.63037975574E+01  0.11250592184E-01  0.22181135963E+02  0.23059505265E+02  0.51100000000E-03 0. -1.
        -12    1    3    3    0    0  0.95439432755E+01 -0.98390639504E+01  0.78949915263E+01  0.15818499419E+02  0.00000000000E+00 0.  1.
</event>
<event>
 7    1  0.2769403E-010  0.4778727E+02  0.7816164E-02  0.1312668E+00
        -11   -1    0    0    0    0  0.00000000000E+00  0.00000000000E+00  0.45593999997E+02  0.45594000000E+02  0.51100000000E-03 0.  1.
         11   -1    0    0    0    0 -0.00000000000E+00 -0.00000000000E+00 -0.45593999997E+02  0.45594000000E+02  0.51100000000E-03 0. -1.
    9900012    2    1    2    0    0  0.33212247939E+02 -0.15143790593E+02  0.23478409522E+02  0.47787268205E+02  0.19999987055E+02 0.  0.
         12    1    1    2    0    0 -0.33212247939E+02  0.15143790593E+02 -0.23478409522E+02  0.43400731795E+02  0.00000000000E+00 0. -1.
         11    1    3    3    0    0  0.56964157364E+01 -0.61504922474E+01  0.16919211845E+01  0.85522105144E+01  0.51100000000E-03 0. -1.
        -11    1    3    3    0    0  0.18148035634E+02 -0.12789624007E+02  0.17438893283E+02  0.28231908876E+02  0.51100000000E-03 0.  1.
         12    1    3    3    0    0  0.93677965685E+01  0.37963256617E+01  0.43475950546E+01  0.11003148815E+02  0.00000000000E+00 0. -1.
</event>
<event>
 7    1  0.2769403E-010  0.4778728E+02  0.7816164E-02  0.1312668E+00
        -11   -1    0    0    0    0  0.00000000000E+00  0.00000000000E+00  0.45593999997E+02  0.45594000000E+02  0.51100000000E-03 0. -1.
         11   -1    0    0    0    0 -0.00000000000E+00 -0.00000000000E+00 -0.45593999997E+02  0.45594000000E+02  0.51100000000E-03 0.  1.
    9900012    2    1    2    0    0  0.27355549186E+02  0.31500811734E+02 -0.11958080113E+02  0.47787275453E+02  0.20000020102E+02 0.  0.
         12    1    1    2    0    0 -0.27355549186E+02 -0.31500811734E+02  0.11958080113E+02  0.43400724547E+02  0.00000000000E+00 0. -1.
         11    1    3    3    0    0 -0.10638260430E+01  0.36240499452E+01 -0.53096014157E+01  0.65159290443E+01  0.51100000000E-03 0. -1.
        -11    1    3    3    0    0  0.89941530813E+01  0.13337717617E+02 -0.54244663579E+01  0.16976876521E+02  0.51100000000E-03 0.  1.
        -12    1    3    3    0    0  0.19425222148E+02  0.14539044172E+02 -0.12240123392E+01  0.24294469888E+02  0.00000000000E+00 0.  1.
</event>
<event>
 7    1  0.2769403E-010  0.4778721E+02  0.7816164E-02  0.1312668E+00
        -11   -1    0    0    0    0  0.00000000000E+00  0.00000000000E+00  0.45593999997E+02  0.45594000000E+02  0.51100000000E-03 0.  1.
         11   -1    0    0    0    0 -0.00000000000E+00 -0.00000000000E+00 -0.45593999997E+02  0.45594000000E+02  0.51100000000E-03 0. -1.
    9900012    2    1    2    0    0 -0.12666408209E+02  0.14481182234E+02  0.38903543468E+02  0.47787213945E+02  0.19999739661E+02 0.  0.
         12    1    1    2    0    0  0.12666408209E+02 -0.14481182234E+02 -0.38903543468E+02  0.43400786055E+02  0.00000000000E+00 0. -1.
         11    1    3    3    0    0  0.38925281396E+01  0.57930542981E+01  0.55085577174E+01  0.88913138402E+01  0.51100000000E-03 0.  1.
        -11    1    3    3    0    0 -0.63497585468E+00 -0.47922498252E+00  0.50780594841E+01  0.51399940958E+01  0.51100000000E-03 0. -1.
        -12    1    3    3    0    0 -0.15923960494E+02  0.91673529181E+01  0.28316926266E+02  0.33755906009E+02  0.00000000000E+00 0.  1.
</event>
<event>
 7    1  0.2769403E-010  0.4778727E+02  0.7816164E-02  0.1312668E+00
        -11   -1    0    0    0    0  0.00000000000E+00  0.00000000000E+00  0.45593999997E+02  0.45594000000E+02  0.51100000000E-03 0.  1.
         11   -1    0    0    0    0 -0.00000000000E+00 -0.00000000000E+00 -0.45593999997E+02  0.45594000000E+02  0.51100000000E-03 0. -1.
    9900012    2    1    2    0    0 -0.33865306556E+02 -0.18846579063E+02 -0.19533833975E+02  0.47787271892E+02  0.20000003865E+02 0.  0.
         12    1    1    2    0    0  0.33865306556E+02  0.18846579063E+02  0.19533833975E+02  0.43400728108E+02  0.00000000000E+00 0. -1.
         11    1    3    3    0    0  0.10533901316E+01 -0.36391786403E+01  0.11735402015E+01  0.39661629834E+01  0.51100000000E-03 0. -1.
        -11    1    3    3    0    0 -0.10820614592E+02 -0.52299235173E+01 -0.32976333936E+01  0.12462430999E+02  0.51100000000E-03 0.  1.
         12    1    3    3    0    0 -0.24098082096E+02 -0.99774769051E+01 -0.17409740783E+02  0.31358677909E+02  0.00000000000E+00 0. -1.
</event>
<event>
 7    1  0.2769403E-010  0.4778727E+02  0.7816164E-02  0.1312668E+00
        -11   -1    0    0    0    0  0.00000000000E+00  0.00000000000E+00  0.45593999997E+02  0.45594000000E+02  0.51100000000E-03 0.  1.
         11   -1    0    0    0    0 -0.00000000000E+00 -0.00000000000E+00 -0.45593999997E+02  0.45594000000E+02  0.51100000000E-03 0. -1.
    9900012    2    1    2    0    0  0.69103301758E+01  0.35026358657E+02  0.24678432726E+02  0.47787268373E+02  0.19999987820E+02 0.  0.
         12    1    1    2    0    0 -0.69103301758E+01 -0.35026358657E+02 -0.24678432726E+02  0.43400731627E+02  0.00000000000E+00 0. -1.
         11    1    3    3    0    0  0.69580504320E+00 -0.19516550852E+01  0.19815134079E+01  0.28669666682E+01  0.51100000000E-03 0. -1.
        -11    1    3    3    0    0  0.32477842342E+01  0.22390946449E+02  0.79896244267E+01  0.23994513624E+02  0.51100000000E-03 0.  1.
        -12    1    3    3    0    0  0.29667408984E+01  0.14587067294E+02  0.14707294892E+02  0.20925788081E+02  0.00000000000E+00 0.  1.
</event>
<event>
 7    1  0.2769403E-010  0.4778727E+02  0.7816164E-02  0.1312668E+00
        -11   -1    0    0    0    0  0.00000000000E+00  0.00000000000E+00  0.45593999997E+02  0.45594000000E+02  0.51100000000E-03 0.  1.
         11   -1    0    0    0    0 -0.00000000000E+00 -0.00000000000E+00 -0.45593999997E+02  0.45594000000E+02  0.51100000000E-03 0. -1.
    9900012    2    1    2    0    0 -0.36143759697E+01 -0.18243448754E+02  0.39213978880E+02  0.47787271024E+02  0.19999999905E+02 0.  0.
         12    1    1    2    0    0  0.36143759697E+01  0.18243448754E+02 -0.39213978880E+02  0.43400728976E+02  0.00000000000E+00 0. -1.
         11    1    3    3    0    0 -0.30629084746E+01  0.10896078034E+01  0.69780801488E+01  0.76981982511E+01  0.51100000000E-03 0. -1.
        -11    1    3    3    0    0  0.29489077322E+01 -0.12982201434E+02  0.29452608069E+02  0.32321660434E+02  0.51100000000E-03 0.  1.
         12    1    3    3    0    0 -0.35003752273E+01 -0.63508551232E+01  0.27832906627E+01  0.77674123388E+01  0.00000000000E+00 0. -1.
</event>
<event>
 7    1  0.2769403E-010  0.4778727E+02  0.7816164E-02  0.1312668E+00
        -11   -1    0    0    0    0  0.00000000000E+00  0.00000000000E+00  0.45593999997E+02  0.45594000000E+02  0.51100000000E-03 0. -1.
         11   -1    0    0    0    0 -0.00000000000E+00 -0.00000000000E+00 -0.45593999997E+02  0.45594000000E+02  0.51100000000E-03 0.  1.
    9900012    2    1    2    0    0  0.36626047589E+02  0.86875931062E+01 -0.21602816951E+02  0.47787270327E+02  0.19999996727E+02 0.  0.
         12    1    1    2    0    0 -0.36626047589E+02 -0.86875931062E+01  0.21602816951E+02  0.43400729673E+02  0.00000000000E+00 0. -1.
         11    1    3    3    0    0  0.12850748451E+02 -0.21493819238E+01  0.11601634438E+01  0.13080808762E+02  0.51100000000E-03 0. -1.
        -11    1    3    3    0    0  0.13436711302E+02  0.53513881017E+01 -0.11725498046E+02  0.18619072746E+02  0.51100000000E-03 0.  1.
        -12    1    3    3    0    0  0.10338587836E+02  0.54855869283E+01 -0.11037482349E+02  0.16087388819E+02  0.00000000000E+00 0.  1.
</event>
<event>
 7    1  0.2769403E-010  0.4778728E+02  0.7816164E-02  0.1312668E+00
        -11   -1    0    0    0    0  0.00000000000E+00  0.00000000000E+00  0.45593999997E+02  0.45594000000E+02  0.51100000000E-03 0. -1.
         11   -1    0    0    0    0 -0.00000000000E+00 -0.00000000000E+00 -0.45593999997E+02  0.45594000000E+02  0.51100000000E-03 0.  1.
    9900012    2    1    2    0    0  0.11384266176E+02  0.26207010466E+02 -0.32668240019E+02  0.47787276274E+02  0.20000023845E+02 0.  0.
         12    1    1    2    0    0 -0.11384266176E+02 -0.26207010466E+02  0.32668240019E+02  0.43400723726E+02  0.00000000000E+00 0. -1.
         11    1    3    3    0    0 -0.20234394826E+00 -0.16263219146E+01 -0.57015881929E+00  0.17352081672E+01  0.51100000000E-03 0. -1.
        -11    1    3    3    0    0 -0.22111314264E+01  0.10712257009E+02 -0.90415322139E+01  0.14191224663E+02  0.51100000000E-03 0.  1.
         12    1    3    3    0    0  0.13797741551E+02  0.17121075372E+02 -0.23056548986E+02  0.31860843444E+02  0.00000000000E+00 0. -1.
</event>
<event>
 7    1  0.2769403E-010  0.4778729E+02  0.7816164E-02  0.1312668E+00
        -11   -1    0    0    0    0  0.00000000000E+00  0.00000000000E+00  0.45593999997E+02  0.45594000000E+02  0.51100000000E-03 0.  1.
         11   -1    0    0    0    0 -0.00000000000E+00 -0.00000000000E+00 -0.45593999997E+02  0.45594000000E+02  0.51100000000E-03 0. -1.
    9900012    2    1    2    0    0 -0.23025265524E+02  0.36035649374E+02  0.74088384685E+01  0.47787288419E+02  0.20000079218E+02 0.  0.
         12    1    1    2    0    0  0.23025265524E+02 -0.36035649374E+02 -0.74088384685E+01  0.43400711581E+02  0.00000000000E+00 0. -1.
         11    1    3    3    0    0 -0.45689638025E+01  0.50828467436E+01  0.52854801055E+01  0.86398530922E+01  0.51100000000E-03 0. -1.
        -11    1    3    3    0    0 -0.32542641199E+01  0.11445594922E+02  0.71896528641E+01  0.13902625171E+02  0.51100000000E-03 0.  1.
         12    1    3    3    0    0 -0.15202037602E+02  0.19507207709E+02 -0.50662945012E+01  0.25244810156E+02  0.00000000000E+00 0. -1.
</event>
<event>
 7    1  0.2769403E-010  0.4778727E+02  0.7816164E-02  0.1312668E+00
        -11   -1    0    0    0    0  0.00000000000E+00  0.00000000000E+00  0.45593999997E+02  0.45594000000E+02  0.51100000000E-03 0. -1.
         11   -1    0    0    0    0 -0.00000000000E+00 -0.00000000000E+00 -0.45593999997E+02  0.45594000000E+02  0.51100000000E-03 0.  1.
    9900012    2    1    2    0    0 -0.25309418986E+01 -0.42309799107E+02 -0.93326613677E+01  0.47787270333E+02  0.19999996758E+02 0.  0.
         12    1    1    2    0    0  0.25309418986E+01  0.42309799107E+02  0.93326613677E+01  0.43400729667E+02  0.00000000000E+00 0. -1.
         11    1    3    3    0    0 -0.36558159808E+01 -0.78788924512E+01  0.49264014310E+01  0.99855579746E+01  0.51100000000E-03 0. -1.
        -11    1    3    3    0    0 -0.75366412039E+00 -0.12307656512E+02 -0.21672439490E+01  0.12519719047E+02  0.51100000000E-03 0.  1.
         12    1    3    3    0    0  0.18785382027E+01 -0.22123250144E+02 -0.12091818850E+02  0.25281993311E+02  0.00000000000E+00 0. -1.
</event>
<event>
 7    1  0.2769403E-010  0.4778727E+02  0.7816164E-02  0.1312668E+00
        -11   -1    0    0    0    0  0.00000000000E+00  0.00000000000E+00  0.45593999997E+02  0.45594000000E+02  0.51100000000E-03 0. -1.
         11   -1    0    0    0    0 -0.00000000000E+00 -0.00000000000E+00 -0.45593999997E+02  0.45594000000E+02  0.51100000000E-03 0.  1.
    9900012    2    1    2    0    0 -0.33358227702E+02 -0.26028495975E+01 -0.27641946045E+02  0.47787270022E+02  0.19999995340E+02 0.  0.
         12    1    1    2    0    0  0.33358227702E+02  0.26028495975E+01  0.27641946045E+02  0.43400729978E+02  0.00000000000E+00 0. -1.
         11    1    3    3    0    0 -0.93547915289E+00 -0.16196133474E+00 -0.53596378569E+01  0.54430755036E+01  0.51100000000E-03 0. -1.
        -11    1    3    3    0    0 -0.35056292175E+01  0.14269653449E+01 -0.99949795803E+01  0.10687622906E+02  0.51100000000E-03 0.  1.
         12    1    3    3    0    0 -0.28917119332E+02 -0.38678536076E+01 -0.12287328608E+02  0.31656571613E+02  0.00000000000E+00 0. -1.
</event>
<event>
 7    1  0.2769403E-010  0.4778727E+02  0.7816164E-02  0.1312668E+00
        -11   -1    0    0    0    0  0.00000000000E+00  0.00000000000E+00  0.45593999997E+02  0.45594000000E+02  0.51100000000E-03 0.  1.
         11   -1    0    0    0    0 -0.00000000000E+00 -0.00000000000E+00 -0.45593999997E+02  0.45594000000E+02  0.51100000000E-03 0. -1.
    9900012    2    1    2    0    0 -0.28587097666E+02 -0.82771727274E+01  0.31589389236E+02  0.47787271278E+02  0.20000001065E+02 0.  0.
         12    1    1    2    0    0  0.28587097666E+02  0.82771727274E+01 -0.31589389236E+02  0.43400728722E+02  0.00000000000E+00 0. -1.
         11    1    3    3    0    0 -0.10057719081E+02 -0.26412405064E+01  0.74192552014E+01  0.12774161911E+02  0.51100000000E-03 0. -1.
        -11    1    3    3    0    0 -0.13908028799E+02  0.40151849029E+01  0.15791607719E+02  0.21422648050E+02  0.51100000000E-03 0.  1.
         12    1    3    3    0    0 -0.46213497852E+01 -0.96511171239E+01  0.83785263157E+01  0.13590461317E+02  0.00000000000E+00 0. -1.
</event>
<event>
 7    1  0.2769403E-010  0.4778727E+02  0.7816164E-02  0.1312668E+00
        -11   -1    0    0    0    0  0.00000000000E+00  0.00000000000E+00  0.45593999997E+02  0.45594000000E+02  0.51100000000E-03 0.  1.
         11   -1    0    0    0    0 -0.00000000000E+00 -0.00000000000E+00 -0.45593999997E+02  0.45594000000E+02  0.51100000000E-03 0. -1.
    9900012    2    1    2    0    0 -0.22608591521E+02 -0.22732015876E+01  0.36977126408E+02  0.47787265750E+02  0.19999975862E+02 0.  0.
         12    1    1    2    0    0  0.22608591521E+02  0.22732015876E+01 -0.36977126408E+02  0.43400734250E+02  0.00000000000E+00 0. -1.
         11    1    3    3    0    0 -0.10607193481E+02  0.19453392699E+01  0.12153335582E+02  0.16248091102E+02  0.51100000000E-03 0. -1.
        -11    1    3    3    0    0 -0.81606842069E+01 -0.20237015483E+01  0.25690586282E+02  0.27031432786E+02  0.51100000000E-03 0.  1.
         12    1    3    3    0    0 -0.38407138327E+01 -0.21948393092E+01 -0.86679545615E+00  0.45077418626E+01  0.00000000000E+00 0. -1.
</event>
<event>
 7    1  0.2769403E-010  0.4778727E+02  0.7816164E-02  0.1312668E+00
        -11   -1    0    0    0    0  0.00000000000E+00  0.00000000000E+00  0.45593999997E+02  0.45594000000E+02  0.51100000000E-03 0.  1.
         11   -1    0    0    0    0 -0.00000000000E+00 -0.00000000000E+00 -0.45593999997E+02  0.45594000000E+02  0.51100000000E-03 0. -1.
    9900012    2    1    2    0    0 -0.87883092408E+01  0.35340285718E+02  0.23610439541E+02  0.47787273862E+02  0.20000012848E+02 0.  0.
         12    1    1    2    0    0  0.87883092408E+01 -0.35340285718E+02 -0.23610439541E+02  0.43400726138E+02  0.00000000000E+00 0. -1.
         11    1    3    3    0    0 -0.52243348295E+00  0.47364456922E+00 -0.12260995587E+01  0.14144243745E+01  0.51100000000E-03 0. -1.
        -11    1    3    3    0    0 -0.37711234395E+01  0.12201739855E+02  0.45142840677E+00  0.12779186803E+02  0.51100000000E-03 0.  1.
        -12    1    3    3    0    0 -0.44947523184E+01  0.22664901294E+02  0.24385110693E+02  0.33593662685E+02  0.00000000000E+00 0.  1.
</event>
<event>
 7    1  0.2769403E-010  0.4778727E+02  0.7816164E-02  0.1312668E+00
        -11   -1    0    0    0    0  0.00000000000E+00  0.00000000000E+00  0.45593999997E+02  0.45594000000E+02  0.51100000000E-03 0.  1.
         11   -1    0    0    0    0 -0.00000000000E+00 -0.00000000000E+00 -0.45593999997E+02  0.45594000000E+02  0.51100000000E-03 0. -1.
    9900012    2    1    2    0    0 -0.39712738143E+01 -0.16084726065E+02  0.40114011523E+02  0.47787270182E+02  0.19999996068E+02 0.  0.
         12    1    1    2    0    0  0.39712738143E+01  0.16084726065E+02 -0.40114011523E+02  0.43400729818E+02  0.00000000000E+00 0. -1.
         11    1    3    3    0    0  0.50753486902E+00  0.21664846911E+01  0.65542560320E+01  0.69216703153E+01  0.51100000000E-03 0. -1.
        -11    1    3    3    0    0 -0.67159668589E+01 -0.32499691164E+01  0.16055548353E+02  0.17704438519E+02  0.51100000000E-03 0.  1.
        -12    1    3    3    0    0  0.22371581756E+01 -0.15001241640E+02  0.17504207138E+02  0.23161161347E+02  0.00000000000E+00 0.  1.
</event>
<event>
 7    1  0.2769403E-010  0.4778729E+02  0.7816164E-02  0.1312668E+00
        -11   -1    0    0    0    0  0.00000000000E+00  0.00000000000E+00  0.45593999997E+02  0.45594000000E+02  0.51100000000E-03 0. -1.
         11   -1    0    0    0    0 -0.00000000000E+00 -0.00000000000E+00 -0.45593999997E+02  0.45594000000E+02  0.51100000000E-03 0.  1.
    9900012    2    1    2    0    0 -0.30607781052E+02  0.24118953735E+02 -0.19106590760E+02  0.47787285712E+02  0.20000066876E+02 0.  0.
         12    1    1    2    0    0  0.30607781052E+02 -0.24118953735E+02  0.19106590760E+02  0.43400714288E+02  0.00000000000E+00 0. -1.
         11    1    3    3    0    0  0.88860694658E+00 -0.16523867017E+01 -0.57691266965E+00  0.19628633694E+01  0.51100000000E-03 0. -1.
        -11    1    3    3    0    0 -0.95878124146E+01  0.25011649326E+01 -0.52624824519E+01  0.11219433797E+02  0.51100000000E-03 0.  1.
        -12    1    3    3    0    0 -0.21908575584E+02  0.23270175504E+02 -0.13267195639E+02  0.34604988545E+02  0.00000000000E+00 0.  1.
</event>
<event>
 7    1  0.2769403E-010  0.4778727E+02  0.7816164E-02  0.1312668E+00
        -11   -1    0    0    0    0  0.00000000000E+00  0.00000000000E+00  0.45593999997E+02  0.45594000000E+02  0.51100000000E-03 0. -1.
         11   -1    0    0    0    0 -0.00000000000E+00 -0.00000000000E+00 -0.45593999997E+02  0.45594000000E+02  0.51100000000E-03 0.  1.
    9900012    2    1    2    0    0 -0.40676526983E+02  0.11011113645E+02 -0.10382611954E+02  0.47787273024E+02  0.20000009026E+02 0.  0.
         12    1    1    2    0    0  0.40676526983E+02 -0.11011113645E+02  0.10382611954E+02  0.43400726976E+02  0.00000000000E+00 0. -1.
         11    1    3    3    0    0 -0.45780628395E+01  0.12330627909E+01 -0.73330097398E+00  0.47975862461E+01  0.51100000000E-03 0. -1.
        -11    1    3    3    0    0 -0.17846648359E+02 -0.12897532479E+01 -0.11955990027E+02  0.21520037613E+02  0.51100000000E-03 0.  1.
         12    1    3    3    0    0 -0.18251815784E+02  0.11067804102E+02  0.23066790467E+01  0.21469649165E+02  0.00000000000E+00 0. -1.
</event>
<event>
 7    1  0.2769403E-010  0.4778727E+02  0.7816164E-02  0.1312668E+00
        -11   -1    0    0    0    0  0.00000000000E+00  0.00000000000E+00  0.45593999997E+02  0.45594000000E+02  0.51100000000E-03 0.  1.
         11   -1    0    0    0    0 -0.00000000000E+00 -0.00000000000E+00 -0.45593999997E+02  0.45594000000E+02  0.51100000000E-03 0. -1.
    9900012    2    1    2    0    0  0.12617312514E+02  0.13485582625E+02  0.39275509327E+02  0.47787272509E+02  0.20000006679E+02 0.  0.
         12    1    1    2    0    0 -0.12617312514E+02 -0.13485582625E+02 -0.39275509327E+02  0.43400727491E+02  0.00000000000E+00 0. -1.
         11    1    3    3    0    0  0.77729652576E+01  0.98663318953E+01  0.12324080600E+02  0.17596774047E+02  0.51100000000E-03 0. -1.
        -11    1    3    3    0    0  0.39478858552E+00 -0.66359317603E+00 -0.11683854698E+01  0.14004780604E+01  0.51100000000E-03 0.  1.
        -12    1    3    3    0    0  0.44495586713E+01  0.42828439057E+01  0.28119814197E+02  0.28790020402E+02  0.00000000000E+00 0.  1.
</event>
<event>
 7    1  0.2769403E-010  0.4778727E+02  0.7816164E-02  0.1312668E+00
        -11   -1    0    0    0    0  0.00000000000E+00  0.00000000000E+00  0.45593999997E+02  0.45594000000E+02  0.51100000000E-03 0.  1.
         11   -1    0    0    0    0 -0.00000000000E+00 -0.00000000000E+00 -0.45593999997E+02  0.45594000000E+02  0.51100000000E-03 0. -1.
    9900012    2    1    2    0    0  0.14770187771E+02  0.16734857651E+02  0.37221083851E+02  0.47787274309E+02  0.20000014886E+02 0.  0.
         12    1    1    2    0    0 -0.14770187771E+02 -0.16734857651E+02 -0.37221083851E+02  0.43400725691E+02  0.00000000000E+00 0. -1.
         11    1    3    3    0    0 -0.50896454472E+00 -0.71198880262E+00 -0.71570658284E+00  0.11305791156E+01  0.51100000000E-03 0. -1.
        -11    1    3    3    0    0 -0.26165219062E+01  0.20371042598E+01  0.69120213643E+01  0.76662911667E+01  0.51100000000E-03 0.  1.
         12    1    3    3    0    0  0.17895674222E+02  0.15409742194E+02  0.31024769070E+02  0.38990404027E+02  0.00000000000E+00 0. -1.
</event>
<event>
 7    1  0.2769403E-010  0.4778727E+02  0.7816164E-02  0.1312668E+00
        -11   -1    0    0    0    0  0.00000000000E+00  0.00000000000E+00  0.45593999997E+02  0.45594000000E+02  0.51100000000E-03 0.  1.
         11   -1    0    0    0    0 -0.00000000000E+00 -0.00000000000E+00 -0.45593999997E+02  0.45594000000E+02  0.51100000000E-03 0. -1.
    9900012    2    1    2    0    0  0.41217654636E+02 -0.12141796411E+02 -0.61077981885E+01  0.47787268757E+02  0.19999989570E+02 0.  0.
         12    1    1    2    0    0 -0.41217654636E+02  0.12141796411E+02  0.61077981885E+01  0.43400731243E+02  0.00000000000E+00 0. -1.
         11    1    3    3    0    0  0.11992397251E+01 -0.33030722340E+01 -0.29715108128E+01  0.46019929241E+01  0.51100000000E-03 0. -1.
        -11    1    3    3    0    0  0.27828686471E+02 -0.33235389435E+01 -0.76727962739E+01  0.29057761523E+02  0.51100000000E-03 0.  1.
        -12    1    3    3    0    0  0.12189728440E+02 -0.55151852331E+01  0.45365088982E+01  0.14127514310E+02  0.00000000000E+00 0.  1.
</event>
<event>
 7    1  0.2769403E-010  0.4778727E+02  0.7816164E-02  0.1312668E+00
        -11   -1    0    0    0    0  0.00000000000E+00  0.00000000000E+00  0.45593999997E+02  0.45594000000E+02  0.51100000000E-03 0.  1.
         11   -1    0    0    0    0 -0.00000000000E+00 -0.00000000000E+00 -0.45593999997E+02  0.45594000000E+02  0.51100000000E-03 0. -1.
    9900012    2    1    2    0    0 -0.16793134959E+02  0.88560336203E+01  0.39027996133E+02  0.47787271948E+02  0.20000004121E+02 0.  0.
         12    1    1    2    0    0  0.16793134959E+02 -0.88560336203E+01 -0.39027996133E+02  0.43400728052E+02  0.00000000000E+00 0. -1.
         11    1    3    3    0    0 -0.51165993841E+01  0.95854734639E+01  0.30455401088E+02  0.32335620397E+02  0.51100000000E-03 0.  1.
        -11    1    3    3    0    0 -0.10812891061E+01  0.10309088986E+01 -0.29586413813E+00  0.15229888829E+01  0.51100000000E-03 0. -1.
        -12    1    3    3    0    0 -0.10595246469E+02 -0.17603487423E+01  0.88684591838E+01  0.13928662668E+02  0.00000000000E+00 0.  1.
</event>
<event>
 7    1  0.2769403E-010  0.4778727E+02  0.7816164E-02  0.1312668E+00
        -11   -1    0    0    0    0  0.00000000000E+00  0.00000000000E+00  0.45593999997E+02  0.45594000000E+02  0.51100000000E-03 0.  1.
         11   -1    0    0    0    0 -0.00000000000E+00 -0.00000000000E+00 -0.45593999997E+02  0.45594000000E+02  0.51100000000E-03 0. -1.
    9900012    2    1    2    0    0  0.18547828208E+02 -0.32081996470E+02  0.22590861414E+02  0.47787269036E+02  0.19999990844E+02 0.  0.
         12    1    1    2    0    0 -0.18547828208E+02  0.32081996470E+02 -0.22590861414E+02  0.43400730964E+02  0.00000000000E+00 0. -1.
         11    1    3    3    0    0  0.24389720930E+01 -0.30273915880E+01 -0.16646081171E+01  0.42290194067E+01  0.51100000000E-03 0. -1.
        -11    1    3    3    0    0  0.37459925551E+01 -0.13047598994E+01  0.84018772483E+01  0.92912001472E+01  0.51100000000E-03 0.  1.
        -12    1    3    3    0    0  0.12362863560E+02 -0.27749844982E+02  0.15853592283E+02  0.34267049483E+02  0.00000000000E+00 0.  1.
</event>
<event>
 7    1  0.2769403E-010  0.4778727E+02  0.7816164E-02  0.1312668E+00
        -11   -1    0    0    0    0  0.00000000000E+00  0.00000000000E+00  0.45593999997E+02  0.45594000000E+02  0.51100000000E-03 0. -1.
         11   -1    0    0    0    0 -0.00000000000E+00 -0.00000000000E+00 -0.45593999997E+02  0.45594000000E+02  0.51100000000E-03 0.  1.
    9900012    2    1    2    0    0  0.65199499814E+01  0.27651068153E+02 -0.32810543469E+02  0.47787273272E+02  0.20000010157E+02 0.  0.
         12    1    1    2    0    0 -0.65199499814E+01 -0.27651068153E+02  0.32810543469E+02  0.43400726728E+02  0.00000000000E+00 0. -1.
         11    1    3    3    0    0  0.60194491064E+01  0.46964353922E+01 -0.10114210560E+02  0.12672313461E+02  0.51100000000E-03 0.  1.
        -11    1    3    3    0    0  0.46604458186E+01  0.45588326923E+01 -0.14005532005E+01  0.66681526881E+01  0.51100000000E-03 0. -1.
        -12    1    3    3    0    0 -0.41599449435E+01  0.18395800069E+02 -0.21295779708E+02  0.28446807123E+02  0.00000000000E+00 0.  1.
</event>
<event>
 7    1  0.2769403E-010  0.4778727E+02  0.7816164E-02  0.1312668E+00
        -11   -1    0    0    0    0  0.00000000000E+00  0.00000000000E+00  0.45593999997E+02  0.45594000000E+02  0.51100000000E-03 0.  1.
         11   -1    0    0    0    0 -0.00000000000E+00 -0.00000000000E+00 -0.45593999997E+02  0.45594000000E+02  0.51100000000E-03 0. -1.
    9900012    2    1    2    0    0  0.12729726915E+02  0.38596269048E+02  0.15228436580E+02  0.47787271752E+02  0.20000003226E+02 0.  0.
         12    1    1    2    0    0 -0.12729726915E+02 -0.38596269048E+02 -0.15228436580E+02  0.43400728248E+02  0.00000000000E+00 0. -1.
         11    1    3    3    0    0  0.19136044421E+01  0.14934742878E+02  0.76486870736E+01  0.16888186433E+02  0.51100000000E-03 0.  1.
        -11    1    3    3    0    0  0.31739121256E+00  0.16820875351E+02  0.73681914686E+01  0.18366622731E+02  0.51100000000E-03 0. -1.
        -12    1    3    3    0    0  0.10498731261E+02  0.68406508196E+01  0.21155803782E+00  0.12532462588E+02  0.00000000000E+00 0.  1.
</event>
<event>
 7    1  0.2769403E-010  0.4778727E+02  0.7816164E-02  0.1312668E+00
        -11   -1    0    0    0    0  0.00000000000E+00  0.00000000000E+00  0.45593999997E+02  0.45594000000E+02  0.51100000000E-03 0.  1.
         11   -1    0    0    0    0 -0.00000000000E+00 -0.00000000000E+00 -0.45593999997E+02  0.45594000000E+02  0.51100000000E-03 0. -1.
    9900012    2    1    2    0    0  0.12264200646E+01 -0.40106743224E+02  0.16539902689E+02  0.47787270292E+02  0.19999996568E+02 0.  0.
         12    1    1    2    0    0 -0.12264200646E+01  0.40106743224E+02 -0.16539902689E+02  0.43400729708E+02  0.00000000000E+00 0. -1.
         11    1    3    3    0    0 -0.40684636630E+01 -0.24445623982E+02  0.43709455675E+01  0.25164381452E+02  0.51100000000E-03 0. -1.
        -11    1    3    3    0    0 -0.16838087342E+01 -0.50670826816E+01  0.46019915211E+00  0.53593210648E+01  0.51100000000E-03 0.  1.
        -12    1    3    3    0    0  0.69786924618E+01 -0.10594036561E+02  0.11708757970E+02  0.17263567775E+02  0.00000000000E+00 0.  1.
</event>
<event>
 7    1  0.2769403E-010  0.4778727E+02  0.7816164E-02  0.1312668E+00
        -11   -1    0    0    0    0  0.00000000000E+00  0.00000000000E+00  0.45593999997E+02  0.45594000000E+02  0.51100000000E-03 0.  1.
         11   -1    0    0    0    0 -0.00000000000E+00 -0.00000000000E+00 -0.45593999997E+02  0.45594000000E+02  0.51100000000E-03 0. -1.
    9900012    2    1    2    0    0  0.56178177924E+01 -0.17376306727E+02  0.39371659298E+02  0.47787268807E+02  0.19999989800E+02 0.  0.
         12    1    1    2    0    0 -0.56178177924E+01  0.17376306727E+02 -0.39371659298E+02  0.43400731193E+02  0.00000000000E+00 0. -1.
         11    1    3    3    0    0 -0.26632487823E+01 -0.53692515344E-01  0.64115526891E+01  0.69428945771E+01  0.51100000000E-03 0. -1.
        -11    1    3    3    0    0  0.75503027460E+00 -0.48120621703E+01  0.22146976786E+02  0.22676300273E+02  0.51100000000E-03 0.  1.
         12    1    3    3    0    0  0.75260363000E+01 -0.12510552041E+02  0.10813129822E+02  0.18168073957E+02  0.00000000000E+00 0. -1.
</event>
<event>
 7    1  0.2769403E-010  0.4778727E+02  0.7816164E-02  0.1312668E+00
        -11   -1    0    0    0    0  0.00000000000E+00  0.00000000000E+00  0.45593999997E+02  0.45594000000E+02  0.51100000000E-03 0.  1.
         11   -1    0    0    0    0 -0.00000000000E+00 -0.00000000000E+00 -0.45593999997E+02  0.45594000000E+02  0.51100000000E-03 0. -1.
    9900012    2    1    2    0    0 -0.13261266009E+02 -0.14103106160E+02  0.38844107433E+02  0.47787268879E+02  0.19999990129E+02 0.  0.
         12    1    1    2    0    0  0.13261266009E+02  0.14103106160E+02 -0.38844107433E+02  0.43400731121E+02  0.00000000000E+00 0. -1.
         11    1    3    3    0    0 -0.42596125310E+01 -0.29765111915E+01  0.31618921207E+01  0.60828841705E+01  0.51100000000E-03 0. -1.
        -11    1    3    3    0    0 -0.94422405430E+01 -0.77670280365E+01  0.36261216331E+02  0.38266936656E+02  0.51100000000E-03 0.  1.
        -12    1    3    3    0    0  0.44058706547E+00 -0.33595669325E+01 -0.57900101842E+00  0.34374480527E+01  0.00000000000E+00 0.  1.
</event>
<event>
 7    1  0.2769403E-010  0.4778724E+02  0.7816164E-02  0.1312668E+00
        -11   -1    0    0    0    0  0.00000000000E+00  0.00000000000E+00  0.45593999997E+02  0.45594000000E+02  0.51100000000E-03 0. -1.
         11   -1    0    0    0    0 -0.00000000000E+00 -0.00000000000E+00 -0.45593999997E+02  0.45594000000E+02  0.51100000000E-03 0.  1.
    9900012    2    1    2    0    0 -0.30598447012E+02 -0.15381859419E+02 -0.26660068505E+02  0.47787241811E+02  0.19999866712E+02 0.  0.
         12    1    1    2    0    0  0.30598447012E+02  0.15381859419E+02  0.26660068505E+02  0.43400758189E+02  0.00000000000E+00 0. -1.
         11    1    3    3    0    0 -0.24304052378E+00 -0.41140090535E+01 -0.27588936617E+00  0.41304060807E+01  0.51100000000E-03 0. -1.
        -11    1    3    3    0    0 -0.15309120718E+01  0.23926583514E+01 -0.15825066634E+01  0.32515893589E+01  0.51100000000E-03 0.  1.
        -12    1    3    3    0    0 -0.28824494416E+02 -0.13660508717E+02 -0.24801672475E+02  0.40405246371E+02  0.00000000000E+00 0.  1.
</event>
<event>
 7    1  0.2769403E-010  0.4778727E+02  0.7816164E-02  0.1312668E+00
        -11   -1    0    0    0    0  0.00000000000E+00  0.00000000000E+00  0.45593999997E+02  0.45594000000E+02  0.51100000000E-03 0.  1.
         11   -1    0    0    0    0 -0.00000000000E+00 -0.00000000000E+00 -0.45593999997E+02  0.45594000000E+02  0.51100000000E-03 0. -1.
    9900012    2    1    2    0    0  0.22784376851E+02  0.14779372981E+02  0.33853586926E+02  0.47787273716E+02  0.20000012181E+02 0.  0.
         12    1    1    2    0    0 -0.22784376851E+02 -0.14779372981E+02 -0.33853586926E+02  0.43400726284E+02  0.00000000000E+00 0. -1.
         11    1    3    3    0    0  0.70413910480E+01 -0.13368819588E+01  0.26418584559E+01  0.76385769372E+01  0.51100000000E-03 0. -1.
        -11    1    3    3    0    0  0.13121820005E+02  0.53462220074E+01  0.17565763359E+02  0.22568125590E+02  0.51100000000E-03 0.  1.
         12    1    3    3    0    0  0.26211657977E+01  0.10770032933E+02  0.13645965111E+02  0.17580571188E+02  0.00000000000E+00 0. -1.
</event>
<event>
 7    1  0.2769403E-010  0.4778727E+02  0.7816164E-02  0.1312668E+00
        -11   -1    0    0    0    0  0.00000000000E+00  0.00000000000E+00  0.45593999997E+02  0.45594000000E+02  0.51100000000E-03 0.  1.
         11   -1    0    0    0    0 -0.00000000000E+00 -0.00000000000E+00 -0.45593999997E+02  0.45594000000E+02  0.51100000000E-03 0. -1.
    9900012    2    1    2    0    0  0.31620890456E+02 -0.28880465421E+02 -0.70471019094E+01  0.47787266810E+02  0.19999980692E+02 0.  0.
         12    1    1    2    0    0 -0.31620890456E+02  0.28880465421E+02  0.70471019094E+01  0.43400733190E+02  0.00000000000E+00 0. -1.
         11    1    3    3    0    0  0.83353714032E+01 -0.40870593025E+01  0.20153419381E+01  0.94996880770E+01  0.51100000000E-03 0. -1.
        -11    1    3    3    0    0  0.34244221160E+01 -0.85959456538E+00  0.32872706176E+01  0.48240769085E+01  0.51100000000E-03 0.  1.
        -12    1    3    3    0    0  0.19861096937E+02 -0.23933811553E+02 -0.12349714465E+02  0.33463501824E+02  0.00000000000E+00 0.  1.
</event>
<event>
 7    1  0.2769403E-010  0.4778728E+02  0.7816164E-02  0.1312668E+00
        -11   -1    0    0    0    0  0.00000000000E+00  0.00000000000E+00  0.45593999997E+02  0.45594000000E+02  0.51100000000E-03 0. -1.
         11   -1    0    0    0    0 -0.00000000000E+00 -0.00000000000E+00 -0.45593999997E+02  0.45594000000E+02  0.51100000000E-03 0.  1.
    9900012    2    1    2    0    0 -0.29740935343E+02  0.18897559046E+02 -0.25337346399E+02  0.47787284620E+02  0.20000061895E+02 0.  0.
         12    1    1    2    0    0  0.29740935343E+02 -0.18897559046E+02  0.25337346399E+02  0.43400715380E+02  0.00000000000E+00 0. -1.
         11    1    3    3    0    0 -0.20057293931E+02  0.15241383721E+01 -0.10727843468E+02  0.22797031898E+02  0.51100000000E-03 0.  1.
        -11    1    3    3    0    0 -0.37367796586E+01  0.47995899988E+01 -0.64436492311E+01  0.88611625676E+01  0.51100000000E-03 0. -1.
        -12    1    3    3    0    0 -0.59468617532E+01  0.12573830675E+02 -0.81658537002E+01  0.16129090154E+02  0.00000000000E+00 0.  1.
</event>
<event>
 7    1  0.2769403E-010  0.4778727E+02  0.7816164E-02  0.1312668E+00
        -11   -1    0    0    0    0  0.00000000000E+00  0.00000000000E+00  0.45593999997E+02  0.45594000000E+02  0.51100000000E-03 0.  1.
         11   -1    0    0    0    0 -0.00000000000E+00 -0.00000000000E+00 -0.45593999997E+02  0.45594000000E+02  0.51100000000E-03 0. -1.
    9900012    2    1    2    0    0 -0.32123970436E+02 -0.13422476234E+02  0.25913529963E+02  0.47787269822E+02  0.19999994427E+02 0.  0.
         12    1    1    2    0    0  0.32123970436E+02  0.13422476234E+02 -0.25913529963E+02  0.43400730178E+02  0.00000000000E+00 0. -1.
         11    1    3    3    0    0 -0.10153617578E+02 -0.11719634443E+02  0.78051955254E+01  0.17359921050E+02  0.51100000000E-03 0. -1.
        -11    1    3    3    0    0 -0.13720356179E+02 -0.58889880280E+01  0.13327541052E+02  0.20013787858E+02  0.51100000000E-03 0.  1.
        -12    1    3    3    0    0 -0.82499966787E+01  0.41861462375E+01  0.47807933857E+01  0.10413560914E+02  0.00000000000E+00 0.  1.
</event>
<event>
 7    1  0.2769403E-010  0.4778728E+02  0.7816164E-02  0.1312668E+00
        -11   -1    0    0    0    0  0.00000000000E+00  0.00000000000E+00  0.45593999997E+02  0.45594000000E+02  0.51100000000E-03 0.  1.
         11   -1    0    0    0    0 -0.00000000000E+00 -0.00000000000E+00 -0.45593999997E+02  0.45594000000E+02  0.51100000000E-03 0. -1.
    9900012    2    1    2    0    0 -0.41020866792E+02  0.13280955845E+02  0.49525282741E+01  0.47787276079E+02  0.20000022956E+02 0.  0.
         12    1    1    2    0    0  0.41020866792E+02 -0.13280955845E+02 -0.49525282741E+01  0.43400723921E+02  0.00000000000E+00 0. -1.
         11    1    3    3    0    0 -0.14892001755E+02  0.11147077960E+02 -0.20581571338E+01  0.18715370003E+02  0.51100000000E-03 0. -1.
        -11    1    3    3    0    0 -0.62456836485E+01 -0.34802751755E+01 -0.29959961677E+00  0.71561609629E+01  0.51100000000E-03 0.  1.
        -12    1    3    3    0    0 -0.19883181389E+02  0.56141530605E+01  0.73102850246E+01  0.21915745114E+02  0.00000000000E+00 0.  1.
</event>
<event>
 7    1  0.2769403E-010  0.4778727E+02  0.7816164E-02  0.1312668E+00
        -11   -1    0    0    0    0  0.00000000000E+00  0.00000000000E+00  0.45593999997E+02  0.45594000000E+02  0.51100000000E-03 0.  1.
         11   -1    0    0    0    0 -0.00000000000E+00 -0.00000000000E+00 -0.45593999997E+02  0.45594000000E+02  0.51100000000E-03 0. -1.
    9900012    2    1    2    0    0  0.34425158169E+02  0.19388106442E+02  0.17961997752E+02  0.47787267868E+02  0.19999985518E+02 0.  0.
         12    1    1    2    0    0 -0.34425158169E+02 -0.19388106442E+02 -0.17961997752E+02  0.43400732132E+02  0.00000000000E+00 0. -1.
         11    1    3    3    0    0 -0.65301008075E+00  0.11545274705E+01 -0.56762972919E+00  0.14427611086E+01  0.51100000000E-03 0. -1.
        -11    1    3    3    0    0  0.34116506358E+02  0.19304883432E+02  0.14053728817E+02  0.41642788383E+02  0.51100000000E-03 0.  1.
        -12    1    3    3    0    0  0.96166189203E+00 -0.10713044608E+01  0.44758986644E+01  0.47017183769E+01  0.00000000000E+00 0.  1.
</event>
<event>
 7    1  0.2769403E-010  0.4778727E+02  0.7816164E-02  0.1312668E+00
        -11   -1    0    0    0    0  0.00000000000E+00  0.00000000000E+00  0.45593999997E+02  0.45594000000E+02  0.51100000000E-03 0.  1.
         11   -1    0    0    0    0 -0.00000000000E+00 -0.00000000000E+00 -0.45593999997E+02  0.45594000000E+02  0.51100000000E-03 0. -1.
    9900012    2    1    2    0    0 -0.38452204320E+02  0.75156941855E+01  0.18669910646E+02  0.47787271438E+02  0.20000001795E+02 0.  0.
         12    1    1    2    0    0  0.38452204320E+02 -0.75156941855E+01 -0.18669910646E+02  0.43400728562E+02  0.00000000000E+00 0. -1.
         11    1    3    3    0    0 -0.17239013306E+01 -0.15037542938E+01  0.66065140223E+00  0.23810865818E+01  0.51100000000E-03 0. -1.
        -11    1    3    3    0    0 -0.31089344391E+02  0.13085013387E+02  0.18438095927E+02  0.38441231662E+02  0.51100000000E-03 0.  1.
        -12    1    3    3    0    0 -0.56389585987E+01 -0.40655649081E+01 -0.42883668328E+00  0.69649531944E+01  0.00000000000E+00 0.  1.
</event>
<event>
 7    1  0.2769403E-010  0.4778727E+02  0.7816164E-02  0.1312668E+00
        -11   -1    0    0    0    0  0.00000000000E+00  0.00000000000E+00  0.45593999997E+02  0.45594000000E+02  0.51100000000E-03 0.  1.
         11   -1    0    0    0    0 -0.00000000000E+00 -0.00000000000E+00 -0.45593999997E+02  0.45594000000E+02  0.51100000000E-03 0. -1.
    9900012    2    1    2    0    0  0.23651248164E+01  0.38231191661E+02 -0.20406009020E+02  0.47787273792E+02  0.20000012528E+02 0.  0.
         12    1    1    2    0    0 -0.23651248164E+01 -0.38231191661E+02  0.20406009020E+02  0.43400726208E+02  0.00000000000E+00 0. -1.
         11    1    3    3    0    0 -0.47448867637E+01  0.70571336586E+01 -0.76308291423E+01  0.11425700833E+02  0.51100000000E-03 0. -1.
        -11    1    3    3    0    0  0.56667778780E+01  0.10634934932E+02 -0.98522323295E+01  0.15565368440E+02  0.51100000000E-03 0.  1.
        -12    1    3    3    0    0  0.14432337021E+01  0.20539123071E+02 -0.29229475479E+01  0.20796204519E+02  0.00000000000E+00 0.  1.
</event>
<event>
 7    1  0.2769403E-010  0.4778727E+02  0.7816164E-02  0.1312668E+00
        -11   -1    0    0    0    0  0.00000000000E+00  0.00000000000E+00  0.45593999997E+02  0.45594000000E+02  0.51100000000E-03 0.  1.
         11   -1    0    0    0    0 -0.00000000000E+00 -0.00000000000E+00 -0.45593999997E+02  0.45594000000E+02  0.51100000000E-03 0. -1.
    9900012    2    1    2    0    0  0.36691317008E+02 -0.82595928670E+01  0.21659865845E+02  0.47787269517E+02  0.19999993034E+02 0.  0.
         12    1    1    2    0    0 -0.36691317008E+02  0.82595928670E+01 -0.21659865845E+02  0.43400730483E+02  0.00000000000E+00 0. -1.
         11    1    3    3    0    0  0.11254799772E+02 -0.44460194791E+01  0.25547955432E+01  0.12367885334E+02  0.51100000000E-03 0. -1.
        -11    1    3    3    0    0  0.85671611239E+01 -0.87454812573E+01  0.74695780435E+01  0.14341348910E+02  0.51100000000E-03 0.  1.
        -12    1    3    3    0    0  0.16869356112E+02  0.49319078694E+01  0.11635492258E+02  0.21078035273E+02  0.00000000000E+00 0.  1.
</event>
<event>
 7    1  0.2769403E-010  0.4778727E+02  0.7816164E-02  0.1312668E+00
        -11   -1    0    0    0    0  0.00000000000E+00  0.00000000000E+00  0.45593999997E+02  0.45594000000E+02  0.51100000000E-03 0.  1.
         11   -1    0    0    0    0 -0.00000000000E+00 -0.00000000000E+00 -0.45593999997E+02  0.45594000000E+02  0.51100000000E-03 0. -1.
    9900012    2    1    2    0    0 -0.18918051663E+02  0.13541975697E+02  0.36638034428E+02  0.47787270153E+02  0.19999995935E+02 0.  0.
         12    1    1    2    0    0  0.18918051663E+02 -0.13541975697E+02 -0.36638034428E+02  0.43400729847E+02  0.00000000000E+00 0. -1.
         11    1    3    3    0    0  0.81856120376E+00  0.28388530892E+01  0.50756875582E+01  0.58729663506E+01  0.51100000000E-03 0. -1.
        -11    1    3    3    0    0 -0.15528203451E+02  0.13358293650E+02  0.17309079039E+02  0.26817407203E+02  0.51100000000E-03 0.  1.
         12    1    3    3    0    0 -0.42084094157E+01 -0.26551710417E+01  0.14253267831E+02  0.15096896599E+02  0.00000000000E+00 0. -1.
</event>
<event>
 7    1  0.2769403E-010  0.4778727E+02  0.7816164E-02  0.1312668E+00
        -11   -1    0    0    0    0  0.00000000000E+00  0.00000000000E+00  0.45593999997E+02  0.45594000000E+02  0.51100000000E-03 0.  1.
         11   -1    0    0    0    0 -0.00000000000E+00 -0.00000000000E+00 -0.45593999997E+02  0.45594000000E+02  0.51100000000E-03 0. -1.
    9900012    2    1    2    0    0 -0.25596344625E+02  0.11060240977E+02  0.33258407002E+02  0.47787269305E+02  0.19999992068E+02 0.  0.
         12    1    1    2    0    0  0.25596344625E+02 -0.11060240977E+02 -0.33258407002E+02  0.43400730695E+02  0.00000000000E+00 0. -1.
         11    1    3    3    0    0  0.32639940427E+00  0.36488599893E+01  0.98479304579E+01  0.10507257033E+02  0.51100000000E-03 0. -1.
        -11    1    3    3    0    0  0.39641286306E+00  0.19953938595E+01  0.25524860230E+01  0.32640350751E+01  0.51100000000E-03 0.  1.
        -12    1    3    3    0    0 -0.26319156892E+02  0.54159871278E+01  0.20857990521E+02  0.34015977197E+02  0.00000000000E+00 0.  1.
</event>
<event>
 7    1  0.2769403E-010  0.4778727E+02  0.7816164E-02  0.1312668E+00
        -11   -1    0    0    0    0  0.00000000000E+00  0.00000000000E+00  0.45593999997E+02  0.45594000000E+02  0.51100000000E-03 0.  1.
         11   -1    0    0    0    0 -0.00000000000E+00 -0.00000000000E+00 -0.45593999997E+02  0.45594000000E+02  0.51100000000E-03 0. -1.
    9900012    2    1    2    0    0  0.92697109844E+01 -0.17237210078E+02  0.38737247429E+02  0.47787270843E+02  0.19999999081E+02 0.  0.
         12    1    1    2    0    0 -0.92697109844E+01  0.17237210078E+02 -0.38737247429E+02  0.43400729157E+02  0.00000000000E+00 0. -1.
         11    1    3    3    0    0 -0.76637058659E+00 -0.19244868753E+01 -0.74265034334E+00  0.22005688816E+01  0.51100000000E-03 0. -1.
        -11    1    3    3    0    0 -0.78172133750E+00 -0.49179076694E+01  0.22825608532E+01  0.54778634889E+01  0.51100000000E-03 0.  1.
        -12    1    3    3    0    0  0.10817802908E+02 -0.10394815534E+02  0.37197336919E+02  0.40108838472E+02  0.00000000000E+00 0.  1.
</event>
<event>
 7    1  0.2769403E-010  0.4778727E+02  0.7816164E-02  0.1312668E+00
        -11   -1    0    0    0    0  0.00000000000E+00  0.00000000000E+00  0.45593999997E+02  0.45594000000E+02  0.51100000000E-03 0.  1.
         11   -1    0    0    0    0 -0.00000000000E+00 -0.00000000000E+00 -0.45593999997E+02  0.45594000000E+02  0.51100000000E-03 0. -1.
    9900012    2    1    2    0    0  0.10195826013E+02 -0.22909645281E+02  0.35423393289E+02  0.47787268358E+02  0.19999987749E+02 0.  0.
         12    1    1    2    0    0 -0.10195826013E+02  0.22909645281E+02 -0.35423393289E+02  0.43400731642E+02  0.00000000000E+00 0. -1.
         11    1    3    3    0    0  0.38742484218E+00  0.52110264694E+00 -0.77687059472E+00  0.10125088439E+01  0.51100000000E-03 0. -1.
        -11    1    3    3    0    0  0.75125200943E+00  0.72474314354E+00  0.98263169011E+01  0.98816059579E+01  0.51100000000E-03 0.  1.
        -12    1    3    3    0    0  0.90571491613E+01 -0.24155491072E+02  0.26373946983E+02  0.36893153556E+02  0.00000000000E+00 0.  1.
</event>
<event>
 7    1  0.2769403E-010  0.4778726E+02  0.7816164E-02  0.1312668E+00
        -11   -1    0    0    0    0  0.00000000000E+00  0.00000000000E+00  0.45593999997E+02  0.45594000000E+02  0.51100000000E-03 0. -1.
         11   -1    0    0    0    0 -0.00000000000E+00 -0.00000000000E+00 -0.45593999997E+02  0.45594000000E+02  0.51100000000E-03 0.  1.
    9900012    2    1    2    0    0 -0.28478938821E-01  0.37150642149E+02 -0.22437753824E+02  0.47787264755E+02  0.19999971325E+02 0.  0.
         12    1    1    2    0    0  0.28478938821E-01 -0.37150642149E+02  0.22437753824E+02  0.43400735245E+02  0.00000000000E+00 0. -1.
         11    1    3    3    0    0  0.23855126118E+01  0.12805427188E+02 -0.61289877436E+01  0.14395628743E+02  0.51100000000E-03 0. -1.
        -11    1    3    3    0    0  0.36554710071E+01  0.16908800781E+02 -0.16334724456E+02  0.23792713915E+02  0.51100000000E-03 0.  1.
         12    1    3    3    0    0 -0.60694625577E+01  0.74364141799E+01  0.25958375168E-01  0.95989220973E+01  0.00000000000E+00 0. -1.
</event>
<event>
 7    1  0.2769403E-010  0.4778727E+02  0.7816164E-02  0.1312668E+00
        -11   -1    0    0    0    0  0.00000000000E+00  0.00000000000E+00  0.45593999997E+02  0.45594000000E+02  0.51100000000E-03 0.  1.
         11   -1    0    0    0    0 -0.00000000000E+00 -0.00000000000E+00 -0.45593999997E+02  0.45594000000E+02  0.51100000000E-03 0. -1.
    9900012    2    1    2    0    0 -0.21395557279E+02 -0.36064499294E+02 -0.11189521203E+02  0.47787269990E+02  0.19999995194E+02 0.  0.
         12    1    1    2    0    0  0.21395557279E+02  0.36064499294E+02  0.11189521203E+02  0.43400730010E+02  0.00000000000E+00 0. -1.
         11    1    3    3    0    0 -0.75159312630E-01 -0.20098527530E+01  0.26403703759E+01  0.33191434126E+01  0.51100000000E-03 0. -1.
        -11    1    3    3    0    0 -0.81671232400E+01 -0.13645473530E+02  0.11401258591E+01  0.15943673890E+02  0.51100000000E-03 0.  1.
        -12    1    3    3    0    0 -0.13153274726E+02 -0.20409173011E+02 -0.14970017438E+02  0.28524452688E+02  0.00000000000E+00 0.  1.
</event>
<event>
 7    1  0.2769403E-010  0.4778727E+02  0.7816164E-02  0.1312668E+00
        -11   -1    0    0    0    0  0.00000000000E+00  0.00000000000E+00  0.45593999997E+02  0.45594000000E+02  0.51100000000E-03 0.  1.
         11   -1    0    0    0    0 -0.00000000000E+00 -0.00000000000E+00 -0.45593999997E+02  0.45594000000E+02  0.51100000000E-03 0. -1.
    9900012    2    1    2    0    0  0.27917894625E+01 -0.67679601111E+01  0.42778784704E+02  0.47787265061E+02  0.19999972719E+02 0.  0.
         12    1    1    2    0    0 -0.27917894625E+01  0.67679601111E+01 -0.42778784704E+02  0.43400734939E+02  0.00000000000E+00 0. -1.
         11    1    3    3    0    0  0.30629106422E+01  0.53707314451E+00  0.29938809929E+00  0.31240202720E+01  0.51100000000E-03 0. -1.
        -11    1    3    3    0    0  0.56325283641E+01 -0.37449988133E+01  0.24183839463E+02  0.25111919149E+02  0.51100000000E-03 0.  1.
        -12    1    3    3    0    0 -0.59036495438E+01 -0.35600344424E+01  0.18295557142E+02  0.19551325640E+02  0.00000000000E+00 0.  1.
</event>
<event>
 7    1  0.2769403E-010  0.4778727E+02  0.7816164E-02  0.1312668E+00
        -11   -1    0    0    0    0  0.00000000000E+00  0.00000000000E+00  0.45593999997E+02  0.45594000000E+02  0.51100000000E-03 0. -1.
         11   -1    0    0    0    0 -0.00000000000E+00 -0.00000000000E+00 -0.45593999997E+02  0.45594000000E+02  0.51100000000E-03 0.  1.
    9900012    2    1    2    0    0  0.35764860299E+02 -0.47234081122E+01 -0.24128563921E+02  0.47787269439E+02  0.19999992678E+02 0.  0.
         12    1    1    2    0    0 -0.35764860299E+02  0.47234081122E+01  0.24128563921E+02  0.43400730561E+02  0.00000000000E+00 0. -1.
         11    1    3    3    0    0  0.83555955548E+01  0.36394876236E+01 -0.17129867270E+01  0.92734120487E+01  0.51100000000E-03 0. -1.
        -11    1    3    3    0    0  0.19857565799E+01 -0.14021937207E+01 -0.82268598716E+01  0.85784963736E+01  0.51100000000E-03 0.  1.
        -12    1    3    3    0    0  0.25423508164E+02 -0.69607020151E+01 -0.14188717323E+02  0.29935361016E+02  0.00000000000E+00 0.  1.
</event>
<event>
 7    1  0.2769403E-010  0.4778727E+02  0.7816164E-02  0.1312668E+00
        -11   -1    0    0    0    0  0.00000000000E+00  0.00000000000E+00  0.45593999997E+02  0.45594000000E+02  0.51100000000E-03 0.  1.
         11   -1    0    0    0    0 -0.00000000000E+00 -0.00000000000E+00 -0.45593999997E+02  0.45594000000E+02  0.51100000000E-03 0. -1.
    9900012    2    1    2    0    0  0.33510299637E+01  0.17327408913E+02  0.39650410154E+02  0.47787268130E+02  0.19999986714E+02 0.  0.
         12    1    1    2    0    0 -0.33510299637E+01 -0.17327408913E+02 -0.39650410154E+02  0.43400731870E+02  0.00000000000E+00 0. -1.
         11    1    3    3    0    0  0.17362428460E+01  0.53554466961E+01  0.21694606355E+02  0.22413194634E+02  0.51100000000E-03 0. -1.
        -11    1    3    3    0    0  0.27945247954E+01  0.86690603928E+00  0.12697956322E+02  0.13030694146E+02  0.51100000000E-03 0.  1.
         12    1    3    3    0    0 -0.11797376777E+01  0.11105056177E+02  0.52578474764E+01  0.12343379350E+02  0.00000000000E+00 0. -1.
</event>
<event>
 7    1  0.2769403E-010  0.4778727E+02  0.7816164E-02  0.1312668E+00
        -11   -1    0    0    0    0  0.00000000000E+00  0.00000000000E+00  0.45593999997E+02  0.45594000000E+02  0.51100000000E-03 0. -1.
         11   -1    0    0    0    0 -0.00000000000E+00 -0.00000000000E+00 -0.45593999997E+02  0.45594000000E+02  0.51100000000E-03 0.  1.
    9900012    2    1    2    0    0 -0.51617679716E-01 -0.12295773482E+02 -0.41622524921E+02  0.47787270851E+02  0.19999999117E+02 0.  0.
         12    1    1    2    0    0  0.51617679716E-01  0.12295773482E+02  0.41622524921E+02  0.43400729149E+02  0.00000000000E+00 0. -1.
         11    1    3    3    0    0  0.49275842777E+01 -0.32185299726E+01 -0.20626456981E+02  0.21449726102E+02  0.51100000000E-03 0. -1.
        -11    1    3    3    0    0  0.18397616209E+01 -0.21983506575E+01  0.35853970182E+00  0.28889478039E+01  0.51100000000E-03 0.  1.
        -12    1    3    3    0    0 -0.68189635783E+01 -0.68788928524E+01 -0.21354607642E+02  0.23448596945E+02  0.00000000000E+00 0.  1.
</event>
<event>
 7    1  0.2769403E-010  0.4778727E+02  0.7816164E-02  0.1312668E+00
        -11   -1    0    0    0    0  0.00000000000E+00  0.00000000000E+00  0.45593999997E+02  0.45594000000E+02  0.51100000000E-03 0.  1.
         11   -1    0    0    0    0 -0.00000000000E+00 -0.00000000000E+00 -0.45593999997E+02  0.45594000000E+02  0.51100000000E-03 0. -1.
    9900012    2    1    2    0    0  0.11094245673E+02 -0.35707587292E+02  0.22034268029E+02  0.47787273683E+02  0.20000012029E+02 0.  0.
         12    1    1    2    0    0 -0.11094245673E+02  0.35707587292E+02 -0.22034268029E+02  0.43400726317E+02  0.00000000000E+00 0. -1.
         11    1    3    3    0    0 -0.85167808386E+00 -0.22547481322E+01 -0.66357987690E+00  0.24999166411E+01  0.51100000000E-03 0. -1.
        -11    1    3    3    0    0  0.14914291816E+02 -0.19145901472E+02  0.11379203320E+02  0.26804624825E+02  0.51100000000E-03 0.  1.
        -12    1    3    3    0    0 -0.29683680588E+01 -0.14306937688E+02  0.11318644585E+02  0.18482732217E+02  0.00000000000E+00 0.  1.
</event>
<event>
 7    1  0.2769403E-010  0.4778728E+02  0.7816164E-02  0.1312668E+00
        -11   -1    0    0    0    0  0.00000000000E+00  0.00000000000E+00  0.45593999997E+02  0.45594000000E+02  0.51100000000E-03 0.  1.
         11   -1    0    0    0    0 -0.00000000000E+00 -0.00000000000E+00 -0.45593999997E+02  0.45594000000E+02  0.51100000000E-03 0. -1.
    9900012    2    1    2    0    0  0.38203992543E+02  0.90139080099E+01  0.18515596217E+02  0.47787275500E+02  0.20000020315E+02 0.  0.
         12    1    1    2    0    0 -0.38203992543E+02 -0.90139080099E+01 -0.18515596217E+02  0.43400724500E+02  0.00000000000E+00 0. -1.
         11    1    3    3    0    0  0.36672362014E+01 -0.44348989001E+01  0.53580235867E+01  0.78629108241E+01  0.51100000000E-03 0. -1.
        -11    1    3    3    0    0  0.71568815415E+01  0.16585472211E+01  0.54097756037E+01  0.91234535472E+01  0.51100000000E-03 0.  1.
        -12    1    3    3    0    0  0.27379874800E+02  0.11790259689E+02  0.77477970266E+01  0.30800911129E+02  0.00000000000E+00 0.  1.
</event>
<event>
 7    1  0.2769403E-010  0.4778727E+02  0.7816164E-02  0.1312668E+00
        -11   -1    0    0    0    0  0.00000000000E+00  0.00000000000E+00  0.45593999997E+02  0.45594000000E+02  0.51100000000E-03 0.  1.
         11   -1    0    0    0    0 -0.00000000000E+00 -0.00000000000E+00 -0.45593999997E+02  0.45594000000E+02  0.51100000000E-03 0. -1.
    9900012    2    1    2    0    0 -0.29130472727E+02 -0.79169286535E+01  0.31182703822E+02  0.47787271686E+02  0.20000002924E+02 0.  0.
         12    1    1    2    0    0  0.29130472727E+02  0.79169286535E+01 -0.31182703822E+02  0.43400728314E+02  0.00000000000E+00 0. -1.
         11    1    3    3    0    0 -0.45548398090E+01 -0.21684630440E+01  0.17181089010E+01  0.53292303492E+01  0.51100000000E-03 0. -1.
        -11    1    3    3    0    0 -0.23586304509E+02 -0.31343481391E+01  0.15920766686E+02  0.28628809106E+02  0.51100000000E-03 0.  1.
         12    1    3    3    0    0 -0.98932840825E+00 -0.26141174704E+01  0.13543828235E+02  0.13829232231E+02  0.00000000000E+00 0. -1.
</event>
<event>
 7    1  0.2769403E-010  0.4778728E+02  0.7816164E-02  0.1312668E+00
        -11   -1    0    0    0    0  0.00000000000E+00  0.00000000000E+00  0.45593999997E+02  0.45594000000E+02  0.51100000000E-03 0.  1.
         11   -1    0    0    0    0 -0.00000000000E+00 -0.00000000000E+00 -0.45593999997E+02  0.45594000000E+02  0.51100000000E-03 0. -1.
    9900012    2    1    2    0    0 -0.40412310850E+01  0.37550476314E+02  0.21383465382E+02  0.47787280976E+02  0.20000045280E+02 0.  0.
         12    1    1    2    0    0  0.40412310850E+01 -0.37550476314E+02 -0.21383465382E+02  0.43400719024E+02  0.00000000000E+00 0. -1.
         11    1    3    3    0    0 -0.35741287144E+01  0.58813323900E+01  0.31466495883E+01  0.75674216641E+01  0.51100000000E-03 0. -1.
        -11    1    3    3    0    0  0.94646113737E-01  0.33245096205E+02  0.19095745493E+02  0.38339181992E+02  0.51100000000E-03 0.  1.
         12    1    3    3    0    0 -0.56174848427E+00 -0.15759522812E+01 -0.85892969967E+00  0.18806773198E+01  0.00000000000E+00 0. -1.
</event>
<event>
 7    1  0.2769403E-010  0.4778727E+02  0.7816164E-02  0.1312668E+00
        -11   -1    0    0    0    0  0.00000000000E+00  0.00000000000E+00  0.45593999997E+02  0.45594000000E+02  0.51100000000E-03 0.  1.
         11   -1    0    0    0    0 -0.00000000000E+00 -0.00000000000E+00 -0.45593999997E+02  0.45594000000E+02  0.51100000000E-03 0. -1.
    9900012    2    1    2    0    0  0.25602565001E+02  0.33263549307E+02  0.11030330638E+02  0.47787271422E+02  0.20000001723E+02 0.  0.
         12    1    1    2    0    0 -0.25602565001E+02 -0.33263549307E+02 -0.11030330638E+02  0.43400728578E+02  0.00000000000E+00 0. -1.
         11    1    3    3    0    0  0.12018857866E+02  0.10687679443E+02  0.13602473079E+02  0.21064346902E+02  0.51100000000E-03 0. -1.
        -11    1    3    3    0    0  0.10643505037E+01  0.28967146902E+01  0.71701196373E+00  0.31682652049E+01  0.51100000000E-03 0.  1.
         12    1    3    3    0    0  0.12519356631E+02  0.19679155173E+02 -0.32891544039E+01  0.23554659315E+02  0.00000000000E+00 0. -1.
</event>
<event>
 7    1  0.2769403E-010  0.4778727E+02  0.7816164E-02  0.1312668E+00
        -11   -1    0    0    0    0  0.00000000000E+00  0.00000000000E+00  0.45593999997E+02  0.45594000000E+02  0.51100000000E-03 0.  1.
         11   -1    0    0    0    0 -0.00000000000E+00 -0.00000000000E+00 -0.45593999997E+02  0.45594000000E+02  0.51100000000E-03 0. -1.
    9900012    2    1    2    0    0  0.22534340010E+02 -0.21916860867E+02  0.29924538310E+02  0.47787271169E+02  0.20000000570E+02 0.  0.
         12    1    1    2    0    0 -0.22534340010E+02  0.21916860867E+02 -0.29924538310E+02  0.43400728831E+02  0.00000000000E+00 0. -1.
         11    1    3    3    0    0  0.53047835653E+01 -0.42912916503E+01  0.16803447127E+02  0.18135924248E+02  0.51100000000E-03 0. -1.
        -11    1    3    3    0    0  0.12391747032E+02 -0.91126363254E+01  0.12534737479E+02  0.19842257413E+02  0.51100000000E-03 0.  1.
        -12    1    3    3    0    0  0.48378094128E+01 -0.85129328914E+01  0.58635370351E+00  0.98090895089E+01  0.00000000000E+00 0.  1.
</event>
<event>
 7    1  0.2769403E-010  0.4778727E+02  0.7816164E-02  0.1312668E+00
        -11   -1    0    0    0    0  0.00000000000E+00  0.00000000000E+00  0.45593999997E+02  0.45594000000E+02  0.51100000000E-03 0. -1.
         11   -1    0    0    0    0 -0.00000000000E+00 -0.00000000000E+00 -0.45593999997E+02  0.45594000000E+02  0.51100000000E-03 0.  1.
    9900012    2    1    2    0    0  0.46716976869E+01 -0.19821036518E+02 -0.38326556202E+02  0.47787272377E+02  0.20000006075E+02 0.  0.
         12    1    1    2    0    0 -0.46716976869E+01  0.19821036518E+02  0.38326556202E+02  0.43400727623E+02  0.00000000000E+00 0. -1.
         11    1    3    3    0    0  0.38109557925E+01 -0.56198716456E+01 -0.95662156142E+01  0.11731104927E+02  0.51100000000E-03 0. -1.
        -11    1    3    3    0    0  0.84686729799E+01 -0.58704022254E+01 -0.11559663988E+02  0.15485666796E+02  0.51100000000E-03 0.  1.
         12    1    3    3    0    0 -0.76079310855E+01 -0.83307626469E+01 -0.17200676600E+02  0.20570500654E+02  0.00000000000E+00 0. -1.
</event>
<event>
 7    1  0.2769403E-010  0.4778727E+02  0.7816164E-02  0.1312668E+00
        -11   -1    0    0    0    0  0.00000000000E+00  0.00000000000E+00  0.45593999997E+02  0.45594000000E+02  0.51100000000E-03 0. -1.
         11   -1    0    0    0    0 -0.00000000000E+00 -0.00000000000E+00 -0.45593999997E+02  0.45594000000E+02  0.51100000000E-03 0.  1.
    9900012    2    1    2    0    0  0.84692132591E+01 -0.13229868659E+02 -0.40458202455E+02  0.47787272542E+02  0.20000006829E+02 0.  0.
         12    1    1    2    0    0 -0.84692132591E+01  0.13229868659E+02  0.40458202455E+02  0.43400727458E+02  0.00000000000E+00 0. -1.
         11    1    3    3    0    0  0.17402908479E+01 -0.17443150587E+00  0.76713571076E+00  0.19098523622E+01  0.51100000000E-03 0. -1.
        -11    1    3    3    0    0  0.15760812174E+01  0.27428298093E+01 -0.39112447519E+01  0.50304058621E+01  0.51100000000E-03 0.  1.
         12    1    3    3    0    0  0.51528411938E+01 -0.15798266962E+02 -0.37314093414E+02  0.40847014318E+02  0.00000000000E+00 0. -1.
</event>
<event>
 7    1  0.2769403E-010  0.4778727E+02  0.7816164E-02  0.1312668E+00
        -11   -1    0    0    0    0  0.00000000000E+00  0.00000000000E+00  0.45593999997E+02  0.45594000000E+02  0.51100000000E-03 0.  1.
         11   -1    0    0    0    0 -0.00000000000E+00 -0.00000000000E+00 -0.45593999997E+02  0.45594000000E+02  0.51100000000E-03 0. -1.
    9900012    2    1    2    0    0  0.24051622934E+02  0.32814442239E+02  0.15111423715E+02  0.47787270606E+02  0.19999997999E+02 0.  0.
         12    1    1    2    0    0 -0.24051622934E+02 -0.32814442239E+02 -0.15111423715E+02  0.43400729394E+02  0.00000000000E+00 0. -1.
         11    1    3    3    0    0  0.19086789496E+01  0.12667544435E+01  0.45667129639E+01  0.51090693584E+01  0.51100000000E-03 0. -1.
        -11    1    3    3    0    0 -0.17551254598E+01  0.61263641390E+01  0.61721602118E+00  0.64026368647E+01  0.51100000000E-03 0.  1.
         12    1    3    3    0    0  0.23898069445E+02  0.25421323657E+02  0.99274947303E+01  0.36275564383E+02  0.00000000000E+00 0. -1.
</event>
<event>
 7    1  0.2769403E-010  0.4778727E+02  0.7816164E-02  0.1312668E+00
        -11   -1    0    0    0    0  0.00000000000E+00  0.00000000000E+00  0.45593999997E+02  0.45594000000E+02  0.51100000000E-03 0.  1.
         11   -1    0    0    0    0 -0.00000000000E+00 -0.00000000000E+00 -0.45593999997E+02  0.45594000000E+02  0.51100000000E-03 0. -1.
    9900012    2    1    2    0    0  0.43782615719E+01  0.35583099096E+02  0.24460114971E+02  0.47787270282E+02  0.19999996522E+02 0.  0.
         12    1    1    2    0    0 -0.43782615719E+01 -0.35583099096E+02 -0.24460114971E+02  0.43400729718E+02  0.00000000000E+00 0. -1.
         11    1    3    3    0    0  0.11742063437E+02  0.17171014371E+02  0.12178626254E+02  0.24104744886E+02  0.51100000000E-03 0. -1.
        -11    1    3    3    0    0 -0.17393479524E+01  0.48749924888E+01  0.12186667274E+01  0.53175212194E+01  0.51100000000E-03 0.  1.
         12    1    3    3    0    0 -0.56244539129E+01  0.13537092236E+02  0.11062821989E+02  0.18365004176E+02  0.00000000000E+00 0. -1.
</event>
<event>
 7    1  0.2769403E-010  0.4778726E+02  0.7816164E-02  0.1312668E+00
        -11   -1    0    0    0    0  0.00000000000E+00  0.00000000000E+00  0.45593999997E+02  0.45594000000E+02  0.51100000000E-03 0.  1.
         11   -1    0    0    0    0 -0.00000000000E+00 -0.00000000000E+00 -0.45593999997E+02  0.45594000000E+02  0.51100000000E-03 0. -1.
    9900012    2    1    2    0    0  0.38822234125E+02  0.98714535928E+01  0.16703675991E+02  0.47787259798E+02  0.19999948724E+02 0.  0.
         12    1    1    2    0    0 -0.38822234125E+02 -0.98714535928E+01 -0.16703675991E+02  0.43400740202E+02  0.00000000000E+00 0. -1.
         11    1    3    3    0    0  0.61177442962E+01  0.70453549150E+01  0.60832082545E+01  0.11138637443E+02  0.51100000000E-03 0. -1.
        -11    1    3    3    0    0  0.30428099262E+01 -0.22443267746E+01  0.46101834129E+01  0.59623389940E+01  0.51100000000E-03 0.  1.
        -12    1    3    3    0    0  0.29661679902E+02  0.50704254524E+01  0.60102843235E+01  0.30686283361E+02  0.00000000000E+00 0.  1.
</event>
<event>
 7    1  0.2769403E-010  0.4778727E+02  0.7816164E-02  0.1312668E+00
        -11   -1    0    0    0    0  0.00000000000E+00  0.00000000000E+00  0.45593999997E+02  0.45594000000E+02  0.51100000000E-03 0.  1.
         11   -1    0    0    0    0 -0.00000000000E+00 -0.00000000000E+00 -0.45593999997E+02  0.45594000000E+02  0.51100000000E-03 0. -1.
    9900012    2    1    2    0    0  0.86127711474E+01 -0.21015216358E+02  0.36983841843E+02  0.47787266102E+02  0.19999977463E+02 0.  0.
         12    1    1    2    0    0 -0.86127711474E+01  0.21015216358E+02 -0.36983841843E+02  0.43400733898E+02  0.00000000000E+00 0. -1.
         11    1    3    3    0    0 -0.95286034344E+00 -0.80583003040E+01  0.14372013675E+02  0.16504512230E+02  0.51100000000E-03 0. -1.
        -11    1    3    3    0    0  0.11536072633E+02 -0.13391443574E+02  0.23213963309E+02  0.29177042783E+02  0.51100000000E-03 0.  1.
         12    1    3    3    0    0 -0.19704411417E+01  0.43452751991E+00 -0.60213514087E+00  0.21057110880E+01  0.00000000000E+00 0. -1.
</event>
<event>
 7    1  0.2769403E-010  0.4778727E+02  0.7816164E-02  0.1312668E+00
        -11   -1    0    0    0    0  0.00000000000E+00  0.00000000000E+00  0.45593999997E+02  0.45594000000E+02  0.51100000000E-03 0.  1.
         11   -1    0    0    0    0 -0.00000000000E+00 -0.00000000000E+00 -0.45593999997E+02  0.45594000000E+02  0.51100000000E-03 0. -1.
    9900012    2    1    2    0    0 -0.75933724898E+01  0.33687828167E+02  0.26288668128E+02  0.47787272537E+02  0.20000006804E+02 0.  0.
         12    1    1    2    0    0  0.75933724898E+01 -0.33687828167E+02 -0.26288668128E+02  0.43400727463E+02  0.00000000000E+00 0. -1.
         11    1    3    3    0    0  0.18067580701E+01  0.13879915378E+02  0.95514119726E+01  0.16945379800E+02  0.51100000000E-03 0. -1.
        -11    1    3    3    0    0  0.17781467563E+01  0.10033070437E+02  0.10804463566E+02  0.14851287536E+02  0.51100000000E-03 0.  1.
         12    1    3    3    0    0 -0.11178277316E+02  0.97748423513E+01  0.59327925901E+01  0.15990605200E+02  0.00000000000E+00 0. -1.
</event>
<event>
 7    1  0.2769403E-010  0.4778727E+02  0.7816164E-02  0.1312668E+00
        -11   -1    0    0    0    0  0.00000000000E+00  0.00000000000E+00  0.45593999997E+02  0.45594000000E+02  0.51100000000E-03 0. -1.
         11   -1    0    0    0    0 -0.00000000000E+00 -0.00000000000E+00 -0.45593999997E+02  0.45594000000E+02  0.51100000000E-03 0.  1.
    9900012    2    1    2    0    0 -0.65156365589E+01  0.34218824281E+02 -0.25889023153E+02  0.47787274490E+02  0.20000015710E+02 0.  0.
         12    1    1    2    0    0  0.65156365589E+01 -0.34218824281E+02  0.25889023153E+02  0.43400725510E+02  0.00000000000E+00 0. -1.
         11    1    3    3    0    0 -0.92823835563E+01  0.12198726968E+02 -0.76135968122E+01  0.17115444511E+02  0.51100000000E-03 0. -1.
        -11    1    3    3    0    0 -0.15929868321E+01  0.15262045972E+02 -0.71114521725E+01  0.16912729128E+02  0.51100000000E-03 0.  1.
         12    1    3    3    0    0  0.43597338295E+01  0.67580513415E+01 -0.11163974168E+02  0.13759100851E+02  0.00000000000E+00 0. -1.
</event>
<event>
 7    1  0.2769403E-010  0.4778727E+02  0.7816164E-02  0.1312668E+00
        -11   -1    0    0    0    0  0.00000000000E+00  0.00000000000E+00  0.45593999997E+02  0.45594000000E+02  0.51100000000E-03 0.  1.
         11   -1    0    0    0    0 -0.00000000000E+00 -0.00000000000E+00 -0.45593999997E+02  0.45594000000E+02  0.51100000000E-03 0. -1.
    9900012    2    1    2    0    0  0.19297703996E+02  0.24463168663E+02  0.30212174445E+02  0.47787268609E+02  0.19999988897E+02 0.  0.
         12    1    1    2    0    0 -0.19297703996E+02 -0.24463168663E+02 -0.30212174445E+02  0.43400731391E+02  0.00000000000E+00 0. -1.
         11    1    3    3    0    0  0.90762713095E+00 -0.60305070533E+00  0.54917016677E+01  0.55987717073E+01  0.51100000000E-03 0. -1.
        -11    1    3    3    0    0 -0.18422974043E+01  0.82957031560E+00  0.38327849419E+01  0.43327228513E+01  0.51100000000E-03 0.  1.
         12    1    3    3    0    0  0.20232374269E+02  0.24236649053E+02  0.20887687836E+02  0.37855774051E+02  0.00000000000E+00 0. -1.
</event>
<event>
 7    1  0.2769403E-010  0.4778727E+02  0.7816164E-02  0.1312668E+00
        -11   -1    0    0    0    0  0.00000000000E+00  0.00000000000E+00  0.45593999997E+02  0.45594000000E+02  0.51100000000E-03 0.  1.
         11   -1    0    0    0    0 -0.00000000000E+00 -0.00000000000E+00 -0.45593999997E+02  0.45594000000E+02  0.51100000000E-03 0. -1.
    9900012    2    1    2    0    0  0.19347593292E+02 -0.33840893014E+02  0.19081097190E+02  0.47787266410E+02  0.19999978868E+02 0.  0.
         12    1    1    2    0    0 -0.19347593292E+02  0.33840893014E+02 -0.19081097190E+02  0.43400733590E+02  0.00000000000E+00 0. -1.
         11    1    3    3    0    0  0.17941414150E+02 -0.16533879825E+02  0.11737112985E+02  0.27074403876E+02  0.51100000000E-03 0.  1.
        -11    1    3    3    0    0 -0.29919688573E+00  0.33101171418E+00 -0.10233711188E+01  0.11164122174E+01  0.51100000000E-03 0. -1.
        -12    1    3    3    0    0  0.17053760286E+01 -0.17638024903E+02  0.83673553237E+01  0.19596450316E+02  0.00000000000E+00 0.  1.
</event>
<event>
 7    1  0.2769403E-010  0.4778727E+02  0.7816164E-02  0.1312668E+00
        -11   -1    0    0    0    0  0.00000000000E+00  0.00000000000E+00  0.45593999997E+02  0.45594000000E+02  0.51100000000E-03 0.  1.
         11   -1    0    0    0    0 -0.00000000000E+00 -0.00000000000E+00 -0.45593999997E+02  0.45594000000E+02  0.51100000000E-03 0. -1.
    9900012    2    1    2    0    0  0.16031702884E+02  0.10166059706E+02  0.39028952418E+02  0.47787269659E+02  0.19999993681E+02 0.  0.
         12    1    1    2    0    0 -0.16031702884E+02 -0.10166059706E+02 -0.39028952418E+02  0.43400730341E+02  0.00000000000E+00 0. -1.
         11    1    3    3    0    0 -0.39982209330E+00  0.52603344619E+01  0.48274126433E+00  0.52975480882E+01  0.51100000000E-03 0. -1.
        -11    1    3    3    0    0  0.22232687879E+01 -0.84007730184E+00  0.34111754755E+01  0.41574959245E+01  0.51100000000E-03 0.  1.
         12    1    3    3    0    0  0.14208256190E+02  0.57458025460E+01  0.35135035678E+02  0.38332225646E+02  0.00000000000E+00 0. -1.
</event>
<event>
 7    1  0.2769403E-010  0.4778727E+02  0.7816164E-02  0.1312668E+00
        -11   -1    0    0    0    0  0.00000000000E+00  0.00000000000E+00  0.45593999997E+02  0.45594000000E+02  0.51100000000E-03 0.  1.
         11   -1    0    0    0    0 -0.00000000000E+00 -0.00000000000E+00 -0.45593999997E+02  0.45594000000E+02  0.51100000000E-03 0. -1.
    9900012    2    1    2    0    0  0.25334867083E+01 -0.83383307609E+01  0.42516782760E+02  0.47787272689E+02  0.20000007500E+02 0.  0.
         12    1    1    2    0    0 -0.25334867083E+01  0.83383307609E+01 -0.42516782760E+02  0.43400727311E+02  0.00000000000E+00 0. -1.
         11    1    3    3    0    0 -0.46814155857E+01 -0.42244014471E+01  0.22181139582E+02  0.23060012422E+02  0.51100000000E-03 0. -1.
        -11    1    3    3    0    0  0.24462641486E+01 -0.76318508153E+01  0.13305973656E+02  0.15533135239E+02  0.51100000000E-03 0.  1.
         12    1    3    3    0    0  0.47686381454E+01  0.35179215015E+01  0.70296695222E+01  0.91941250287E+01  0.00000000000E+00 0. -1.
</event>
<event>
 7    1  0.2769403E-010  0.4778727E+02  0.7816164E-02  0.1312668E+00
        -11   -1    0    0    0    0  0.00000000000E+00  0.00000000000E+00  0.45593999997E+02  0.45594000000E+02  0.51100000000E-03 0.  1.
         11   -1    0    0    0    0 -0.00000000000E+00 -0.00000000000E+00 -0.45593999997E+02  0.45594000000E+02  0.51100000000E-03 0. -1.
    9900012    2    1    2    0    0  0.42755046195E+02  0.26089510974E+01  0.69873002752E+01  0.47787274590E+02  0.20000016166E+02 0.  0.
         12    1    1    2    0    0 -0.42755046195E+02 -0.26089510974E+01 -0.69873002752E+01  0.43400725410E+02  0.00000000000E+00 0. -1.
         11    1    3    3    0    0  0.18680858763E+01  0.15511689788E+01 -0.17100078462E+01  0.29698479990E+01  0.51100000000E-03 0.  1.
        -11    1    3    3    0    0 -0.46265276667E+00 -0.14738980191E+01 -0.15006036842E+01  0.21536561080E+01  0.51100000000E-03 0. -1.
        -12    1    3    3    0    0  0.41349613085E+02  0.25316801377E+01  0.10197911806E+02  0.42663770483E+02  0.00000000000E+00 0.  1.
</event>
<event>
 7    1  0.2769403E-010  0.4778728E+02  0.7816164E-02  0.1312668E+00
        -11   -1    0    0    0    0  0.00000000000E+00  0.00000000000E+00  0.45593999997E+02  0.45594000000E+02  0.51100000000E-03 0.  1.
         11   -1    0    0    0    0 -0.00000000000E+00 -0.00000000000E+00 -0.45593999997E+02  0.45594000000E+02  0.51100000000E-03 0. -1.
    9900012    2    1    2    0    0 -0.23460123014E+02 -0.84386119982E+01  0.35525134318E+02  0.47787277511E+02  0.20000029483E+02 0.  0.
         12    1    1    2    0    0  0.23460123014E+02  0.84386119982E+01 -0.35525134318E+02  0.43400722489E+02  0.00000000000E+00 0. -1.
         11    1    3    3    0    0 -0.18967560671E+01  0.32442938546E+00 -0.11399359489E+01  0.22366028331E+01  0.51100000000E-03 0. -1.
        -11    1    3    3    0    0  0.27716554569E+00  0.17067670211E+01  0.72195139047E+01  0.74236955544E+01  0.51100000000E-03 0.  1.
         12    1    3    3    0    0 -0.21840532493E+02 -0.10469808405E+02  0.29445556362E+02  0.38126979123E+02  0.00000000000E+00 0. -1.
</event>
<event>
 7    1  0.2769403E-010  0.4778727E+02  0.7816164E-02  0.1312668E+00
        -11   -1    0    0    0    0  0.00000000000E+00  0.00000000000E+00  0.45593999997E+02  0.45594000000E+02  0.51100000000E-03 0.  1.
         11   -1    0    0    0    0 -0.00000000000E+00 -0.00000000000E+00 -0.45593999997E+02  0.45594000000E+02  0.51100000000E-03 0. -1.
    9900012    2    1    2    0    0  0.27323772385E+01  0.27548586923E+02  0.33425037558E+02  0.47787266567E+02  0.19999979585E+02 0.  0.
         12    1    1    2    0    0 -0.27323772385E+01 -0.27548586923E+02 -0.33425037558E+02  0.43400733433E+02  0.00000000000E+00 0. -1.
         11    1    3    3    0    0  0.11369822078E+01  0.11360084217E+02  0.39364489047E+01  0.12076418020E+02  0.51100000000E-03 0. -1.
        -11    1    3    3    0    0 -0.27187317871E+01  0.63425720237E+01  0.38319068383E+01  0.78932396825E+01  0.51100000000E-03 0.  1.
        -12    1    3    3    0    0  0.43141268178E+01  0.98459306825E+01  0.25656681814E+02  0.27817608864E+02  0.00000000000E+00 0.  1.
</event>
<event>
 7    1  0.2769403E-010  0.4778727E+02  0.7816164E-02  0.1312668E+00
        -11   -1    0    0    0    0  0.00000000000E+00  0.00000000000E+00  0.45593999997E+02  0.45594000000E+02  0.51100000000E-03 0. -1.
         11   -1    0    0    0    0 -0.00000000000E+00 -0.00000000000E+00 -0.45593999997E+02  0.45594000000E+02  0.51100000000E-03 0.  1.
    9900012    2    1    2    0    0 -0.21159506857E+02  0.34176429698E+02  0.16366741885E+02  0.47787270545E+02  0.19999997722E+02 0.  0.
         12    1    1    2    0    0  0.21159506857E+02 -0.34176429698E+02 -0.16366741885E+02  0.43400729455E+02  0.00000000000E+00 0. -1.
         11    1    3    3    0    0 -0.78502012355E-01  0.11114485321E+02  0.46303818209E+01  0.12040696931E+02  0.51100000000E-03 0. -1.
        -11    1    3    3    0    0 -0.12094732941E+02  0.14038062332E+02  0.13450154972E+02  0.22896646654E+02  0.51100000000E-03 0.  1.
         12    1    3    3    0    0 -0.89862719046E+01  0.90238820446E+01 -0.17137949086E+01  0.12849926960E+02  0.00000000000E+00 0. -1.
</event>
<event>
 7    1  0.3006397E-010  0.4778725E+02  0.7816164E-02  0.1312668E+00
        -11   -1    0    0    0    0  0.00000000000E+00  0.00000000000E+00  0.45593999997E+02  0.45594000000E+02  0.51100000000E-03 0.  1.
         11   -1    0    0    0    0 -0.00000000000E+00 -0.00000000000E+00 -0.45593999997E+02  0.45594000000E+02  0.51100000000E-03 0. -1.
    9900012    2    1    2    0    0  0.29903553270E+02  0.23167436776E+02  0.21276091428E+02  0.47787254714E+02  0.19999925541E+02 0.  0.
         12    1    1    2    0    0 -0.29903553270E+02 -0.23167436776E+02 -0.21276091428E+02  0.43400745286E+02  0.00000000000E+00 0. -1.
         11    1    3    3    0    0  0.22113763215E+01  0.38374435665E+01  0.75439089803E+01  0.87479552654E+01  0.51100000000E-03 0. -1.
        -11    1    3    3    0    0  0.20291760581E+02  0.19624952872E+02  0.14236199394E+02  0.31615877279E+02  0.51100000000E-03 0.  1.
         12    1    3    3    0    0  0.74004163677E+01 -0.29495966164E+00 -0.50401694644E+00  0.74234221690E+01  0.00000000000E+00 0. -1.
</event>
<event>
 7    1  0.2769403E-010  0.4778727E+02  0.7816164E-02  0.1312668E+00
        -11   -1    0    0    0    0  0.00000000000E+00  0.00000000000E+00  0.45593999997E+02  0.45594000000E+02  0.51100000000E-03 0.  1.
         11   -1    0    0    0    0 -0.00000000000E+00 -0.00000000000E+00 -0.45593999997E+02  0.45594000000E+02  0.51100000000E-03 0. -1.
    9900012    2    1    2    0    0 -0.11248980231E+02 -0.37380691139E+02  0.18967539382E+02  0.47787272167E+02  0.20000005117E+02 0.  0.
         12    1    1    2    0    0  0.11248980231E+02  0.37380691139E+02 -0.18967539382E+02  0.43400727833E+02  0.00000000000E+00 0. -1.
         11    1    3    3    0    0 -0.99932358926E+00 -0.29320976345E+01 -0.48297092550E+00  0.31351404036E+01  0.51100000000E-03 0. -1.
        -11    1    3    3    0    0 -0.12933364353E+02 -0.15975740594E+02  0.15045086262E+02  0.25472550361E+02  0.51100000000E-03 0.  1.
        -12    1    3    3    0    0  0.26837077114E+01 -0.18472852911E+02  0.44054240459E+01  0.19179581402E+02  0.00000000000E+00 0.  1.
</event>
<event>
 7    1  0.2769403E-010  0.4778727E+02  0.7816164E-02  0.1312668E+00
        -11   -1    0    0    0    0  0.00000000000E+00  0.00000000000E+00  0.45593999997E+02  0.45594000000E+02  0.51100000000E-03 0.  1.
         11   -1    0    0    0    0 -0.00000000000E+00 -0.00000000000E+00 -0.45593999997E+02  0.45594000000E+02  0.51100000000E-03 0. -1.
    9900012    2    1    2    0    0  0.34011174220E+02  0.25580974363E+02 -0.85133438643E+01  0.47787271378E+02  0.20000001520E+02 0.  0.
         12    1    1    2    0    0 -0.34011174220E+02 -0.25580974363E+02  0.85133438643E+01  0.43400728622E+02  0.00000000000E+00 0. -1.
         11    1    3    3    0    0  0.55036577187E+00  0.40817448295E+01 -0.65293849742E+00  0.41701165785E+01  0.51100000000E-03 0. -1.
        -11    1    3    3    0    0  0.28173889895E+02  0.23921425589E+02 -0.56160467972E+01  0.37383721804E+02  0.51100000000E-03 0.  1.
         12    1    3    3    0    0  0.52869185536E+01 -0.24221960553E+01 -0.22443585697E+01  0.62334329957E+01  0.00000000000E+00 0. -1.
</event>
<event>
 7    1  0.2769403E-010  0.4778728E+02  0.7816164E-02  0.1312668E+00
        -11   -1    0    0    0    0  0.00000000000E+00  0.00000000000E+00  0.45593999997E+02  0.45594000000E+02  0.51100000000E-03 0.  1.
         11   -1    0    0    0    0 -0.00000000000E+00 -0.00000000000E+00 -0.45593999997E+02  0.45594000000E+02  0.51100000000E-03 0. -1.
    9900012    2    1    2    0    0  0.34290454083E+02  0.20460435309E+02  0.17004643659E+02  0.47787279266E+02  0.20000037486E+02 0.  0.
         12    1    1    2    0    0 -0.34290454083E+02 -0.20460435309E+02 -0.17004643659E+02  0.43400720734E+02  0.00000000000E+00 0. -1.
         11    1    3    3    0    0  0.15473121906E+02 -0.66736146552E+00  0.88662480150E+01  0.17845818193E+02  0.51100000000E-03 0. -1.
        -11    1    3    3    0    0  0.89429787415E+01  0.70792639074E+01  0.51380924461E+01  0.12509709848E+02  0.51100000000E-03 0.  1.
         12    1    3    3    0    0  0.98743534354E+01  0.14048532867E+02  0.30003031976E+01  0.17431751225E+02  0.00000000000E+00 0. -1.
</event>
<event>
 7    1  0.2769403E-010  0.4778727E+02  0.7816164E-02  0.1312668E+00
        -11   -1    0    0    0    0  0.00000000000E+00  0.00000000000E+00  0.45593999997E+02  0.45594000000E+02  0.51100000000E-03 0. -1.
         11   -1    0    0    0    0 -0.00000000000E+00 -0.00000000000E+00 -0.45593999997E+02  0.45594000000E+02  0.51100000000E-03 0.  1.
    9900012    2    1    2    0    0  0.31754006460E+02 -0.26899354932E+02 -0.12317917776E+02  0.47787270508E+02  0.19999997556E+02 0.  0.
         12    1    1    2    0    0 -0.31754006460E+02  0.26899354932E+02  0.12317917776E+02  0.43400729492E+02  0.00000000000E+00 0. -1.
         11    1    3    3    0    0  0.14277240165E+02 -0.55886121043E+01  0.74361413581E-01  0.15332243863E+02  0.51100000000E-03 0. -1.
        -11    1    3    3    0    0  0.55071824373E+01  0.31601138462E-01 -0.18339224895E+01  0.58045955060E+01  0.51100000000E-03 0.  1.
        -12    1    3    3    0    0  0.11969583858E+02 -0.21342343966E+02 -0.10558356700E+02  0.26650431140E+02  0.00000000000E+00 0.  1.
</event>
<event>
 7    1  0.2769403E-010  0.4778727E+02  0.7816164E-02  0.1312668E+00
        -11   -1    0    0    0    0  0.00000000000E+00  0.00000000000E+00  0.45593999997E+02  0.45594000000E+02  0.51100000000E-03 0.  1.
         11   -1    0    0    0    0 -0.00000000000E+00 -0.00000000000E+00 -0.45593999997E+02  0.45594000000E+02  0.51100000000E-03 0. -1.
    9900012    2    1    2    0    0  0.14999950311E+01  0.42993767734E+02 -0.57366556335E+01  0.47787271124E+02  0.20000000364E+02 0.  0.
         12    1    1    2    0    0 -0.14999950311E+01 -0.42993767734E+02  0.57366556335E+01  0.43400728876E+02  0.00000000000E+00 0. -1.
         11    1    3    3    0    0 -0.28168185365E+01  0.98954474046E+01 -0.57179815318E+01  0.11770711918E+02  0.51100000000E-03 0. -1.
        -11    1    3    3    0    0  0.50216238324E+01  0.24655532615E+02 -0.57212658397E+01  0.25803970189E+02  0.51100000000E-03 0.  1.
         12    1    3    3    0    0 -0.70481026477E+00  0.84427877151E+01  0.57025917379E+01  0.10212589017E+02  0.00000000000E+00 0. -1.
</event>
<event>
 7    1  0.2769403E-010  0.4778728E+02  0.7816164E-02  0.1312668E+00
        -11   -1    0    0    0    0  0.00000000000E+00  0.00000000000E+00  0.45593999997E+02  0.45594000000E+02  0.51100000000E-03 0.  1.
         11   -1    0    0    0    0 -0.00000000000E+00 -0.00000000000E+00 -0.45593999997E+02  0.45594000000E+02  0.51100000000E-03 0. -1.
    9900012    2    1    2    0    0 -0.23370107963E+02  0.36044825263E+02  0.61831492781E+01  0.47787277547E+02  0.20000029646E+02 0.  0.
         12    1    1    2    0    0  0.23370107963E+02 -0.36044825263E+02 -0.61831492781E+01  0.43400722453E+02  0.00000000000E+00 0. -1.
         11    1    3    3    0    0 -0.79789553031E+01  0.47998326548E+01 -0.18051174852E+01  0.94847546431E+01  0.51100000000E-03 0. -1.
        -11    1    3    3    0    0 -0.35777164902E+01  0.26992701968E+01 -0.31328510656E+01  0.54681688836E+01  0.51100000000E-03 0.  1.
        -12    1    3    3    0    0 -0.11813436170E+02  0.28545722412E+02  0.11121117829E+02  0.32834354020E+02  0.00000000000E+00 0.  1.
</event>
<event>
 7    1  0.2769403E-010  0.4778726E+02  0.7816164E-02  0.1312668E+00
        -11   -1    0    0    0    0  0.00000000000E+00  0.00000000000E+00  0.45593999997E+02  0.45594000000E+02  0.51100000000E-03 0.  1.
         11   -1    0    0    0    0 -0.00000000000E+00 -0.00000000000E+00 -0.45593999997E+02  0.45594000000E+02  0.51100000000E-03 0. -1.
    9900012    2    1    2    0    0 -0.93777212903E+01  0.37085835332E+01  0.42212897783E+02  0.47787262821E+02  0.19999962507E+02 0.  0.
         12    1    1    2    0    0  0.93777212903E+01 -0.37085835332E+01 -0.42212897783E+02  0.43400737179E+02  0.00000000000E+00 0. -1.
         11    1    3    3    0    0 -0.93215364290E-01  0.22598251080E+01  0.63698713612E+00  0.23497343457E+01  0.51100000000E-03 0. -1.
        -11    1    3    3    0    0  0.67169185798E+00 -0.89476336695E+00  0.29876515256E+02  0.29897457008E+02  0.51100000000E-03 0.  1.
         12    1    3    3    0    0 -0.99561977839E+01  0.23435217922E+01  0.11699395391E+02  0.15540071468E+02  0.00000000000E+00 0. -1.
</event>
<event>
 7    1  0.2769403E-010  0.4778727E+02  0.7816164E-02  0.1312668E+00
        -11   -1    0    0    0    0  0.00000000000E+00  0.00000000000E+00  0.45593999997E+02  0.45594000000E+02  0.51100000000E-03 0.  1.
         11   -1    0    0    0    0 -0.00000000000E+00 -0.00000000000E+00 -0.45593999997E+02  0.45594000000E+02  0.51100000000E-03 0. -1.
    9900012    2    1    2    0    0 -0.54126082354E+01 -0.28405169609E+02  0.32364692171E+02  0.47787270884E+02  0.19999999269E+02 0.  0.
         12    1    1    2    0    0  0.54126082354E+01  0.28405169609E+02 -0.32364692171E+02  0.43400729116E+02  0.00000000000E+00 0. -1.
         11    1    3    3    0    0 -0.63059363299E+01 -0.14352302314E+02  0.92218165659E+01  0.18187779297E+02  0.51100000000E-03 0. -1.
        -11    1    3    3    0    0 -0.16834021038E+01 -0.91984465228E+01  0.49213194061E+01  0.10567149381E+02  0.51100000000E-03 0.  1.
         12    1    3    3    0    0  0.25767301984E+01 -0.48544207724E+01  0.18221556199E+02  0.19032342207E+02  0.00000000000E+00 0. -1.
</event>
<event>
 7    1  0.2769403E-010  0.4778728E+02  0.7816164E-02  0.1312668E+00
        -11   -1    0    0    0    0  0.00000000000E+00  0.00000000000E+00  0.45593999997E+02  0.45594000000E+02  0.51100000000E-03 0.  1.
         11   -1    0    0    0    0 -0.00000000000E+00 -0.00000000000E+00 -0.45593999997E+02  0.45594000000E+02  0.51100000000E-03 0. -1.
    9900012    2    1    2    0    0  0.37530636688E+02  0.20085496040E+02  0.84644247562E+01  0.47787281944E+02  0.20000049693E+02 0.  0.
         12    1    1    2    0    0 -0.37530636688E+02 -0.20085496040E+02 -0.84644247562E+01  0.43400718056E+02  0.00000000000E+00 0. -1.
         11    1    3    3    0    0  0.28739728539E+01 -0.12216339137E+01  0.15829859837E+01  0.35011361399E+01  0.51100000000E-03 0. -1.
        -11    1    3    3    0    0  0.31669645054E+02  0.12631081036E+02  0.26996401324E+01  0.34202319849E+02  0.51100000000E-03 0.  1.
        -12    1    3    3    0    0  0.29870187804E+01  0.86760489177E+01  0.41817986401E+01  0.10083825955E+02  0.00000000000E+00 0.  1.
</event>
<event>
 7    1  0.2769403E-010  0.4778727E+02  0.7816164E-02  0.1312668E+00
        -11   -1    0    0    0    0  0.00000000000E+00  0.00000000000E+00  0.45593999997E+02  0.45594000000E+02  0.51100000000E-03 0. -1.
         11   -1    0    0    0    0 -0.00000000000E+00 -0.00000000000E+00 -0.45593999997E+02  0.45594000000E+02  0.51100000000E-03 0.  1.
    9900012    2    1    2    0    0  0.10927373010E+02 -0.39789847211E+02 -0.13453021666E+02  0.47787271735E+02  0.20000003150E+02 0.  0.
         12    1    1    2    0    0 -0.10927373010E+02  0.39789847211E+02  0.13453021666E+02  0.43400728265E+02  0.00000000000E+00 0. -1.
         11    1    3    3    0    0  0.95126033047E+01 -0.38479691673E+02 -0.93400865420E+01  0.40723623485E+02  0.51100000000E-03 0. -1.
        -11    1    3    3    0    0 -0.18067255731E+01 -0.11710084627E+01 -0.47955851417E+00  0.22057866502E+01  0.51100000000E-03 0.  1.
        -12    1    3    3    0    0  0.32214952784E+01 -0.13914707506E+00 -0.36333766093E+01  0.48578615998E+01  0.00000000000E+00 0.  1.
</event>
<event>
 7    1  0.2769403E-010  0.4778726E+02  0.7816164E-02  0.1312668E+00
        -11   -1    0    0    0    0  0.00000000000E+00  0.00000000000E+00  0.45593999997E+02  0.45594000000E+02  0.51100000000E-03 0.  1.
         11   -1    0    0    0    0 -0.00000000000E+00 -0.00000000000E+00 -0.45593999997E+02  0.45594000000E+02  0.51100000000E-03 0. -1.
    9900012    2    1    2    0    0  0.11754131715E+02  0.96875396321E+01  0.40640077354E+02  0.47787263557E+02  0.19999965861E+02 0.  0.
         12    1    1    2    0    0 -0.11754131715E+02 -0.96875396321E+01 -0.40640077354E+02  0.43400736443E+02  0.00000000000E+00 0. -1.
         11    1    3    3    0    0  0.12337913933E+02  0.66708454288E+00  0.16604247719E+02  0.20697105222E+02  0.51100000000E-03 0. -1.
        -11    1    3    3    0    0  0.58408401669E+00  0.20677050770E+01  0.11463904908E+00  0.21516739522E+01  0.51100000000E-03 0.  1.
        -12    1    3    3    0    0 -0.11678662340E+01  0.69527500123E+01  0.23921190586E+02  0.24938484383E+02  0.00000000000E+00 0.  1.
</event>
<event>
 7    1  0.2769403E-010  0.4778727E+02  0.7816164E-02  0.1312668E+00
        -11   -1    0    0    0    0  0.00000000000E+00  0.00000000000E+00  0.45593999997E+02  0.45594000000E+02  0.51100000000E-03 0.  1.
         11   -1    0    0    0    0 -0.00000000000E+00 -0.00000000000E+00 -0.45593999997E+02  0.45594000000E+02  0.51100000000E-03 0. -1.
    9900012    2    1    2    0    0 -0.14210121948E+02  0.14303240946E+02  0.38433225717E+02  0.47787272974E+02  0.20000008800E+02 0.  0.
         12    1    1    2    0    0  0.14210121948E+02 -0.14303240946E+02 -0.38433225717E+02  0.43400727026E+02  0.00000000000E+00 0. -1.
         11    1    3    3    0    0  0.63651140582E+00 -0.22170596302E+00  0.71030760419E+00  0.97920245989E+00  0.51100000000E-03 0. -1.
        -11    1    3    3    0    0 -0.14334765246E+01  0.11506562995E+02  0.80830600504E+01  0.14134769434E+02  0.51100000000E-03 0.  1.
         12    1    3    3    0    0 -0.13413156829E+02  0.30183839147E+01  0.29639858062E+02  0.32673301081E+02  0.00000000000E+00 0. -1.
</event>
<event>
 7    1  0.2769403E-010  0.4778727E+02  0.7816164E-02  0.1312668E+00
        -11   -1    0    0    0    0  0.00000000000E+00  0.00000000000E+00  0.45593999997E+02  0.45594000000E+02  0.51100000000E-03 0.  1.
         11   -1    0    0    0    0 -0.00000000000E+00 -0.00000000000E+00 -0.45593999997E+02  0.45594000000E+02  0.51100000000E-03 0. -1.
    9900012    2    1    2    0    0  0.37641239726E+02 -0.33198575436E+01  0.21348041001E+02  0.47787271471E+02  0.20000001947E+02 0.  0.
         12    1    1    2    0    0 -0.37641239726E+02  0.33198575436E+01 -0.21348041001E+02  0.43400728529E+02  0.00000000000E+00 0. -1.
         11    1    3    3    0    0  0.10727514597E+02 -0.68300457153E+01  0.39167075053E+00  0.12723305393E+02  0.51100000000E-03 0. -1.
        -11    1    3    3    0    0  0.12730541556E+02 -0.83606238455E+00  0.63702335162E+01  0.14259928609E+02  0.51100000000E-03 0.  1.
        -12    1    3    3    0    0  0.14183183573E+02  0.43462505563E+01  0.14586136735E+02  0.20804037469E+02  0.00000000000E+00 0.  1.
</event>
<event>
 7    1  0.2769403E-010  0.4778727E+02  0.7816164E-02  0.1312668E+00
        -11   -1    0    0    0    0  0.00000000000E+00  0.00000000000E+00  0.45593999997E+02  0.45594000000E+02  0.51100000000E-03 0.  1.
         11   -1    0    0    0    0 -0.00000000000E+00 -0.00000000000E+00 -0.45593999997E+02  0.45594000000E+02  0.51100000000E-03 0. -1.
    9900012    2    1    2    0    0 -0.42181546736E+01  0.34370272887E+02  0.26163231325E+02  0.47787272350E+02  0.20000005950E+02 0.  0.
         12    1    1    2    0    0  0.42181546736E+01 -0.34370272887E+02 -0.26163231325E+02  0.43400727650E+02  0.00000000000E+00 0. -1.
         11    1    3    3    0    0 -0.36343516467E+01  0.14892353934E+01  0.63445411834E+01  0.74618722207E+01  0.51100000000E-03 0. -1.
        -11    1    3    3    0    0  0.22324687708E+01  0.71310331856E+01  0.10307121433E+02  0.12730762099E+02  0.51100000000E-03 0.  1.
         12    1    3    3    0    0 -0.28162717977E+01  0.25750004308E+02  0.95115687087E+01  0.27594638030E+02  0.00000000000E+00 0. -1.
</event>
<event>
 7    1  0.2769403E-010  0.4778727E+02  0.7816164E-02  0.1312668E+00
        -11   -1    0    0    0    0  0.00000000000E+00  0.00000000000E+00  0.45593999997E+02  0.45594000000E+02  0.51100000000E-03 0.  1.
         11   -1    0    0    0    0 -0.00000000000E+00 -0.00000000000E+00 -0.45593999997E+02  0.45594000000E+02  0.51100000000E-03 0. -1.
    9900012    2    1    2    0    0 -0.55240226047E+01 -0.12856394383E+02  0.41083108071E+02  0.47787268773E+02  0.19999989644E+02 0.  0.
         12    1    1    2    0    0  0.55240226047E+01  0.12856394383E+02 -0.41083108071E+02  0.43400731227E+02  0.00000000000E+00 0. -1.
         11    1    3    3    0    0 -0.32891749734E+01 -0.80232581958E+01  0.13507252188E+02  0.16051081147E+02  0.51100000000E-03 0. -1.
        -11    1    3    3    0    0 -0.63587108843E+01 -0.55208241268E+01  0.25895538540E+02  0.27230343731E+02  0.51100000000E-03 0.  1.
         12    1    3    3    0    0  0.41238632530E+01  0.68768793952E+00  0.16803173433E+01  0.45058438949E+01  0.00000000000E+00 0. -1.
</event>
<event>
 7    1  0.2769403E-010  0.4778727E+02  0.7816164E-02  0.1312668E+00
        -11   -1    0    0    0    0  0.00000000000E+00  0.00000000000E+00  0.45593999997E+02  0.45594000000E+02  0.51100000000E-03 0. -1.
         11   -1    0    0    0    0 -0.00000000000E+00 -0.00000000000E+00 -0.45593999997E+02  0.45594000000E+02  0.51100000000E-03 0.  1.
    9900012    2    1    2    0    0  0.10310335583E+02 -0.30657716352E+02  0.28938290096E+02  0.47787271603E+02  0.20000002546E+02 0.  0.
         12    1    1    2    0    0 -0.10310335583E+02  0.30657716352E+02 -0.28938290096E+02  0.43400728397E+02  0.00000000000E+00 0. -1.
         11    1    3    3    0    0  0.84288489684E+01 -0.91737392484E+01  0.66083182641E+01  0.14102228805E+02  0.51100000000E-03 0. -1.
        -11    1    3    3    0    0  0.33447126192E+01 -0.16149621278E+02  0.80114324088E+01  0.18335223463E+02  0.51100000000E-03 0.  1.
        -12    1    3    3    0    0 -0.14632260043E+01 -0.53343558251E+01  0.14318539423E+02  0.15349819335E+02  0.00000000000E+00 0.  1.
</event>
<event>
 7    1  0.2769403E-010  0.4778727E+02  0.7816164E-02  0.1312668E+00
        -11   -1    0    0    0    0  0.00000000000E+00  0.00000000000E+00  0.45593999997E+02  0.45594000000E+02  0.51100000000E-03 0.  1.
         11   -1    0    0    0    0 -0.00000000000E+00 -0.00000000000E+00 -0.45593999997E+02  0.45594000000E+02  0.51100000000E-03 0. -1.
    9900012    2    1    2    0    0 -0.27071452730E+02 -0.77054449782E+00  0.33914094093E+02  0.47787273394E+02  0.20000010714E+02 0.  0.
         12    1    1    2    0    0  0.27071452730E+02  0.77054449782E+00 -0.33914094093E+02  0.43400726606E+02  0.00000000000E+00 0. -1.
         11    1    3    3    0    0 -0.82168176567E+01 -0.52849672945E+01  0.12293882989E+02  0.15703073932E+02  0.51100000000E-03 0. -1.
        -11    1    3    3    0    0 -0.11155510859E+02 -0.13599622630E+01  0.18961463738E+02  0.22041597656E+02  0.51100000000E-03 0.  1.
        -12    1    3    3    0    0 -0.76991242134E+01  0.58743850597E+01  0.26587473671E+01  0.10042601807E+02  0.00000000000E+00 0.  1.
</event>
<event>
 7    1  0.2769403E-010  0.4778727E+02  0.7816164E-02  0.1312668E+00
        -11   -1    0    0    0    0  0.00000000000E+00  0.00000000000E+00  0.45593999997E+02  0.45594000000E+02  0.51100000000E-03 0.  1.
         11   -1    0    0    0    0 -0.00000000000E+00 -0.00000000000E+00 -0.45593999997E+02  0.45594000000E+02  0.51100000000E-03 0. -1.
    9900012    2    1    2    0    0  0.11645867921E+02  0.99168678761E+01  0.40615920355E+02  0.47787268504E+02  0.19999988418E+02 0.  0.
         12    1    1    2    0    0 -0.11645867921E+02 -0.99168678761E+01 -0.40615920355E+02  0.43400731496E+02  0.00000000000E+00 0. -1.
         11    1    3    3    0    0  0.68060233152E+00  0.15020948371E+00 -0.86783263661E+00  0.11130661117E+01  0.51100000000E-03 0. -1.
        -11    1    3    3    0    0  0.91739728644E+01  0.30719968841E+01  0.82168865637E+01  0.12693154377E+02  0.51100000000E-03 0.  1.
        -12    1    3    3    0    0  0.17912927254E+01  0.66946615083E+01  0.33266866428E+02  0.33981048016E+02  0.00000000000E+00 0.  1.
</event>
<event>
 7    1  0.2769403E-010  0.4778728E+02  0.7816164E-02  0.1312668E+00
        -11   -1    0    0    0    0  0.00000000000E+00  0.00000000000E+00  0.45593999997E+02  0.45594000000E+02  0.51100000000E-03 0.  1.
         11   -1    0    0    0    0 -0.00000000000E+00 -0.00000000000E+00 -0.45593999997E+02  0.45594000000E+02  0.51100000000E-03 0. -1.
    9900012    2    1    2    0    0  0.36494146184E+02 -0.12484466510E+02  0.19898178310E+02  0.47787284455E+02  0.20000061146E+02 0.  0.
         12    1    1    2    0    0 -0.36494146184E+02  0.12484466510E+02 -0.19898178310E+02  0.43400715545E+02  0.00000000000E+00 0. -1.
         11    1    3    3    0    0  0.13163345587E+02  0.17348436251E+01  0.88847835972E+01  0.15975691825E+02  0.51100000000E-03 0. -1.
        -11    1    3    3    0    0  0.18414660588E+02 -0.72562330083E+01  0.12131694310E+02  0.23214879908E+02  0.51100000000E-03 0.  1.
        -12    1    3    3    0    0  0.49161400082E+01 -0.69630771264E+01 -0.11182995968E+01  0.85967127227E+01  0.00000000000E+00 0.  1.
</event>
<event>
 7    1  0.2769403E-010  0.4778726E+02  0.7816164E-02  0.1312668E+00
        -11   -1    0    0    0    0  0.00000000000E+00  0.00000000000E+00  0.45593999997E+02  0.45594000000E+02  0.51100000000E-03 0.  1.
         11   -1    0    0    0    0 -0.00000000000E+00 -0.00000000000E+00 -0.45593999997E+02  0.45594000000E+02  0.51100000000E-03 0. -1.
    9900012    2    1    2    0    0 -0.83954904358E+01  0.88277045236E+01  0.41655868988E+02  0.47787262127E+02  0.19999959341E+02 0.  0.
         12    1    1    2    0    0  0.83954904358E+01 -0.88277045236E+01 -0.41655868988E+02  0.43400737873E+02  0.00000000000E+00 0. -1.
         11    1    3    3    0    0 -0.55795143297E+01  0.98606389371E+00  0.10748503269E+02  0.12150457808E+02  0.51100000000E-03 0. -1.
        -11    1    3    3    0    0 -0.88541655659E-01  0.50288994948E+01  0.31297864467E+02  0.31699432017E+02  0.51100000000E-03 0.  1.
         12    1    3    3    0    0 -0.27274344504E+01  0.28127411351E+01 -0.39049874764E+00  0.39373723022E+01  0.00000000000E+00 0. -1.
</event>
<event>
 7    1  0.2769403E-010  0.4778724E+02  0.7816164E-02  0.1312668E+00
        -11   -1    0    0    0    0  0.00000000000E+00  0.00000000000E+00  0.45593999997E+02  0.45594000000E+02  0.51100000000E-03 0. -1.
         11   -1    0    0    0    0 -0.00000000000E+00 -0.00000000000E+00 -0.45593999997E+02  0.45594000000E+02  0.51100000000E-03 0.  1.
    9900012    2    1    2    0    0 -0.79278082684E+01  0.42302460941E+02  0.55926702966E+01  0.47787236106E+02  0.19999840699E+02 0.  0.
         12    1    1    2    0    0  0.79278082684E+01 -0.42302460941E+02 -0.55926702966E+01  0.43400763894E+02  0.00000000000E+00 0. -1.
         11    1    3    3    0    0 -0.15745550863E+01  0.11995032370E+01  0.28033013758E+01  0.34316950039E+01  0.51100000000E-03 0. -1.
        -11    1    3    3    0    0 -0.77775736197E+01  0.18868116971E+02  0.72031782811E+01  0.21642140999E+02  0.51100000000E-03 0.  1.
         12    1    3    3    0    0  0.14243204376E+01  0.22234840733E+02 -0.44138093603E+01  0.22713400102E+02  0.00000000000E+00 0. -1.
</event>
<event>
 7    1  0.2769403E-010  0.4778727E+02  0.7816164E-02  0.1312668E+00
        -11   -1    0    0    0    0  0.00000000000E+00  0.00000000000E+00  0.45593999997E+02  0.45594000000E+02  0.51100000000E-03 0.  1.
         11   -1    0    0    0    0 -0.00000000000E+00 -0.00000000000E+00 -0.45593999997E+02  0.45594000000E+02  0.51100000000E-03 0. -1.
    9900012    2    1    2    0    0 -0.28966393598E+02 -0.64839249553E+01  0.31662757609E+02  0.47787268896E+02  0.19999990206E+02 0.  0.
         12    1    1    2    0    0  0.28966393598E+02  0.64839249553E+01 -0.31662757609E+02  0.43400731104E+02  0.00000000000E+00 0. -1.
         11    1    3    3    0    0  0.22725987730E+01 -0.14431213966E+01  0.50361343227E+01  0.57105125624E+01  0.51100000000E-03 0. -1.
        -11    1    3    3    0    0 -0.83580457410E+01 -0.42494501805E+01  0.52100176561E+01  0.10726557681E+02  0.51100000000E-03 0.  1.
        -12    1    3    3    0    0 -0.22880946630E+02 -0.79135337815E+00  0.21416605630E+02  0.31350198653E+02  0.00000000000E+00 0.  1.
</event>
<event>
 7    1  0.2769403E-010  0.4778727E+02  0.7816164E-02  0.1312668E+00
        -11   -1    0    0    0    0  0.00000000000E+00  0.00000000000E+00  0.45593999997E+02  0.45594000000E+02  0.51100000000E-03 0. -1.
         11   -1    0    0    0    0 -0.00000000000E+00 -0.00000000000E+00 -0.45593999997E+02  0.45594000000E+02  0.51100000000E-03 0.  1.
    9900012    2    1    2    0    0 -0.26979923193E+02 -0.33652145951E+02 -0.48208064565E+01  0.47787270081E+02  0.19999995607E+02 0.  0.
         12    1    1    2    0    0  0.26979923193E+02  0.33652145951E+02  0.48208064565E+01  0.43400729919E+02  0.00000000000E+00 0. -1.
         11    1    3    3    0    0 -0.92421527587E+01 -0.13057938434E+02 -0.32751545762E+01  0.16329537088E+02  0.51100000000E-03 0. -1.
        -11    1    3    3    0    0 -0.11100094928E+02 -0.19028320617E+02  0.43359730012E+01  0.22451943235E+02  0.51100000000E-03 0.  1.
         12    1    3    3    0    0 -0.66376755057E+01 -0.15658869006E+01 -0.58816248815E+01  0.90057897572E+01  0.00000000000E+00 0. -1.
</event>
<event>
 7    1  0.2769403E-010  0.4778727E+02  0.7816164E-02  0.1312668E+00
        -11   -1    0    0    0    0  0.00000000000E+00  0.00000000000E+00  0.45593999997E+02  0.45594000000E+02  0.51100000000E-03 0. -1.
         11   -1    0    0    0    0 -0.00000000000E+00 -0.00000000000E+00 -0.45593999997E+02  0.45594000000E+02  0.51100000000E-03 0.  1.
    9900012    2    1    2    0    0 -0.20459787409E+02  0.27557788585E+02 -0.26562921229E+02  0.47787269629E+02  0.19999993545E+02 0.  0.
         12    1    1    2    0    0  0.20459787409E+02 -0.27557788585E+02  0.26562921229E+02  0.43400730371E+02  0.00000000000E+00 0. -1.
         11    1    3    3    0    0 -0.72344251517E+00 -0.13744320904E+01  0.79175010859E+00  0.17433591539E+01  0.51100000000E-03 0. -1.
        -11    1    3    3    0    0 -0.49196202578E+00  0.70188593308E+01 -0.95935954777E+01  0.11897205024E+02  0.51100000000E-03 0.  1.
        -12    1    3    3    0    0 -0.19244382868E+02  0.21913361345E+02 -0.17761075860E+02  0.34146705450E+02  0.00000000000E+00 0.  1.
</event>
<event>
 7    1  0.2769403E-010  0.4778727E+02  0.7816164E-02  0.1312668E+00
        -11   -1    0    0    0    0  0.00000000000E+00  0.00000000000E+00  0.45593999997E+02  0.45594000000E+02  0.51100000000E-03 0.  1.
         11   -1    0    0    0    0 -0.00000000000E+00 -0.00000000000E+00 -0.45593999997E+02  0.45594000000E+02  0.51100000000E-03 0. -1.
    9900012    2    1    2    0    0  0.25681192465E+01  0.41229893637E+02 -0.13308796488E+02  0.47787269249E+02  0.19999991813E+02 0.  0.
         12    1    1    2    0    0 -0.25681192465E+01 -0.41229893637E+02  0.13308796488E+02  0.43400730751E+02  0.00000000000E+00 0. -1.
         11    1    3    3    0    0  0.22126830470E+01  0.10618781064E+02 -0.71586008067E+01  0.12996154944E+02  0.51100000000E-03 0. -1.
        -11    1    3    3    0    0  0.67680091005E+01  0.73887608738E+01 -0.32062317946E+01  0.10520439963E+02  0.51100000000E-03 0.  1.
         12    1    3    3    0    0 -0.64125729010E+01  0.23222351699E+02 -0.29439638870E+01  0.24270674342E+02  0.00000000000E+00 0. -1.
</event>
<event>
 7    1  0.2769403E-010  0.4778727E+02  0.7816164E-02  0.1312668E+00
        -11   -1    0    0    0    0  0.00000000000E+00  0.00000000000E+00  0.45593999997E+02  0.45594000000E+02  0.51100000000E-03 0. -1.
         11   -1    0    0    0    0 -0.00000000000E+00 -0.00000000000E+00 -0.45593999997E+02  0.45594000000E+02  0.51100000000E-03 0.  1.
    9900012    2    1    2    0    0 -0.41794111227E+02  0.26002169906E+01 -0.11406770920E+02  0.47787270923E+02  0.19999999444E+02 0.  0.
         12    1    1    2    0    0  0.41794111227E+02 -0.26002169906E+01  0.11406770920E+02  0.43400729077E+02  0.00000000000E+00 0. -1.
         11    1    3    3    0    0 -0.10750377392E+02 -0.57689817063E+01 -0.16218379468E+01  0.12307807383E+02  0.51100000000E-03 0. -1.
        -11    1    3    3    0    0 -0.20143271849E+02  0.97608151307E+00 -0.95315025080E+01  0.22305911240E+02  0.51100000000E-03 0.  1.
         12    1    3    3    0    0 -0.10900461985E+02  0.73931171838E+01 -0.25343046562E+00  0.13173552300E+02  0.00000000000E+00 0. -1.
</event>
<event>
 7    1  0.2769403E-010  0.4778726E+02  0.7816164E-02  0.1312668E+00
        -11   -1    0    0    0    0  0.00000000000E+00  0.00000000000E+00  0.45593999997E+02  0.45594000000E+02  0.51100000000E-03 0.  1.
         11   -1    0    0    0    0 -0.00000000000E+00 -0.00000000000E+00 -0.45593999997E+02  0.45594000000E+02  0.51100000000E-03 0. -1.
    9900012    2    1    2    0    0 -0.22830551262E+02 -0.15768036190E+02  0.33373029818E+02  0.47787260888E+02  0.19999953694E+02 0.  0.
         12    1    1    2    0    0  0.22830551262E+02  0.15768036190E+02 -0.33373029818E+02  0.43400739112E+02  0.00000000000E+00 0. -1.
         11    1    3    3    0    0  0.16846004527E+01  0.10803227862E+01  0.32159612976E+01  0.37877939933E+01  0.51100000000E-03 0. -1.
        -11    1    3    3    0    0 -0.67436380989E+01 -0.95769695123E+01  0.17295274378E+02  0.20888310509E+02  0.51100000000E-03 0.  1.
        -12    1    3    3    0    0 -0.17771513616E+02 -0.72713894638E+01  0.12861794143E+02  0.23111156386E+02  0.00000000000E+00 0.  1.
</event>
<event>
 7    1  0.2769403E-010  0.4778727E+02  0.7816164E-02  0.1312668E+00
        -11   -1    0    0    0    0  0.00000000000E+00  0.00000000000E+00  0.45593999997E+02  0.45594000000E+02  0.51100000000E-03 0. -1.
         11   -1    0    0    0    0 -0.00000000000E+00 -0.00000000000E+00 -0.45593999997E+02  0.45594000000E+02  0.51100000000E-03 0.  1.
    9900012    2    1    2    0    0  0.39967486565E+02 -0.87588292697E+01 -0.14474329608E+02  0.47787270858E+02  0.19999999149E+02 0.  0.
         12    1    1    2    0    0 -0.39967486565E+02  0.87588292697E+01  0.14474329608E+02  0.43400729142E+02  0.00000000000E+00 0. -1.
         11    1    3    3    0    0  0.63193598157E+01 -0.60725038553E-01  0.25383844863E+01  0.68103885405E+01  0.51100000000E-03 0. -1.
        -11    1    3    3    0    0  0.19461265282E+02 -0.48080955127E+01 -0.23108063223E+01  0.20179158926E+02  0.51100000000E-03 0.  1.
         12    1    3    3    0    0  0.14186861466E+02 -0.38900087185E+01 -0.14701907773E+02  0.20797723391E+02  0.00000000000E+00 0. -1.
</event>
<event>
 7    1  0.2769403E-010  0.4778726E+02  0.7816164E-02  0.1312668E+00
        -11   -1    0    0    0    0  0.00000000000E+00  0.00000000000E+00  0.45593999997E+02  0.45594000000E+02  0.51100000000E-03 0.  1.
         11   -1    0    0    0    0 -0.00000000000E+00 -0.00000000000E+00 -0.45593999997E+02  0.45594000000E+02  0.51100000000E-03 0. -1.
    9900012    2    1    2    0    0 -0.23183409664E+02 -0.34155905609E+01  0.36530638463E+02  0.47787259349E+02  0.19999946676E+02 0.  0.
         12    1    1    2    0    0  0.23183409664E+02  0.34155905609E+01 -0.36530638463E+02  0.43400740651E+02  0.00000000000E+00 0. -1.
         11    1    3    3    0    0  0.99844161834E-01 -0.82456347110E+00  0.10368928689E+02  0.10402141904E+02  0.51100000000E-03 0. -1.
        -11    1    3    3    0    0 -0.13106031504E+02  0.27786203546E+01  0.20677002214E+02  0.24637922268E+02  0.51100000000E-03 0.  1.
         12    1    3    3    0    0 -0.10177222322E+02 -0.53696474444E+01  0.54847075599E+01  0.12747195177E+02  0.00000000000E+00 0. -1.
</event>
<event>
 7    1  0.2769403E-010  0.4778725E+02  0.7816164E-02  0.1312668E+00
        -11   -1    0    0    0    0  0.00000000000E+00  0.00000000000E+00  0.45593999997E+02  0.45594000000E+02  0.51100000000E-03 0.  1.
         11   -1    0    0    0    0 -0.00000000000E+00 -0.00000000000E+00 -0.45593999997E+02  0.45594000000E+02  0.51100000000E-03 0. -1.
    9900012    2    1    2    0    0  0.19957289092E+02 -0.45907016323E+01  0.38265618539E+02  0.47787245496E+02  0.19999883512E+02 0.  0.
         12    1    1    2    0    0 -0.19957289092E+02  0.45907016323E+01 -0.38265618539E+02  0.43400754504E+02  0.00000000000E+00 0. -1.
         11    1    3    3    0    0  0.33700681213E+01 -0.32023679024E+00 -0.28583915577E+00  0.33972952518E+01  0.51100000000E-03 0. -1.
        -11    1    3    3    0    0  0.13691893290E+02 -0.89680573962E+01  0.30741869552E+02  0.34827525595E+02  0.51100000000E-03 0.  1.
         12    1    3    3    0    0  0.28953276809E+01  0.46975925540E+01  0.78095881434E+01  0.95624246482E+01  0.00000000000E+00 0. -1.
</event>
<event>
 7    1  0.2769403E-010  0.4778727E+02  0.7816164E-02  0.1312668E+00
        -11   -1    0    0    0    0  0.00000000000E+00  0.00000000000E+00  0.45593999997E+02  0.45594000000E+02  0.51100000000E-03 0.  1.
         11   -1    0    0    0    0 -0.00000000000E+00 -0.00000000000E+00 -0.45593999997E+02  0.45594000000E+02  0.51100000000E-03 0. -1.
    9900012    2    1    2    0    0  0.32711356532E+02 -0.28451792317E+02 -0.20213933551E+01  0.47787270014E+02  0.19999995303E+02 0.  0.
         12    1    1    2    0    0 -0.32711356532E+02  0.28451792317E+02  0.20213933551E+01  0.43400729986E+02  0.00000000000E+00 0. -1.
         11    1    3    3    0    0  0.72012400919E+01 -0.10066516628E+02  0.26136328054E+01  0.12650047138E+02  0.51100000000E-03 0. -1.
        -11    1    3    3    0    0  0.13677162688E+02 -0.13264596474E+02  0.41959363997E+01  0.19509489520E+02  0.51100000000E-03 0.  1.
         12    1    3    3    0    0  0.11832953752E+02 -0.51206792149E+01 -0.88309625601E+01  0.15627733356E+02  0.00000000000E+00 0. -1.
</event>
<event>
 7    1  0.2769403E-010  0.4778727E+02  0.7816164E-02  0.1312668E+00
        -11   -1    0    0    0    0  0.00000000000E+00  0.00000000000E+00  0.45593999997E+02  0.45594000000E+02  0.51100000000E-03 0.  1.
         11   -1    0    0    0    0 -0.00000000000E+00 -0.00000000000E+00 -0.45593999997E+02  0.45594000000E+02  0.51100000000E-03 0. -1.
    9900012    2    1    2    0    0  0.19128664868E+02  0.95077680780E+01  0.37779886856E+02  0.47787270463E+02  0.19999997350E+02 0.  0.
         12    1    1    2    0    0 -0.19128664868E+02 -0.95077680780E+01 -0.37779886856E+02  0.43400729537E+02  0.00000000000E+00 0. -1.
         11    1    3    3    0    0  0.53236992337E+01 -0.14912176341E+00  0.18671976112E+01  0.56436192298E+01  0.51100000000E-03 0. -1.
        -11    1    3    3    0    0  0.90028641903E+01 -0.18361365297E+01  0.19342832294E+02  0.21414203754E+02  0.51100000000E-03 0.  1.
         12    1    3    3    0    0  0.48021014445E+01  0.11493026371E+02  0.16569856951E+02  0.20729447480E+02  0.00000000000E+00 0. -1.
</event>
<event>
 7    1  0.2769403E-010  0.4778727E+02  0.7816164E-02  0.1312668E+00
        -11   -1    0    0    0    0  0.00000000000E+00  0.00000000000E+00  0.45593999997E+02  0.45594000000E+02  0.51100000000E-03 0.  1.
         11   -1    0    0    0    0 -0.00000000000E+00 -0.00000000000E+00 -0.45593999997E+02  0.45594000000E+02  0.51100000000E-03 0. -1.
    9900012    2    1    2    0    0 -0.30795375226E+02  0.18083588993E+02  0.24662764193E+02  0.47787271160E+02  0.20000000529E+02 0.  0.
         12    1    1    2    0    0  0.30795375226E+02 -0.18083588993E+02 -0.24662764193E+02  0.43400728840E+02  0.00000000000E+00 0. -1.
         11    1    3    3    0    0 -0.23175550291E+02  0.11514320496E+02  0.20226762702E+02  0.32845207222E+02  0.51100000000E-03 0. -1.
        -11    1    3    3    0    0 -0.66012330129E+01  0.22030111104E+01  0.69219963875E+01  0.98154760197E+01  0.51100000000E-03 0.  1.
         12    1    3    3    0    0 -0.10185919221E+01  0.43662573860E+01 -0.24859948965E+01  0.51265879189E+01  0.00000000000E+00 0. -1.
</event>
<event>
 7    1  0.2769403E-010  0.4778733E+02  0.7816164E-02  0.1312667E+00
        -11   -1    0    0    0    0  0.00000000000E+00  0.00000000000E+00  0.45593999997E+02  0.45594000000E+02  0.51100000000E-03 0.  1.
         11   -1    0    0    0    0 -0.00000000000E+00 -0.00000000000E+00 -0.45593999997E+02  0.45594000000E+02  0.51100000000E-03 0. -1.
    9900012    2    1    2    0    0 -0.42489907955E+02 -0.88398453651E+01  0.28745802675E+00  0.47787334380E+02  0.20000288770E+02 0.  0.
         12    1    1    2    0    0  0.42489907955E+02  0.88398453651E+01 -0.28745802675E+00  0.43400665620E+02  0.00000000000E+00 0. -1.
         11    1    3    3    0    0 -0.25995866308E+00 -0.15147016244E+01  0.35215754600E+00  0.15766783806E+01  0.51100000000E-03 0. -1.
        -11    1    3    3    0    0 -0.33927981328E+02  0.11524081440E+01 -0.27041224335E+01  0.34055076566E+02  0.51100000000E-03 0.  1.
        -12    1    3    3    0    0 -0.83019679644E+01 -0.84775518847E+01  0.26394229143E+01  0.12155579433E+02  0.00000000000E+00 0.  1.
</event>
<event>
 7    1  0.2769403E-010  0.4778728E+02  0.7816164E-02  0.1312668E+00
        -11   -1    0    0    0    0  0.00000000000E+00  0.00000000000E+00  0.45593999997E+02  0.45594000000E+02  0.51100000000E-03 0. -1.
         11   -1    0    0    0    0 -0.00000000000E+00 -0.00000000000E+00 -0.45593999997E+02  0.45594000000E+02  0.51100000000E-03 0.  1.
    9900012    2    1    2    0    0 -0.50482766185E+01  0.30842766382E+02 -0.30114134612E+02  0.47787280670E+02  0.20000043887E+02 0.  0.
         12    1    1    2    0    0  0.50482766185E+01 -0.30842766382E+02  0.30114134612E+02  0.43400719330E+02  0.00000000000E+00 0. -1.
         11    1    3    3    0    0 -0.41477749092E+01  0.85825756865E+01 -0.16151445083E+02  0.18754567994E+02  0.51100000000E-03 0. -1.
        -11    1    3    3    0    0 -0.63132656311E+01  0.11659523321E+02 -0.95423690318E+01  0.16335807724E+02  0.51100000000E-03 0.  1.
         12    1    3    3    0    0  0.54127639218E+01  0.10600667374E+02 -0.44203204976E+01  0.12696904952E+02  0.00000000000E+00 0. -1.
</event>
<event>
 7    1  0.2769403E-010  0.4778727E+02  0.7816164E-02  0.1312668E+00
        -11   -1    0    0    0    0  0.00000000000E+00  0.00000000000E+00  0.45593999997E+02  0.45594000000E+02  0.51100000000E-03 0.  1.
         11   -1    0    0    0    0 -0.00000000000E+00 -0.00000000000E+00 -0.45593999997E+02  0.45594000000E+02  0.51100000000E-03 0. -1.
    9900012    2    1    2    0    0 -0.42781979283E+02  0.68241286916E+01  0.25994023946E+01  0.47787269861E+02  0.19999994603E+02 0.  0.
         12    1    1    2    0    0  0.42781979283E+02 -0.68241286916E+01 -0.25994023946E+01  0.43400730139E+02  0.00000000000E+00 0. -1.
         11    1    3    3    0    0 -0.15750089256E+02 -0.21347395278E+01 -0.30279512460E+01  0.16179954061E+02  0.51100000000E-03 0. -1.
        -11    1    3    3    0    0 -0.25327318508E+02  0.43862272880E+01  0.25327358380E+01  0.25828797954E+02  0.51100000000E-03 0.  1.
        -12    1    3    3    0    0 -0.17045715194E+01  0.45726409314E+01  0.30946178026E+01  0.57785178460E+01  0.00000000000E+00 0.  1.
</event>
<event>
 7    1  0.2769403E-010  0.4778728E+02  0.7816164E-02  0.1312668E+00
        -11   -1    0    0    0    0  0.00000000000E+00  0.00000000000E+00  0.45593999997E+02  0.45594000000E+02  0.51100000000E-03 0. -1.
         11   -1    0    0    0    0 -0.00000000000E+00 -0.00000000000E+00 -0.45593999997E+02  0.45594000000E+02  0.51100000000E-03 0.  1.
    9900012    2    1    2    0    0 -0.21658558645E+02  0.36141474539E+02 -0.10407861287E+02  0.47787275110E+02  0.20000018537E+02 0.  0.
         12    1    1    2    0    0  0.21658558645E+02 -0.36141474539E+02  0.10407861287E+02  0.43400724890E+02  0.00000000000E+00 0. -1.
         11    1    3    3    0    0  0.16305114493E+01  0.77550919331E+01 -0.33647848651E+01  0.86094016010E+01  0.51100000000E-03 0. -1.
        -11    1    3    3    0    0 -0.45173140286E+01  0.98599315526E+00 -0.34526128726E+01  0.57705150935E+01  0.51100000000E-03 0.  1.
         12    1    3    3    0    0 -0.18771756065E+02  0.27400389450E+02 -0.35904635492E+01  0.33407358416E+02  0.00000000000E+00 0. -1.
</event>
<event>
 7    1  0.2769403E-010  0.4778727E+02  0.7816164E-02  0.1312668E+00
        -11   -1    0    0    0    0  0.00000000000E+00  0.00000000000E+00  0.45593999997E+02  0.45594000000E+02  0.51100000000E-03 0.  1.
         11   -1    0    0    0    0 -0.00000000000E+00 -0.00000000000E+00 -0.45593999997E+02  0.45594000000E+02  0.51100000000E-03 0. -1.
    9900012    2    1    2    0    0  0.26209130114E+01  0.21732540980E+02  0.37476003466E+02  0.47787270072E+02  0.19999995567E+02 0.  0.
         12    1    1    2    0    0 -0.26209130114E+01 -0.21732540980E+02 -0.37476003466E+02  0.43400729928E+02  0.00000000000E+00 0. -1.
         11    1    3    3    0    0  0.16040636029E+01  0.29717611623E+01  0.19869339476E+02  0.20154280834E+02  0.51100000000E-03 0. -1.
        -11    1    3    3    0    0 -0.28250449753E+00  0.40788517550E+01  0.10503824799E+02  0.11271520577E+02  0.51100000000E-03 0.  1.
        -12    1    3    3    0    0  0.12993539061E+01  0.14681928062E+02  0.71028391909E+01  0.16361468662E+02  0.00000000000E+00 0.  1.
</event>
<event>
 7    1  0.2769403E-010  0.4778727E+02  0.7816164E-02  0.1312668E+00
        -11   -1    0    0    0    0  0.00000000000E+00  0.00000000000E+00  0.45593999997E+02  0.45594000000E+02  0.51100000000E-03 0.  1.
         11   -1    0    0    0    0 -0.00000000000E+00 -0.00000000000E+00 -0.45593999997E+02  0.45594000000E+02  0.51100000000E-03 0. -1.
    9900012    2    1    2    0    0 -0.41466843721E+02  0.10049788742E+02 -0.79451952992E+01  0.47787268321E+02  0.19999987581E+02 0.  0.
         12    1    1    2    0    0  0.41466843721E+02 -0.10049788742E+02  0.79451952992E+01  0.43400731679E+02  0.00000000000E+00 0. -1.
         11    1    3    3    0    0  0.14125640627E+01  0.17103031689E+00  0.78385436236E+00  0.16245050086E+01  0.51100000000E-03 0. -1.
        -11    1    3    3    0    0 -0.13852958144E+02  0.75473906393E+01 -0.61388102845E+01  0.16927863030E+02  0.51100000000E-03 0.  1.
        -12    1    3    3    0    0 -0.29026449640E+02  0.23313677859E+01 -0.25902393771E+01  0.29234900282E+02  0.00000000000E+00 0.  1.
</event>
<event>
 7    1  0.2769403E-010  0.4778727E+02  0.7816164E-02  0.1312668E+00
        -11   -1    0    0    0    0  0.00000000000E+00  0.00000000000E+00  0.45593999997E+02  0.45594000000E+02  0.51100000000E-03 0. -1.
         11   -1    0    0    0    0 -0.00000000000E+00 -0.00000000000E+00 -0.45593999997E+02  0.45594000000E+02  0.51100000000E-03 0.  1.
    9900012    2    1    2    0    0  0.29672061624E+02 -0.31284309871E+02 -0.49481388639E+01  0.47787270014E+02  0.19999995300E+02 0.  0.
         12    1    1    2    0    0 -0.29672061624E+02  0.31284309871E+02  0.49481388639E+01  0.43400729986E+02  0.00000000000E+00 0. -1.
         11    1    3    3    0    0  0.42889172159E+01 -0.56144557271E+01 -0.51327396889E+01  0.87328083096E+01  0.51100000000E-03 0. -1.
        -11    1    3    3    0    0  0.82695166108E+01 -0.18606055572E+02  0.19614156858E+01  0.20455252643E+02  0.51100000000E-03 0.  1.
         12    1    3    3    0    0  0.17113627797E+02 -0.70637985720E+01 -0.17768148607E+01  0.18599209061E+02  0.00000000000E+00 0. -1.
</event>
<event>
 7    1  0.2769403E-010  0.4778727E+02  0.7816164E-02  0.1312668E+00
        -11   -1    0    0    0    0  0.00000000000E+00  0.00000000000E+00  0.45593999997E+02  0.45594000000E+02  0.51100000000E-03 0.  1.
         11   -1    0    0    0    0 -0.00000000000E+00 -0.00000000000E+00 -0.45593999997E+02  0.45594000000E+02  0.51100000000E-03 0. -1.
    9900012    2    1    2    0    0  0.14089647683E+02  0.40177253711E+02  0.84198400696E+01  0.47787267352E+02  0.19999983163E+02 0.  0.
         12    1    1    2    0    0 -0.14089647683E+02 -0.40177253711E+02 -0.84198400696E+01  0.43400732648E+02  0.00000000000E+00 0. -1.
         11    1    3    3    0    0  0.23106919463E+01  0.14010040653E+02  0.54823430651E+01  0.15220927111E+02  0.51100000000E-03 0. -1.
        -11    1    3    3    0    0  0.27588761898E+01  0.20893344722E+02 -0.16826009480E+01  0.21141769030E+02  0.51100000000E-03 0.  1.
        -12    1    3    3    0    0  0.90200795471E+01  0.52738683361E+01  0.46200979525E+01  0.11424571211E+02  0.00000000000E+00 0.  1.
</event>
<event>
 7    1  0.2769403E-010  0.4778728E+02  0.7816164E-02  0.1312668E+00
        -11   -1    0    0    0    0  0.00000000000E+00  0.00000000000E+00  0.45593999997E+02  0.45594000000E+02  0.51100000000E-03 0.  1.
         11   -1    0    0    0    0 -0.00000000000E+00 -0.00000000000E+00 -0.45593999997E+02  0.45594000000E+02  0.51100000000E-03 0. -1.
    9900012    2    1    2    0    0 -0.10979991261E+02  0.23110637442E+02  0.35056534346E+02  0.47787281441E+02  0.20000047402E+02 0.  0.
         12    1    1    2    0    0  0.10979991261E+02 -0.23110637442E+02 -0.35056534346E+02  0.43400718559E+02  0.00000000000E+00 0. -1.
         11    1    3    3    0    0 -0.42729484594E+00  0.19473109908E+02  0.19017572668E+02  0.27222282432E+02  0.51100000000E-03 0.  1.
        -11    1    3    3    0    0 -0.27148229452E+01  0.32193862067E+01  0.24499499329E+01  0.48720597396E+01  0.51100000000E-03 0. -1.
        -12    1    3    3    0    0 -0.78378734695E+01  0.41814132753E+00  0.13589011746E+02  0.15692939270E+02  0.00000000000E+00 0.  1.
</event>
<event>
 7    1  0.2769403E-010  0.4778727E+02  0.7816164E-02  0.1312668E+00
        -11   -1    0    0    0    0  0.00000000000E+00  0.00000000000E+00  0.45593999997E+02  0.45594000000E+02  0.51100000000E-03 0.  1.
         11   -1    0    0    0    0 -0.00000000000E+00 -0.00000000000E+00 -0.45593999997E+02  0.45594000000E+02  0.51100000000E-03 0. -1.
    9900012    2    1    2    0    0 -0.29782123596E+02 -0.50978950839E+00  0.31565622310E+02  0.47787270939E+02  0.19999999521E+02 0.  0.
         12    1    1    2    0    0  0.29782123596E+02  0.50978950839E+00 -0.31565622310E+02  0.43400729061E+02  0.00000000000E+00 0. -1.
         11    1    3    3    0    0 -0.75045689700E+00 -0.21425235734E+01  0.96128827624E+00  0.24652927267E+01  0.51100000000E-03 0. -1.
        -11    1    3    3    0    0 -0.24356493222E+02 -0.52135137852E+01  0.20554821137E+02  0.32294274420E+02  0.51100000000E-03 0.  1.
         12    1    3    3    0    0 -0.46751734769E+01  0.68462478502E+01  0.10049512896E+02  0.13027703793E+02  0.00000000000E+00 0. -1.
</event>
<event>
 7    1  0.2769403E-010  0.4778727E+02  0.7816164E-02  0.1312668E+00
        -11   -1    0    0    0    0  0.00000000000E+00  0.00000000000E+00  0.45593999997E+02  0.45594000000E+02  0.51100000000E-03 0. -1.
         11   -1    0    0    0    0 -0.00000000000E+00 -0.00000000000E+00 -0.45593999997E+02  0.45594000000E+02  0.51100000000E-03 0.  1.
    9900012    2    1    2    0    0 -0.84899792810E+01 -0.42377354296E+02  0.39627373904E+01  0.47787271977E+02  0.20000004251E+02 0.  0.
         12    1    1    2    0    0  0.84899792810E+01  0.42377354296E+02 -0.39627373904E+01  0.43400728023E+02  0.00000000000E+00 0. -1.
         11    1    3    3    0    0 -0.32523993502E+00 -0.24808281242E+01  0.24240565891E+01  0.34837249899E+01  0.51100000000E-03 0. -1.
        -11    1    3    3    0    0 -0.85091360280E+01 -0.89418152755E+01 -0.37453471906E+01  0.12899189207E+02  0.51100000000E-03 0.  1.
        -12    1    3    3    0    0  0.34439668200E+00 -0.30954710896E+02  0.52840279919E+01  0.31404357780E+02  0.00000000000E+00 0.  1.
</event>
<event>
 7    1  0.2769403E-010  0.4778725E+02  0.7816164E-02  0.1312668E+00
        -11   -1    0    0    0    0  0.00000000000E+00  0.00000000000E+00  0.45593999997E+02  0.45594000000E+02  0.51100000000E-03 0.  1.
         11   -1    0    0    0    0 -0.00000000000E+00 -0.00000000000E+00 -0.45593999997E+02  0.45594000000E+02  0.51100000000E-03 0. -1.
    9900012    2    1    2    0    0 -0.41623440679E+02 -0.12199930765E+02 -0.15087746991E+01  0.47787245102E+02  0.19999881718E+02 0.  0.
         12    1    1    2    0    0  0.41623440679E+02  0.12199930765E+02  0.15087746991E+01  0.43400754898E+02  0.00000000000E+00 0. -1.
         11    1    3    3    0    0  0.27678466391E+00 -0.20490413077E+01 -0.36131269481E+01  0.41629156411E+01  0.51100000000E-03 0. -1.
        -11    1    3    3    0    0 -0.40621046006E+01 -0.20500085480E+01  0.18930634424E+01  0.49281759599E+01  0.51100000000E-03 0.  1.
        -12    1    3    3    0    0 -0.37838120742E+02 -0.81008809090E+01  0.21128880659E+00  0.38696153501E+02  0.00000000000E+00 0.  1.
</event>
<event>
 7    1  0.2889891E-010  0.4778727E+02  0.7816164E-02  0.1312668E+00
        -11   -1    0    0    0    0  0.00000000000E+00  0.00000000000E+00  0.45593999997E+02  0.45594000000E+02  0.51100000000E-03 0. -1.
         11   -1    0    0    0    0 -0.00000000000E+00 -0.00000000000E+00 -0.45593999997E+02  0.45594000000E+02  0.51100000000E-03 0.  1.
    9900012    2    1    2    0    0 -0.26552163900E+02 -0.29997077540E+02  0.16696745185E+02  0.47787269954E+02  0.19999995028E+02 0.  0.
         12    1    1    2    0    0  0.26552163900E+02  0.29997077540E+02 -0.16696745185E+02  0.43400730046E+02  0.00000000000E+00 0. -1.
         11    1    3    3    0    0 -0.96959543460E+01 -0.14638866539E+02  0.82504790269E+01  0.19400472898E+02  0.51100000000E-03 0. -1.
        -11    1    3    3    0    0 -0.14318577029E+02 -0.13210874785E+02  0.12497720991E+02  0.23146098827E+02  0.51100000000E-03 0.  1.
         12    1    3    3    0    0 -0.25376325258E+01 -0.21473362166E+01 -0.40514548326E+01  0.52406982286E+01  0.00000000000E+00 0. -1.
</event>
<event>
 7    1  0.2769403E-010  0.4778727E+02  0.7816164E-02  0.1312668E+00
        -11   -1    0    0    0    0  0.00000000000E+00  0.00000000000E+00  0.45593999997E+02  0.45594000000E+02  0.51100000000E-03 0. -1.
         11   -1    0    0    0    0 -0.00000000000E+00 -0.00000000000E+00 -0.45593999997E+02  0.45594000000E+02  0.51100000000E-03 0.  1.
    9900012    2    1    2    0    0 -0.29562633417E+02  0.22073472035E+02 -0.22856852507E+02  0.47787272255E+02  0.20000005520E+02 0.  0.
         12    1    1    2    0    0  0.29562633417E+02 -0.22073472035E+02  0.22856852507E+02  0.43400727745E+02  0.00000000000E+00 0. -1.
         11    1    3    3    0    0 -0.33215894741E+01  0.64385746789E+00  0.16758830293E+01  0.37757242037E+01  0.51100000000E-03 0. -1.
        -11    1    3    3    0    0 -0.18327580623E+02  0.63104722909E+01 -0.14595024574E+02  0.24263903532E+02  0.51100000000E-03 0.  1.
        -12    1    3    3    0    0 -0.79134633202E+01  0.15119142277E+02 -0.99377109629E+01  0.19747644520E+02  0.00000000000E+00 0.  1.
</event>
<event>
 7    1  0.2769403E-010  0.4778727E+02  0.7816164E-02  0.1312668E+00
        -11   -1    0    0    0    0  0.00000000000E+00  0.00000000000E+00  0.45593999997E+02  0.45594000000E+02  0.51100000000E-03 0.  1.
         11   -1    0    0    0    0 -0.00000000000E+00 -0.00000000000E+00 -0.45593999997E+02  0.45594000000E+02  0.51100000000E-03 0. -1.
    9900012    2    1    2    0    0 -0.56960890016E+01 -0.21412078886E+02  0.37318902033E+02  0.47787274187E+02  0.20000014328E+02 0.  0.
         12    1    1    2    0    0  0.56960890016E+01  0.21412078886E+02 -0.37318902033E+02  0.43400725813E+02  0.00000000000E+00 0. -1.
         11    1    3    3    0    0 -0.32004371132E+01 -0.17371050465E+01  0.44461739732E+01  0.57470683760E+01  0.51100000000E-03 0. -1.
        -11    1    3    3    0    0 -0.98890067462E+01 -0.10520752220E+02  0.18227735288E+02  0.23253580707E+02  0.51100000000E-03 0.  1.
         12    1    3    3    0    0  0.73933548577E+01 -0.91542216191E+01  0.14644992771E+02  0.18786625104E+02  0.00000000000E+00 0. -1.
</event>
<event>
 7    1  0.2769403E-010  0.4778727E+02  0.7816164E-02  0.1312668E+00
        -11   -1    0    0    0    0  0.00000000000E+00  0.00000000000E+00  0.45593999997E+02  0.45594000000E+02  0.51100000000E-03 0.  1.
         11   -1    0    0    0    0 -0.00000000000E+00 -0.00000000000E+00 -0.45593999997E+02  0.45594000000E+02  0.51100000000E-03 0. -1.
    9900012    2    1    2    0    0  0.24980280505E+02  0.97411792198E+01  0.34127968972E+02  0.47787271286E+02  0.20000001103E+02 0.  0.
         12    1    1    2    0    0 -0.24980280505E+02 -0.97411792198E+01 -0.34127968972E+02  0.43400728714E+02  0.00000000000E+00 0. -1.
         11    1    3    3    0    0  0.29306598629E+01 -0.24496829130E+01  0.87120072566E+00  0.39177422799E+01  0.51100000000E-03 0. -1.
        -11    1    3    3    0    0  0.96236485291E+00  0.60799388878E+01  0.42042622987E+01  0.74543695057E+01  0.51100000000E-03 0.  1.
        -12    1    3    3    0    0  0.21087255790E+02  0.61109232450E+01  0.29052505948E+02  0.36415159501E+02  0.00000000000E+00 0.  1.
</event>
<event>
 7    1  0.2769403E-010  0.4778727E+02  0.7816164E-02  0.1312668E+00
        -11   -1    0    0    0    0  0.00000000000E+00  0.00000000000E+00  0.45593999997E+02  0.45594000000E+02  0.51100000000E-03 0.  1.
         11   -1    0    0    0    0 -0.00000000000E+00 -0.00000000000E+00 -0.45593999997E+02  0.45594000000E+02  0.51100000000E-03 0. -1.
    9900012    2    1    2    0    0 -0.36632432157E+02 -0.14173990795E+02 -0.18460397317E+02  0.47787269938E+02  0.19999994957E+02 0.  0.
         12    1    1    2    0    0  0.36632432157E+02  0.14173990795E+02  0.18460397317E+02  0.43400730062E+02  0.00000000000E+00 0. -1.
         11    1    3    3    0    0 -0.17991227751E+02 -0.15655490638E+01 -0.14737154322E+02  0.23309202853E+02  0.51100000000E-03 0. -1.
        -11    1    3    3    0    0 -0.65747035846E+00  0.10159602566E+01  0.82196766900E+00  0.14628990482E+01  0.51100000000E-03 0.  1.
        -12    1    3    3    0    0 -0.17983734047E+02 -0.13624401988E+02 -0.45452106638E+01  0.23015168037E+02  0.00000000000E+00 0.  1.
</event>
<event>
 7    1  0.2769403E-010  0.4778730E+02  0.7816164E-02  0.1312668E+00
        -11   -1    0    0    0    0  0.00000000000E+00  0.00000000000E+00  0.45593999997E+02  0.45594000000E+02  0.51100000000E-03 0. -1.
         11   -1    0    0    0    0 -0.00000000000E+00 -0.00000000000E+00 -0.45593999997E+02  0.45594000000E+02  0.51100000000E-03 0.  1.
    9900012    2    1    2    0    0 -0.22455280294E+02  0.14345863974E+02 -0.34257510922E+02  0.47787303222E+02  0.20000146712E+02 0.  0.
         12    1    1    2    0    0  0.22455280294E+02 -0.14345863974E+02  0.34257510922E+02  0.43400696778E+02  0.00000000000E+00 0. -1.
         11    1    3    3    0    0 -0.97322401468E+01  0.29946334602E+01 -0.24212374989E+02  0.26266393561E+02  0.51100000000E-03 0. -1.
        -11    1    3    3    0    0 -0.20991865331E+01 -0.12145516409E+01 -0.43111467369E+00  0.24632458083E+01  0.51100000000E-03 0.  1.
        -12    1    3    3    0    0 -0.10623853614E+02  0.12565782155E+02 -0.96140212592E+01  0.19057663853E+02  0.00000000000E+00 0.  1.
</event>
<event>
 7    1  0.2769403E-010  0.4778726E+02  0.7816164E-02  0.1312668E+00
        -11   -1    0    0    0    0  0.00000000000E+00  0.00000000000E+00  0.45593999997E+02  0.45594000000E+02  0.51100000000E-03 0.  1.
         11   -1    0    0    0    0 -0.00000000000E+00 -0.00000000000E+00 -0.45593999997E+02  0.45594000000E+02  0.51100000000E-03 0. -1.
    9900012    2    1    2    0    0  0.56184864797E+01  0.30790733585E+02  0.30066380917E+02  0.47787263526E+02  0.19999965722E+02 0.  0.
         12    1    1    2    0    0 -0.56184864797E+01 -0.30790733585E+02 -0.30066380917E+02  0.43400736474E+02  0.00000000000E+00 0. -1.
         11    1    3    3    0    0  0.77240566335E+01  0.21649186990E+01  0.80306118442E+01  0.11350711462E+02  0.51100000000E-03 0. -1.
        -11    1    3    3    0    0 -0.54825983824E+00  0.53605857848E+01  0.63794326947E+01  0.83506664748E+01  0.51100000000E-03 0.  1.
         12    1    3    3    0    0 -0.15573103156E+01  0.23265229101E+02  0.15656336378E+02  0.28085885589E+02  0.00000000000E+00 0. -1.
</event>
<event>
 7    1  0.2769403E-010  0.4778727E+02  0.7816164E-02  0.1312668E+00
        -11   -1    0    0    0    0  0.00000000000E+00  0.00000000000E+00  0.45593999997E+02  0.45594000000E+02  0.51100000000E-03 0.  1.
         11   -1    0    0    0    0 -0.00000000000E+00 -0.00000000000E+00 -0.45593999997E+02  0.45594000000E+02  0.51100000000E-03 0. -1.
    9900012    2    1    2    0    0  0.21935922338E+01 -0.43161875702E+02 -0.39829967671E+01  0.47787267008E+02  0.19999981597E+02 0.  0.
         12    1    1    2    0    0 -0.21935922338E+01  0.43161875702E+02  0.39829967671E+01  0.43400732992E+02  0.00000000000E+00 0. -1.
         11    1    3    3    0    0  0.11626190731E+01  0.75710441389E+00  0.16342643349E+01  0.21437608029E+01  0.51100000000E-03 0. -1.
        -11    1    3    3    0    0  0.48806677974E+01 -0.10229314608E+02 -0.23729491677E+01  0.11579753172E+02  0.51100000000E-03 0.  1.
        -12    1    3    3    0    0 -0.38496946367E+01 -0.33689665508E+02 -0.32443119344E+01  0.34063753034E+02  0.00000000000E+00 0.  1.
</event>
<event>
 7    1  0.2769403E-010  0.4778727E+02  0.7816164E-02  0.1312668E+00
        -11   -1    0    0    0    0  0.00000000000E+00  0.00000000000E+00  0.45593999997E+02  0.45594000000E+02  0.51100000000E-03 0. -1.
         11   -1    0    0    0    0 -0.00000000000E+00 -0.00000000000E+00 -0.45593999997E+02  0.45594000000E+02  0.51100000000E-03 0.  1.
    9900012    2    1    2    0    0 -0.14319336011E+02 -0.40786605352E+02 -0.38771901777E+01  0.47787272315E+02  0.20000005793E+02 0.  0.
         12    1    1    2    0    0  0.14319336011E+02  0.40786605352E+02  0.38771901777E+01  0.43400727685E+02  0.00000000000E+00 0. -1.
         11    1    3    3    0    0 -0.21727754151E+01 -0.28885501136E+01  0.32730192566E+01  0.48762003731E+01  0.51100000000E-03 0. -1.
        -11    1    3    3    0    0 -0.48036014797E+01 -0.16530913549E+02  0.40632987671E+01  0.17687738326E+02  0.51100000000E-03 0.  1.
        -12    1    3    3    0    0 -0.73429591163E+01 -0.21367141689E+02 -0.11213508201E+02  0.25223333616E+02  0.00000000000E+00 0.  1.
</event>
<event>
 7    1  0.2769403E-010  0.4778727E+02  0.7816164E-02  0.1312668E+00
        -11   -1    0    0    0    0  0.00000000000E+00  0.00000000000E+00  0.45593999997E+02  0.45594000000E+02  0.51100000000E-03 0. -1.
         11   -1    0    0    0    0 -0.00000000000E+00 -0.00000000000E+00 -0.45593999997E+02  0.45594000000E+02  0.51100000000E-03 0.  1.
    9900012    2    1    2    0    0  0.19928528830E+01 -0.33187044399E+02  0.27897526205E+02  0.47787270203E+02  0.19999996164E+02 0.  0.
         12    1    1    2    0    0 -0.19928528830E+01  0.33187044399E+02 -0.27897526205E+02  0.43400729797E+02  0.00000000000E+00 0. -1.
         11    1    3    3    0    0 -0.16925568411E+01 -0.47205077157E+01  0.91654862897E+01  0.10447683042E+02  0.51100000000E-03 0. -1.
        -11    1    3    3    0    0  0.16887110220E+01 -0.26730145314E+02  0.10628957632E+02  0.28815397863E+02  0.51100000000E-03 0.  1.
        -12    1    3    3    0    0  0.19966987021E+01 -0.17363913693E+01  0.81030822834E+01  0.85241892979E+01  0.00000000000E+00 0.  1.
</event>
<event>
 7    1  0.2769403E-010  0.4778727E+02  0.7816164E-02  0.1312668E+00
        -11   -1    0    0    0    0  0.00000000000E+00  0.00000000000E+00  0.45593999997E+02  0.45594000000E+02  0.51100000000E-03 0.  1.
         11   -1    0    0    0    0 -0.00000000000E+00 -0.00000000000E+00 -0.45593999997E+02  0.45594000000E+02  0.51100000000E-03 0. -1.
    9900012    2    1    2    0    0 -0.37172574398E+02  0.15628187022E+02  0.16049387396E+02  0.47787270136E+02  0.19999995858E+02 0.  0.
         12    1    1    2    0    0  0.37172574398E+02 -0.15628187022E+02 -0.16049387396E+02  0.43400729864E+02  0.00000000000E+00 0. -1.
         11    1    3    3    0    0 -0.33403028012E+02  0.11562030698E+02  0.14333753319E+02  0.38143142486E+02  0.51100000000E-03 0.  1.
        -11    1    3    3    0    0 -0.28408130872E+01 -0.68003642382E+00 -0.20044435093E+01  0.35426632040E+01  0.51100000000E-03 0. -1.
        -12    1    3    3    0    0 -0.92873329831E+00  0.47461927476E+01  0.37200775860E+01  0.61014644457E+01  0.00000000000E+00 0.  1.
</event>
<event>
 7    1  0.2769403E-010  0.4778727E+02  0.7816164E-02  0.1312668E+00
        -11   -1    0    0    0    0  0.00000000000E+00  0.00000000000E+00  0.45593999997E+02  0.45594000000E+02  0.51100000000E-03 0.  1.
         11   -1    0    0    0    0 -0.00000000000E+00 -0.00000000000E+00 -0.45593999997E+02  0.45594000000E+02  0.51100000000E-03 0. -1.
    9900012    2    1    2    0    0 -0.27610741433E+02  0.18066960660E+02  0.28193178383E+02  0.47787269392E+02  0.19999992466E+02 0.  0.
         12    1    1    2    0    0  0.27610741433E+02 -0.18066960660E+02 -0.28193178383E+02  0.43400730608E+02  0.00000000000E+00 0. -1.
         11    1    3    3    0    0 -0.62764195821E+01 -0.83562758353E+00  0.62639746067E+01  0.89066881815E+01  0.51100000000E-03 0. -1.
        -11    1    3    3    0    0 -0.10782539370E+02  0.20563034463E+01  0.13206948659E+02  0.17173090353E+02  0.51100000000E-03 0.  1.
         12    1    3    3    0    0 -0.10551782481E+02  0.16846284797E+02  0.87222551171E+01  0.21707490857E+02  0.00000000000E+00 0. -1.
</event>
<event>
 7    1  0.2769403E-010  0.4778727E+02  0.7816164E-02  0.1312668E+00
        -11   -1    0    0    0    0  0.00000000000E+00  0.00000000000E+00  0.45593999997E+02  0.45594000000E+02  0.51100000000E-03 0. -1.
         11   -1    0    0    0    0 -0.00000000000E+00 -0.00000000000E+00 -0.45593999997E+02  0.45594000000E+02  0.51100000000E-03 0.  1.
    9900012    2    1    2    0    0  0.26796969390E+01 -0.15316187878E+01 -0.43290841440E+02  0.47787267467E+02  0.19999983689E+02 0.  0.
         12    1    1    2    0    0 -0.26796969390E+01  0.15316187878E+01  0.43290841440E+02  0.43400732533E+02  0.00000000000E+00 0. -1.
         11    1    3    3    0    0 -0.69933461943E+01 -0.27206443560E+01 -0.91986099810E+01  0.11871108733E+02  0.51100000000E-03 0. -1.
        -11    1    3    3    0    0  0.40334195461E+00  0.96007247021E+00 -0.10739670047E+02  0.10790038780E+02  0.51100000000E-03 0.  1.
         12    1    3    3    0    0  0.92697011787E+01  0.22895309791E+00 -0.23352561412E+02  0.25126119954E+02  0.00000000000E+00 0. -1.
</event>
<event>
 7    1  0.2769403E-010  0.4778727E+02  0.7816164E-02  0.1312668E+00
        -11   -1    0    0    0    0  0.00000000000E+00  0.00000000000E+00  0.45593999997E+02  0.45594000000E+02  0.51100000000E-03 0. -1.
         11   -1    0    0    0    0 -0.00000000000E+00 -0.00000000000E+00 -0.45593999997E+02  0.45594000000E+02  0.51100000000E-03 0.  1.
    9900012    2    1    2    0    0 -0.38951184653E+01 -0.35824192776E+02 -0.24188393290E+02  0.47787272980E+02  0.20000008824E+02 0.  0.
         12    1    1    2    0    0  0.38951184653E+01  0.35824192776E+02  0.24188393290E+02  0.43400727020E+02  0.00000000000E+00 0. -1.
         11    1    3    3    0    0  0.79019851771E+00  0.50441300372E+00 -0.94238219229E+00  0.13292594303E+01  0.51100000000E-03 0. -1.
        -11    1    3    3    0    0 -0.54282702000E+01 -0.25688106690E+02 -0.72607989086E+01  0.27240854313E+02  0.51100000000E-03 0.  1.
        -12    1    3    3    0    0  0.74295321696E+00 -0.10640499090E+02 -0.15985212190E+02  0.19217159236E+02  0.00000000000E+00 0.  1.
</event>
<event>
 7    1  0.2769403E-010  0.4778726E+02  0.7816164E-02  0.1312668E+00
        -11   -1    0    0    0    0  0.00000000000E+00  0.00000000000E+00  0.45593999997E+02  0.45594000000E+02  0.51100000000E-03 0. -1.
         11   -1    0    0    0    0 -0.00000000000E+00 -0.00000000000E+00 -0.45593999997E+02  0.45594000000E+02  0.51100000000E-03 0.  1.
    9900012    2    1    2    0    0  0.28299648562E+02  0.30533845871E+02 -0.12265320824E+02  0.47787263285E+02  0.19999964623E+02 0.  0.
         12    1    1    2    0    0 -0.28299648562E+02 -0.30533845871E+02  0.12265320824E+02  0.43400736715E+02  0.00000000000E+00 0. -1.
         11    1    3    3    0    0  0.91606154898E+01  0.16189075987E+02 -0.64567045070E+01  0.19689898192E+02  0.51100000000E-03 0. -1.
        -11    1    3    3    0    0  0.14646179949E+02  0.15839362497E+02 -0.78285838005E+01  0.22949568972E+02  0.51100000000E-03 0.  1.
         12    1    3    3    0    0  0.44928531232E+01 -0.14945926134E+01  0.20199674832E+01  0.51477961206E+01  0.00000000000E+00 0. -1.
</event>
<event>
 7    1  0.2769403E-010  0.4778728E+02  0.7816164E-02  0.1312668E+00
        -11   -1    0    0    0    0  0.00000000000E+00  0.00000000000E+00  0.45593999997E+02  0.45594000000E+02  0.51100000000E-03 0.  1.
         11   -1    0    0    0    0 -0.00000000000E+00 -0.00000000000E+00 -0.45593999997E+02  0.45594000000E+02  0.51100000000E-03 0. -1.
    9900012    2    1    2    0    0 -0.32662018365E+02  0.63864787613E+01  0.27857281289E+02  0.47787277938E+02  0.20000031432E+02 0.  0.
         12    1    1    2    0    0  0.32662018365E+02 -0.63864787613E+01 -0.27857281289E+02  0.43400722062E+02  0.00000000000E+00 0. -1.
         11    1    3    3    0    0 -0.86307521840E+01 -0.47310421589E+01  0.58855914961E+01  0.11467904372E+02  0.51100000000E-03 0. -1.
        -11    1    3    3    0    0 -0.53468720654E+01 -0.14756709840E+01  0.82392022174E+01  0.99323259702E+01  0.51100000000E-03 0.  1.
        -12    1    3    3    0    0 -0.18684394116E+02  0.12593191904E+02  0.13732487575E+02  0.26387047596E+02  0.00000000000E+00 0.  1.
</event>
<event>
 7    1  0.2769403E-010  0.4778728E+02  0.7816164E-02  0.1312668E+00
        -11   -1    0    0    0    0  0.00000000000E+00  0.00000000000E+00  0.45593999997E+02  0.45594000000E+02  0.51100000000E-03 0. -1.
         11   -1    0    0    0    0 -0.00000000000E+00 -0.00000000000E+00 -0.45593999997E+02  0.45594000000E+02  0.51100000000E-03 0.  1.
    9900012    2    1    2    0    0 -0.31029597041E+02 -0.29023829768E+02 -0.88545932520E+01  0.47787281013E+02  0.20000045451E+02 0.  0.
         12    1    1    2    0    0  0.31029597041E+02  0.29023829768E+02  0.88545932520E+01  0.43400718987E+02  0.00000000000E+00 0. -1.
         11    1    3    3    0    0 -0.61510506395E+01 -0.57746096661E+01 -0.35922801383E+00  0.84445595381E+01  0.51100000000E-03 0.  1.
        -11    1    3    3    0    0 -0.34474730105E+01 -0.93799261973E+01  0.41911080309E+01  0.10836672571E+02  0.51100000000E-03 0. -1.
         12    1    3    3    0    0 -0.21431073391E+02 -0.13869293905E+02 -0.12686473269E+02  0.28506048904E+02  0.00000000000E+00 0. -1.
</event>
<event>
 7    1  0.2769403E-010  0.4778726E+02  0.7816164E-02  0.1312668E+00
        -11   -1    0    0    0    0  0.00000000000E+00  0.00000000000E+00  0.45593999997E+02  0.45594000000E+02  0.51100000000E-03 0.  1.
         11   -1    0    0    0    0 -0.00000000000E+00 -0.00000000000E+00 -0.45593999997E+02  0.45594000000E+02  0.51100000000E-03 0. -1.
    9900012    2    1    2    0    0  0.37587040674E+02  0.17764365184E+02 -0.12460566541E+02  0.47787262500E+02  0.19999961044E+02 0.  0.
         12    1    1    2    0    0 -0.37587040674E+02 -0.17764365184E+02  0.12460566541E+02  0.43400737500E+02  0.00000000000E+00 0. -1.
         11    1    3    3    0    0  0.14804582975E+02  0.38770217215E+01 -0.12710383231E+02  0.19893738126E+02  0.51100000000E-03 0. -1.
        -11    1    3    3    0    0  0.13369988020E+02  0.80514030168E+01 -0.38656487439E+01  0.16078709857E+02  0.51100000000E-03 0.  1.
         12    1    3    3    0    0  0.94124696788E+01  0.58359404457E+01  0.41154654340E+01  0.11814814517E+02  0.00000000000E+00 0. -1.
</event>
<event>
 7    1  0.2769403E-010  0.4778727E+02  0.7816164E-02  0.1312668E+00
        -11   -1    0    0    0    0  0.00000000000E+00  0.00000000000E+00  0.45593999997E+02  0.45594000000E+02  0.51100000000E-03 0.  1.
         11   -1    0    0    0    0 -0.00000000000E+00 -0.00000000000E+00 -0.45593999997E+02  0.45594000000E+02  0.51100000000E-03 0. -1.
    9900012    2    1    2    0    0 -0.27728607876E+02  0.59826264510E+01  0.32847465406E+02  0.47787268467E+02  0.19999988248E+02 0.  0.
         12    1    1    2    0    0  0.27728607876E+02 -0.59826264510E+01 -0.32847465406E+02  0.43400731533E+02  0.00000000000E+00 0. -1.
         11    1    3    3    0    0  0.16755435907E+01 -0.60068864491E+00  0.60546079774E+01  0.63108280910E+01  0.51100000000E-03 0. -1.
        -11    1    3    3    0    0 -0.13434893696E+02 -0.40962328726E+00  0.16307428238E+02  0.21132826973E+02  0.51100000000E-03 0.  1.
        -12    1    3    3    0    0 -0.15969257771E+02  0.69929383832E+01  0.10485429190E+02  0.20343613403E+02  0.00000000000E+00 0.  1.
</event>
<event>
 7    1  0.2769403E-010  0.4778727E+02  0.7816164E-02  0.1312668E+00
        -11   -1    0    0    0    0  0.00000000000E+00  0.00000000000E+00  0.45593999997E+02  0.45594000000E+02  0.51100000000E-03 0.  1.
         11   -1    0    0    0    0 -0.00000000000E+00 -0.00000000000E+00 -0.45593999997E+02  0.45594000000E+02  0.51100000000E-03 0. -1.
    9900012    2    1    2    0    0 -0.95925879887E+01 -0.42109806595E+02 -0.42860121045E+01  0.47787268951E+02  0.19999990456E+02 0.  0.
         12    1    1    2    0    0  0.95925879887E+01  0.42109806595E+02  0.42860121045E+01  0.43400731049E+02  0.00000000000E+00 0. -1.
         11    1    3    3    0    0  0.35159390151E+01 -0.16190866054E+02 -0.65732607546E+00  0.16581255940E+02  0.51100000000E-03 0. -1.
        -11    1    3    3    0    0 -0.55317062148E+01 -0.21305521789E+02 -0.37786496735E+01  0.22333903062E+02  0.51100000000E-03 0.  1.
         12    1    3    3    0    0 -0.75768207890E+01 -0.46134187524E+01  0.14996364449E+00  0.88721099490E+01  0.00000000000E+00 0. -1.
</event>
<event>
 7    1  0.2769403E-010  0.4778727E+02  0.7816164E-02  0.1312668E+00
        -11   -1    0    0    0    0  0.00000000000E+00  0.00000000000E+00  0.45593999997E+02  0.45594000000E+02  0.51100000000E-03 0.  1.
         11   -1    0    0    0    0 -0.00000000000E+00 -0.00000000000E+00 -0.45593999997E+02  0.45594000000E+02  0.51100000000E-03 0. -1.
    9900012    2    1    2    0    0 -0.26823294752E+02  0.30601817979E+02 -0.15088494544E+02  0.47787273364E+02  0.20000010575E+02 0.  0.
         12    1    1    2    0    0  0.26823294752E+02 -0.30601817979E+02  0.15088494544E+02  0.43400726636E+02  0.00000000000E+00 0. -1.
         11    1    3    3    0    0 -0.15400861029E+02  0.14399329396E+02 -0.66418721889E+01  0.22105240870E+02  0.51100000000E-03 0. -1.
        -11    1    3    3    0    0 -0.67162199684E+01  0.15456480863E+02 -0.10523557540E+01  0.16885433493E+02  0.51100000000E-03 0.  1.
         12    1    3    3    0    0 -0.47062137545E+01  0.74600771947E+00 -0.73942666014E+01  0.87965990015E+01  0.00000000000E+00 0. -1.
</event>
<event>
 7    1  0.2769403E-010  0.4778727E+02  0.7816164E-02  0.1312668E+00
        -11   -1    0    0    0    0  0.00000000000E+00  0.00000000000E+00  0.45593999997E+02  0.45594000000E+02  0.51100000000E-03 0. -1.
         11   -1    0    0    0    0 -0.00000000000E+00 -0.00000000000E+00 -0.45593999997E+02  0.45594000000E+02  0.51100000000E-03 0.  1.
    9900012    2    1    2    0    0 -0.22646294631E+02 -0.29746971891E+02 -0.22042820964E+02  0.47787274738E+02  0.20000016842E+02 0.  0.
         12    1    1    2    0    0  0.22646294631E+02  0.29746971891E+02  0.22042820964E+02  0.43400725262E+02  0.00000000000E+00 0. -1.
         11    1    3    3    0    0 -0.50317754737E+01 -0.52373674420E+01 -0.32791501629E+01  0.79687896315E+01  0.51100000000E-03 0. -1.
        -11    1    3    3    0    0 -0.15587556343E+02 -0.26777999458E+02 -0.13627028229E+02  0.33848619859E+02  0.51100000000E-03 0.  1.
         12    1    3    3    0    0 -0.20269628140E+01  0.22683950091E+01 -0.51366425721E+01  0.59698652481E+01  0.00000000000E+00 0. -1.
</event>
<event>
 7    1  0.2769403E-010  0.4778727E+02  0.7816164E-02  0.1312668E+00
        -11   -1    0    0    0    0  0.00000000000E+00  0.00000000000E+00  0.45593999997E+02  0.45594000000E+02  0.51100000000E-03 0.  1.
         11   -1    0    0    0    0 -0.00000000000E+00 -0.00000000000E+00 -0.45593999997E+02  0.45594000000E+02  0.51100000000E-03 0. -1.
    9900012    2    1    2    0    0 -0.87379274766E+01  0.38644880715E+02  0.17715672850E+02  0.47787271359E+02  0.20000001433E+02 0.  0.
         12    1    1    2    0    0  0.87379274766E+01 -0.38644880715E+02 -0.17715672850E+02  0.43400728641E+02  0.00000000000E+00 0. -1.
         11    1    3    3    0    0 -0.40960602035E+01  0.62561610183E+01  0.73528612362E+01  0.10487222154E+02  0.51100000000E-03 0. -1.
        -11    1    3    3    0    0  0.25842398139E+01  0.17570117262E+02  0.10840868040E+02  0.20806531093E+02  0.51100000000E-03 0.  1.
         12    1    3    3    0    0 -0.72261070871E+01  0.14818602435E+02 -0.47805642655E+00  0.16493518112E+02  0.00000000000E+00 0. -1.
</event>
<event>
 7    1  0.2769403E-010  0.4778728E+02  0.7816164E-02  0.1312668E+00
        -11   -1    0    0    0    0  0.00000000000E+00  0.00000000000E+00  0.45593999997E+02  0.45594000000E+02  0.51100000000E-03 0. -1.
         11   -1    0    0    0    0 -0.00000000000E+00 -0.00000000000E+00 -0.45593999997E+02  0.45594000000E+02  0.51100000000E-03 0.  1.
    9900012    2    1    2    0    0  0.11345213644E+02 -0.39950069910E+02  0.12605590288E+02  0.47787275755E+02  0.20000021479E+02 0.  0.
         12    1    1    2    0    0 -0.11345213644E+02  0.39950069910E+02 -0.12605590288E+02  0.43400724245E+02  0.00000000000E+00 0. -1.
         11    1    3    3    0    0  0.64775413086E+01 -0.20672600204E+01  0.90345515721E-01  0.68000197036E+01  0.51100000000E-03 0. -1.
        -11    1    3    3    0    0 -0.16489557993E+01 -0.66012288837E+01  0.40471710314E+00  0.68160893625E+01  0.51100000000E-03 0.  1.
        -12    1    3    3    0    0  0.65166281345E+01 -0.31281581006E+02  0.12110527669E+02  0.34171166689E+02  0.00000000000E+00 0.  1.
</event>
<event>
 7    1  0.2769403E-010  0.4778727E+02  0.7816164E-02  0.1312668E+00
        -11   -1    0    0    0    0  0.00000000000E+00  0.00000000000E+00  0.45593999997E+02  0.45594000000E+02  0.51100000000E-03 0.  1.
         11   -1    0    0    0    0 -0.00000000000E+00 -0.00000000000E+00 -0.45593999997E+02  0.45594000000E+02  0.51100000000E-03 0. -1.
    9900012    2    1    2    0    0 -0.86543712427E+01  0.21967822819E+02  0.36416202542E+02  0.47787272027E+02  0.20000004480E+02 0.  0.
         12    1    1    2    0    0  0.86543712427E+01 -0.21967822819E+02 -0.36416202542E+02  0.43400727973E+02  0.00000000000E+00 0. -1.
         11    1    3    3    0    0 -0.73093416837E+01  0.16335824269E+02  0.20249439458E+02  0.27024533835E+02  0.51100000000E-03 0. -1.
        -11    1    3    3    0    0 -0.47375387310E+01  0.49901488441E+01  0.15869803569E+02  0.17297298179E+02  0.51100000000E-03 0.  1.
         12    1    3    3    0    0  0.33925091720E+01  0.64184970617E+00  0.29695951480E+00  0.34654400126E+01  0.00000000000E+00 0. -1.
</event>
<event>
 7    1  0.2769403E-010  0.4778727E+02  0.7816164E-02  0.1312668E+00
        -11   -1    0    0    0    0  0.00000000000E+00  0.00000000000E+00  0.45593999997E+02  0.45594000000E+02  0.51100000000E-03 0.  1.
         11   -1    0    0    0    0 -0.00000000000E+00 -0.00000000000E+00 -0.45593999997E+02  0.45594000000E+02  0.51100000000E-03 0. -1.
    9900012    2    1    2    0    0  0.21866469044E+02 -0.28218674242E+02  0.24681713962E+02  0.47787273640E+02  0.20000011834E+02 0.  0.
         12    1    1    2    0    0 -0.21866469044E+02  0.28218674242E+02 -0.24681713962E+02  0.43400726360E+02  0.00000000000E+00 0. -1.
         11    1    3    3    0    0  0.24764327041E+01 -0.14270352546E+02  0.44288215934E+01  0.15145631109E+02  0.51100000000E-03 0. -1.
        -11    1    3    3    0    0  0.53658361161E+00 -0.30562510311E+01  0.55824719662E+01  0.63869073778E+01  0.51100000000E-03 0.  1.
        -12    1    3    3    0    0  0.18853452729E+02 -0.10892070665E+02  0.14670420403E+02  0.26254735153E+02  0.00000000000E+00 0.  1.
</event>
<event>
 7    1  0.2769403E-010  0.4778731E+02  0.7816164E-02  0.1312668E+00
        -11   -1    0    0    0    0  0.00000000000E+00  0.00000000000E+00  0.45593999997E+02  0.45594000000E+02  0.51100000000E-03 0.  1.
         11   -1    0    0    0    0 -0.00000000000E+00 -0.00000000000E+00 -0.45593999997E+02  0.45594000000E+02  0.51100000000E-03 0. -1.
    9900012    2    1    2    0    0  0.17032768726E+02  0.83832819033E+00  0.39909925347E+02  0.47787307082E+02  0.20000164307E+02 0.  0.
         12    1    1    2    0    0 -0.17032768726E+02 -0.83832819033E+00 -0.39909925347E+02  0.43400692918E+02  0.00000000000E+00 0. -1.
         11    1    3    3    0    0  0.52735079289E+01  0.26939454603E+01  0.24911086342E+02  0.25605262174E+02  0.51100000000E-03 0. -1.
        -11    1    3    3    0    0  0.13289608397E+01  0.39972337440E+01  0.53855475787E+01  0.68372609649E+01  0.51100000000E-03 0.  1.
        -12    1    3    3    0    0  0.10430299958E+02 -0.58528510140E+01  0.96132914258E+01  0.15344783942E+02  0.00000000000E+00 0.  1.
</event>
<event>
 7    1  0.2769403E-010  0.4778727E+02  0.7816164E-02  0.1312668E+00
        -11   -1    0    0    0    0  0.00000000000E+00  0.00000000000E+00  0.45593999997E+02  0.45594000000E+02  0.51100000000E-03 0.  1.
         11   -1    0    0    0    0 -0.00000000000E+00 -0.00000000000E+00 -0.45593999997E+02  0.45594000000E+02  0.51100000000E-03 0. -1.
    9900012    2    1    2    0    0  0.32386302323E+02  0.10965192521E+02  0.26730418999E+02  0.47787270455E+02  0.19999997313E+02 0.  0.
         12    1    1    2    0    0 -0.32386302323E+02 -0.10965192521E+02 -0.26730418999E+02  0.43400729545E+02  0.00000000000E+00 0. -1.
         11    1    3    3    0    0  0.17771013875E+02  0.35628494795E+00  0.10817181953E+02  0.20807385679E+02  0.51100000000E-03 0. -1.
        -11    1    3    3    0    0  0.77675853362E+01  0.28099473609E+01  0.34258084382E+00  0.82673180671E+01  0.51100000000E-03 0.  1.
        -12    1    3    3    0    0  0.68477031114E+01  0.77989602125E+01  0.15570656201E+02  0.18712566709E+02  0.00000000000E+00 0.  1.
</event>
<event>
 7    1  0.2769403E-010  0.4778730E+02  0.7816164E-02  0.1312668E+00
        -11   -1    0    0    0    0  0.00000000000E+00  0.00000000000E+00  0.45593999997E+02  0.45594000000E+02  0.51100000000E-03 0. -1.
         11   -1    0    0    0    0 -0.00000000000E+00 -0.00000000000E+00 -0.45593999997E+02  0.45594000000E+02  0.51100000000E-03 0.  1.
    9900012    2    1    2    0    0 -0.36250445469E+02  0.44315090129E+01 -0.23449677247E+02  0.47787303787E+02  0.20000149284E+02 0.  0.
         12    1    1    2    0    0  0.36250445469E+02 -0.44315090129E+01  0.23449677247E+02  0.43400696213E+02  0.00000000000E+00 0. -1.
         11    1    3    3    0    0 -0.17490529612E+02  0.38155662354E+01 -0.14044940958E+02  0.22753846677E+02  0.51100000000E-03 0.  1.
        -11    1    3    3    0    0 -0.43200515429E+01  0.46694526519E+01 -0.76251397600E+01  0.99302260811E+01  0.51100000000E-03 0. -1.
         12    1    3    3    0    0 -0.14439864314E+02 -0.40535098745E+01 -0.17795965285E+01  0.15103231029E+02  0.00000000000E+00 0. -1.
</event>
<event>
 7    1  0.2769403E-010  0.4778727E+02  0.7816164E-02  0.1312668E+00
        -11   -1    0    0    0    0  0.00000000000E+00  0.00000000000E+00  0.45593999997E+02  0.45594000000E+02  0.51100000000E-03 0.  1.
         11   -1    0    0    0    0 -0.00000000000E+00 -0.00000000000E+00 -0.45593999997E+02  0.45594000000E+02  0.51100000000E-03 0. -1.
    9900012    2    1    2    0    0 -0.15765819823E+02 -0.30242582294E+02  0.26841170405E+02  0.47787270891E+02  0.19999999301E+02 0.  0.
         12    1    1    2    0    0  0.15765819823E+02  0.30242582294E+02 -0.26841170405E+02  0.43400729109E+02  0.00000000000E+00 0. -1.
         11    1    3    3    0    0 -0.13405613876E+01 -0.11266159540E+02  0.27572673084E+00  0.11348985906E+02  0.51100000000E-03 0. -1.
        -11    1    3    3    0    0 -0.58418088571E+00 -0.28553737611E+01  0.68852166487E+01  0.74766727348E+01  0.51100000000E-03 0.  1.
        -12    1    3    3    0    0 -0.13841077550E+02 -0.16121048993E+02  0.19680227025E+02  0.28961612250E+02  0.00000000000E+00 0.  1.
</event>
<event>
 7    1  0.2769403E-010  0.4778727E+02  0.7816164E-02  0.1312668E+00
        -11   -1    0    0    0    0  0.00000000000E+00  0.00000000000E+00  0.45593999997E+02  0.45594000000E+02  0.51100000000E-03 0.  1.
         11   -1    0    0    0    0 -0.00000000000E+00 -0.00000000000E+00 -0.45593999997E+02  0.45594000000E+02  0.51100000000E-03 0. -1.
    9900012    2    1    2    0    0 -0.62581756398E+01  0.26773188821E+02  0.33580569903E+02  0.47787273312E+02  0.20000010340E+02 0.  0.
         12    1    1    2    0    0  0.62581756398E+01 -0.26773188821E+02 -0.33580569903E+02  0.43400726688E+02  0.00000000000E+00 0. -1.
         11    1    3    3    0    0 -0.24136844510E+01  0.28097493311E+01 -0.50415096816E+00  0.37382793358E+01  0.51100000000E-03 0. -1.
        -11    1    3    3    0    0 -0.13117346133E+01  0.85329378836E+01  0.28031871879E+01  0.90768681434E+01  0.51100000000E-03 0.  1.
        -12    1    3    3    0    0 -0.25327565756E+01  0.15430501607E+02  0.31281533683E+02  0.34972125833E+02  0.00000000000E+00 0.  1.
</event>
<event>
 7    1  0.2769403E-010  0.4778727E+02  0.7816164E-02  0.1312668E+00
        -11   -1    0    0    0    0  0.00000000000E+00  0.00000000000E+00  0.45593999997E+02  0.45594000000E+02  0.51100000000E-03 0. -1.
         11   -1    0    0    0    0 -0.00000000000E+00 -0.00000000000E+00 -0.45593999997E+02  0.45594000000E+02  0.51100000000E-03 0.  1.
    9900012    2    1    2    0    0  0.13070445092E+02 -0.32944440868E+02 -0.25048967013E+02  0.47787268815E+02  0.19999989833E+02 0.  0.
         12    1    1    2    0    0 -0.13070445092E+02  0.32944440868E+02  0.25048967013E+02  0.43400731185E+02  0.00000000000E+00 0. -1.
         11    1    3    3    0    0 -0.38921051032E+01 -0.44205957973E+01  0.19836868646E+00  0.58931739950E+01  0.51100000000E-03 0. -1.
        -11    1    3    3    0    0  0.20615971862E+01 -0.63942813842E+01 -0.43295401859E+01  0.79926175851E+01  0.51100000000E-03 0.  1.
        -12    1    3    3    0    0  0.14900953009E+02 -0.22129563686E+02 -0.20917795514E+02  0.33901477235E+02  0.00000000000E+00 0.  1.
</event>
<event>
 7    1  0.2769403E-010  0.4778727E+02  0.7816164E-02  0.1312668E+00
        -11   -1    0    0    0    0  0.00000000000E+00  0.00000000000E+00  0.45593999997E+02  0.45594000000E+02  0.51100000000E-03 0.  1.
         11   -1    0    0    0    0 -0.00000000000E+00 -0.00000000000E+00 -0.45593999997E+02  0.45594000000E+02  0.51100000000E-03 0. -1.
    9900012    2    1    2    0    0  0.36418135737E+02  0.84971049200E+01  0.22025936298E+02  0.47787271062E+02  0.20000000081E+02 0.  0.
         12    1    1    2    0    0 -0.36418135737E+02 -0.84971049200E+01 -0.22025936298E+02  0.43400728938E+02  0.00000000000E+00 0. -1.
         11    1    3    3    0    0  0.17925476169E+02  0.49880541049E-01  0.13679590972E+02  0.22548977657E+02  0.51100000000E-03 0. -1.
        -11    1    3    3    0    0  0.16688303574E+02  0.22211383643E+01  0.36314279511E+01  0.17222665329E+02  0.51100000000E-03 0.  1.
         12    1    3    3    0    0  0.18043559942E+01  0.62260860147E+01  0.47149173740E+01  0.80156280764E+01  0.00000000000E+00 0. -1.
</event>
<event>
 7    1  0.2769403E-010  0.4778727E+02  0.7816164E-02  0.1312668E+00
        -11   -1    0    0    0    0  0.00000000000E+00  0.00000000000E+00  0.45593999997E+02  0.45594000000E+02  0.51100000000E-03 0. -1.
         11   -1    0    0    0    0 -0.00000000000E+00 -0.00000000000E+00 -0.45593999997E+02  0.45594000000E+02  0.51100000000E-03 0.  1.
    9900012    2    1    2    0    0 -0.40294653906E+02 -0.16074318987E+02  0.12571303771E+01  0.47787271422E+02  0.20000001721E+02 0.  0.
         12    1    1    2    0    0  0.40294653906E+02  0.16074318987E+02 -0.12571303771E+01  0.43400728578E+02  0.00000000000E+00 0. -1.
         11    1    3    3    0    0  0.97403825589E+00 -0.33334902831E+01 -0.17490755015E+01  0.38884667110E+01  0.51100000000E-03 0. -1.
        -11    1    3    3    0    0 -0.19628198229E+02 -0.23229656934E+01  0.18898048496E+01  0.19855319136E+02  0.51100000000E-03 0.  1.
         12    1    3    3    0    0 -0.21640493933E+02 -0.10417863010E+02  0.11164010290E+01  0.24043485575E+02  0.00000000000E+00 0. -1.
</event>
<event>
 7    1  0.2769403E-010  0.4778725E+02  0.7816164E-02  0.1312668E+00
        -11   -1    0    0    0    0  0.00000000000E+00  0.00000000000E+00  0.45593999997E+02  0.45594000000E+02  0.51100000000E-03 0.  1.
         11   -1    0    0    0    0 -0.00000000000E+00 -0.00000000000E+00 -0.45593999997E+02  0.45594000000E+02  0.51100000000E-03 0. -1.
    9900012    2    1    2    0    0  0.29204399367E+02  0.28688240839E+02  0.14412243734E+02  0.47787252607E+02  0.19999915936E+02 0.  0.
         12    1    1    2    0    0 -0.29204399367E+02 -0.28688240839E+02 -0.14412243734E+02  0.43400747393E+02  0.00000000000E+00 0. -1.
         11    1    3    3    0    0 -0.27951979040E+00  0.58222294407E+01 -0.90516502168E+00  0.58987974157E+01  0.51100000000E-03 0. -1.
        -11    1    3    3    0    0  0.32150813786E+01  0.45710739491E+01 -0.14185834330E+01  0.57657475262E+01  0.51100000000E-03 0.  1.
        -12    1    3    3    0    0  0.26268837779E+02  0.18294937449E+02  0.16735992189E+02  0.36122707665E+02  0.00000000000E+00 0.  1.
</event>
<event>
 7    1  0.2769403E-010  0.4778727E+02  0.7816164E-02  0.1312668E+00
        -11   -1    0    0    0    0  0.00000000000E+00  0.00000000000E+00  0.45593999997E+02  0.45594000000E+02  0.51100000000E-03 0.  1.
         11   -1    0    0    0    0 -0.00000000000E+00 -0.00000000000E+00 -0.45593999997E+02  0.45594000000E+02  0.51100000000E-03 0. -1.
    9900012    2    1    2    0    0  0.33844151696E+02  0.26638456215E+02  0.53469066252E+01  0.47787270006E+02  0.19999995267E+02 0.  0.
         12    1    1    2    0    0 -0.33844151696E+02 -0.26638456215E+02 -0.53469066252E+01  0.43400729994E+02  0.00000000000E+00 0. -1.
         11    1    3    3    0    0  0.33344946178E+01  0.62302571004E+00  0.97411370265E+00  0.35292935778E+01  0.51100000000E-03 0. -1.
        -11    1    3    3    0    0 -0.38439296564E-01  0.85734284270E+01 -0.11498003010E+01  0.86502713002E+01  0.51100000000E-03 0.  1.
        -12    1    3    3    0    0  0.30548096375E+02  0.17442002078E+02  0.55225932235E+01  0.35607705128E+02  0.00000000000E+00 0.  1.
</event>
<event>
 7    1  0.2769403E-010  0.4778727E+02  0.7816164E-02  0.1312668E+00
        -11   -1    0    0    0    0  0.00000000000E+00  0.00000000000E+00  0.45593999997E+02  0.45594000000E+02  0.51100000000E-03 0. -1.
         11   -1    0    0    0    0 -0.00000000000E+00 -0.00000000000E+00 -0.45593999997E+02  0.45594000000E+02  0.51100000000E-03 0.  1.
    9900012    2    1    2    0    0  0.24946111728E+02  0.32124098216E+02 -0.15144544168E+02  0.47787269654E+02  0.19999993660E+02 0.  0.
         12    1    1    2    0    0 -0.24946111728E+02 -0.32124098216E+02  0.15144544168E+02  0.43400730346E+02  0.00000000000E+00 0. -1.
         11    1    3    3    0    0  0.14706985770E+02  0.28754123609E+02 -0.12555657999E+02  0.34651689757E+02  0.51100000000E-03 0. -1.
        -11    1    3    3    0    0  0.71128271062E+01  0.20176651594E+01 -0.50323256231E+01  0.89435777839E+01  0.51100000000E-03 0.  1.
        -12    1    3    3    0    0  0.31262988520E+01  0.13523094475E+01  0.24434394541E+01  0.41920021135E+01  0.00000000000E+00 0.  1.
</event>
<event>
 7    1  0.2769403E-010  0.4778727E+02  0.7816164E-02  0.1312668E+00
        -11   -1    0    0    0    0  0.00000000000E+00  0.00000000000E+00  0.45593999997E+02  0.45594000000E+02  0.51100000000E-03 0. -1.
         11   -1    0    0    0    0 -0.00000000000E+00 -0.00000000000E+00 -0.45593999997E+02  0.45594000000E+02  0.51100000000E-03 0.  1.
    9900012    2    1    2    0    0 -0.23512571127E+02 -0.28782206902E+02 -0.22413539792E+02  0.47787271882E+02  0.20000003819E+02 0.  0.
         12    1    1    2    0    0  0.23512571127E+02  0.28782206902E+02  0.22413539792E+02  0.43400728118E+02  0.00000000000E+00 0. -1.
         11    1    3    3    0    0 -0.11683520846E+02 -0.18814298286E+02 -0.10168152611E+02  0.24369526199E+02  0.51100000000E-03 0. -1.
        -11    1    3    3    0    0 -0.61378361652E+01 -0.10589393928E+02 -0.12745658149E+02  0.17670882787E+02  0.51100000000E-03 0.  1.
        -12    1    3    3    0    0 -0.56912141160E+01  0.62148531209E+00  0.50027096834E+00  0.57468628964E+01  0.00000000000E+00 0.  1.
</event>
<event>
 7    1  0.2769403E-010  0.4778727E+02  0.7816164E-02  0.1312668E+00
        -11   -1    0    0    0    0  0.00000000000E+00  0.00000000000E+00  0.45593999997E+02  0.45594000000E+02  0.51100000000E-03 0. -1.
         11   -1    0    0    0    0 -0.00000000000E+00 -0.00000000000E+00 -0.45593999997E+02  0.45594000000E+02  0.51100000000E-03 0.  1.
    9900012    2    1    2    0    0 -0.18554552157E+02  0.37343926562E+02 -0.12032568966E+02  0.47787274514E+02  0.20000015820E+02 0.  0.
         12    1    1    2    0    0  0.18554552157E+02 -0.37343926562E+02  0.12032568966E+02  0.43400725486E+02  0.00000000000E+00 0. -1.
         11    1    3    3    0    0 -0.15148177598E+01  0.13736037391E+02 -0.22454954811E+01  0.14000558784E+02  0.51100000000E-03 0. -1.
        -11    1    3    3    0    0 -0.25885563863E+01  0.95149398219E+01 -0.93616737959E+01  0.13596898194E+02  0.51100000000E-03 0.  1.
         12    1    3    3    0    0 -0.14451178011E+02  0.14092949349E+02 -0.42539968890E+00  0.20189817536E+02  0.00000000000E+00 0. -1.
</event>
<event>
 7    1  0.2769403E-010  0.4778727E+02  0.7816164E-02  0.1312668E+00
        -11   -1    0    0    0    0  0.00000000000E+00  0.00000000000E+00  0.45593999997E+02  0.45594000000E+02  0.51100000000E-03 0. -1.
         11   -1    0    0    0    0 -0.00000000000E+00 -0.00000000000E+00 -0.45593999997E+02  0.45594000000E+02  0.51100000000E-03 0.  1.
    9900012    2    1    2    0    0 -0.38384005223E+02 -0.95564215751E+01 -0.17859622626E+02  0.47787272234E+02  0.20000005425E+02 0.  0.
         12    1    1    2    0    0  0.38384005223E+02  0.95564215751E+01  0.17859622626E+02  0.43400727766E+02  0.00000000000E+00 0. -1.
         11    1    3    3    0    0 -0.76422145223E+01  0.60559752073E+01 -0.38492360500E+01  0.10483076693E+02  0.51100000000E-03 0. -1.
        -11    1    3    3    0    0 -0.82571460164E+01 -0.39723403645E+01 -0.25423717189E+01  0.95091325854E+01  0.51100000000E-03 0.  1.
         12    1    3    3    0    0 -0.22484644684E+02 -0.11640056418E+02 -0.11468014857E+02  0.27795062956E+02  0.00000000000E+00 0. -1.
</event>
<event>
 7    1  0.2769403E-010  0.4778727E+02  0.7816164E-02  0.1312668E+00
        -11   -1    0    0    0    0  0.00000000000E+00  0.00000000000E+00  0.45593999997E+02  0.45594000000E+02  0.51100000000E-03 0.  1.
         11   -1    0    0    0    0 -0.00000000000E+00 -0.00000000000E+00 -0.45593999997E+02  0.45594000000E+02  0.51100000000E-03 0. -1.
    9900012    2    1    2    0    0  0.36244934581E+02  0.21684855453E+02  0.99847480786E+01  0.47787269211E+02  0.19999991641E+02 0.  0.
         12    1    1    2    0    0 -0.36244934581E+02 -0.21684855453E+02 -0.99847480786E+01  0.43400730789E+02  0.00000000000E+00 0. -1.
         11    1    3    3    0    0  0.37003354678E+01  0.20263430996E+00 -0.25355375960E+01  0.44902666290E+01  0.51100000000E-03 0. -1.
        -11    1    3    3    0    0  0.93522375987E+01  0.63229535185E+01 -0.28070754418E+01  0.11632874198E+02  0.51100000000E-03 0.  1.
        -12    1    3    3    0    0  0.23192361515E+02  0.15159267624E+02  0.15327361116E+02  0.31664128384E+02  0.00000000000E+00 0.  1.
</event>
<event>
 7    1  0.2769403E-010  0.4778727E+02  0.7816164E-02  0.1312668E+00
        -11   -1    0    0    0    0  0.00000000000E+00  0.00000000000E+00  0.45593999997E+02  0.45594000000E+02  0.51100000000E-03 0.  1.
         11   -1    0    0    0    0 -0.00000000000E+00 -0.00000000000E+00 -0.45593999997E+02  0.45594000000E+02  0.51100000000E-03 0. -1.
    9900012    2    1    2    0    0  0.11451613063E+02  0.30299896341E+02  0.28885984374E+02  0.47787271282E+02  0.20000001083E+02 0.  0.
         12    1    1    2    0    0 -0.11451613063E+02 -0.30299896341E+02 -0.28885984374E+02  0.43400728718E+02  0.00000000000E+00 0. -1.
         11    1    3    3    0    0  0.81629047435E+00  0.21778978302E+01  0.66267803193E+01  0.70230895451E+01  0.51100000000E-03 0. -1.
        -11    1    3    3    0    0 -0.33927275409E+01  0.11858143135E+02  0.10937368000E+02  0.16484907576E+02  0.51100000000E-03 0.  1.
         12    1    3    3    0    0  0.14028050129E+02  0.16263855376E+02  0.11321836055E+02  0.24279274161E+02  0.00000000000E+00 0. -1.
</event>
<event>
 7    1  0.2769403E-010  0.4778727E+02  0.7816164E-02  0.1312668E+00
        -11   -1    0    0    0    0  0.00000000000E+00  0.00000000000E+00  0.45593999997E+02  0.45594000000E+02  0.51100000000E-03 0.  1.
         11   -1    0    0    0    0 -0.00000000000E+00 -0.00000000000E+00 -0.45593999997E+02  0.45594000000E+02  0.51100000000E-03 0. -1.
    9900012    2    1    2    0    0 -0.17053605013E+02 -0.50026134602E+01  0.39595096673E+02  0.47787271136E+02  0.20000000416E+02 0.  0.
         12    1    1    2    0    0  0.17053605013E+02  0.50026134602E+01 -0.39595096673E+02  0.43400728864E+02  0.00000000000E+00 0. -1.
         11    1    3    3    0    0 -0.47883214925E+01 -0.82664391632E+01  0.19866018742E+02  0.22043609960E+02  0.51100000000E-03 0. -1.
        -11    1    3    3    0    0 -0.94422557549E+01 -0.27735357779E+01  0.12539468207E+02  0.15940105321E+02  0.51100000000E-03 0.  1.
         12    1    3    3    0    0 -0.28230277656E+01  0.60373614808E+01  0.71896097245E+01  0.98035558552E+01  0.00000000000E+00 0. -1.
</event>
<event>
 7    1  0.2769403E-010  0.4778727E+02  0.7816164E-02  0.1312668E+00
        -11   -1    0    0    0    0  0.00000000000E+00  0.00000000000E+00  0.45593999997E+02  0.45594000000E+02  0.51100000000E-03 0.  1.
         11   -1    0    0    0    0 -0.00000000000E+00 -0.00000000000E+00 -0.45593999997E+02  0.45594000000E+02  0.51100000000E-03 0. -1.
    9900012    2    1    2    0    0 -0.19456658046E+02  0.22511559869E+02  0.31595748331E+02  0.47787272095E+02  0.20000004790E+02 0.  0.
         12    1    1    2    0    0  0.19456658046E+02 -0.22511559869E+02 -0.31595748331E+02  0.43400727905E+02  0.00000000000E+00 0. -1.
         11    1    3    3    0    0 -0.69258595894E+01  0.74748382465E+01  0.10178251773E+02  0.14402692362E+02  0.51100000000E-03 0. -1.
        -11    1    3    3    0    0 -0.15723488812E+02  0.13109122332E+02  0.13193823941E+02  0.24354756808E+02  0.51100000000E-03 0.  1.
         12    1    3    3    0    0  0.31926903557E+01  0.19275992906E+01  0.82236726174E+01  0.90298229247E+01  0.00000000000E+00 0. -1.
</event>
<event>
 7    1  0.2769403E-010  0.4778727E+02  0.7816164E-02  0.1312668E+00
        -11   -1    0    0    0    0  0.00000000000E+00  0.00000000000E+00  0.45593999997E+02  0.45594000000E+02  0.51100000000E-03 0.  1.
         11   -1    0    0    0    0 -0.00000000000E+00 -0.00000000000E+00 -0.45593999997E+02  0.45594000000E+02  0.51100000000E-03 0. -1.
    9900012    2    1    2    0    0 -0.21973495711E+02 -0.71247815122E+01  0.36742704969E+02  0.47787269663E+02  0.19999993700E+02 0.  0.
         12    1    1    2    0    0  0.21973495711E+02  0.71247815122E+01 -0.36742704969E+02  0.43400730337E+02  0.00000000000E+00 0. -1.
         11    1    3    3    0    0 -0.88821146865E+01 -0.88003484954E+01  0.15172676856E+02  0.19660829540E+02  0.51100000000E-03 0.  1.
        -11    1    3    3    0    0  0.22601717049E+01 -0.45317032212E+00  0.14272818793E+01  0.27112493984E+01  0.51100000000E-03 0. -1.
        -12    1    3    3    0    0 -0.15351552730E+02  0.21287373053E+01  0.20142746233E+02  0.25415190724E+02  0.00000000000E+00 0.  1.
</event>
<event>
 7    1  0.2769403E-010  0.4778725E+02  0.7816164E-02  0.1312668E+00
        -11   -1    0    0    0    0  0.00000000000E+00  0.00000000000E+00  0.45593999997E+02  0.45594000000E+02  0.51100000000E-03 0.  1.
         11   -1    0    0    0    0 -0.00000000000E+00 -0.00000000000E+00 -0.45593999997E+02  0.45594000000E+02  0.51100000000E-03 0. -1.
    9900012    2    1    2    0    0  0.23822863623E+02  0.30839907203E+02  0.19104868534E+02  0.47787254509E+02  0.19999924608E+02 0.  0.
         12    1    1    2    0    0 -0.23822863623E+02 -0.30839907203E+02 -0.19104868534E+02  0.43400745491E+02  0.00000000000E+00 0. -1.
         11    1    3    3    0    0  0.16806189265E+02  0.25400668530E+02  0.13851517150E+02  0.33459026988E+02  0.51100000000E-03 0.  1.
        -11    1    3    3    0    0  0.77596014854E+01  0.47081691658E+01  0.75501046075E+01  0.11806030321E+02  0.51100000000E-03 0. -1.
        -12    1    3    3    0    0 -0.74292712811E+00  0.73106950758E+00 -0.22967532235E+01  0.25221971993E+01  0.00000000000E+00 0.  1.
</event>
<event>
 7    1  0.2769403E-010  0.4778727E+02  0.7816164E-02  0.1312668E+00
        -11   -1    0    0    0    0  0.00000000000E+00  0.00000000000E+00  0.45593999997E+02  0.45594000000E+02  0.51100000000E-03 0.  1.
         11   -1    0    0    0    0 -0.00000000000E+00 -0.00000000000E+00 -0.45593999997E+02  0.45594000000E+02  0.51100000000E-03 0. -1.
    9900012    2    1    2    0    0  0.19732461008E+02  0.35766551724E+02  0.14663108387E+02  0.47787274347E+02  0.20000015057E+02 0.  0.
         12    1    1    2    0    0 -0.19732461008E+02 -0.35766551724E+02 -0.14663108387E+02  0.43400725653E+02  0.00000000000E+00 0. -1.
         11    1    3    3    0    0  0.54767232935E+01  0.77536453190E+01  0.87739781165E+01  0.12926569770E+02  0.51100000000E-03 0. -1.
        -11    1    3    3    0    0 -0.27765444068E+01  0.34018724619E+01  0.13109815351E+01  0.45826420258E+01  0.51100000000E-03 0.  1.
        -12    1    3    3    0    0  0.17032282121E+02  0.24611033943E+02  0.45781487359E+01  0.30278062551E+02  0.00000000000E+00 0.  1.
</event>
<event>
 7    1  0.2769403E-010  0.4778728E+02  0.7816164E-02  0.1312668E+00
        -11   -1    0    0    0    0  0.00000000000E+00  0.00000000000E+00  0.45593999997E+02  0.45594000000E+02  0.51100000000E-03 0.  1.
         11   -1    0    0    0    0 -0.00000000000E+00 -0.00000000000E+00 -0.45593999997E+02  0.45594000000E+02  0.51100000000E-03 0. -1.
    9900012    2    1    2    0    0 -0.34460034845E+02 -0.24707628004E+02 -0.92553491808E+01  0.47787281440E+02  0.20000047396E+02 0.  0.
         12    1    1    2    0    0  0.34460034845E+02  0.24707628004E+02  0.92553491808E+01  0.43400718560E+02  0.00000000000E+00 0. -1.
         11    1    3    3    0    0 -0.12411059527E+02 -0.52100451406E+01 -0.38326790701E+01  0.13995299142E+02  0.51100000000E-03 0. -1.
        -11    1    3    3    0    0 -0.14049416534E+02 -0.14939453792E+02 -0.10750185114E+02  0.23154694228E+02  0.51100000000E-03 0.  1.
         12    1    3    3    0    0 -0.79995587836E+01 -0.45581290716E+01  0.53275150035E+01  0.10637288070E+02  0.00000000000E+00 0. -1.
</event>
<event>
 7    1  0.2769403E-010  0.4778727E+02  0.7816164E-02  0.1312668E+00
        -11   -1    0    0    0    0  0.00000000000E+00  0.00000000000E+00  0.45593999997E+02  0.45594000000E+02  0.51100000000E-03 0.  1.
         11   -1    0    0    0    0 -0.00000000000E+00 -0.00000000000E+00 -0.45593999997E+02  0.45594000000E+02  0.51100000000E-03 0. -1.
    9900012    2    1    2    0    0  0.91447607902E+01 -0.39938339728E+02  0.14315231292E+02  0.47787268704E+02  0.19999989327E+02 0.  0.
         12    1    1    2    0    0 -0.91447607902E+01  0.39938339728E+02 -0.14315231292E+02  0.43400731296E+02  0.00000000000E+00 0. -1.
         11    1    3    3    0    0  0.16113475773E+01  0.16096405032E+01  0.16171397789E+01  0.27933000000E+01  0.51100000000E-03 0. -1.
        -11    1    3    3    0    0 -0.56283754601E+00 -0.13249808633E+01  0.22225934855E+01  0.26480714594E+01  0.51100000000E-03 0.  1.
        -12    1    3    3    0    0  0.80962507590E+01 -0.40222999368E+02  0.10475498027E+02  0.42345897244E+02  0.00000000000E+00 0.  1.
</event>
<event>
 7    1  0.2769403E-010  0.4778727E+02  0.7816164E-02  0.1312668E+00
        -11   -1    0    0    0    0  0.00000000000E+00  0.00000000000E+00  0.45593999997E+02  0.45594000000E+02  0.51100000000E-03 0.  1.
         11   -1    0    0    0    0 -0.00000000000E+00 -0.00000000000E+00 -0.45593999997E+02  0.45594000000E+02  0.51100000000E-03 0. -1.
    9900012    2    1    2    0    0  0.42884561695E+02  0.60846590251E+01 -0.27412551945E+01  0.47787272042E+02  0.20000004550E+02 0.  0.
         12    1    1    2    0    0 -0.42884561695E+02 -0.60846590251E+01  0.27412551945E+01  0.43400727958E+02  0.00000000000E+00 0. -1.
         11    1    3    3    0    0  0.25485175675E+02  0.90463610759E+00 -0.34908333237E+01  0.25739045500E+02  0.51100000000E-03 0. -1.
        -11    1    3    3    0    0  0.17351087316E+02  0.90842206249E+00  0.22512707552E+01  0.17520093663E+02  0.51100000000E-03 0.  1.
         12    1    3    3    0    0  0.48298703563E-01  0.42716008550E+01 -0.15016926260E+01  0.45281328793E+01  0.00000000000E+00 0. -1.
</event>
<event>
 7    1  0.2769403E-010  0.4778727E+02  0.7816164E-02  0.1312668E+00
        -11   -1    0    0    0    0  0.00000000000E+00  0.00000000000E+00  0.45593999997E+02  0.45594000000E+02  0.51100000000E-03 0.  1.
         11   -1    0    0    0    0 -0.00000000000E+00 -0.00000000000E+00 -0.45593999997E+02  0.45594000000E+02  0.51100000000E-03 0. -1.
    9900012    2    1    2    0    0 -0.11212351496E+02 -0.40084111709E+02  0.12295141500E+02  0.47787270259E+02  0.19999996417E+02 0.  0.
         12    1    1    2    0    0  0.11212351496E+02  0.40084111709E+02 -0.12295141500E+02  0.43400729741E+02  0.00000000000E+00 0. -1.
         11    1    3    3    0    0 -0.79063464288E+00 -0.18834677644E+01 -0.17247746032E+01  0.26734624836E+01  0.51100000000E-03 0. -1.
        -11    1    3    3    0    0 -0.37313913475E+01 -0.17069447105E+02  0.14853892638E+02  0.22933107783E+02  0.51100000000E-03 0.  1.
        -12    1    3    3    0    0 -0.66903255059E+01 -0.21131196840E+02 -0.83397653480E+00  0.22180699992E+02  0.00000000000E+00 0.  1.
</event>
<event>
 7    1  0.2769403E-010  0.4778727E+02  0.7816164E-02  0.1312668E+00
        -11   -1    0    0    0    0  0.00000000000E+00  0.00000000000E+00  0.45593999997E+02  0.45594000000E+02  0.51100000000E-03 0. -1.
         11   -1    0    0    0    0 -0.00000000000E+00 -0.00000000000E+00 -0.45593999997E+02  0.45594000000E+02  0.51100000000E-03 0.  1.
    9900012    2    1    2    0    0 -0.38104174444E+02  0.15695364426E+02 -0.13614354543E+02  0.47787271618E+02  0.20000002613E+02 0.  0.
         12    1    1    2    0    0  0.38104174444E+02 -0.15695364426E+02  0.13614354543E+02  0.43400728382E+02  0.00000000000E+00 0. -1.
         11    1    3    3    0    0 -0.10834303936E+02  0.89663771812E+01 -0.41296222163E+01  0.14657143018E+02  0.51100000000E-03 0. -1.
        -11    1    3    3    0    0 -0.16109247633E+02  0.94961343830E+01 -0.79390806087E+00  0.18716696231E+02  0.51100000000E-03 0.  1.
        -12    1    3    3    0    0 -0.11160622874E+02 -0.27671471386E+01 -0.86908242655E+01  0.14413432369E+02  0.00000000000E+00 0.  1.
</event>
<event>
 7    1  0.2769403E-010  0.4778727E+02  0.7816164E-02  0.1312668E+00
        -11   -1    0    0    0    0  0.00000000000E+00  0.00000000000E+00  0.45593999997E+02  0.45594000000E+02  0.51100000000E-03 0. -1.
         11   -1    0    0    0    0 -0.00000000000E+00 -0.00000000000E+00 -0.45593999997E+02  0.45594000000E+02  0.51100000000E-03 0.  1.
    9900012    2    1    2    0    0  0.16165369476E+02 -0.26596169618E+01 -0.40189927100E+02  0.47787274511E+02  0.20000015805E+02 0.  0.
         12    1    1    2    0    0 -0.16165369476E+02  0.26596169618E+01  0.40189927100E+02  0.43400725489E+02  0.00000000000E+00 0. -1.
         11    1    3    3    0    0 -0.25796131228E+00 -0.49845687150E+01 -0.44112972750E+01  0.66612321099E+01  0.51100000000E-03 0. -1.
        -11    1    3    3    0    0  0.41061009590E+01 -0.45843825267E+01 -0.10602165649E+02  0.12258978137E+02  0.51100000000E-03 0.  1.
        -12    1    3    3    0    0  0.12317229829E+02  0.69093342798E+01 -0.25176464176E+02  0.28867064264E+02  0.00000000000E+00 0.  1.
</event>
<event>
 7    1  0.2769403E-010  0.4778727E+02  0.7816164E-02  0.1312668E+00
        -11   -1    0    0    0    0  0.00000000000E+00  0.00000000000E+00  0.45593999997E+02  0.45594000000E+02  0.51100000000E-03 0.  1.
         11   -1    0    0    0    0 -0.00000000000E+00 -0.00000000000E+00 -0.45593999997E+02  0.45594000000E+02  0.51100000000E-03 0. -1.
    9900012    2    1    2    0    0 -0.20385833269E+02  0.44665996651E+01  0.38053788258E+02  0.47787268308E+02  0.19999987521E+02 0.  0.
         12    1    1    2    0    0  0.20385833269E+02 -0.44665996651E+01 -0.38053788258E+02  0.43400731692E+02  0.00000000000E+00 0. -1.
         11    1    3    3    0    0 -0.11446993743E+01 -0.43083083792E+01  0.98473566076E+01  0.10809361228E+02  0.51100000000E-03 0.  1.
        -11    1    3    3    0    0 -0.48614619565E+01  0.10515690116E+01  0.74162718970E+00  0.50288786911E+01  0.51100000000E-03 0. -1.
        -12    1    3    3    0    0 -0.14379671938E+02  0.77233390326E+01  0.27464804461E+02  0.31949028388E+02  0.00000000000E+00 0.  1.
</event>
<event>
 7    1  0.2769403E-010  0.4778725E+02  0.7816164E-02  0.1312668E+00
        -11   -1    0    0    0    0  0.00000000000E+00  0.00000000000E+00  0.45593999997E+02  0.45594000000E+02  0.51100000000E-03 0.  1.
         11   -1    0    0    0    0 -0.00000000000E+00 -0.00000000000E+00 -0.45593999997E+02  0.45594000000E+02  0.51100000000E-03 0. -1.
    9900012    2    1    2    0    0  0.17825013923E+02  0.15672138728E+02  0.36335631452E+02  0.47787249238E+02  0.19999900577E+02 0.  0.
         12    1    1    2    0    0 -0.17825013923E+02 -0.15672138728E+02 -0.36335631452E+02  0.43400750762E+02  0.00000000000E+00 0. -1.
         11    1    3    3    0    0  0.94045652520E+01  0.12859349440E+02  0.11345783557E+02  0.19558515291E+02  0.51100000000E-03 0. -1.
        -11    1    3    3    0    0  0.18996330813E+01 -0.10036685492E+00 -0.32134026717E+00  0.19292327950E+01  0.51100000000E-03 0.  1.
        -12    1    3    3    0    0  0.65208155896E+01  0.29131561422E+01  0.25311188163E+02  0.26299501153E+02  0.00000000000E+00 0.  1.
</event>
<event>
 7    1  0.2769403E-010  0.4778725E+02  0.7816164E-02  0.1312668E+00
        -11   -1    0    0    0    0  0.00000000000E+00  0.00000000000E+00  0.45593999997E+02  0.45594000000E+02  0.51100000000E-03 0.  1.
         11   -1    0    0    0    0 -0.00000000000E+00 -0.00000000000E+00 -0.45593999997E+02  0.45594000000E+02  0.51100000000E-03 0. -1.
    9900012    2    1    2    0    0 -0.29356245443E+02  0.77577606145E+01  0.31010531028E+02  0.47787250803E+02  0.19999907710E+02 0.  0.
         12    1    1    2    0    0  0.29356245443E+02 -0.77577606145E+01 -0.31010531028E+02  0.43400749197E+02  0.00000000000E+00 0. -1.
         11    1    3    3    0    0 -0.11041770216E+02  0.83579286692E+01  0.89093842490E+01  0.16466717618E+02  0.51100000000E-03 0. -1.
        -11    1    3    3    0    0 -0.69332171863E+01  0.48384649227E+01  0.13918115080E+02  0.16284783419E+02  0.51100000000E-03 0.  1.
        -12    1    3    3    0    0 -0.11381258040E+02 -0.54386329774E+01  0.81830316989E+01  0.15035749766E+02  0.00000000000E+00 0.  1.
</event>
<event>
 7    1  0.2769403E-010  0.4778728E+02  0.7816164E-02  0.1312668E+00
        -11   -1    0    0    0    0  0.00000000000E+00  0.00000000000E+00  0.45593999997E+02  0.45594000000E+02  0.51100000000E-03 0.  1.
         11   -1    0    0    0    0 -0.00000000000E+00 -0.00000000000E+00 -0.45593999997E+02  0.45594000000E+02  0.51100000000E-03 0. -1.
    9900012    2    1    2    0    0  0.42029965884E+01  0.35292168140E+02  0.24908237414E+02  0.47787278769E+02  0.20000035220E+02 0.  0.
         12    1    1    2    0    0 -0.42029965884E+01 -0.35292168140E+02 -0.24908237414E+02  0.43400721231E+02  0.00000000000E+00 0. -1.
         11    1    3    3    0    0  0.11301659377E+01  0.85200085804E+01  0.23098878746E+01  0.88996294030E+01  0.51100000000E-03 0. -1.
        -11    1    3    3    0    0  0.64280979995E+01  0.27045758446E+02  0.22038110414E+02  0.35474946154E+02  0.51100000000E-03 0.  1.
         12    1    3    3    0    0 -0.33552673488E+01 -0.27359888674E+00  0.56023912536E+00  0.34127032116E+01  0.00000000000E+00 0. -1.
</event>
<event>
 7    1  0.2769403E-010  0.4778727E+02  0.7816164E-02  0.1312668E+00
        -11   -1    0    0    0    0  0.00000000000E+00  0.00000000000E+00  0.45593999997E+02  0.45594000000E+02  0.51100000000E-03 0.  1.
         11   -1    0    0    0    0 -0.00000000000E+00 -0.00000000000E+00 -0.45593999997E+02  0.45594000000E+02  0.51100000000E-03 0. -1.
    9900012    2    1    2    0    0  0.64934666138E+01 -0.40798645572E+02 -0.13301464426E+02  0.47787267920E+02  0.19999985755E+02 0.  0.
         12    1    1    2    0    0 -0.64934666138E+01  0.40798645572E+02  0.13301464426E+02  0.43400732080E+02  0.00000000000E+00 0. -1.
         11    1    3    3    0    0  0.63231415839E+01 -0.25426970191E+02 -0.67070284368E+01  0.27046204230E+02  0.51100000000E-03 0. -1.
        -11    1    3    3    0    0 -0.53980747465E+01 -0.10831243896E+02 -0.60652850086E+01  0.13536718133E+02  0.51100000000E-03 0.  1.
         12    1    3    3    0    0  0.55683997764E+01 -0.45404314855E+01 -0.52915098114E+00  0.72043455570E+01  0.00000000000E+00 0. -1.
</event>
<event>
 7    1  0.2769403E-010  0.4778727E+02  0.7816164E-02  0.1312668E+00
        -11   -1    0    0    0    0  0.00000000000E+00  0.00000000000E+00  0.45593999997E+02  0.45594000000E+02  0.51100000000E-03 0.  1.
         11   -1    0    0    0    0 -0.00000000000E+00 -0.00000000000E+00 -0.45593999997E+02  0.45594000000E+02  0.51100000000E-03 0. -1.
    9900012    2    1    2    0    0 -0.68406787785E+01 -0.75581460767E+01  0.42186523673E+02  0.47787271459E+02  0.20000001889E+02 0.  0.
         12    1    1    2    0    0  0.68406787785E+01  0.75581460767E+01 -0.42186523673E+02  0.43400728541E+02  0.00000000000E+00 0. -1.
         11    1    3    3    0    0  0.44261070602E+01  0.28478322334E+01  0.80093249443E+01  0.95838331821E+01  0.51100000000E-03 0. -1.
        -11    1    3    3    0    0 -0.41407940093E+00 -0.46599231193E+01  0.75664790769E+01  0.88959513887E+01  0.51100000000E-03 0.  1.
         12    1    3    3    0    0 -0.10852706438E+02 -0.57460551907E+01  0.26610719652E+02  0.29307486888E+02  0.00000000000E+00 0. -1.
</event>
<event>
 7    1  0.2769403E-010  0.4778729E+02  0.7816164E-02  0.1312668E+00
        -11   -1    0    0    0    0  0.00000000000E+00  0.00000000000E+00  0.45593999997E+02  0.45594000000E+02  0.51100000000E-03 0.  1.
         11   -1    0    0    0    0 -0.00000000000E+00 -0.00000000000E+00 -0.45593999997E+02  0.45594000000E+02  0.51100000000E-03 0. -1.
    9900012    2    1    2    0    0  0.35446148682E+02 -0.24076703044E+02 -0.68923304173E+01  0.47787293734E+02  0.20000103448E+02 0.  0.
         12    1    1    2    0    0 -0.35446148682E+02  0.24076703044E+02  0.68923304173E+01  0.43400706266E+02  0.00000000000E+00 0. -1.
         11    1    3    3    0    0  0.77799231328E+01 -0.76323209286E+01 -0.15041729947E-01  0.10898612445E+02  0.51100000000E-03 0. -1.
        -11    1    3    3    0    0  0.21258746927E+02 -0.10616820925E+02  0.27706626667E+01  0.23923373076E+02  0.51100000000E-03 0.  1.
         12    1    3    3    0    0  0.64074786226E+01 -0.58275611897E+01 -0.96479513541E+01  0.12965308213E+02  0.00000000000E+00 0. -1.
</event>
<event>
 7    1  0.2769403E-010  0.4778727E+02  0.7816164E-02  0.1312668E+00
        -11   -1    0    0    0    0  0.00000000000E+00  0.00000000000E+00  0.45593999997E+02  0.45594000000E+02  0.51100000000E-03 0.  1.
         11   -1    0    0    0    0 -0.00000000000E+00 -0.00000000000E+00 -0.45593999997E+02  0.45594000000E+02  0.51100000000E-03 0. -1.
    9900012    2    1    2    0    0  0.75771578621E+01  0.37674578648E+02  0.20170181296E+02  0.47787269464E+02  0.19999992795E+02 0.  0.
         12    1    1    2    0    0 -0.75771578621E+01 -0.37674578648E+02 -0.20170181296E+02  0.43400730536E+02  0.00000000000E+00 0. -1.
         11    1    3    3    0    0  0.78029849905E+01  0.59849927232E+01  0.60033153210E+01  0.11521567071E+02  0.51100000000E-03 0. -1.
        -11    1    3    3    0    0  0.47380987036E+01  0.21170664482E+02  0.10237122830E+02  0.23988440925E+02  0.51100000000E-03 0.  1.
         12    1    3    3    0    0 -0.49639258320E+01  0.10518921443E+02  0.39297431447E+01  0.12277261468E+02  0.00000000000E+00 0. -1.
</event>
<event>
 7    1  0.2769403E-010  0.4778727E+02  0.7816164E-02  0.1312668E+00
        -11   -1    0    0    0    0  0.00000000000E+00  0.00000000000E+00  0.45593999997E+02  0.45594000000E+02  0.51100000000E-03 0. -1.
         11   -1    0    0    0    0 -0.00000000000E+00 -0.00000000000E+00 -0.45593999997E+02  0.45594000000E+02  0.51100000000E-03 0.  1.
    9900012    2    1    2    0    0 -0.31081286684E+02 -0.29660278393E+02 -0.61518303564E+01  0.47787268290E+02  0.19999987441E+02 0.  0.
         12    1    1    2    0    0  0.31081286684E+02  0.29660278393E+02  0.61518303564E+01  0.43400731710E+02  0.00000000000E+00 0. -1.
         11    1    3    3    0    0 -0.77354117296E+01  0.47672654774E+00 -0.11793871225E+01  0.78393122832E+01  0.51100000000E-03 0. -1.
        -11    1    3    3    0    0 -0.10539689693E+02 -0.14884508421E+02  0.30232170797E+01  0.18487116907E+02  0.51100000000E-03 0.  1.
         12    1    3    3    0    0 -0.12806185261E+02 -0.15252496519E+02 -0.79956603136E+01  0.21460839099E+02  0.00000000000E+00 0. -1.
</event>
<event>
 7    1  0.2769403E-010  0.4778727E+02  0.7816164E-02  0.1312668E+00
        -11   -1    0    0    0    0  0.00000000000E+00  0.00000000000E+00  0.45593999997E+02  0.45594000000E+02  0.51100000000E-03 0. -1.
         11   -1    0    0    0    0 -0.00000000000E+00 -0.00000000000E+00 -0.45593999997E+02  0.45594000000E+02  0.51100000000E-03 0.  1.
    9900012    2    1    2    0    0 -0.16224915901E+02 -0.31728136460E+02 -0.24772985900E+02  0.47787269941E+02  0.19999994969E+02 0.  0.
         12    1    1    2    0    0  0.16224915901E+02  0.31728136460E+02  0.24772985900E+02  0.43400730059E+02  0.00000000000E+00 0. -1.
         11    1    3    3    0    0  0.14009563245E+01 -0.34103241872E+01 -0.31040970313E+01  0.48195859081E+01  0.51100000000E-03 0. -1.
        -11    1    3    3    0    0 -0.11449587288E+02 -0.19211850542E+02 -0.22761751763E+02  0.31910587489E+02  0.51100000000E-03 0.  1.
         12    1    3    3    0    0 -0.61762849381E+01 -0.91059617312E+01  0.10928628936E+01  0.11057096544E+02  0.00000000000E+00 0. -1.
</event>
<event>
 7    1  0.2769403E-010  0.4778727E+02  0.7816164E-02  0.1312668E+00
        -11   -1    0    0    0    0  0.00000000000E+00  0.00000000000E+00  0.45593999997E+02  0.45594000000E+02  0.51100000000E-03 0.  1.
         11   -1    0    0    0    0 -0.00000000000E+00 -0.00000000000E+00 -0.45593999997E+02  0.45594000000E+02  0.51100000000E-03 0. -1.
    9900012    2    1    2    0    0 -0.19872400504E+02 -0.34096407545E+02  0.18059509098E+02  0.47787272148E+02  0.20000005032E+02 0.  0.
         12    1    1    2    0    0  0.19872400504E+02  0.34096407545E+02 -0.18059509098E+02  0.43400727852E+02  0.00000000000E+00 0. -1.
         11    1    3    3    0    0 -0.11100915943E+02 -0.60447910693E+01  0.44192453505E+01  0.13390278696E+02  0.51100000000E-03 0. -1.
        -11    1    3    3    0    0 -0.30598316701E+00  0.10985146310E+01  0.56546050988E-01  0.11417345619E+01  0.51100000000E-03 0.  1.
        -12    1    3    3    0    0 -0.84655013938E+01 -0.29150131106E+02  0.13583717696E+02  0.33255258890E+02  0.00000000000E+00 0.  1.
</event>
<event>
 7    1  0.2769403E-010  0.4778727E+02  0.7816164E-02  0.1312668E+00
        -11   -1    0    0    0    0  0.00000000000E+00  0.00000000000E+00  0.45593999997E+02  0.45594000000E+02  0.51100000000E-03 0. -1.
         11   -1    0    0    0    0 -0.00000000000E+00 -0.00000000000E+00 -0.45593999997E+02  0.45594000000E+02  0.51100000000E-03 0.  1.
    9900012    2    1    2    0    0 -0.36015691926E+02  0.22340926717E+02 -0.93475281018E+01  0.47787270132E+02  0.19999995840E+02 0.  0.
         12    1    1    2    0    0  0.36015691926E+02 -0.22340926717E+02  0.93475281018E+01  0.43400729868E+02  0.00000000000E+00 0. -1.
         11    1    3    3    0    0 -0.46607806442E+01  0.27668104278E+01  0.35602839690E+01  0.64848853774E+01  0.51100000000E-03 0. -1.
        -11    1    3    3    0    0 -0.29777991144E+02  0.13084167718E+02 -0.11300561552E+02  0.34432933263E+02  0.51100000000E-03 0.  1.
         12    1    3    3    0    0 -0.15769201379E+01  0.64899485707E+01 -0.16072505189E+01  0.68694514921E+01  0.00000000000E+00 0. -1.
</event>
<event>
 7    1  0.2769403E-010  0.4778727E+02  0.7816164E-02  0.1312668E+00
        -11   -1    0    0    0    0  0.00000000000E+00  0.00000000000E+00  0.45593999997E+02  0.45594000000E+02  0.51100000000E-03 0.  1.
         11   -1    0    0    0    0 -0.00000000000E+00 -0.00000000000E+00 -0.45593999997E+02  0.45594000000E+02  0.51100000000E-03 0. -1.
    9900012    2    1    2    0    0 -0.20889429382E+02 -0.19688711346E+02  0.32551646296E+02  0.47787270848E+02  0.19999999104E+02 0.  0.
         12    1    1    2    0    0  0.20889429382E+02  0.19688711346E+02 -0.32551646296E+02  0.43400729152E+02  0.00000000000E+00 0. -1.
         11    1    3    3    0    0  0.10523673209E+01  0.47375016405E+00  0.48958975154E+00  0.12536405314E+01  0.51100000000E-03 0. -1.
        -11    1    3    3    0    0 -0.81586880690E+01 -0.17776100474E+02  0.16308847447E+02  0.25466300171E+02  0.51100000000E-03 0.  1.
         12    1    3    3    0    0 -0.13783108634E+02 -0.23863610352E+01  0.15753209097E+02  0.21067330145E+02  0.00000000000E+00 0. -1.
</event>
<event>
 7    1  0.2769403E-010  0.4778727E+02  0.7816164E-02  0.1312668E+00
        -11   -1    0    0    0    0  0.00000000000E+00  0.00000000000E+00  0.45593999997E+02  0.45594000000E+02  0.51100000000E-03 0.  1.
         11   -1    0    0    0    0 -0.00000000000E+00 -0.00000000000E+00 -0.45593999997E+02  0.45594000000E+02  0.51100000000E-03 0. -1.
    9900012    2    1    2    0    0  0.13125020271E+02  0.28363139187E+02  0.30114609423E+02  0.47787268182E+02  0.19999986948E+02 0.  0.
         12    1    1    2    0    0 -0.13125020271E+02 -0.28363139187E+02 -0.30114609423E+02  0.43400731818E+02  0.00000000000E+00 0. -1.
         11    1    3    3    0    0  0.63166957276E+01  0.17562985336E+02  0.66683055427E+01  0.19819823357E+02  0.51100000000E-03 0. -1.
        -11    1    3    3    0    0  0.14659423628E+01  0.82514608740E+01  0.87118874512E+01  0.12088530795E+02  0.51100000000E-03 0.  1.
        -12    1    3    3    0    0  0.53423821807E+01  0.25486929770E+01  0.14734416429E+02  0.15878914030E+02  0.00000000000E+00 0.  1.
</event>
<event>
 7    1  0.2769403E-010  0.4778727E+02  0.7816164E-02  0.1312668E+00
        -11   -1    0    0    0    0  0.00000000000E+00  0.00000000000E+00  0.45593999997E+02  0.45594000000E+02  0.51100000000E-03 0. -1.
         11   -1    0    0    0    0 -0.00000000000E+00 -0.00000000000E+00 -0.45593999997E+02  0.45594000000E+02  0.51100000000E-03 0.  1.
    9900012    2    1    2    0    0  0.42403046914E+02  0.69239950021E+01  0.61370338105E+01  0.47787270993E+02  0.19999999765E+02 0.  0.
         12    1    1    2    0    0 -0.42403046914E+02 -0.69239950021E+01 -0.61370338105E+01  0.43400729007E+02  0.00000000000E+00 0. -1.
         11    1    3    3    0    0  0.13214123404E+02 -0.15206784100E+00  0.15847476980E+01  0.13309680969E+02  0.51100000000E-03 0. -1.
        -11    1    3    3    0    0  0.18107490251E+02  0.16477985213E+00 -0.44108591616E+01  0.18637704644E+02  0.51100000000E-03 0.  1.
         12    1    3    3    0    0  0.11081433259E+02  0.69112829910E+01  0.89631452741E+01  0.15839885380E+02  0.00000000000E+00 0. -1.
</event>
<event>
 7    1  0.2769403E-010  0.4778727E+02  0.7816164E-02  0.1312668E+00
        -11   -1    0    0    0    0  0.00000000000E+00  0.00000000000E+00  0.45593999997E+02  0.45594000000E+02  0.51100000000E-03 0.  1.
         11   -1    0    0    0    0 -0.00000000000E+00 -0.00000000000E+00 -0.45593999997E+02  0.45594000000E+02  0.51100000000E-03 0. -1.
    9900012    2    1    2    0    0  0.88596888502E+01 -0.36486344599E+02  0.21768694886E+02  0.47787268373E+02  0.19999987820E+02 0.  0.
         12    1    1    2    0    0 -0.88596888502E+01  0.36486344599E+02 -0.21768694886E+02  0.43400731627E+02  0.00000000000E+00 0. -1.
         11    1    3    3    0    0 -0.22593290325E+01 -0.69413403890E+01  0.45893943219E+01  0.86226048602E+01  0.51100000000E-03 0.  1.
        -11    1    3    3    0    0  0.49678142362E+01 -0.15406904186E+01 -0.88592527967E+00  0.52761509753E+01  0.51100000000E-03 0. -1.
         12    1    3    3    0    0  0.61512036465E+01 -0.28004313792E+02  0.18065225843E+02  0.33888512538E+02  0.00000000000E+00 0. -1.
</event>
<event>
 7    1  0.2769403E-010  0.4778727E+02  0.7816164E-02  0.1312668E+00
        -11   -1    0    0    0    0  0.00000000000E+00  0.00000000000E+00  0.45593999997E+02  0.45594000000E+02  0.51100000000E-03 0.  1.
         11   -1    0    0    0    0 -0.00000000000E+00 -0.00000000000E+00 -0.45593999997E+02  0.45594000000E+02  0.51100000000E-03 0. -1.
    9900012    2    1    2    0    0  0.14234205066E+02  0.14924718018E+01  0.40972953363E+02  0.47787274508E+02  0.20000015792E+02 0.  0.
         12    1    1    2    0    0 -0.14234205066E+02 -0.14924718018E+01 -0.40972953363E+02  0.43400725492E+02  0.00000000000E+00 0. -1.
         11    1    3    3    0    0  0.10363446745E+02  0.40400236448E+00  0.23892983595E+02  0.26046859919E+02  0.51100000000E-03 0. -1.
        -11    1    3    3    0    0  0.44284354281E+01  0.55236820024E+01  0.15427917196E+02  0.16974767523E+02  0.51100000000E-03 0.  1.
         12    1    3    3    0    0 -0.55767710656E+00 -0.44352125651E+01  0.16520525723E+01  0.47656470657E+01  0.00000000000E+00 0. -1.
</event>
<event>
 7    1  0.2769403E-010  0.4778730E+02  0.7816164E-02  0.1312668E+00
        -11   -1    0    0    0    0  0.00000000000E+00  0.00000000000E+00  0.45593999997E+02  0.45594000000E+02  0.51100000000E-03 0. -1.
         11   -1    0    0    0    0 -0.00000000000E+00 -0.00000000000E+00 -0.45593999997E+02  0.45594000000E+02  0.51100000000E-03 0.  1.
    9900012    2    1    2    0    0  0.23868951004E+02  0.33372742155E+02 -0.14147592344E+02  0.47787295972E+02  0.20000113654E+02 0.  0.
         12    1    1    2    0    0 -0.23868951004E+02 -0.33372742155E+02  0.14147592344E+02  0.43400704028E+02  0.00000000000E+00 0. -1.
         11    1    3    3    0    0  0.28138587539E+01  0.67649963448E+01  0.21703354983E+01  0.76415530534E+01  0.51100000000E-03 0. -1.
        -11    1    3    3    0    0  0.10890670289E+02  0.77436607195E+01 -0.25513662260E+00  0.13365480749E+02  0.51100000000E-03 0.  1.
        -12    1    3    3    0    0  0.10164421961E+02  0.18864085091E+02 -0.16062791220E+02  0.26780262170E+02  0.00000000000E+00 0.  1.
</event>
<event>
 7    1  0.2769403E-010  0.4778727E+02  0.7816164E-02  0.1312668E+00
        -11   -1    0    0    0    0  0.00000000000E+00  0.00000000000E+00  0.45593999997E+02  0.45594000000E+02  0.51100000000E-03 0.  1.
         11   -1    0    0    0    0 -0.00000000000E+00 -0.00000000000E+00 -0.45593999997E+02  0.45594000000E+02  0.51100000000E-03 0. -1.
    9900012    2    1    2    0    0  0.18456782468E+02  0.12289827197E+02  0.37308584182E+02  0.47787272756E+02  0.20000007805E+02 0.  0.
         12    1    1    2    0    0 -0.18456782468E+02 -0.12289827197E+02 -0.37308584182E+02  0.43400727244E+02  0.00000000000E+00 0. -1.
         11    1    3    3    0    0  0.12671392452E+02  0.43308001981E+01  0.10975057960E+02  0.17313922563E+02  0.51100000000E-03 0. -1.
        -11    1    3    3    0    0  0.67915273698E+01  0.59563171449E+01  0.81945721943E+01  0.12196457340E+02  0.51100000000E-03 0.  1.
        -12    1    3    3    0    0 -0.10061373539E+01  0.20027098543E+01  0.18138954028E+02  0.18276892853E+02  0.00000000000E+00 0.  1.
</event>
<event>
 7    1  0.3926210E-010  0.4778727E+02  0.7816164E-02  0.1312668E+00
        -11   -1    0    0    0    0  0.00000000000E+00  0.00000000000E+00  0.45593999997E+02  0.45594000000E+02  0.51100000000E-03 0.  1.
         11   -1    0    0    0    0 -0.00000000000E+00 -0.00000000000E+00 -0.45593999997E+02  0.45594000000E+02  0.51100000000E-03 0. -1.
    9900012    2    1    2    0    0 -0.58772826209E+01 -0.42415862234E+02  0.70693498871E+01  0.47787268118E+02  0.19999986657E+02 0.  0.
         12    1    1    2    0    0  0.58772826209E+01  0.42415862234E+02 -0.70693498871E+01  0.43400731882E+02  0.00000000000E+00 0. -1.
         11    1    3    3    0    0 -0.68752803194E+01 -0.13373468951E+02  0.66049851841E+01  0.16423914905E+02  0.51100000000E-03 0. -1.
        -11    1    3    3    0    0 -0.18681738040E+01 -0.26478581591E+02  0.30653510377E+01  0.26720810872E+02  0.51100000000E-03 0.  1.
         12    1    3    3    0    0  0.28661715025E+01 -0.25638116918E+01 -0.26009863347E+01  0.46425423408E+01  0.00000000000E+00 0. -1.
</event>
<event>
 7    1  0.3012866E-010  0.4778727E+02  0.7816164E-02  0.1312668E+00
        -11   -1    0    0    0    0  0.00000000000E+00  0.00000000000E+00  0.45593999997E+02  0.45594000000E+02  0.51100000000E-03 0.  1.
         11   -1    0    0    0    0 -0.00000000000E+00 -0.00000000000E+00 -0.45593999997E+02  0.45594000000E+02  0.51100000000E-03 0. -1.
    9900012    2    1    2    0    0  0.34479796071E+02  0.22603057249E+02  0.13559832697E+02  0.47787267324E+02  0.19999983035E+02 0.  0.
         12    1    1    2    0    0 -0.34479796071E+02 -0.22603057249E+02 -0.13559832697E+02  0.43400732676E+02  0.00000000000E+00 0. -1.
         11    1    3    3    0    0  0.15194575716E+02  0.12245600360E+02  0.59416866014E+01  0.20399350463E+02  0.51100000000E-03 0. -1.
        -11    1    3    3    0    0  0.17307696348E+02  0.93976368322E+01  0.11587593577E+02  0.22850476058E+02  0.51100000000E-03 0.  1.
         12    1    3    3    0    0  0.19775240074E+01  0.95982005588E+00 -0.39694474808E+01  0.45374408032E+01  0.00000000000E+00 0. -1.
</event>
<event>
 7    1  0.2769403E-010  0.4778727E+02  0.7816164E-02  0.1312668E+00
        -11   -1    0    0    0    0  0.00000000000E+00  0.00000000000E+00  0.45593999997E+02  0.45594000000E+02  0.51100000000E-03 0.  1.
         11   -1    0    0    0    0 -0.00000000000E+00 -0.00000000000E+00 -0.45593999997E+02  0.45594000000E+02  0.51100000000E-03 0. -1.
    9900012    2    1    2    0    0  0.14602441110E+02 -0.11419184679E+02  0.39242760571E+02  0.47787270486E+02  0.19999997454E+02 0.  0.
         12    1    1    2    0    0 -0.14602441110E+02  0.11419184679E+02 -0.39242760571E+02  0.43400729514E+02  0.00000000000E+00 0. -1.
         11    1    3    3    0    0  0.14634746333E+02 -0.12820874733E+02  0.23273888413E+02  0.30335202509E+02  0.51100000000E-03 0. -1.
        -11    1    3    3    0    0  0.24866593126E+01 -0.38959871111E+00  0.12724354668E+02  0.12970908360E+02  0.51100000000E-03 0.  1.
         12    1    3    3    0    0 -0.25189645353E+01  0.17912887654E+01  0.32445174897E+01  0.44811596169E+01  0.00000000000E+00 0. -1.
</event>
<event>
 7    1  0.2769403E-010  0.4778727E+02  0.7816164E-02  0.1312668E+00
        -11   -1    0    0    0    0  0.00000000000E+00  0.00000000000E+00  0.45593999997E+02  0.45594000000E+02  0.51100000000E-03 0. -1.
         11   -1    0    0    0    0 -0.00000000000E+00 -0.00000000000E+00 -0.45593999997E+02  0.45594000000E+02  0.51100000000E-03 0.  1.
    9900012    2    1    2    0    0 -0.17936525667E+02 -0.38608263216E+02  0.84443197089E+01  0.47787268706E+02  0.19999989337E+02 0.  0.
         12    1    1    2    0    0  0.17936525667E+02  0.38608263216E+02 -0.84443197089E+01  0.43400731294E+02  0.00000000000E+00 0. -1.
         11    1    3    3    0    0 -0.13406959196E+02 -0.18398888279E+02  0.13450947094E+02  0.26442269623E+02  0.51100000000E-03 0. -1.
        -11    1    3    3    0    0 -0.36343260137E+00 -0.37639985954E+01 -0.76966094447E+00  0.38590344533E+01  0.51100000000E-03 0.  1.
         12    1    3    3    0    0 -0.41661338695E+01 -0.16445376341E+02 -0.42369664411E+01  0.17485964630E+02  0.00000000000E+00 0. -1.
</event>
<event>
 7    1  0.2769403E-010  0.4778728E+02  0.7816164E-02  0.1312668E+00
        -11   -1    0    0    0    0  0.00000000000E+00  0.00000000000E+00  0.45593999997E+02  0.45594000000E+02  0.51100000000E-03 0.  1.
         11   -1    0    0    0    0 -0.00000000000E+00 -0.00000000000E+00 -0.45593999997E+02  0.45594000000E+02  0.51100000000E-03 0. -1.
    9900012    2    1    2    0    0  0.30730953671E+02  0.29784479748E+02  0.72191330531E+01  0.47787278469E+02  0.20000033851E+02 0.  0.
         12    1    1    2    0    0 -0.30730953671E+02 -0.29784479748E+02 -0.72191330531E+01  0.43400721531E+02  0.00000000000E+00 0. -1.
         11    1    3    3    0    0  0.13158548757E+02  0.79261023810E+01 -0.11558256642E+01  0.15404753733E+02  0.51100000000E-03 0. -1.
        -11    1    3    3    0    0  0.14909464482E+02  0.14784973230E+02 -0.13903238330E+00  0.20997783093E+02  0.51100000000E-03 0.  1.
         12    1    3    3    0    0  0.26629404323E+01  0.70734041373E+01  0.85139911006E+01  0.11384741644E+02  0.00000000000E+00 0. -1.
</event>
<event>
 7    1  0.2769403E-010  0.4778727E+02  0.7816164E-02  0.1312668E+00
        -11   -1    0    0    0    0  0.00000000000E+00  0.00000000000E+00  0.45593999997E+02  0.45594000000E+02  0.51100000000E-03 0. -1.
         11   -1    0    0    0    0 -0.00000000000E+00 -0.00000000000E+00 -0.45593999997E+02  0.45594000000E+02  0.51100000000E-03 0.  1.
    9900012    2    1    2    0    0  0.16583596865E+02  0.39332190871E+02  0.78477048216E+01  0.47787269652E+02  0.19999993653E+02 0.  0.
         12    1    1    2    0    0 -0.16583596865E+02 -0.39332190871E+02 -0.78477048216E+01  0.43400730348E+02  0.00000000000E+00 0. -1.
         11    1    3    3    0    0 -0.17596982792E+00  0.10404582901E+02  0.15746797354E+00  0.10407262232E+02  0.51100000000E-03 0. -1.
        -11    1    3    3    0    0  0.91573577921E+01  0.23702271903E+02  0.10849625488E+02  0.27629138035E+02  0.51100000000E-03 0.  1.
         12    1    3    3    0    0  0.76022089013E+01  0.52253360671E+01 -0.31593886401E+01  0.97508693855E+01  0.00000000000E+00 0. -1.
</event>
<event>
 7    1  0.2769403E-010  0.4778727E+02  0.7816164E-02  0.1312668E+00
        -11   -1    0    0    0    0  0.00000000000E+00  0.00000000000E+00  0.45593999997E+02  0.45594000000E+02  0.51100000000E-03 0. -1.
         11   -1    0    0    0    0 -0.00000000000E+00 -0.00000000000E+00 -0.45593999997E+02  0.45594000000E+02  0.51100000000E-03 0.  1.
    9900012    2    1    2    0    0 -0.12550490460E+02 -0.35291521620E+02 -0.21922987567E+02  0.47787266217E+02  0.19999977989E+02 0.  0.
         12    1    1    2    0    0  0.12550490460E+02  0.35291521620E+02  0.21922987567E+02  0.43400733783E+02  0.00000000000E+00 0. -1.
         11    1    3    3    0    0  0.23934432289E+01 -0.59165359747E+01 -0.62175941350E+01  0.89102438530E+01  0.51100000000E-03 0.  1.
        -11    1    3    3    0    0 -0.19612329117E+01 -0.18258765677E+02 -0.66187493571E+01  0.19520163982E+02  0.51100000000E-03 0. -1.
         12    1    3    3    0    0 -0.12982700777E+02 -0.11116219969E+02 -0.90866440752E+01  0.19356858382E+02  0.00000000000E+00 0. -1.
</event>
<event>
 7    1  0.2769403E-010  0.4778726E+02  0.7816164E-02  0.1312668E+00
        -11   -1    0    0    0    0  0.00000000000E+00  0.00000000000E+00  0.45593999997E+02  0.45594000000E+02  0.51100000000E-03 0.  1.
         11   -1    0    0    0    0 -0.00000000000E+00 -0.00000000000E+00 -0.45593999997E+02  0.45594000000E+02  0.51100000000E-03 0. -1.
    9900012    2    1    2    0    0 -0.22006196514E+02 -0.21368411132E+02  0.30704108291E+02  0.47787263309E+02  0.19999964732E+02 0.  0.
         12    1    1    2    0    0  0.22006196514E+02  0.21368411132E+02 -0.30704108291E+02  0.43400736691E+02  0.00000000000E+00 0. -1.
         11    1    3    3    0    0 -0.54389843287E+00 -0.49764933456E-01 -0.94267054149E+00  0.10894632003E+01  0.51100000000E-03 0. -1.
        -11    1    3    3    0    0 -0.80411100285E+00 -0.86624792308E+01  0.14874207223E+02  0.17231575137E+02  0.51100000000E-03 0.  1.
         12    1    3    3    0    0 -0.20658187079E+02 -0.12656166968E+02  0.16772571610E+02  0.29466224972E+02  0.00000000000E+00 0. -1.
</event>
<event>
 7    1  0.2769403E-010  0.4778728E+02  0.7816164E-02  0.1312668E+00
        -11   -1    0    0    0    0  0.00000000000E+00  0.00000000000E+00  0.45593999997E+02  0.45594000000E+02  0.51100000000E-03 0. -1.
         11   -1    0    0    0    0 -0.00000000000E+00 -0.00000000000E+00 -0.45593999997E+02  0.45594000000E+02  0.51100000000E-03 0.  1.
    9900012    2    1    2    0    0  0.38707801046E+01  0.21228977124E+02 -0.37655948642E+02  0.47787275622E+02  0.20000020873E+02 0.  0.
         12    1    1    2    0    0 -0.38707801046E+01 -0.21228977124E+02  0.37655948642E+02  0.43400724378E+02  0.00000000000E+00 0. -1.
         11    1    3    3    0    0 -0.36666494642E+01  0.93747950186E+01 -0.71175063329E+01  0.12328422308E+02  0.51100000000E-03 0. -1.
        -11    1    3    3    0    0  0.33698079555E+00  0.51244083219E+01 -0.24470465371E+01  0.56886864672E+01  0.51100000000E-03 0.  1.
        -12    1    3    3    0    0  0.72004487733E+01  0.67297737838E+01 -0.28091395772E+02  0.29770166848E+02  0.00000000000E+00 0.  1.
</event>
<event>
 7    1  0.2769403E-010  0.4778727E+02  0.7816164E-02  0.1312668E+00
        -11   -1    0    0    0    0  0.00000000000E+00  0.00000000000E+00  0.45593999997E+02  0.45594000000E+02  0.51100000000E-03 0.  1.
         11   -1    0    0    0    0 -0.00000000000E+00 -0.00000000000E+00 -0.45593999997E+02  0.45594000000E+02  0.51100000000E-03 0. -1.
    9900012    2    1    2    0    0  0.18609075045E+02 -0.38556242129E+02  0.71233275798E+01  0.47787271008E+02  0.19999999836E+02 0.  0.
         12    1    1    2    0    0 -0.18609075045E+02  0.38556242129E+02 -0.71233275798E+01  0.43400728992E+02  0.00000000000E+00 0. -1.
         11    1    3    3    0    0  0.57113345590E+01 -0.27690344268E+02  0.24024911267E+00  0.28274232581E+02  0.51100000000E-03 0. -1.
        -11    1    3    3    0    0  0.40380781403E+01 -0.78296094145E+01  0.24047931511E+01  0.91319159551E+01  0.51100000000E-03 0.  1.
        -12    1    3    3    0    0  0.88596623460E+01 -0.30362884467E+01  0.44782853160E+01  0.10381122472E+02  0.00000000000E+00 0.  1.
</event>
<event>
 7    1  0.2769403E-010  0.4778728E+02  0.7816164E-02  0.1312668E+00
        -11   -1    0    0    0    0  0.00000000000E+00  0.00000000000E+00  0.45593999997E+02  0.45594000000E+02  0.51100000000E-03 0. -1.
         11   -1    0    0    0    0 -0.00000000000E+00 -0.00000000000E+00 -0.45593999997E+02  0.45594000000E+02  0.51100000000E-03 0.  1.
    9900012    2    1    2    0    0 -0.29417455308E+02 -0.31909445487E+02  0.15290494405E+00  0.47787276872E+02  0.20000026571E+02 0.  0.
         12    1    1    2    0    0  0.29417455308E+02  0.31909445487E+02 -0.15290494405E+00  0.43400723128E+02  0.00000000000E+00 0. -1.
         11    1    3    3    0    0 -0.47978880280E+01 -0.11631845528E+02 -0.44506844413E+01  0.13346465906E+02  0.51100000000E-03 0. -1.
        -11    1    3    3    0    0 -0.25626539608E+02 -0.20105350497E+02  0.32341772214E+01  0.32732316652E+02  0.51100000000E-03 0.  1.
         12    1    3    3    0    0  0.10069723281E+01 -0.17224946254E+00  0.13694121639E+01  0.17084943141E+01  0.00000000000E+00 0. -1.
</event>
<event>
 7    1  0.2769403E-010  0.4778727E+02  0.7816164E-02  0.1312668E+00
        -11   -1    0    0    0    0  0.00000000000E+00  0.00000000000E+00  0.45593999997E+02  0.45594000000E+02  0.51100000000E-03 0.  1.
         11   -1    0    0    0    0 -0.00000000000E+00 -0.00000000000E+00 -0.45593999997E+02  0.45594000000E+02  0.51100000000E-03 0. -1.
    9900012    2    1    2    0    0  0.40288246796E+02  0.15945145415E+02  0.24965419364E+01  0.47787271736E+02  0.20000003154E+02 0.  0.
         12    1    1    2    0    0 -0.40288246796E+02 -0.15945145415E+02 -0.24965419364E+01  0.43400728264E+02  0.00000000000E+00 0. -1.
         11    1    3    3    0    0  0.77160579212E+01  0.81342817006E+01 -0.13862453403E+01  0.11297157387E+02  0.51100000000E-03 0. -1.
        -11    1    3    3    0    0  0.34949937468E+01  0.61054200156E+01 -0.41674175631E+00  0.70473263589E+01  0.51100000000E-03 0.  1.
        -12    1    3    3    0    0  0.29077195128E+02  0.17054436991E+01  0.42995290330E+01  0.29442787990E+02  0.00000000000E+00 0.  1.
</event>
<event>
 7    1  0.2769403E-010  0.4778727E+02  0.7816164E-02  0.1312668E+00
        -11   -1    0    0    0    0  0.00000000000E+00  0.00000000000E+00  0.45593999997E+02  0.45594000000E+02  0.51100000000E-03 0.  1.
         11   -1    0    0    0    0 -0.00000000000E+00 -0.00000000000E+00 -0.45593999997E+02  0.45594000000E+02  0.51100000000E-03 0. -1.
    9900012    2    1    2    0    0  0.33100947461E+01  0.42175780170E+02  0.96886844193E+01  0.47787265376E+02  0.19999974154E+02 0.  0.
         12    1    1    2    0    0 -0.33100947461E+01 -0.42175780170E+02 -0.96886844193E+01  0.43400734624E+02  0.00000000000E+00 0. -1.
         11    1    3    3    0    0  0.45222237188E+01  0.39188527878E+01 -0.97777360341E+00  0.60633287900E+01  0.51100000000E-03 0. -1.
        -11    1    3    3    0    0  0.49899960949E+01  0.91369864322E+01  0.11873366128E+01  0.10478279944E+02  0.51100000000E-03 0.  1.
         12    1    3    3    0    0 -0.62021250675E+01  0.29119940950E+02  0.94791214100E+01  0.31245656642E+02  0.00000000000E+00 0. -1.
</event>
<event>
 7    1  0.2769403E-010  0.4778727E+02  0.7816164E-02  0.1312668E+00
        -11   -1    0    0    0    0  0.00000000000E+00  0.00000000000E+00  0.45593999997E+02  0.45594000000E+02  0.51100000000E-03 0.  1.
         11   -1    0    0    0    0 -0.00000000000E+00 -0.00000000000E+00 -0.45593999997E+02  0.45594000000E+02  0.51100000000E-03 0. -1.
    9900012    2    1    2    0    0  0.28476347110E+02 -0.26915604918E+02  0.18662029570E+02  0.47787268664E+02  0.19999989146E+02 0.  0.
         12    1    1    2    0    0 -0.28476347110E+02  0.26915604918E+02 -0.18662029570E+02  0.43400731336E+02  0.00000000000E+00 0. -1.
         11    1    3    3    0    0  0.49632471689E+01 -0.31307618245E+01  0.42103825677E+01  0.72223828262E+01  0.51100000000E-03 0. -1.
        -11    1    3    3    0    0  0.20082828235E+02 -0.13083522427E+02  0.24027763718E+01  0.24088833171E+02  0.51100000000E-03 0.  1.
         12    1    3    3    0    0  0.34302717063E+01 -0.10701320667E+02  0.12048870631E+02  0.16476052666E+02  0.00000000000E+00 0. -1.
</event>
<event>
 7    1  0.2769403E-010  0.4778726E+02  0.7816164E-02  0.1312668E+00
        -11   -1    0    0    0    0  0.00000000000E+00  0.00000000000E+00  0.45593999997E+02  0.45594000000E+02  0.51100000000E-03 0.  1.
         11   -1    0    0    0    0 -0.00000000000E+00 -0.00000000000E+00 -0.45593999997E+02  0.45594000000E+02  0.51100000000E-03 0. -1.
    9900012    2    1    2    0    0  0.10151032528E+02 -0.34497794553E+02  0.24299854041E+02  0.47787260412E+02  0.19999951521E+02 0.  0.
         12    1    1    2    0    0 -0.10151032528E+02  0.34497794553E+02 -0.24299854041E+02  0.43400739588E+02  0.00000000000E+00 0. -1.
         11    1    3    3    0    0  0.98267660105E+01 -0.91052748199E+01  0.94335588312E+01  0.16384852525E+02  0.51100000000E-03 0.  1.
        -11    1    3    3    0    0  0.54708689405E+01 -0.10908933585E+02  0.53570739664E+01  0.13327921093E+02  0.51100000000E-03 0. -1.
        -12    1    3    3    0    0 -0.51466024228E+01 -0.14483586148E+02  0.95092212436E+01  0.18074486794E+02  0.00000000000E+00 0.  1.
</event>
<event>
 7    1  0.2769403E-010  0.4778721E+02  0.7816164E-02  0.1312668E+00
        -11   -1    0    0    0    0  0.00000000000E+00  0.00000000000E+00  0.45593999997E+02  0.45594000000E+02  0.51100000000E-03 0.  1.
         11   -1    0    0    0    0 -0.00000000000E+00 -0.00000000000E+00 -0.45593999997E+02  0.45594000000E+02  0.51100000000E-03 0. -1.
    9900012    2    1    2    0    0 -0.25560988368E+02 -0.12750544716E+02  0.32675502470E+02  0.47787205323E+02  0.19999700347E+02 0.  0.
         12    1    1    2    0    0  0.25560988368E+02  0.12750544716E+02 -0.32675502470E+02  0.43400794677E+02  0.00000000000E+00 0. -1.
         11    1    3    3    0    0 -0.28550951378E+01  0.22431913435E+00  0.79371848551E+01  0.84380561153E+01  0.51100000000E-03 0. -1.
        -11    1    3    3    0    0 -0.23385017549E+02 -0.68688316025E+01  0.18550570505E+02  0.30629455752E+02  0.51100000000E-03 0.  1.
         12    1    3    3    0    0  0.67912431884E+00 -0.61060322483E+01  0.61877471100E+01  0.87196934554E+01  0.00000000000E+00 0. -1.
</event>
<event>
 7    1  0.2769403E-010  0.4778727E+02  0.7816164E-02  0.1312668E+00
        -11   -1    0    0    0    0  0.00000000000E+00  0.00000000000E+00  0.45593999997E+02  0.45594000000E+02  0.51100000000E-03 0.  1.
         11   -1    0    0    0    0 -0.00000000000E+00 -0.00000000000E+00 -0.45593999997E+02  0.45594000000E+02  0.51100000000E-03 0. -1.
    9900012    2    1    2    0    0 -0.11168450280E+02 -0.35992927858E+02  0.21526693370E+02  0.47787266540E+02  0.19999979463E+02 0.  0.
         12    1    1    2    0    0  0.11168450280E+02  0.35992927858E+02 -0.21526693370E+02  0.43400733460E+02  0.00000000000E+00 0. -1.
         11    1    3    3    0    0 -0.11461140181E+02 -0.15661396567E+02  0.10551728106E+02  0.22090179786E+02  0.51100000000E-03 0. -1.
        -11    1    3    3    0    0 -0.52090712232E+01 -0.95157987489E+01  0.70736397733E+01  0.12950723097E+02  0.51100000000E-03 0.  1.
        -12    1    3    3    0    0  0.55017611248E+01 -0.10815732542E+02  0.39013254901E+01  0.12746363657E+02  0.00000000000E+00 0.  1.
</event>
<event>
 7    1  0.2769403E-010  0.4778727E+02  0.7816164E-02  0.1312668E+00
        -11   -1    0    0    0    0  0.00000000000E+00  0.00000000000E+00  0.45593999997E+02  0.45594000000E+02  0.51100000000E-03 0.  1.
         11   -1    0    0    0    0 -0.00000000000E+00 -0.00000000000E+00 -0.45593999997E+02  0.45594000000E+02  0.51100000000E-03 0. -1.
    9900012    2    1    2    0    0 -0.33462737274E+02 -0.88197887531E+01  0.26193124680E+02  0.47787271434E+02  0.20000001778E+02 0.  0.
         12    1    1    2    0    0  0.33462737274E+02  0.88197887531E+01 -0.26193124680E+02  0.43400728566E+02  0.00000000000E+00 0. -1.
         11    1    3    3    0    0  0.11895861966E+01 -0.15051591643E+01  0.21962443695E+01  0.29161805535E+01  0.51100000000E-03 0.  1.
        -11    1    3    3    0    0 -0.91756813528E+01 -0.71864466822E+01  0.34901292089E+01  0.12166311946E+02  0.51100000000E-03 0. -1.
         12    1    3    3    0    0 -0.25476642118E+02 -0.12818290657E+00  0.20506751102E+02  0.32704778935E+02  0.00000000000E+00 0. -1.
</event>
<event>
 7    1  0.2769403E-010  0.4778731E+02  0.7816164E-02  0.1312668E+00
        -11   -1    0    0    0    0  0.00000000000E+00  0.00000000000E+00  0.45593999997E+02  0.45594000000E+02  0.51100000000E-03 0.  1.
         11   -1    0    0    0    0 -0.00000000000E+00 -0.00000000000E+00 -0.45593999997E+02  0.45594000000E+02  0.51100000000E-03 0. -1.
    9900012    2    1    2    0    0  0.21506765941E+01  0.25302045849E+02  0.35196605756E+02  0.47787308869E+02  0.20000172455E+02 0.  0.
         12    1    1    2    0    0 -0.21506765941E+01 -0.25302045849E+02 -0.35196605756E+02  0.43400691131E+02  0.00000000000E+00 0. -1.
         11    1    3    3    0    0 -0.33282360003E+01  0.17687638637E+01  0.86037474132E+01  0.93930905612E+01  0.51100000000E-03 0.  1.
        -11    1    3    3    0    0  0.37883921625E+01  0.41426919459E+01  0.22202716027E+00  0.56181053796E+01  0.51100000000E-03 0. -1.
         12    1    3    3    0    0  0.16905204319E+01  0.19390590040E+02  0.26370831182E+02  0.32776112928E+02  0.00000000000E+00 0. -1.
</event>
<event>
 7    1  0.2769403E-010  0.4778727E+02  0.7816164E-02  0.1312668E+00
        -11   -1    0    0    0    0  0.00000000000E+00  0.00000000000E+00  0.45593999997E+02  0.45594000000E+02  0.51100000000E-03 0. -1.
         11   -1    0    0    0    0 -0.00000000000E+00 -0.00000000000E+00 -0.45593999997E+02  0.45594000000E+02  0.51100000000E-03 0.  1.
    9900012    2    1    2    0    0 -0.33843720303E+02  0.24106467430E+02  0.12534125280E+02  0.47787268757E+02  0.19999989570E+02 0.  0.
         12    1    1    2    0    0  0.33843720303E+02 -0.24106467430E+02 -0.12534125280E+02  0.43400731243E+02  0.00000000000E+00 0. -1.
         11    1    3    3    0    0 -0.71350867632E+01 -0.93347430691E+00  0.32379760191E+01  0.78908381279E+01  0.51100000000E-03 0. -1.
        -11    1    3    3    0    0 -0.23430797240E+02  0.15991894642E+02  0.10390307922E+02  0.30210949216E+02  0.51100000000E-03 0.  1.
        -12    1    3    3    0    0 -0.32778363006E+01  0.90480470943E+01 -0.10941586611E+01  0.96854814134E+01  0.00000000000E+00 0.  1.
</event>
<event>
 7    1  0.2769403E-010  0.4778729E+02  0.7816164E-02  0.1312668E+00
        -11   -1    0    0    0    0  0.00000000000E+00  0.00000000000E+00  0.45593999997E+02  0.45594000000E+02  0.51100000000E-03 0. -1.
         11   -1    0    0    0    0 -0.00000000000E+00 -0.00000000000E+00 -0.45593999997E+02  0.45594000000E+02  0.51100000000E-03 0.  1.
    9900012    2    1    2    0    0 -0.10219049265E+02  0.14229704329E+02 -0.39707784236E+02  0.47787290535E+02  0.20000088864E+02 0.  0.
         12    1    1    2    0    0  0.10219049265E+02 -0.14229704329E+02  0.39707784236E+02  0.43400709465E+02  0.00000000000E+00 0. -1.
         11    1    3    3    0    0  0.28479835057E+01  0.31483814420E+01 -0.14506114989E+02  0.15114585277E+02  0.51100000000E-03 0. -1.
        -11    1    3    3    0    0  0.20793464240E+01  0.28954373253E+01 -0.39111024438E+01  0.52918769301E+01  0.51100000000E-03 0.  1.
        -12    1    3    3    0    0 -0.15146379194E+02  0.81858855614E+01 -0.21290566803E+02  0.27380828328E+02  0.00000000000E+00 0.  1.
</event>
<event>
 7    1  0.2769403E-010  0.4778727E+02  0.7816164E-02  0.1312668E+00
        -11   -1    0    0    0    0  0.00000000000E+00  0.00000000000E+00  0.45593999997E+02  0.45594000000E+02  0.51100000000E-03 0. -1.
         11   -1    0    0    0    0 -0.00000000000E+00 -0.00000000000E+00 -0.45593999997E+02  0.45594000000E+02  0.51100000000E-03 0.  1.
    9900012    2    1    2    0    0 -0.30500357330E+00 -0.10937214548E+02 -0.41998901744E+02  0.47787269166E+02  0.19999991436E+02 0.  0.
         12    1    1    2    0    0  0.30500357330E+00  0.10937214548E+02  0.41998901744E+02  0.43400730834E+02  0.00000000000E+00 0. -1.
         11    1    3    3    0    0 -0.44106783634E+01  0.37349239109E+01 -0.70204726532E+01  0.90934469142E+01  0.51100000000E-03 0. -1.
        -11    1    3    3    0    0  0.31048987986E+01 -0.24740577756E+01 -0.12282314171E+02  0.12908005271E+02  0.51100000000E-03 0.  1.
         12    1    3    3    0    0  0.10007759915E+01 -0.12198080683E+02 -0.22696114920E+02  0.25785816981E+02  0.00000000000E+00 0. -1.
</event>
<event>
 7    1  0.2769403E-010  0.4778726E+02  0.7816164E-02  0.1312668E+00
        -11   -1    0    0    0    0  0.00000000000E+00  0.00000000000E+00  0.45593999997E+02  0.45594000000E+02  0.51100000000E-03 0.  1.
         11   -1    0    0    0    0 -0.00000000000E+00 -0.00000000000E+00 -0.45593999997E+02  0.45594000000E+02  0.51100000000E-03 0. -1.
    9900012    2    1    2    0    0  0.16199654456E+02 -0.21808253828E+02  0.33846650159E+02  0.47787257304E+02  0.19999937354E+02 0.  0.
         12    1    1    2    0    0 -0.16199654456E+02  0.21808253828E+02 -0.33846650159E+02  0.43400742696E+02  0.00000000000E+00 0. -1.
         11    1    3    3    0    0  0.26415181809E+01 -0.86053038435E+01  0.12336691284E+02  0.15271634642E+02  0.51100000000E-03 0. -1.
        -11    1    3    3    0    0  0.72930233044E+01 -0.15546222125E+02  0.18304086634E+02  0.25098063651E+02  0.51100000000E-03 0.  1.
         12    1    3    3    0    0  0.62651129708E+01  0.23432721400E+01  0.32058722405E+01  0.74175590110E+01  0.00000000000E+00 0. -1.
</event>
<event>
 7    1  0.2769403E-010  0.4778729E+02  0.7816164E-02  0.1312668E+00
        -11   -1    0    0    0    0  0.00000000000E+00  0.00000000000E+00  0.45593999997E+02  0.45594000000E+02  0.51100000000E-03 0.  1.
         11   -1    0    0    0    0 -0.00000000000E+00 -0.00000000000E+00 -0.45593999997E+02  0.45594000000E+02  0.51100000000E-03 0. -1.
    9900012    2    1    2    0    0  0.13462167146E+02  0.19011677919E+02  0.36618953639E+02  0.47787290245E+02  0.20000087544E+02 0.  0.
         12    1    1    2    0    0 -0.13462167146E+02 -0.19011677919E+02 -0.36618953639E+02  0.43400709755E+02  0.00000000000E+00 0. -1.
         11    1    3    3    0    0  0.76963118220E+01  0.16317599837E+02  0.18377474015E+02  0.25753229536E+02  0.51100000000E-03 0. -1.
        -11    1    3    3    0    0  0.77671647920E+01  0.49829282537E+01  0.12501039133E+02  0.15538159561E+02  0.51100000000E-03 0.  1.
         12    1    3    3    0    0 -0.20013094678E+01 -0.22888501712E+01  0.57404404915E+01  0.64959011483E+01  0.00000000000E+00 0. -1.
</event>
<event>
 7    1  0.2769403E-010  0.4778727E+02  0.7816164E-02  0.1312668E+00
        -11   -1    0    0    0    0  0.00000000000E+00  0.00000000000E+00  0.45593999997E+02  0.45594000000E+02  0.51100000000E-03 0.  1.
         11   -1    0    0    0    0 -0.00000000000E+00 -0.00000000000E+00 -0.45593999997E+02  0.45594000000E+02  0.51100000000E-03 0. -1.
    9900012    2    1    2    0    0 -0.12786417222E+02 -0.10761196883E+02  0.40054055450E+02  0.47787272106E+02  0.20000004840E+02 0.  0.
         12    1    1    2    0    0  0.12786417222E+02  0.10761196883E+02 -0.40054055450E+02  0.43400727894E+02  0.00000000000E+00 0. -1.
         11    1    3    3    0    0 -0.48970987071E+01 -0.80872989909E+00  0.16269579230E+02  0.17009845043E+02  0.51100000000E-03 0. -1.
        -11    1    3    3    0    0 -0.10132875211E+01  0.24493041812E+01  0.12147746015E+02  0.12433566506E+02  0.51100000000E-03 0.  1.
         12    1    3    3    0    0 -0.68760309940E+01 -0.12401771165E+02  0.11636730206E+02  0.18343860557E+02  0.00000000000E+00 0. -1.
</event>
<event>
 7    1  0.2769403E-010  0.4778727E+02  0.7816164E-02  0.1312668E+00
        -11   -1    0    0    0    0  0.00000000000E+00  0.00000000000E+00  0.45593999997E+02  0.45594000000E+02  0.51100000000E-03 0. -1.
         11   -1    0    0    0    0 -0.00000000000E+00 -0.00000000000E+00 -0.45593999997E+02  0.45594000000E+02  0.51100000000E-03 0.  1.
    9900012    2    1    2    0    0  0.39580437787E+02 -0.11493614685E+02  0.13598120791E+02  0.47787272783E+02  0.20000007928E+02 0.  0.
         12    1    1    2    0    0 -0.39580437787E+02  0.11493614685E+02 -0.13598120791E+02  0.43400727217E+02  0.00000000000E+00 0. -1.
         11    1    3    3    0    0  0.73673654375E+01 -0.32806088981E+01 -0.92272348931E+00  0.81173817903E+01  0.51100000000E-03 0. -1.
        -11    1    3    3    0    0  0.12823740861E+02  0.23657405774E+01 -0.34665846857E+00  0.13044739572E+02  0.51100000000E-03 0.  1.
         12    1    3    3    0    0  0.19389331488E+02 -0.10578746364E+02  0.14867502748E+02  0.26625151421E+02  0.00000000000E+00 0. -1.
</event>
<event>
 7    1  0.2769403E-010  0.4778728E+02  0.7816164E-02  0.1312668E+00
        -11   -1    0    0    0    0  0.00000000000E+00  0.00000000000E+00  0.45593999997E+02  0.45594000000E+02  0.51100000000E-03 0. -1.
         11   -1    0    0    0    0 -0.00000000000E+00 -0.00000000000E+00 -0.45593999997E+02  0.45594000000E+02  0.51100000000E-03 0.  1.
    9900012    2    1    2    0    0  0.20421224323E+02 -0.18654056426E+02 -0.33445817431E+02  0.47787275034E+02  0.20000018188E+02 0.  0.
         12    1    1    2    0    0 -0.20421224323E+02  0.18654056426E+02  0.33445817431E+02  0.43400724966E+02  0.00000000000E+00 0. -1.
         11    1    3    3    0    0  0.32067518741E+00 -0.22439709464E+01  0.21129491219E+01  0.30988372717E+01  0.51100000000E-03 0. -1.
        -11    1    3    3    0    0  0.60966679051E+01 -0.67071280996E+01 -0.70746757232E+01  0.11498085221E+02  0.51100000000E-03 0.  1.
        -12    1    3    3    0    0  0.14003881230E+02 -0.97029573799E+01 -0.28484090830E+02  0.33190352541E+02  0.00000000000E+00 0.  1.
</event>
<event>
 7    1  0.2769403E-010  0.4778727E+02  0.7816164E-02  0.1312668E+00
        -11   -1    0    0    0    0  0.00000000000E+00  0.00000000000E+00  0.45593999997E+02  0.45594000000E+02  0.51100000000E-03 0.  1.
         11   -1    0    0    0    0 -0.00000000000E+00 -0.00000000000E+00 -0.45593999997E+02  0.45594000000E+02  0.51100000000E-03 0. -1.
    9900012    2    1    2    0    0 -0.13992157334E+02 -0.40729875682E+02  0.53777607908E+01  0.47787267851E+02  0.19999985441E+02 0.  0.
         12    1    1    2    0    0  0.13992157334E+02  0.40729875682E+02 -0.53777607908E+01  0.43400732149E+02  0.00000000000E+00 0. -1.
         11    1    3    3    0    0 -0.91479287751E+00  0.79381729116E+00  0.21155142206E+00  0.12295308722E+01  0.51100000000E-03 0. -1.
        -11    1    3    3    0    0 -0.77330803239E+00 -0.26415379527E+01 -0.39060112554E+01  0.47783524626E+01  0.51100000000E-03 0.  1.
        -12    1    3    3    0    0 -0.12304056424E+02 -0.38882155020E+02  0.90722206241E+01  0.41779384516E+02  0.00000000000E+00 0.  1.
</event>
<event>
 7    1  0.2769403E-010  0.4778727E+02  0.7816164E-02  0.1312668E+00
        -11   -1    0    0    0    0  0.00000000000E+00  0.00000000000E+00  0.45593999997E+02  0.45594000000E+02  0.51100000000E-03 0.  1.
         11   -1    0    0    0    0 -0.00000000000E+00 -0.00000000000E+00 -0.45593999997E+02  0.45594000000E+02  0.51100000000E-03 0. -1.
    9900012    2    1    2    0    0  0.19878312295E+01 -0.14914915861E+02  0.40708932397E+02  0.47787269994E+02  0.19999995212E+02 0.  0.
         12    1    1    2    0    0 -0.19878312295E+01  0.14914915861E+02 -0.40708932397E+02  0.43400730006E+02  0.00000000000E+00 0. -1.
         11    1    3    3    0    0 -0.69902985373E+00 -0.73200874550E+01  0.32777941337E+01  0.80508544720E+01  0.51100000000E-03 0.  1.
        -11    1    3    3    0    0  0.35765685218E+00 -0.16189893930E+01 -0.10015358809E+00  0.16610466823E+01  0.51100000000E-03 0. -1.
        -12    1    3    3    0    0  0.23292042310E+01 -0.59758390129E+01  0.37531291851E+02  0.38075368840E+02  0.00000000000E+00 0.  1.
</event>
<event>
 7    1  0.2769403E-010  0.4778727E+02  0.7816164E-02  0.1312668E+00
        -11   -1    0    0    0    0  0.00000000000E+00  0.00000000000E+00  0.45593999997E+02  0.45594000000E+02  0.51100000000E-03 0.  1.
         11   -1    0    0    0    0 -0.00000000000E+00 -0.00000000000E+00 -0.45593999997E+02  0.45594000000E+02  0.51100000000E-03 0. -1.
    9900012    2    1    2    0    0 -0.76918009728E+01  0.26919780042E+02  0.33163004881E+02  0.47787271292E+02  0.20000001127E+02 0.  0.
         12    1    1    2    0    0  0.76918009728E+01 -0.26919780042E+02 -0.33163004881E+02  0.43400728708E+02  0.00000000000E+00 0. -1.
         11    1    3    3    0    0  0.24698556183E+01  0.13137772483E+02  0.16468740046E+02  0.21211333092E+02  0.51100000000E-03 0. -1.
        -11    1    3    3    0    0 -0.65354532821E+00  0.67223944980E+01  0.12131561689E+02  0.13884973841E+02  0.51100000000E-03 0.  1.
         12    1    3    3    0    0 -0.95081112629E+01  0.70596130607E+01  0.45627031454E+01  0.12690964358E+02  0.00000000000E+00 0. -1.
</event>
<event>
 7    1  0.2769403E-010  0.4778727E+02  0.7816164E-02  0.1312668E+00
        -11   -1    0    0    0    0  0.00000000000E+00  0.00000000000E+00  0.45593999997E+02  0.45594000000E+02  0.51100000000E-03 0.  1.
         11   -1    0    0    0    0 -0.00000000000E+00 -0.00000000000E+00 -0.45593999997E+02  0.45594000000E+02  0.51100000000E-03 0. -1.
    9900012    2    1    2    0    0  0.28143713758E+02 -0.23992668488E+02  0.22713576019E+02  0.47787270733E+02  0.19999998582E+02 0.  0.
         12    1    1    2    0    0 -0.28143713758E+02  0.23992668488E+02 -0.22713576019E+02  0.43400729267E+02  0.00000000000E+00 0. -1.
         11    1    3    3    0    0  0.68369826391E+01 -0.65370605897E+01  0.39343466453E+01  0.10244831699E+02  0.51100000000E-03 0.  1.
        -11    1    3    3    0    0  0.16348487367E+02 -0.11150713851E+02  0.32365025512E+01  0.20052092349E+02  0.51100000000E-03 0. -1.
         12    1    3    3    0    0  0.49582437527E+01 -0.63048940473E+01  0.15542726823E+02  0.17490346685E+02  0.00000000000E+00 0. -1.
</event>
<event>
 7    1  0.2769403E-010  0.4778727E+02  0.7816164E-02  0.1312668E+00
        -11   -1    0    0    0    0  0.00000000000E+00  0.00000000000E+00  0.45593999997E+02  0.45594000000E+02  0.51100000000E-03 0. -1.
         11   -1    0    0    0    0 -0.00000000000E+00 -0.00000000000E+00 -0.45593999997E+02  0.45594000000E+02  0.51100000000E-03 0.  1.
    9900012    2    1    2    0    0 -0.64685857125E+01 -0.27480926835E+02 -0.32963306234E+02  0.47787268455E+02  0.19999988192E+02 0.  0.
         12    1    1    2    0    0  0.64685857125E+01  0.27480926835E+02  0.32963306234E+02  0.43400731545E+02  0.00000000000E+00 0. -1.
         11    1    3    3    0    0 -0.86949153370E+01 -0.40167498496E+01 -0.90332230191E+01  0.13165673186E+02  0.51100000000E-03 0. -1.
        -11    1    3    3    0    0 -0.26806649068E+01 -0.10331286031E+02 -0.76210593495E+01  0.13114952583E+02  0.51100000000E-03 0.  1.
        -12    1    3    3    0    0  0.49069945313E+01 -0.13132890954E+02 -0.16309023865E+02  0.21506642685E+02  0.00000000000E+00 0.  1.
</event>
<event>
 7    1  0.2769403E-010  0.4778726E+02  0.7816164E-02  0.1312668E+00
        -11   -1    0    0    0    0  0.00000000000E+00  0.00000000000E+00  0.45593999997E+02  0.45594000000E+02  0.51100000000E-03 0.  1.
         11   -1    0    0    0    0 -0.00000000000E+00 -0.00000000000E+00 -0.45593999997E+02  0.45594000000E+02  0.51100000000E-03 0. -1.
    9900012    2    1    2    0    0 -0.10954063768E+02  0.31233467020E+02  0.28073183275E+02  0.47787255832E+02  0.19999930641E+02 0.  0.
         12    1    1    2    0    0  0.10954063768E+02 -0.31233467020E+02 -0.28073183275E+02  0.43400744168E+02  0.00000000000E+00 0. -1.
         11    1    3    3    0    0 -0.13057736908E+01  0.11879535936E+02  0.65419203369E+01  0.13624431765E+02  0.51100000000E-03 0. -1.
        -11    1    3    3    0    0 -0.13897700600E+01  0.16671521958E+02  0.18556211470E+02  0.24984076721E+02  0.51100000000E-03 0.  1.
         12    1    3    3    0    0 -0.82585200177E+01  0.26824091267E+01  0.29750514677E+01  0.91787473460E+01  0.00000000000E+00 0. -1.
</event>
<event>
 7    1  0.2769403E-010  0.4778726E+02  0.7816164E-02  0.1312668E+00
        -11   -1    0    0    0    0  0.00000000000E+00  0.00000000000E+00  0.45593999997E+02  0.45594000000E+02  0.51100000000E-03 0.  1.
         11   -1    0    0    0    0 -0.00000000000E+00 -0.00000000000E+00 -0.45593999997E+02  0.45594000000E+02  0.51100000000E-03 0. -1.
    9900012    2    1    2    0    0  0.42772166381E+02  0.31679910772E+01  0.66430007809E+01  0.47787264479E+02  0.19999970065E+02 0.  0.
         12    1    1    2    0    0 -0.42772166381E+02 -0.31679910772E+01 -0.66430007809E+01  0.43400735521E+02  0.00000000000E+00 0. -1.
         11    1    3    3    0    0  0.67678196370E+01  0.56755102874E+01 -0.24533888617E+01  0.91670015179E+01  0.51100000000E-03 0. -1.
        -11    1    3    3    0    0  0.98222321157E+01 -0.13308110900E+01 -0.20805032462E+01  0.10127970967E+02  0.51100000000E-03 0.  1.
         12    1    3    3    0    0  0.26182114628E+02 -0.11767081203E+01  0.11176892889E+02  0.28492291994E+02  0.00000000000E+00 0. -1.
</event>
<event>
 7    1  0.2769403E-010  0.4778727E+02  0.7816164E-02  0.1312668E+00
        -11   -1    0    0    0    0  0.00000000000E+00  0.00000000000E+00  0.45593999997E+02  0.45594000000E+02  0.51100000000E-03 0. -1.
         11   -1    0    0    0    0 -0.00000000000E+00 -0.00000000000E+00 -0.45593999997E+02  0.45594000000E+02  0.51100000000E-03 0.  1.
    9900012    2    1    2    0    0 -0.25595337408E+02 -0.31810260150E+01 -0.34905347580E+02  0.47787268287E+02  0.19999987429E+02 0.  0.
         12    1    1    2    0    0  0.25595337408E+02  0.31810260150E+01  0.34905347580E+02  0.43400731713E+02  0.00000000000E+00 0. -1.
         11    1    3    3    0    0 -0.13734975496E+01  0.47570359215E+01 -0.75063411058E+01  0.89922768715E+01  0.51100000000E-03 0. -1.
        -11    1    3    3    0    0 -0.17115757646E+02 -0.68137551143E+00 -0.19296082603E+02  0.25802175034E+02  0.51100000000E-03 0.  1.
         12    1    3    3    0    0 -0.71060822123E+01 -0.72566864250E+01 -0.81029238711E+01  0.12992816382E+02  0.00000000000E+00 0. -1.
</event>
<event>
 7    1  0.2769403E-010  0.4778727E+02  0.7816164E-02  0.1312668E+00
        -11   -1    0    0    0    0  0.00000000000E+00  0.00000000000E+00  0.45593999997E+02  0.45594000000E+02  0.51100000000E-03 0.  1.
         11   -1    0    0    0    0 -0.00000000000E+00 -0.00000000000E+00 -0.45593999997E+02  0.45594000000E+02  0.51100000000E-03 0. -1.
    9900012    2    1    2    0    0 -0.94448554717E+01 -0.36350340308E+02  0.21750185610E+02  0.47787272939E+02  0.20000008637E+02 0.  0.
         12    1    1    2    0    0  0.94448554717E+01  0.36350340308E+02 -0.21750185610E+02  0.43400727061E+02  0.00000000000E+00 0. -1.
         11    1    3    3    0    0 -0.85884442784E+01 -0.20299360493E+02  0.86241358368E+01  0.23668568413E+02  0.51100000000E-03 0. -1.
        -11    1    3    3    0    0 -0.58861686316E+01 -0.11050142806E+02  0.11126077648E+02  0.16749395251E+02  0.51100000000E-03 0.  1.
        -12    1    3    3    0    0  0.50297574384E+01 -0.50008370087E+01  0.19999721249E+01  0.73693092741E+01  0.00000000000E+00 0.  1.
</event>
<event>
 7    1  0.4100909E-010  0.4778727E+02  0.7816164E-02  0.1312668E+00
        -11   -1    0    0    0    0  0.00000000000E+00  0.00000000000E+00  0.45593999997E+02  0.45594000000E+02  0.51100000000E-03 0. -1.
         11   -1    0    0    0    0 -0.00000000000E+00 -0.00000000000E+00 -0.45593999997E+02  0.45594000000E+02  0.51100000000E-03 0.  1.
    9900012    2    1    2    0    0 -0.42157371852E+02 -0.10265468840E+02  0.99966436614E+00  0.47787272116E+02  0.20000004886E+02 0.  0.
         12    1    1    2    0    0  0.42157371852E+02  0.10265468840E+02 -0.99966436614E+00  0.43400727884E+02  0.00000000000E+00 0. -1.
         11    1    3    3    0    0 -0.69403488221E+01 -0.36064951684E+01  0.40923108205E+01  0.88273584546E+01  0.51100000000E-03 0. -1.
        -11    1    3    3    0    0 -0.34554035880E+02 -0.84860499668E+01 -0.33036820240E+00  0.35582349318E+02  0.51100000000E-03 0.  1.
        -12    1    3    3    0    0 -0.66298715076E+00  0.18270762951E+01 -0.27622782520E+01  0.33775643431E+01  0.00000000000E+00 0.  1.
</event>
<event>
 7    1  0.2769403E-010  0.4778727E+02  0.7816164E-02  0.1312668E+00
        -11   -1    0    0    0    0  0.00000000000E+00  0.00000000000E+00  0.45593999997E+02  0.45594000000E+02  0.51100000000E-03 0.  1.
         11   -1    0    0    0    0 -0.00000000000E+00 -0.00000000000E+00 -0.45593999997E+02  0.45594000000E+02  0.51100000000E-03 0. -1.
    9900012    2    1    2    0    0 -0.23396387408E+02 -0.22792375292E+02  0.28578663044E+02  0.47787270783E+02  0.19999998807E+02 0.  0.
         12    1    1    2    0    0  0.23396387408E+02  0.22792375292E+02 -0.28578663044E+02  0.43400729217E+02  0.00000000000E+00 0. -1.
         11    1    3    3    0    0 -0.65692601356E+01 -0.21082605759E+01  0.18914090462E+01  0.71538360218E+01  0.51100000000E-03 0. -1.
        -11    1    3    3    0    0 -0.58968974245E+01  0.79961706659E+00  0.87740200139E+01  0.10601708077E+02  0.51100000000E-03 0.  1.
         12    1    3    3    0    0 -0.10930229848E+02 -0.21483731783E+02  0.17913233984E+02  0.30031726684E+02  0.00000000000E+00 0. -1.
</event>
<event>
 7    1  0.2769403E-010  0.4778728E+02  0.7816164E-02  0.1312668E+00
        -11   -1    0    0    0    0  0.00000000000E+00  0.00000000000E+00  0.45593999997E+02  0.45594000000E+02  0.51100000000E-03 0. -1.
         11   -1    0    0    0    0 -0.00000000000E+00 -0.00000000000E+00 -0.45593999997E+02  0.45594000000E+02  0.51100000000E-03 0.  1.
    9900012    2    1    2    0    0  0.30821890677E+01 -0.15954655084E+02 -0.40243905663E+02  0.47787275913E+02  0.20000022197E+02 0.  0.
         12    1    1    2    0    0 -0.30821890677E+01  0.15954655084E+02  0.40243905663E+02  0.43400724087E+02  0.00000000000E+00 0. -1.
         11    1    3    3    0    0  0.17025510653E+01  0.24393038011E+01 -0.22028826431E+01  0.37015639079E+01  0.51100000000E-03 0. -1.
        -11    1    3    3    0    0 -0.41654602793E+01 -0.53918826004E+01 -0.60532628437E+01  0.91140248316E+01  0.51100000000E-03 0.  1.
        -12    1    3    3    0    0  0.55450982817E+01 -0.13002076285E+02 -0.31987760176E+02  0.34971687173E+02  0.00000000000E+00 0.  1.
</event>
<event>
 7    1  0.2769403E-010  0.4778727E+02  0.7816164E-02  0.1312668E+00
        -11   -1    0    0    0    0  0.00000000000E+00  0.00000000000E+00  0.45593999997E+02  0.45594000000E+02  0.51100000000E-03 0. -1.
         11   -1    0    0    0    0 -0.00000000000E+00 -0.00000000000E+00 -0.45593999997E+02  0.45594000000E+02  0.51100000000E-03 0.  1.
    9900012    2    1    2    0    0  0.16468352210E+02 -0.32267648890E+02 -0.23900113613E+02  0.47787271664E+02  0.20000002824E+02 0.  0.
         12    1    1    2    0    0 -0.16468352210E+02  0.32267648890E+02  0.23900113613E+02  0.43400728336E+02  0.00000000000E+00 0. -1.
         11    1    3    3    0    0  0.11563662864E+02 -0.28435140103E+02 -0.10123500110E+02  0.32322758952E+02  0.51100000000E-03 0. -1.
        -11    1    3    3    0    0  0.25198173375E+01 -0.32846222375E+01 -0.58345945044E+01  0.71540698871E+01  0.51100000000E-03 0.  1.
         12    1    3    3    0    0  0.23848720087E+01 -0.54788654899E+00 -0.79420189986E+01  0.83104428247E+01  0.00000000000E+00 0. -1.
</event>
<event>
 7    1  0.2769403E-010  0.4778727E+02  0.7816164E-02  0.1312668E+00
        -11   -1    0    0    0    0  0.00000000000E+00  0.00000000000E+00  0.45593999997E+02  0.45594000000E+02  0.51100000000E-03 0.  1.
         11   -1    0    0    0    0 -0.00000000000E+00 -0.00000000000E+00 -0.45593999997E+02  0.45594000000E+02  0.51100000000E-03 0. -1.
    9900012    2    1    2    0    0  0.40032610169E+02  0.21137107193E+00  0.16762128986E+02  0.47787268177E+02  0.19999986925E+02 0.  0.
         12    1    1    2    0    0 -0.40032610169E+02 -0.21137107193E+00 -0.16762128986E+02  0.43400731823E+02  0.00000000000E+00 0. -1.
         11    1    3    3    0    0  0.12986753581E+02 -0.92291753550E+01  0.67001542933E+01  0.17283677679E+02  0.51100000000E-03 0. -1.
        -11    1    3    3    0    0  0.84187514197E+01  0.15187952579E+01  0.29813904034E+01  0.90592937639E+01  0.51100000000E-03 0.  1.
         12    1    3    3    0    0  0.18627105168E+02  0.79217511690E+01  0.70805842894E+01  0.21444296734E+02  0.00000000000E+00 0. -1.
</event>
<event>
 7    1  0.2769403E-010  0.4778727E+02  0.7816164E-02  0.1312668E+00
        -11   -1    0    0    0    0  0.00000000000E+00  0.00000000000E+00  0.45593999997E+02  0.45594000000E+02  0.51100000000E-03 0. -1.
         11   -1    0    0    0    0 -0.00000000000E+00 -0.00000000000E+00 -0.45593999997E+02  0.45594000000E+02  0.51100000000E-03 0.  1.
    9900012    2    1    2    0    0  0.24402180481E+02 -0.77289689622E+01 -0.35048819569E+02  0.47787272741E+02  0.20000007735E+02 0.  0.
         12    1    1    2    0    0 -0.24402180481E+02  0.77289689622E+01  0.35048819569E+02  0.43400727259E+02  0.00000000000E+00 0. -1.
         11    1    3    3    0    0 -0.55372154230E+00  0.12515821958E+01 -0.31857233671E+00  0.14051882913E+01  0.51100000000E-03 0. -1.
        -11    1    3    3    0    0  0.16368236530E+02 -0.78644320210E+00 -0.28746736263E+02  0.33089462161E+02  0.51100000000E-03 0.  1.
        -12    1    3    3    0    0  0.85876654929E+01 -0.81941079558E+01 -0.59835109688E+01  0.13292622289E+02  0.00000000000E+00 0.  1.
</event>
<event>
 7    1  0.2769403E-010  0.4778727E+02  0.7816164E-02  0.1312668E+00
        -11   -1    0    0    0    0  0.00000000000E+00  0.00000000000E+00  0.45593999997E+02  0.45594000000E+02  0.51100000000E-03 0. -1.
         11   -1    0    0    0    0 -0.00000000000E+00 -0.00000000000E+00 -0.45593999997E+02  0.45594000000E+02  0.51100000000E-03 0.  1.
    9900012    2    1    2    0    0 -0.21798032330E+02  0.27440441162E+02 -0.25602567215E+02  0.47787268755E+02  0.19999989562E+02 0.  0.
         12    1    1    2    0    0  0.21798032330E+02 -0.27440441162E+02  0.25602567215E+02  0.43400731245E+02  0.00000000000E+00 0. -1.
         11    1    3    3    0    0 -0.40461996109E+01  0.12549665863E+01 -0.85921326919E+01  0.95797399172E+01  0.51100000000E-03 0. -1.
        -11    1    3    3    0    0 -0.94924676714E+01  0.17864398658E+02 -0.17091140095E+02  0.26483027620E+02  0.51100000000E-03 0.  1.
         12    1    3    3    0    0 -0.82593650476E+01  0.83210759180E+01  0.80705572458E-01  0.11724501218E+02  0.00000000000E+00 0. -1.
</event>
<event>
 7    1  0.2954850E-010  0.4778727E+02  0.7816164E-02  0.1312668E+00
        -11   -1    0    0    0    0  0.00000000000E+00  0.00000000000E+00  0.45593999997E+02  0.45594000000E+02  0.51100000000E-03 0.  1.
         11   -1    0    0    0    0 -0.00000000000E+00 -0.00000000000E+00 -0.45593999997E+02  0.45594000000E+02  0.51100000000E-03 0. -1.
    9900012    2    1    2    0    0  0.68426247387E+01 -0.38213302334E+02  0.19404769522E+02  0.47787273407E+02  0.20000010772E+02 0.  0.
         12    1    1    2    0    0 -0.68426247387E+01  0.38213302334E+02 -0.19404769522E+02  0.43400726593E+02  0.00000000000E+00 0. -1.
         11    1    3    3    0    0  0.22482496891E+01 -0.14774111419E+02 -0.67339467396E+00  0.14959360131E+02  0.51100000000E-03 0. -1.
        -11    1    3    3    0    0  0.11353632569E+01 -0.18706591623E+02  0.10188415958E+02  0.21331419078E+02  0.51100000000E-03 0.  1.
         12    1    3    3    0    0  0.34590117927E+01 -0.47325992922E+01  0.98897482379E+01  0.11496494198E+02  0.00000000000E+00 0. -1.
</event>
<event>
 7    1  0.2769403E-010  0.4778728E+02  0.7816164E-02  0.1312668E+00
        -11   -1    0    0    0    0  0.00000000000E+00  0.00000000000E+00  0.45593999997E+02  0.45594000000E+02  0.51100000000E-03 0. -1.
         11   -1    0    0    0    0 -0.00000000000E+00 -0.00000000000E+00 -0.45593999997E+02  0.45594000000E+02  0.51100000000E-03 0.  1.
    9900012    2    1    2    0    0 -0.11402995375E+02 -0.41854483493E+02  0.13404354090E+01  0.47787275823E+02  0.20000021787E+02 0.  0.
         12    1    1    2    0    0  0.11402995375E+02  0.41854483493E+02 -0.13404354090E+01  0.43400724177E+02  0.00000000000E+00 0. -1.
         11    1    3    3    0    0 -0.12646514185E+01  0.13534888518E+00  0.73938587700E+00  0.14711744516E+01  0.51100000000E-03 0. -1.
        -11    1    3    3    0    0 -0.14475104414E+02 -0.28019506759E+02 -0.13042176574E+01  0.31564574934E+02  0.51100000000E-03 0.  1.
        -12    1    3    3    0    0  0.43367604567E+01 -0.13970325620E+02  0.19052671894E+01  0.14751526438E+02  0.00000000000E+00 0.  1.
</event>
<event>
 7    1  0.2769403E-010  0.4778727E+02  0.7816164E-02  0.1312668E+00
        -11   -1    0    0    0    0  0.00000000000E+00  0.00000000000E+00  0.45593999997E+02  0.45594000000E+02  0.51100000000E-03 0. -1.
         11   -1    0    0    0    0 -0.00000000000E+00 -0.00000000000E+00 -0.45593999997E+02  0.45594000000E+02  0.51100000000E-03 0.  1.
    9900012    2    1    2    0    0 -0.11256012313E+02  0.41548662044E+02  0.55348189159E+01  0.47787270153E+02  0.19999995936E+02 0.  0.
         12    1    1    2    0    0  0.11256012313E+02 -0.41548662044E+02 -0.55348189159E+01  0.43400729847E+02  0.00000000000E+00 0. -1.
         11    1    3    3    0    0 -0.32066881361E+01  0.37346097899E+01  0.28468740550E+01  0.56863741726E+01  0.51100000000E-03 0. -1.
        -11    1    3    3    0    0 -0.11202873291E+02  0.14053462103E+02  0.23863187593E+01  0.18130049215E+02  0.51100000000E-03 0.  1.
         12    1    3    3    0    0  0.31535491142E+01  0.23760590151E+02  0.30162610162E+00  0.23970846765E+02  0.00000000000E+00 0. -1.
</event>
<event>
 7    1  0.2769403E-010  0.4778727E+02  0.7816164E-02  0.1312668E+00
        -11   -1    0    0    0    0  0.00000000000E+00  0.00000000000E+00  0.45593999997E+02  0.45594000000E+02  0.51100000000E-03 0. -1.
         11   -1    0    0    0    0 -0.00000000000E+00 -0.00000000000E+00 -0.45593999997E+02  0.45594000000E+02  0.51100000000E-03 0.  1.
    9900012    2    1    2    0    0  0.18735820712E+02  0.21660384066E+02 -0.32610122276E+02  0.47787270852E+02  0.19999999125E+02 0.  0.
         12    1    1    2    0    0 -0.18735820712E+02 -0.21660384066E+02  0.32610122276E+02  0.43400729148E+02  0.00000000000E+00 0. -1.
         11    1    3    3    0    0  0.16458556470E+02  0.10077973600E+02 -0.13737844967E+02  0.23689196220E+02  0.51100000000E-03 0. -1.
        -11    1    3    3    0    0  0.41644440759E+01  0.16545020580E+01 -0.34304278603E+01  0.56433861367E+01  0.51100000000E-03 0.  1.
        -12    1    3    3    0    0 -0.18871798329E+01  0.99279084086E+01 -0.15441849448E+02  0.18454688496E+02  0.00000000000E+00 0.  1.
</event>
<event>
 7    1  0.2769403E-010  0.4778728E+02  0.7816164E-02  0.1312668E+00
        -11   -1    0    0    0    0  0.00000000000E+00  0.00000000000E+00  0.45593999997E+02  0.45594000000E+02  0.51100000000E-03 0. -1.
         11   -1    0    0    0    0 -0.00000000000E+00 -0.00000000000E+00 -0.45593999997E+02  0.45594000000E+02  0.51100000000E-03 0.  1.
    9900012    2    1    2    0    0 -0.31672714728E+02  0.23950284070E+02 -0.17517003023E+02  0.47787281571E+02  0.20000047993E+02 0.  0.
         12    1    1    2    0    0  0.31672714728E+02 -0.23950284070E+02  0.17517003023E+02  0.43400718429E+02  0.00000000000E+00 0. -1.
         11    1    3    3    0    0 -0.80053215391E+01 -0.27951932673E+00  0.37391463398E-01  0.80102872845E+01  0.51100000000E-03 0. -1.
        -11    1    3    3    0    0 -0.42539838368E+01  0.37166078875E+01 -0.83319045334E+01  0.10066289589E+02  0.51100000000E-03 0.  1.
        -12    1    3    3    0    0 -0.19413409352E+02  0.20513195509E+02 -0.92224899528E+01  0.29710704697E+02  0.00000000000E+00 0.  1.
</event>
<event>
 7    1  0.2769403E-010  0.4778727E+02  0.7816164E-02  0.1312668E+00
        -11   -1    0    0    0    0  0.00000000000E+00  0.00000000000E+00  0.45593999997E+02  0.45594000000E+02  0.51100000000E-03 0.  1.
         11   -1    0    0    0    0 -0.00000000000E+00 -0.00000000000E+00 -0.45593999997E+02  0.45594000000E+02  0.51100000000E-03 0. -1.
    9900012    2    1    2    0    0 -0.14296601646E+02 -0.40397570433E+02 -0.68751134975E+01  0.47787266122E+02  0.19999977559E+02 0.  0.
         12    1    1    2    0    0  0.14296601646E+02  0.40397570433E+02  0.68751134975E+01  0.43400733878E+02  0.00000000000E+00 0. -1.
         11    1    3    3    0    0 -0.27667757204E+01 -0.13459751252E+02 -0.35048319749E+01  0.14181107118E+02  0.51100000000E-03 0. -1.
        -11    1    3    3    0    0 -0.10910552687E+02 -0.28623196083E+02 -0.10208164190E+01  0.30649136698E+02  0.51100000000E-03 0.  1.
        -12    1    3    3    0    0 -0.61927323870E+00  0.16853769021E+01 -0.23494651036E+01  0.29570223062E+01  0.00000000000E+00 0.  1.
</event>
<event>
 7    1  0.2977963E-010  0.4778728E+02  0.7816164E-02  0.1312668E+00
        -11   -1    0    0    0    0  0.00000000000E+00  0.00000000000E+00  0.45593999997E+02  0.45594000000E+02  0.51100000000E-03 0. -1.
         11   -1    0    0    0    0 -0.00000000000E+00 -0.00000000000E+00 -0.45593999997E+02  0.45594000000E+02  0.51100000000E-03 0.  1.
    9900012    2    1    2    0    0 -0.36660402548E+02 -0.81248691607E+01 -0.21762907182E+02  0.47787277162E+02  0.20000027892E+02 0.  0.
         12    1    1    2    0    0  0.36660402548E+02  0.81248691607E+01  0.21762907182E+02  0.43400722838E+02  0.00000000000E+00 0. -1.
         11    1    3    3    0    0 -0.14676010011E+02  0.13586142740E+01 -0.34528989030E+01  0.15137820639E+02  0.51100000000E-03 0. -1.
        -11    1    3    3    0    0 -0.19312342269E+02 -0.36196770913E+01 -0.97489260322E+01  0.21934224062E+02  0.51100000000E-03 0.  1.
         12    1    3    3    0    0 -0.26720502682E+01 -0.58638063433E+01 -0.85610822469E+01  0.10715232462E+02  0.00000000000E+00 0. -1.
</event>
<event>
 7    1  0.2769403E-010  0.4778727E+02  0.7816164E-02  0.1312668E+00
        -11   -1    0    0    0    0  0.00000000000E+00  0.00000000000E+00  0.45593999997E+02  0.45594000000E+02  0.51100000000E-03 0. -1.
         11   -1    0    0    0    0 -0.00000000000E+00 -0.00000000000E+00 -0.45593999997E+02  0.45594000000E+02  0.51100000000E-03 0.  1.
    9900012    2    1    2    0    0  0.77893741597E+01 -0.32255955566E+01 -0.42573987124E+02  0.47787271940E+02  0.20000004085E+02 0.  0.
         12    1    1    2    0    0 -0.77893741597E+01  0.32255955566E+01  0.42573987124E+02  0.43400728060E+02  0.00000000000E+00 0. -1.
         11    1    3    3    0    0  0.85146065857E+00  0.23923511679E+01  0.32475097918E+00  0.25600376605E+01  0.51100000000E-03 0. -1.
        -11    1    3    3    0    0  0.56507849630E+01  0.16313362139E+01 -0.10828639629E+02  0.12322826990E+02  0.51100000000E-03 0.  1.
        -12    1    3    3    0    0  0.12871285381E+01 -0.72492829384E+01 -0.32070098474E+02  0.32904407290E+02  0.00000000000E+00 0.  1.
</event>
<event>
 7    1  0.2769403E-010  0.4778725E+02  0.7816164E-02  0.1312668E+00
        -11   -1    0    0    0    0  0.00000000000E+00  0.00000000000E+00  0.45593999997E+02  0.45594000000E+02  0.51100000000E-03 0.  1.
         11   -1    0    0    0    0 -0.00000000000E+00 -0.00000000000E+00 -0.45593999997E+02  0.45594000000E+02  0.51100000000E-03 0. -1.
    9900012    2    1    2    0    0  0.11173391502E+02 -0.15822739068E+02  0.38838401427E+02  0.47787249146E+02  0.19999900158E+02 0.  0.
         12    1    1    2    0    0 -0.11173391502E+02  0.15822739068E+02 -0.38838401427E+02  0.43400750854E+02  0.00000000000E+00 0. -1.
         11    1    3    3    0    0  0.11115855027E+02 -0.55054524201E+01  0.23297957112E+02  0.26394451030E+02  0.51100000000E-03 0. -1.
        -11    1    3    3    0    0  0.26453984064E+01 -0.41552407420E+01  0.13552621758E+02  0.14420045600E+02  0.51100000000E-03 0.  1.
        -12    1    3    3    0    0 -0.25878619324E+01 -0.61620459057E+01  0.19878225577E+01  0.69727525158E+01  0.00000000000E+00 0.  1.
</event>
<event>
 7    1  0.2769403E-010  0.4778727E+02  0.7816164E-02  0.1312668E+00
        -11   -1    0    0    0    0  0.00000000000E+00  0.00000000000E+00  0.45593999997E+02  0.45594000000E+02  0.51100000000E-03 0.  1.
         11   -1    0    0    0    0 -0.00000000000E+00 -0.00000000000E+00 -0.45593999997E+02  0.45594000000E+02  0.51100000000E-03 0. -1.
    9900012    2    1    2    0    0 -0.19120835093E+02  0.36501724543E+02  0.13625015335E+02  0.47787271064E+02  0.20000000091E+02 0.  0.
         12    1    1    2    0    0  0.19120835093E+02 -0.36501724543E+02 -0.13625015335E+02  0.43400728936E+02  0.00000000000E+00 0. -1.
         11    1    3    3    0    0 -0.67061618514E+01  0.11344809532E+02 -0.59381404713E+00  0.13192040232E+02  0.51100000000E-03 0. -1.
        -11    1    3    3    0    0 -0.11530544232E+02  0.74407798125E+01  0.74049848515E+01  0.15593346511E+02  0.51100000000E-03 0.  1.
        -12    1    3    3    0    0 -0.88412901005E+00  0.17716135199E+02  0.68138445302E+01  0.19001884322E+02  0.00000000000E+00 0.  1.
</event>
<event>
 7    1  0.2769403E-010  0.4778727E+02  0.7816164E-02  0.1312668E+00
        -11   -1    0    0    0    0  0.00000000000E+00  0.00000000000E+00  0.45593999997E+02  0.45594000000E+02  0.51100000000E-03 0. -1.
         11   -1    0    0    0    0 -0.00000000000E+00 -0.00000000000E+00 -0.45593999997E+02  0.45594000000E+02  0.51100000000E-03 0.  1.
    9900012    2    1    2    0    0 -0.16925707337E+02 -0.96085326003E+01 -0.38792012129E+02  0.47787266451E+02  0.19999979055E+02 0.  0.
         12    1    1    2    0    0  0.16925707337E+02  0.96085326003E+01  0.38792012129E+02  0.43400733549E+02  0.00000000000E+00 0. -1.
         11    1    3    3    0    0 -0.87917820334E+01 -0.48627641525E+01 -0.95246099782E+01  0.13844136016E+02  0.51100000000E-03 0. -1.
        -11    1    3    3    0    0 -0.11003162112E+02  0.47829555061E+00 -0.16305376531E+02  0.19676474460E+02  0.51100000000E-03 0.  1.
         12    1    3    3    0    0  0.28692368086E+01 -0.52240639984E+01 -0.12962025620E+02  0.14266655975E+02  0.00000000000E+00 0. -1.
</event>
<event>
 7    1  0.2769403E-010  0.4778728E+02  0.7816164E-02  0.1312668E+00
        -11   -1    0    0    0    0  0.00000000000E+00  0.00000000000E+00  0.45593999997E+02  0.45594000000E+02  0.51100000000E-03 0.  1.
         11   -1    0    0    0    0 -0.00000000000E+00 -0.00000000000E+00 -0.45593999997E+02  0.45594000000E+02  0.51100000000E-03 0. -1.
    9900012    2    1    2    0    0  0.42386188472E+02  0.21115846898E+01  0.90870832731E+01  0.47787275979E+02  0.20000022499E+02 0.  0.
         12    1    1    2    0    0 -0.42386188472E+02 -0.21115846898E+01 -0.90870832731E+01  0.43400724021E+02  0.00000000000E+00 0. -1.
         11    1    3    3    0    0  0.41603014418E+01  0.15898350619E+00 -0.29484112999E+01  0.51016186937E+01  0.51100000000E-03 0.  1.
        -11    1    3    3    0    0  0.88773905647E+01 -0.48130546246E+01  0.66461352000E+01  0.12089031037E+02  0.51100000000E-03 0. -1.
        -12    1    3    3    0    0  0.29348496466E+02  0.67656558082E+01  0.53893593730E+01  0.30596626248E+02  0.00000000000E+00 0.  1.
</event>
<event>
 7    1  0.2769403E-010  0.4778724E+02  0.7816164E-02  0.1312668E+00
        -11   -1    0    0    0    0  0.00000000000E+00  0.00000000000E+00  0.45593999997E+02  0.45594000000E+02  0.51100000000E-03 0.  1.
         11   -1    0    0    0    0 -0.00000000000E+00 -0.00000000000E+00 -0.45593999997E+02  0.45594000000E+02  0.51100000000E-03 0. -1.
    9900012    2    1    2    0    0 -0.52391735923E+01  0.16359675162E+01  0.43052299084E+02  0.47787242103E+02  0.19999868042E+02 0.  0.
         12    1    1    2    0    0  0.52391735923E+01 -0.16359675162E+01 -0.43052299084E+02  0.43400757897E+02  0.00000000000E+00 0. -1.
         11    1    3    3    0    0 -0.31505730634E+01  0.69677335547E+01  0.23486781662E+02  0.24700290173E+02  0.51100000000E-03 0. -1.
        -11    1    3    3    0    0  0.20788669066E+01 -0.13819194662E+01  0.16282578386E+02  0.16472818466E+02  0.51100000000E-03 0.  1.
         12    1    3    3    0    0 -0.41674674355E+01 -0.39498465722E+01  0.32829390354E+01  0.66141334641E+01  0.00000000000E+00 0. -1.
</event>
<event>
 7    1  0.2769403E-010  0.4778727E+02  0.7816164E-02  0.1312668E+00
        -11   -1    0    0    0    0  0.00000000000E+00  0.00000000000E+00  0.45593999997E+02  0.45594000000E+02  0.51100000000E-03 0.  1.
         11   -1    0    0    0    0 -0.00000000000E+00 -0.00000000000E+00 -0.45593999997E+02  0.45594000000E+02  0.51100000000E-03 0. -1.
    9900012    2    1    2    0    0  0.98823181389E+01  0.38739704450E+02  0.16887823060E+02  0.47787268666E+02  0.19999989154E+02 0.  0.
         12    1    1    2    0    0 -0.98823181389E+01 -0.38739704450E+02 -0.16887823060E+02  0.43400731334E+02  0.00000000000E+00 0. -1.
         11    1    3    3    0    0  0.70450665259E+01  0.68347953940E+01  0.62557905831E+01  0.11639686702E+02  0.51100000000E-03 0.  1.
        -11    1    3    3    0    0 -0.33671610848E+01  0.19848438131E+01  0.42673928827E+00  0.39318552128E+01  0.51100000000E-03 0. -1.
         12    1    3    3    0    0  0.62044126977E+01  0.29920065242E+02  0.10205293189E+02  0.32215726751E+02  0.00000000000E+00 0. -1.
</event>
<event>
 7    1  0.2769403E-010  0.4778725E+02  0.7816164E-02  0.1312668E+00
        -11   -1    0    0    0    0  0.00000000000E+00  0.00000000000E+00  0.45593999997E+02  0.45594000000E+02  0.51100000000E-03 0. -1.
         11   -1    0    0    0    0 -0.00000000000E+00 -0.00000000000E+00 -0.45593999997E+02  0.45594000000E+02  0.51100000000E-03 0.  1.
    9900012    2    1    2    0    0  0.24664098229E+02 -0.22955215147E+02 -0.27356263484E+02  0.47787253512E+02  0.19999920062E+02 0.  0.
         12    1    1    2    0    0 -0.24664098229E+02  0.22955215147E+02  0.27356263484E+02  0.43400746488E+02  0.00000000000E+00 0. -1.
         11    1    3    3    0    0  0.13561747347E+02 -0.15106490127E+02 -0.15840325829E+02  0.25749620535E+02  0.51100000000E-03 0.  1.
        -11    1    3    3    0    0  0.10997647099E+02 -0.10929513914E+02 -0.10732493167E+02  0.18857065677E+02  0.51100000000E-03 0. -1.
         12    1    3    3    0    0  0.10470378351E+00  0.30807888931E+01 -0.78344448783E+00  0.31805673003E+01  0.00000000000E+00 0. -1.
</event>
<event>
 7    1  0.2769403E-010  0.4778727E+02  0.7816164E-02  0.1312668E+00
        -11   -1    0    0    0    0  0.00000000000E+00  0.00000000000E+00  0.45593999997E+02  0.45594000000E+02  0.51100000000E-03 0. -1.
         11   -1    0    0    0    0 -0.00000000000E+00 -0.00000000000E+00 -0.45593999997E+02  0.45594000000E+02  0.51100000000E-03 0.  1.
    9900012    2    1    2    0    0 -0.29557714086E+02  0.29109889980E+02 -0.12750659935E+02  0.47787268608E+02  0.19999988890E+02 0.  0.
         12    1    1    2    0    0  0.29557714086E+02 -0.29109889980E+02  0.12750659935E+02  0.43400731392E+02  0.00000000000E+00 0. -1.
         11    1    3    3    0    0 -0.13319445385E+01  0.54792445784E+01  0.17549759471E+01  0.59056022758E+01  0.51100000000E-03 0. -1.
        -11    1    3    3    0    0 -0.40417284470E+01  0.14250564203E+01  0.24428694747E+01  0.49329470068E+01  0.51100000000E-03 0.  1.
        -12    1    3    3    0    0 -0.24184041100E+02  0.22205588981E+02 -0.16948505357E+02  0.36948719325E+02  0.00000000000E+00 0.  1.
</event>
<event>
 7    1  0.2769403E-010  0.4778727E+02  0.7816164E-02  0.1312668E+00
        -11   -1    0    0    0    0  0.00000000000E+00  0.00000000000E+00  0.45593999997E+02  0.45594000000E+02  0.51100000000E-03 0.  1.
         11   -1    0    0    0    0 -0.00000000000E+00 -0.00000000000E+00 -0.45593999997E+02  0.45594000000E+02  0.51100000000E-03 0. -1.
    9900012    2    1    2    0    0  0.40753283478E+02  0.99462626487E+01  0.11129479494E+02  0.47787267647E+02  0.19999984511E+02 0.  0.
         12    1    1    2    0    0 -0.40753283478E+02 -0.99462626487E+01 -0.11129479494E+02  0.43400732353E+02  0.00000000000E+00 0. -1.
         11    1    3    3    0    0  0.18255583694E+02  0.30378296602E+01  0.12674199481E+01  0.18549962228E+02  0.51100000000E-03 0. -1.
        -11    1    3    3    0    0  0.17294333708E+02  0.89461024824E-01  0.16678112543E+01  0.17374797160E+02  0.51100000000E-03 0.  1.
         12    1    3    3    0    0  0.52033660755E+01  0.68189719637E+01  0.81942482915E+01  0.11862508260E+02  0.00000000000E+00 0. -1.
</event>
<event>
 7    1  0.2769403E-010  0.4778727E+02  0.7816164E-02  0.1312668E+00
        -11   -1    0    0    0    0  0.00000000000E+00  0.00000000000E+00  0.45593999997E+02  0.45594000000E+02  0.51100000000E-03 0.  1.
         11   -1    0    0    0    0 -0.00000000000E+00 -0.00000000000E+00 -0.45593999997E+02  0.45594000000E+02  0.51100000000E-03 0. -1.
    9900012    2    1    2    0    0  0.69323875061E+01  0.41924100110E+02  0.88281040791E+01  0.47787267423E+02  0.19999983490E+02 0.  0.
         12    1    1    2    0    0 -0.69323875061E+01 -0.41924100110E+02 -0.88281040791E+01  0.43400732577E+02  0.00000000000E+00 0. -1.
         11    1    3    3    0    0  0.59045819342E+01  0.32614852236E+01  0.41631415482E+01  0.79267346047E+01  0.51100000000E-03 0. -1.
        -11    1    3    3    0    0 -0.58374318907E+00  0.32183032771E+01  0.28416173066E+01  0.43327844710E+01  0.51100000000E-03 0.  1.
        -12    1    3    3    0    0  0.16115487610E+01  0.35444311609E+02  0.18233452244E+01  0.35527748348E+02  0.00000000000E+00 0.  1.
</event>
<event>
 7    1  0.2769403E-010  0.4778727E+02  0.7816164E-02  0.1312668E+00
        -11   -1    0    0    0    0  0.00000000000E+00  0.00000000000E+00  0.45593999997E+02  0.45594000000E+02  0.51100000000E-03 0.  1.
         11   -1    0    0    0    0 -0.00000000000E+00 -0.00000000000E+00 -0.45593999997E+02  0.45594000000E+02  0.51100000000E-03 0. -1.
    9900012    2    1    2    0    0  0.15250388174E+01  0.12701987415E+02  0.41472366791E+02  0.47787269189E+02  0.19999991541E+02 0.  0.
         12    1    1    2    0    0 -0.15250388174E+01 -0.12701987415E+02 -0.41472366791E+02  0.43400730811E+02  0.00000000000E+00 0. -1.
         11    1    3    3    0    0  0.21863759912E+01  0.59729740655E+01  0.63681781199E+00  0.63923545231E+01  0.51100000000E-03 0. -1.
        -11    1    3    3    0    0 -0.55082342377E-01  0.29112321381E+01  0.16782888245E+02  0.17033603399E+02  0.51100000000E-03 0.  1.
         12    1    3    3    0    0 -0.60625483136E+00  0.38177812111E+01  0.24052660734E+02  0.24361311267E+02  0.00000000000E+00 0. -1.
</event>
<event>
 7    1  0.2769403E-010  0.4778728E+02  0.7816164E-02  0.1312668E+00
        -11   -1    0    0    0    0  0.00000000000E+00  0.00000000000E+00  0.45593999997E+02  0.45594000000E+02  0.51100000000E-03 0. -1.
         11   -1    0    0    0    0 -0.00000000000E+00 -0.00000000000E+00 -0.45593999997E+02  0.45594000000E+02  0.51100000000E-03 0.  1.
    9900012    2    1    2    0    0  0.27186926139E+02  0.31023902901E+02 -0.13491152282E+02  0.47787277725E+02  0.20000030457E+02 0.  0.
         12    1    1    2    0    0 -0.27186926139E+02 -0.31023902901E+02  0.13491152282E+02  0.43400722275E+02  0.00000000000E+00 0. -1.
         11    1    3    3    0    0  0.75843998769E+01  0.12729624222E+02  0.99633664086E+00  0.14851233662E+02  0.51100000000E-03 0.  1.
        -11    1    3    3    0    0  0.39185904185E+01  0.34704279971E+01  0.21779092259E+01  0.56694364983E+01  0.51100000000E-03 0. -1.
        -12    1    3    3    0    0  0.15683935844E+02  0.14823850683E+02 -0.16665398149E+02  0.27266607564E+02  0.00000000000E+00 0.  1.
</event>
<event>
 7    1  0.2769403E-010  0.4778722E+02  0.7816164E-02  0.1312668E+00
        -11   -1    0    0    0    0  0.00000000000E+00  0.00000000000E+00  0.45593999997E+02  0.45594000000E+02  0.51100000000E-03 0.  1.
         11   -1    0    0    0    0 -0.00000000000E+00 -0.00000000000E+00 -0.45593999997E+02  0.45594000000E+02  0.51100000000E-03 0. -1.
    9900012    2    1    2    0    0 -0.90453617333E+01 -0.36065428766E+02  0.22385121062E+02  0.47787223902E+02  0.19999785058E+02 0.  0.
         12    1    1    2    0    0  0.90453617333E+01  0.36065428766E+02 -0.22385121062E+02  0.43400776098E+02  0.00000000000E+00 0. -1.
         11    1    3    3    0    0 -0.39369040496E+01 -0.51408388943E+01 -0.49238714475E+00  0.64938342599E+01  0.51100000000E-03 0. -1.
        -11    1    3    3    0    0 -0.65573263126E+01 -0.20656456399E+02  0.78809800526E+01  0.23060736462E+02  0.51100000000E-03 0.  1.
        -12    1    3    3    0    0  0.14488686290E+01 -0.10268133473E+02  0.14996528154E+02  0.18232653180E+02  0.00000000000E+00 0.  1.
</event>
<event>
 7    1  0.2769403E-010  0.4778727E+02  0.7816164E-02  0.1312668E+00
        -11   -1    0    0    0    0  0.00000000000E+00  0.00000000000E+00  0.45593999997E+02  0.45594000000E+02  0.51100000000E-03 0. -1.
         11   -1    0    0    0    0 -0.00000000000E+00 -0.00000000000E+00 -0.45593999997E+02  0.45594000000E+02  0.51100000000E-03 0.  1.
    9900012    2    1    2    0    0 -0.41123324879E+02 -0.62481139842E+01 -0.12387753744E+02  0.47787271661E+02  0.20000002812E+02 0.  0.
         12    1    1    2    0    0  0.41123324879E+02  0.62481139842E+01  0.12387753744E+02  0.43400728339E+02  0.00000000000E+00 0. -1.
         11    1    3    3    0    0 -0.25621718997E+02 -0.18181246924E+01 -0.70272332605E+01  0.26630059507E+02  0.51100000000E-03 0. -1.
        -11    1    3    3    0    0 -0.49523549926E+01  0.41840527621E+01 -0.36245298886E+01  0.74276062540E+01  0.51100000000E-03 0.  1.
        -12    1    3    3    0    0 -0.10549250889E+02 -0.86140420540E+01 -0.17359905952E+01  0.13729605900E+02  0.00000000000E+00 0.  1.
</event>
<event>
 7    1  0.2769403E-010  0.4778727E+02  0.7816164E-02  0.1312668E+00
        -11   -1    0    0    0    0  0.00000000000E+00  0.00000000000E+00  0.45593999997E+02  0.45594000000E+02  0.51100000000E-03 0. -1.
         11   -1    0    0    0    0 -0.00000000000E+00 -0.00000000000E+00 -0.45593999997E+02  0.45594000000E+02  0.51100000000E-03 0.  1.
    9900012    2    1    2    0    0  0.11842017091E+02  0.80492112311E+01 -0.40970723726E+02  0.47787269904E+02  0.19999994800E+02 0.  0.
         12    1    1    2    0    0 -0.11842017091E+02 -0.80492112311E+01  0.40970723726E+02  0.43400730096E+02  0.00000000000E+00 0. -1.
         11    1    3    3    0    0  0.62603082680E-01 -0.12418138060E+00  0.11423209678E+01  0.11507552372E+01  0.51100000000E-03 0. -1.
        -11    1    3    3    0    0 -0.19157909232E+01  0.43960414696E+01 -0.18205721811E+02  0.18826676350E+02  0.51100000000E-03 0.  1.
        -12    1    3    3    0    0  0.13695204931E+02  0.37773511421E+01 -0.23907322883E+02  0.27809838316E+02  0.00000000000E+00 0.  1.
</event>
<event>
 7    1  0.2769403E-010  0.4778727E+02  0.7816164E-02  0.1312668E+00
        -11   -1    0    0    0    0  0.00000000000E+00  0.00000000000E+00  0.45593999997E+02  0.45594000000E+02  0.51100000000E-03 0.  1.
         11   -1    0    0    0    0 -0.00000000000E+00 -0.00000000000E+00 -0.45593999997E+02  0.45594000000E+02  0.51100000000E-03 0. -1.
    9900012    2    1    2    0    0  0.33425577430E+01 -0.64283403671E+01  0.42791666677E+02  0.47787274324E+02  0.20000014955E+02 0.  0.
         12    1    1    2    0    0 -0.33425577430E+01  0.64283403671E+01 -0.42791666677E+02  0.43400725676E+02  0.00000000000E+00 0. -1.
         11    1    3    3    0    0  0.78364512337E+01 -0.18798790087E+01  0.14646649410E+02  0.16717303976E+02  0.51100000000E-03 0. -1.
        -11    1    3    3    0    0  0.22978265252E+01 -0.11016668123E+01  0.18993797004E+02  0.19163976659E+02  0.51100000000E-03 0.  1.
         12    1    3    3    0    0 -0.67917200159E+01 -0.34467945461E+01  0.91512202634E+01  0.11905993689E+02  0.00000000000E+00 0. -1.
</event>
<event>
 7    1  0.2769403E-010  0.4778727E+02  0.7816164E-02  0.1312668E+00
        -11   -1    0    0    0    0  0.00000000000E+00  0.00000000000E+00  0.45593999997E+02  0.45594000000E+02  0.51100000000E-03 0.  1.
         11   -1    0    0    0    0 -0.00000000000E+00 -0.00000000000E+00 -0.45593999997E+02  0.45594000000E+02  0.51100000000E-03 0. -1.
    9900012    2    1    2    0    0  0.33229357180E+02  0.21266387238E+02  0.18087946645E+02  0.47787271681E+02  0.20000002903E+02 0.  0.
         12    1    1    2    0    0 -0.33229357180E+02 -0.21266387238E+02 -0.18087946645E+02  0.43400728319E+02  0.00000000000E+00 0. -1.
         11    1    3    3    0    0  0.36578026710E+01  0.56497716528E+01  0.59331083231E+01  0.89722469173E+01  0.51100000000E-03 0. -1.
        -11    1    3    3    0    0  0.18599107944E+02  0.17628079721E+02  0.72692116305E+01  0.26636768741E+02  0.51100000000E-03 0.  1.
        -12    1    3    3    0    0  0.10972446566E+02 -0.20114641354E+01  0.48856266910E+01  0.12178256023E+02  0.00000000000E+00 0.  1.
</event>
<event>
 7    1  0.2769403E-010  0.4778727E+02  0.7816164E-02  0.1312668E+00
        -11   -1    0    0    0    0  0.00000000000E+00  0.00000000000E+00  0.45593999997E+02  0.45594000000E+02  0.51100000000E-03 0.  1.
         11   -1    0    0    0    0 -0.00000000000E+00 -0.00000000000E+00 -0.45593999997E+02  0.45594000000E+02  0.51100000000E-03 0. -1.
    9900012    2    1    2    0    0  0.40449750459E+02 -0.38887138456E+01  0.15242012329E+02  0.47787270197E+02  0.19999996138E+02 0.  0.
         12    1    1    2    0    0 -0.40449750459E+02  0.38887138456E+01 -0.15242012329E+02  0.43400729803E+02  0.00000000000E+00 0. -1.
         11    1    3    3    0    0  0.13151528316E+02 -0.79035658198E+01  0.13294058913E+01  0.15401180799E+02  0.51100000000E-03 0. -1.
        -11    1    3    3    0    0  0.15215469484E+02 -0.20178166368E+01  0.10025293527E+02  0.18332719551E+02  0.51100000000E-03 0.  1.
        -12    1    3    3    0    0  0.12082752659E+02  0.60326686110E+01  0.38873129106E+01  0.14053369847E+02  0.00000000000E+00 0.  1.
</event>
<event>
 7    1  0.2769403E-010  0.4778727E+02  0.7816164E-02  0.1312668E+00
        -11   -1    0    0    0    0  0.00000000000E+00  0.00000000000E+00  0.45593999997E+02  0.45594000000E+02  0.51100000000E-03 0.  1.
         11   -1    0    0    0    0 -0.00000000000E+00 -0.00000000000E+00 -0.45593999997E+02  0.45594000000E+02  0.51100000000E-03 0. -1.
    9900012    2    1    2    0    0 -0.34640051710E+01 -0.84633675589E+01  0.42426354091E+02  0.47787269088E+02  0.19999991079E+02 0.  0.
         12    1    1    2    0    0  0.34640051710E+01  0.84633675589E+01 -0.42426354091E+02  0.43400730912E+02  0.00000000000E+00 0. -1.
         11    1    3    3    0    0  0.26463433119E+00 -0.58624384528E+01  0.95340425236E+01  0.11195364355E+02  0.51100000000E-03 0. -1.
        -11    1    3    3    0    0 -0.89179669403E+00 -0.80929753637E+01  0.10083255648E+02  0.12960077017E+02  0.51100000000E-03 0.  1.
         12    1    3    3    0    0 -0.28368428082E+01  0.54920462576E+01  0.22809055920E+02  0.23631827715E+02  0.00000000000E+00 0. -1.
</event>
<event>
 7    1  0.2769403E-010  0.4778728E+02  0.7816164E-02  0.1312668E+00
        -11   -1    0    0    0    0  0.00000000000E+00  0.00000000000E+00  0.45593999997E+02  0.45594000000E+02  0.51100000000E-03 0.  1.
         11   -1    0    0    0    0 -0.00000000000E+00 -0.00000000000E+00 -0.45593999997E+02  0.45594000000E+02  0.51100000000E-03 0. -1.
    9900012    2    1    2    0    0 -0.17375117056E+02 -0.17945673524E+02  0.35491981224E+02  0.47787278553E+02  0.20000034232E+02 0.  0.
         12    1    1    2    0    0  0.17375117056E+02  0.17945673524E+02 -0.35491981224E+02  0.43400721447E+02  0.00000000000E+00 0. -1.
         11    1    3    3    0    0 -0.43739903922E+01  0.21082457942E+01  0.15163494165E+01  0.50868269180E+01  0.51100000000E-03 0. -1.
        -11    1    3    3    0    0 -0.88982105770E+01 -0.49509110704E+01  0.14431346934E+02  0.17662203896E+02  0.51100000000E-03 0.  1.
        -12    1    3    3    0    0 -0.41029160870E+01 -0.15103008248E+02  0.19544284874E+02  0.25038247738E+02  0.00000000000E+00 0.  1.
</event>
<event>
 7    1  0.2769403E-010  0.4778727E+02  0.7816164E-02  0.1312668E+00
        -11   -1    0    0    0    0  0.00000000000E+00  0.00000000000E+00  0.45593999997E+02  0.45594000000E+02  0.51100000000E-03 0. -1.
         11   -1    0    0    0    0 -0.00000000000E+00 -0.00000000000E+00 -0.45593999997E+02  0.45594000000E+02  0.51100000000E-03 0.  1.
    9900012    2    1    2    0    0  0.76445328356E+01 -0.37997623495E+01 -0.42552865128E+02  0.47787269513E+02  0.19999993017E+02 0.  0.
         12    1    1    2    0    0 -0.76445328356E+01  0.37997623495E+01  0.42552865128E+02  0.43400730487E+02  0.00000000000E+00 0. -1.
         11    1    3    3    0    0  0.43575031133E-01 -0.16025507296E+01 -0.65637606584E+00  0.17323098525E+01  0.51100000000E-03 0. -1.
        -11    1    3    3    0    0  0.88732352794E+01 -0.77702874807E+01 -0.35821568374E+02  0.37713345554E+02  0.51100000000E-03 0.  1.
         12    1    3    3    0    0 -0.12722774750E+01  0.55730758608E+01 -0.60749206884E+01  0.83416141061E+01  0.00000000000E+00 0. -1.
</event>
<event>
 7    1  0.2769403E-010  0.4778728E+02  0.7816164E-02  0.1312668E+00
        -11   -1    0    0    0    0  0.00000000000E+00  0.00000000000E+00  0.45593999997E+02  0.45594000000E+02  0.51100000000E-03 0.  1.
         11   -1    0    0    0    0 -0.00000000000E+00 -0.00000000000E+00 -0.45593999997E+02  0.45594000000E+02  0.51100000000E-03 0. -1.
    9900012    2    1    2    0    0 -0.22011376960E+02  0.78683759745E+01  0.36567893935E+02  0.47787275087E+02  0.20000018432E+02 0.  0.
         12    1    1    2    0    0  0.22011376960E+02 -0.78683759745E+01 -0.36567893935E+02  0.43400724913E+02  0.00000000000E+00 0. -1.
         11    1    3    3    0    0 -0.14982965387E+01 -0.80595231259E+00 -0.52096375644E+00  0.17792850094E+01  0.51100000000E-03 0. -1.
        -11    1    3    3    0    0 -0.22887594995E+02  0.68061170095E+01  0.30305804786E+02  0.38582470598E+02  0.51100000000E-03 0.  1.
        -12    1    3    3    0    0  0.23745145741E+01  0.18682112776E+01  0.67830529047E+01  0.74255194801E+01  0.00000000000E+00 0.  1.
</event>
<event>
 7    1  0.3160714E-010  0.4778727E+02  0.7816164E-02  0.1312668E+00
        -11   -1    0    0    0    0  0.00000000000E+00  0.00000000000E+00  0.45593999997E+02  0.45594000000E+02  0.51100000000E-03 0.  1.
         11   -1    0    0    0    0 -0.00000000000E+00 -0.00000000000E+00 -0.45593999997E+02  0.45594000000E+02  0.51100000000E-03 0. -1.
    9900012    2    1    2    0    0 -0.41022880276E+02 -0.90841750324E+01  0.10873100157E+02  0.47787271329E+02  0.20000001296E+02 0.  0.
         12    1    1    2    0    0  0.41022880276E+02  0.90841750324E+01 -0.10873100157E+02  0.43400728671E+02  0.00000000000E+00 0. -1.
         11    1    3    3    0    0 -0.24321425565E+02 -0.44152723527E+01  0.30717913670E+01  0.24909080150E+02  0.51100000000E-03 0. -1.
        -11    1    3    3    0    0 -0.15403365692E+02 -0.76943690450E+01  0.89321881719E+01  0.19397189885E+02  0.51100000000E-03 0.  1.
         12    1    3    3    0    0 -0.12980890192E+01  0.30254663653E+01 -0.11308793819E+01  0.34810012935E+01  0.00000000000E+00 0. -1.
</event>
<event>
 7    1  0.2769403E-010  0.4778727E+02  0.7816164E-02  0.1312668E+00
        -11   -1    0    0    0    0  0.00000000000E+00  0.00000000000E+00  0.45593999997E+02  0.45594000000E+02  0.51100000000E-03 0.  1.
         11   -1    0    0    0    0 -0.00000000000E+00 -0.00000000000E+00 -0.45593999997E+02  0.45594000000E+02  0.51100000000E-03 0. -1.
    9900012    2    1    2    0    0  0.42596669691E+02 -0.65465902364E+01 -0.51273421004E+01  0.47787265565E+02  0.19999975019E+02 0.  0.
         12    1    1    2    0    0 -0.42596669691E+02  0.65465902364E+01  0.51273421004E+01  0.43400734435E+02  0.00000000000E+00 0. -1.
         11    1    3    3    0    0  0.16926561308E+01 -0.32987583182E+01  0.23209819141E+01  0.43742254772E+01  0.51100000000E-03 0. -1.
        -11    1    3    3    0    0  0.43968305163E+01 -0.20030379742E+01  0.26551943502E+01  0.55131059316E+01  0.51100000000E-03 0.  1.
        -12    1    3    3    0    0  0.36507183043E+02 -0.12447939440E+01 -0.10103518365E+02  0.37899934157E+02  0.00000000000E+00 0.  1.
</event>
<event>
 7    1  0.2769403E-010  0.4778727E+02  0.7816164E-02  0.1312668E+00
        -11   -1    0    0    0    0  0.00000000000E+00  0.00000000000E+00  0.45593999997E+02  0.45594000000E+02  0.51100000000E-03 0. -1.
         11   -1    0    0    0    0 -0.00000000000E+00 -0.00000000000E+00 -0.45593999997E+02  0.45594000000E+02  0.51100000000E-03 0.  1.
    9900012    2    1    2    0    0 -0.35501959775E+02  0.94965286148E+00 -0.24946597387E+02  0.47787266025E+02  0.19999977113E+02 0.  0.
         12    1    1    2    0    0  0.35501959775E+02 -0.94965286148E+00  0.24946597387E+02  0.43400733975E+02  0.00000000000E+00 0. -1.
         11    1    3    3    0    0 -0.38104965119E+01  0.12983603323E+01  0.14802910320E+01  0.42891590108E+01  0.51100000000E-03 0.  1.
        -11    1    3    3    0    0 -0.54374345023E+01  0.41328584494E+01 -0.14436647621E+01  0.69807149445E+01  0.51100000000E-03 0. -1.
        -12    1    3    3    0    0 -0.26254028761E+02 -0.44815659203E+01 -0.24983223657E+02  0.36517392069E+02  0.00000000000E+00 0.  1.
</event>
<event>
 7    1  0.2769403E-010  0.4778727E+02  0.7816164E-02  0.1312668E+00
        -11   -1    0    0    0    0  0.00000000000E+00  0.00000000000E+00  0.45593999997E+02  0.45594000000E+02  0.51100000000E-03 0.  1.
         11   -1    0    0    0    0 -0.00000000000E+00 -0.00000000000E+00 -0.45593999997E+02  0.45594000000E+02  0.51100000000E-03 0. -1.
    9900012    2    1    2    0    0 -0.36764193151E+02  0.11052930939E+02  0.20244749504E+02  0.47787273475E+02  0.20000011082E+02 0.  0.
         12    1    1    2    0    0  0.36764193151E+02 -0.11052930939E+02 -0.20244749504E+02  0.43400726525E+02  0.00000000000E+00 0. -1.
         11    1    3    3    0    0 -0.21224208217E+02  0.46798000382E+01  0.13729070911E+02  0.25707098848E+02  0.51100000000E-03 0. -1.
        -11    1    3    3    0    0 -0.41615837997E+01 -0.24519395515E+01  0.59576662796E+01  0.76697180552E+01  0.51100000000E-03 0.  1.
         12    1    3    3    0    0 -0.11378401134E+02  0.88250704527E+01  0.55801231346E+00  0.14410456572E+02  0.00000000000E+00 0. -1.
</event>
<event>
 7    1  0.2769403E-010  0.4778727E+02  0.7816164E-02  0.1312668E+00
        -11   -1    0    0    0    0  0.00000000000E+00  0.00000000000E+00  0.45593999997E+02  0.45594000000E+02  0.51100000000E-03 0. -1.
         11   -1    0    0    0    0 -0.00000000000E+00 -0.00000000000E+00 -0.45593999997E+02  0.45594000000E+02  0.51100000000E-03 0.  1.
    9900012    2    1    2    0    0  0.25550024552E+02 -0.16050444156E+02 -0.31196195646E+02  0.47787272644E+02  0.20000007294E+02 0.  0.
         12    1    1    2    0    0 -0.25550024552E+02  0.16050444156E+02  0.31196195646E+02  0.43400727356E+02  0.00000000000E+00 0. -1.
         11    1    3    3    0    0  0.94172844511E+01 -0.48678083856E+01 -0.10844080543E+02  0.15164922947E+02  0.51100000000E-03 0.  1.
        -11    1    3    3    0    0  0.10070421816E+02 -0.13348179589E+02 -0.76619273761E+01  0.18392727511E+02  0.51100000000E-03 0. -1.
        -12    1    3    3    0    0  0.60623182843E+01  0.21655438185E+01 -0.12690187728E+02  0.14229622186E+02  0.00000000000E+00 0.  1.
</event>
<event>
 7    1  0.2769403E-010  0.4778727E+02  0.7816164E-02  0.1312668E+00
        -11   -1    0    0    0    0  0.00000000000E+00  0.00000000000E+00  0.45593999997E+02  0.45594000000E+02  0.51100000000E-03 0.  1.
         11   -1    0    0    0    0 -0.00000000000E+00 -0.00000000000E+00 -0.45593999997E+02  0.45594000000E+02  0.51100000000E-03 0. -1.
    9900012    2    1    2    0    0 -0.19293832780E+02  0.17012717926E+02  0.34956246528E+02  0.47787265837E+02  0.19999976257E+02 0.  0.
         12    1    1    2    0    0  0.19293832780E+02 -0.17012717926E+02 -0.34956246528E+02  0.43400734163E+02  0.00000000000E+00 0. -1.
         11    1    3    3    0    0 -0.30995811285E+01  0.48741770151E+01  0.43054205598E+00  0.57922682492E+01  0.51100000000E-03 0. -1.
        -11    1    3    3    0    0  0.61181039623E+00  0.56506477197E+01  0.10807972860E+02  0.12211322992E+02  0.51100000000E-03 0.  1.
        -12    1    3    3    0    0 -0.16806062048E+02  0.64878931913E+01  0.23717731612E+02  0.29783674596E+02  0.00000000000E+00 0.  1.
</event>
<event>
 7    1  0.2769403E-010  0.4778727E+02  0.7816164E-02  0.1312668E+00
        -11   -1    0    0    0    0  0.00000000000E+00  0.00000000000E+00  0.45593999997E+02  0.45594000000E+02  0.51100000000E-03 0. -1.
         11   -1    0    0    0    0 -0.00000000000E+00 -0.00000000000E+00 -0.45593999997E+02  0.45594000000E+02  0.51100000000E-03 0.  1.
    9900012    2    1    2    0    0  0.49881685733E+01 -0.17024747069E+02 -0.39609334313E+02  0.47787271858E+02  0.20000003711E+02 0.  0.
         12    1    1    2    0    0 -0.49881685733E+01  0.17024747069E+02  0.39609334313E+02  0.43400728142E+02  0.00000000000E+00 0. -1.
         11    1    3    3    0    0 -0.44934131708E+00  0.12589276709E+01 -0.49705944807E+00  0.14261398444E+01  0.51100000000E-03 0. -1.
        -11    1    3    3    0    0  0.45555855427E+00  0.17626949168E+01  0.31778742487E+00  0.18481385431E+01  0.51100000000E-03 0.  1.
        -12    1    3    3    0    0  0.49819513361E+01 -0.20046369657E+02 -0.39430062290E+02  0.44512993471E+02  0.00000000000E+00 0.  1.
</event>
<event>
 7    1  0.2769403E-010  0.4778727E+02  0.7816164E-02  0.1312668E+00
        -11   -1    0    0    0    0  0.00000000000E+00  0.00000000000E+00  0.45593999997E+02  0.45594000000E+02  0.51100000000E-03 0.  1.
         11   -1    0    0    0    0 -0.00000000000E+00 -0.00000000000E+00 -0.45593999997E+02  0.45594000000E+02  0.51100000000E-03 0. -1.
    9900012    2    1    2    0    0 -0.30124745691E+02 -0.14805757316E+02  0.27512042207E+02  0.47787271676E+02  0.20000002881E+02 0.  0.
         12    1    1    2    0    0  0.30124745691E+02  0.14805757316E+02 -0.27512042207E+02  0.43400728324E+02  0.00000000000E+00 0. -1.
         11    1    3    3    0    0 -0.78391146441E+00 -0.49391922769E+01  0.13079599750E+01  0.51692259661E+01  0.51100000000E-03 0. -1.
        -11    1    3    3    0    0 -0.33614898153E+01 -0.50586586765E+01  0.10994295189E+01  0.61723890765E+01  0.51100000000E-03 0.  1.
        -12    1    3    3    0    0 -0.25979344411E+02 -0.48079063624E+01  0.25104652713E+02  0.36445656634E+02  0.00000000000E+00 0.  1.
</event>
<event>
 7    1  0.2769403E-010  0.4778727E+02  0.7816164E-02  0.1312668E+00
        -11   -1    0    0    0    0  0.00000000000E+00  0.00000000000E+00  0.45593999997E+02  0.45594000000E+02  0.51100000000E-03 0.  1.
         11   -1    0    0    0    0 -0.00000000000E+00 -0.00000000000E+00 -0.45593999997E+02  0.45594000000E+02  0.51100000000E-03 0. -1.
    9900012    2    1    2    0    0  0.75263887584E+01  0.50746547838E+01  0.42440838150E+02  0.47787269686E+02  0.19999993807E+02 0.  0.
         12    1    1    2    0    0 -0.75263887584E+01 -0.50746547838E+01 -0.42440838150E+02  0.43400730314E+02  0.00000000000E+00 0. -1.
         11    1    3    3    0    0  0.82078858084E+01  0.11394220897E+01  0.10022685994E+02  0.13004687883E+02  0.51100000000E-03 0. -1.
        -11    1    3    3    0    0  0.36872254779E+01  0.19152086414E+01  0.34022563863E+01  0.53701959596E+01  0.51100000000E-03 0.  1.
        -12    1    3    3    0    0 -0.43687225280E+01  0.20200240527E+01  0.29015895770E+02  0.29412385844E+02  0.00000000000E+00 0.  1.
</event>
<event>
 7    1  0.2769403E-010  0.4778727E+02  0.7816164E-02  0.1312668E+00
        -11   -1    0    0    0    0  0.00000000000E+00  0.00000000000E+00  0.45593999997E+02  0.45594000000E+02  0.51100000000E-03 0. -1.
         11   -1    0    0    0    0 -0.00000000000E+00 -0.00000000000E+00 -0.45593999997E+02  0.45594000000E+02  0.51100000000E-03 0.  1.
    9900012    2    1    2    0    0 -0.22274206575E+02  0.33244490473E+02 -0.16801396410E+02  0.47787270206E+02  0.19999996175E+02 0.  0.
         12    1    1    2    0    0  0.22274206575E+02 -0.33244490473E+02  0.16801396410E+02  0.43400729794E+02  0.00000000000E+00 0. -1.
         11    1    3    3    0    0  0.36915197275E+00 -0.76853564614E+00 -0.21888153607E+01  0.23490068460E+01  0.51100000000E-03 0. -1.
        -11    1    3    3    0    0 -0.97499091180E+00  0.11932718257E+02 -0.26002039584E+01  0.12251589005E+02  0.51100000000E-03 0.  1.
         12    1    3    3    0    0 -0.21668367636E+02  0.22080307863E+02 -0.12012377091E+02  0.33186674354E+02  0.00000000000E+00 0. -1.
</event>
<event>
 7    1  0.2769403E-010  0.4778731E+02  0.7816164E-02  0.1312668E+00
        -11   -1    0    0    0    0  0.00000000000E+00  0.00000000000E+00  0.45593999997E+02  0.45594000000E+02  0.51100000000E-03 0.  1.
         11   -1    0    0    0    0 -0.00000000000E+00 -0.00000000000E+00 -0.45593999997E+02  0.45594000000E+02  0.51100000000E-03 0. -1.
    9900012    2    1    2    0    0 -0.22660041798E+01 -0.41305123602E+02 -0.13129052106E+02  0.47787308532E+02  0.20000170919E+02 0.  0.
         12    1    1    2    0    0  0.22660041798E+01  0.41305123602E+02  0.13129052106E+02  0.43400691468E+02  0.00000000000E+00 0. -1.
         11    1    3    3    0    0 -0.21996605680E+01 -0.14632549196E+02  0.28253106281E+00  0.14799656301E+02  0.51100000000E-03 0. -1.
        -11    1    3    3    0    0  0.91016401623E-01 -0.10974149817E+02  0.18076172902E+01  0.11122397616E+02  0.51100000000E-03 0.  1.
         12    1    3    3    0    0 -0.15736001341E+00 -0.15698424590E+02 -0.15219200459E+02  0.21865254615E+02  0.00000000000E+00 0. -1.
</event>
<event>
 7    1  0.2769403E-010  0.4778727E+02  0.7816164E-02  0.1312668E+00
        -11   -1    0    0    0    0  0.00000000000E+00  0.00000000000E+00  0.45593999997E+02  0.45594000000E+02  0.51100000000E-03 0.  1.
         11   -1    0    0    0    0 -0.00000000000E+00 -0.00000000000E+00 -0.45593999997E+02  0.45594000000E+02  0.51100000000E-03 0. -1.
    9900012    2    1    2    0    0  0.42983026932E+02 -0.48252273573E+01  0.35776730823E+01  0.47787272264E+02  0.20000005561E+02 0.  0.
         12    1    1    2    0    0 -0.42983026932E+02  0.48252273573E+01 -0.35776730823E+01  0.43400727736E+02  0.00000000000E+00 0. -1.
         11    1    3    3    0    0  0.11551261275E+02 -0.47326163974E+01 -0.45628952549E+01  0.13290948363E+02  0.51100000000E-03 0.  1.
        -11    1    3    3    0    0 -0.48330182484E+00  0.14650297172E+01  0.66813283379E+00  0.16811586691E+01  0.51100000000E-03 0. -1.
        -12    1    3    3    0    0  0.31915067482E+02 -0.15576406770E+01  0.74724355034E+01  0.32815165232E+02  0.00000000000E+00 0.  1.
</event>
<event>
 7    1  0.2769403E-010  0.4778727E+02  0.7816164E-02  0.1312668E+00
        -11   -1    0    0    0    0  0.00000000000E+00  0.00000000000E+00  0.45593999997E+02  0.45594000000E+02  0.51100000000E-03 0. -1.
         11   -1    0    0    0    0 -0.00000000000E+00 -0.00000000000E+00 -0.45593999997E+02  0.45594000000E+02  0.51100000000E-03 0.  1.
    9900012    2    1    2    0    0  0.16427543996E+02  0.32444128800E+02 -0.23688339695E+02  0.47787272669E+02  0.20000007407E+02 0.  0.
         12    1    1    2    0    0 -0.16427543996E+02 -0.32444128800E+02  0.23688339695E+02  0.43400727331E+02  0.00000000000E+00 0. -1.
         11    1    3    3    0    0  0.88385066558E+00  0.10083383503E+02 -0.16937875872E+01  0.10262783810E+02  0.51100000000E-03 0. -1.
        -11    1    3    3    0    0  0.19072704237E+01 -0.78125773344E+00  0.88230500110E+00  0.22419871746E+01  0.51100000000E-03 0.  1.
        -12    1    3    3    0    0  0.13636422907E+02  0.23142003031E+02 -0.22876857109E+02  0.35282501685E+02  0.00000000000E+00 0.  1.
</event>
<event>
 7    1  0.2769403E-010  0.4778727E+02  0.7816164E-02  0.1312668E+00
        -11   -1    0    0    0    0  0.00000000000E+00  0.00000000000E+00  0.45593999997E+02  0.45594000000E+02  0.51100000000E-03 0. -1.
         11   -1    0    0    0    0 -0.00000000000E+00 -0.00000000000E+00 -0.45593999997E+02  0.45594000000E+02  0.51100000000E-03 0.  1.
    9900012    2    1    2    0    0 -0.20950133228E+02 -0.15429188287E+02 -0.34736949366E+02  0.47787267463E+02  0.19999983670E+02 0.  0.
         12    1    1    2    0    0  0.20950133228E+02  0.15429188287E+02  0.34736949366E+02  0.43400732537E+02  0.00000000000E+00 0. -1.
         11    1    3    3    0    0  0.21943014024E+01 -0.65214228560E+01 -0.57456338857E+01  0.89641633028E+01  0.51100000000E-03 0. -1.
        -11    1    3    3    0    0  0.25446751533E+00 -0.40337301399E+00  0.14522496758E+00  0.49855196028E+00  0.51100000000E-03 0.  1.
        -12    1    3    3    0    0 -0.23398902146E+02 -0.85043924174E+01 -0.29136540448E+02  0.38324552200E+02  0.00000000000E+00 0.  1.
</event>
<event>
 7    1  0.2769403E-010  0.4778729E+02  0.7816164E-02  0.1312668E+00
        -11   -1    0    0    0    0  0.00000000000E+00  0.00000000000E+00  0.45593999997E+02  0.45594000000E+02  0.51100000000E-03 0.  1.
         11   -1    0    0    0    0 -0.00000000000E+00 -0.00000000000E+00 -0.45593999997E+02  0.45594000000E+02  0.51100000000E-03 0. -1.
    9900012    2    1    2    0    0  0.31888872202E+01 -0.29884298667E+02  0.31311037003E+02  0.47787293247E+02  0.20000101228E+02 0.  0.
         12    1    1    2    0    0 -0.31888872202E+01  0.29884298667E+02 -0.31311037003E+02  0.43400706753E+02  0.00000000000E+00 0. -1.
         11    1    3    3    0    0  0.26063256316E+01 -0.20444193025E+01  0.46717063810E+01  0.57269035572E+01  0.51100000000E-03 0. -1.
        -11    1    3    3    0    0 -0.72461039205E+01 -0.15689331284E+02  0.19100521945E+02  0.25758320539E+02  0.51100000000E-03 0.  1.
        -12    1    3    3    0    0  0.78286655091E+01 -0.12150548081E+02  0.75388086766E+01  0.16302069150E+02  0.00000000000E+00 0.  1.
</event>
<event>
 7    1  0.2769403E-010  0.4778727E+02  0.7816164E-02  0.1312668E+00
        -11   -1    0    0    0    0  0.00000000000E+00  0.00000000000E+00  0.45593999997E+02  0.45594000000E+02  0.51100000000E-03 0.  1.
         11   -1    0    0    0    0 -0.00000000000E+00 -0.00000000000E+00 -0.45593999997E+02  0.45594000000E+02  0.51100000000E-03 0. -1.
    9900012    2    1    2    0    0  0.11494437139E+02  0.38170179067E+02  0.17162127115E+02  0.47787271178E+02  0.20000000610E+02 0.  0.
         12    1    1    2    0    0 -0.11494437139E+02 -0.38170179067E+02 -0.17162127115E+02  0.43400728822E+02  0.00000000000E+00 0. -1.
         11    1    3    3    0    0  0.32724898143E+01  0.18104991454E+02  0.36953468570E+01  0.18765806506E+02  0.51100000000E-03 0. -1.
        -11    1    3    3    0    0 -0.22215216377E+01  0.12307499325E+02  0.83719088930E+01  0.15049868996E+02  0.51100000000E-03 0.  1.
         12    1    3    3    0    0  0.10443468962E+02  0.77576882880E+01  0.50948713647E+01  0.13971595677E+02  0.00000000000E+00 0. -1.
</event>
<event>
 7    1  0.2769403E-010  0.4778728E+02  0.7816164E-02  0.1312668E+00
        -11   -1    0    0    0    0  0.00000000000E+00  0.00000000000E+00  0.45593999997E+02  0.45594000000E+02  0.51100000000E-03 0.  1.
         11   -1    0    0    0    0 -0.00000000000E+00 -0.00000000000E+00 -0.45593999997E+02  0.45594000000E+02  0.51100000000E-03 0. -1.
    9900012    2    1    2    0    0  0.31012387293E+02 -0.19620876705E+02  0.23170578021E+02  0.47787278185E+02  0.20000032556E+02 0.  0.
         12    1    1    2    0    0 -0.31012387293E+02  0.19620876705E+02 -0.23170578021E+02  0.43400721815E+02  0.00000000000E+00 0. -1.
         11    1    3    3    0    0  0.22876770465E+01 -0.21865225270E+01  0.61226575341E+01  0.68921174229E+01  0.51100000000E-03 0. -1.
        -11    1    3    3    0    0  0.18397480820E+02 -0.19308585439E+02  0.12574207316E+02  0.29485580579E+02  0.51100000000E-03 0.  1.
        -12    1    3    3    0    0  0.10327229426E+02  0.18742312606E+01  0.44737131706E+01  0.11409580183E+02  0.00000000000E+00 0.  1.
</event>
<event>
 7    1  0.2769403E-010  0.4778727E+02  0.7816164E-02  0.1312668E+00
        -11   -1    0    0    0    0  0.00000000000E+00  0.00000000000E+00  0.45593999997E+02  0.45594000000E+02  0.51100000000E-03 0.  1.
         11   -1    0    0    0    0 -0.00000000000E+00 -0.00000000000E+00 -0.45593999997E+02  0.45594000000E+02  0.51100000000E-03 0. -1.
    9900012    2    1    2    0    0  0.52942242529E+00  0.27757199917E+02  0.33359868890E+02  0.47787270885E+02  0.19999999273E+02 0.  0.
         12    1    1    2    0    0 -0.52942242529E+00 -0.27757199917E+02 -0.33359868890E+02  0.43400729115E+02  0.00000000000E+00 0. -1.
         11    1    3    3    0    0 -0.66346006989E-01 -0.21572515353E+00  0.10198449494E+01  0.10445205199E+01  0.51100000000E-03 0. -1.
        -11    1    3    3    0    0  0.58563256830E+01  0.15178356903E+02  0.27749881362E+02  0.32167296819E+02  0.51100000000E-03 0.  1.
         12    1    3    3    0    0 -0.52605572508E+01  0.12794568168E+02  0.45901425789E+01  0.14575453546E+02  0.00000000000E+00 0. -1.
</event>
<event>
 7    1  0.2769403E-010  0.4778728E+02  0.7816164E-02  0.1312668E+00
        -11   -1    0    0    0    0  0.00000000000E+00  0.00000000000E+00  0.45593999997E+02  0.45594000000E+02  0.51100000000E-03 0.  1.
         11   -1    0    0    0    0 -0.00000000000E+00 -0.00000000000E+00 -0.45593999997E+02  0.45594000000E+02  0.51100000000E-03 0. -1.
    9900012    2    1    2    0    0  0.32867670251E+01  0.17728618326E+02  0.39478041833E+02  0.47787279589E+02  0.20000038959E+02 0.  0.
         12    1    1    2    0    0 -0.32867670251E+01 -0.17728618326E+02 -0.39478041833E+02  0.43400720411E+02  0.00000000000E+00 0. -1.
         11    1    3    3    0    0  0.63327869168E-02  0.15271604246E+02  0.12260121304E+02  0.19583986086E+02  0.51100000000E-03 0. -1.
        -11    1    3    3    0    0  0.16875706134E+01  0.16073561196E+01  0.24935609222E+01  0.34131121582E+01  0.51100000000E-03 0.  1.
        -12    1    3    3    0    0  0.15928636247E+01  0.84965796038E+00  0.24724359606E+02  0.24790181345E+02  0.00000000000E+00 0.  1.
</event>
<event>
 7    1  0.2769403E-010  0.4778728E+02  0.7816164E-02  0.1312668E+00
        -11   -1    0    0    0    0  0.00000000000E+00  0.00000000000E+00  0.45593999997E+02  0.45594000000E+02  0.51100000000E-03 0.  1.
         11   -1    0    0    0    0 -0.00000000000E+00 -0.00000000000E+00 -0.45593999997E+02  0.45594000000E+02  0.51100000000E-03 0. -1.
    9900012    2    1    2    0    0 -0.78584657859E+01  0.33244368879E+02  0.26770861127E+02  0.47787279359E+02  0.20000037911E+02 0.  0.
         12    1    1    2    0    0  0.78584657859E+01 -0.33244368879E+02 -0.26770861127E+02  0.43400720641E+02  0.00000000000E+00 0. -1.
         11    1    3    3    0    0 -0.29293027637E+01  0.27477368482E+01 -0.27325207873E+00  0.40256104416E+01  0.51100000000E-03 0. -1.
        -11    1    3    3    0    0  0.54782911223E+01  0.11474207312E+02  0.95820504899E+01  0.15921205950E+02  0.51100000000E-03 0.  1.
         12    1    3    3    0    0 -0.10407454145E+02  0.19022424719E+02  0.17462062716E+02  0.27840462967E+02  0.00000000000E+00 0. -1.
</event>
<event>
 7    1  0.2769403E-010  0.4778727E+02  0.7816164E-02  0.1312668E+00
        -11   -1    0    0    0    0  0.00000000000E+00  0.00000000000E+00  0.45593999997E+02  0.45594000000E+02  0.51100000000E-03 0. -1.
         11   -1    0    0    0    0 -0.00000000000E+00 -0.00000000000E+00 -0.45593999997E+02  0.45594000000E+02  0.51100000000E-03 0.  1.
    9900012    2    1    2    0    0 -0.58018412059E+01 -0.37833300362E+02 -0.20459789459E+02  0.47787274633E+02  0.20000016363E+02 0.  0.
         12    1    1    2    0    0  0.58018412059E+01  0.37833300362E+02  0.20459789459E+02  0.43400725367E+02  0.00000000000E+00 0. -1.
         11    1    3    3    0    0  0.28592623058E+01 -0.92955164382E+01  0.17540162966E+01  0.98822355880E+01  0.51100000000E-03 0. -1.
        -11    1    3    3    0    0 -0.11511425313E+01 -0.21440137762E+00 -0.63049506154E-01  0.11726348875E+01  0.51100000000E-03 0.  1.
         12    1    3    3    0    0 -0.75099609804E+01 -0.28323382546E+02 -0.22150756250E+02  0.36732404158E+02  0.00000000000E+00 0. -1.
</event>
<event>
 7    1  0.2769403E-010  0.4778727E+02  0.7816164E-02  0.1312668E+00
        -11   -1    0    0    0    0  0.00000000000E+00  0.00000000000E+00  0.45593999997E+02  0.45594000000E+02  0.51100000000E-03 0.  1.
         11   -1    0    0    0    0 -0.00000000000E+00 -0.00000000000E+00 -0.45593999997E+02  0.45594000000E+02  0.51100000000E-03 0. -1.
    9900012    2    1    2    0    0  0.34807787236E+02 -0.16360078676E+02  0.20109424091E+02  0.47787272312E+02  0.20000005779E+02 0.  0.
         12    1    1    2    0    0 -0.34807787236E+02  0.16360078676E+02 -0.20109424091E+02  0.43400727688E+02  0.00000000000E+00 0. -1.
         11    1    3    3    0    0  0.12239058333E+00 -0.52908921339E+01  0.20288887733E+01  0.56678839917E+01  0.51100000000E-03 0. -1.
        -11    1    3    3    0    0  0.16230322485E+02 -0.10361726264E+02  0.11937231474E+02  0.22655821209E+02  0.51100000000E-03 0.  1.
         12    1    3    3    0    0  0.18455074167E+02 -0.70746027852E+00  0.61433038445E+01  0.19463567111E+02  0.00000000000E+00 0. -1.
</event>
<event>
 7    1  0.2769403E-010  0.4778728E+02  0.7816164E-02  0.1312668E+00
        -11   -1    0    0    0    0  0.00000000000E+00  0.00000000000E+00  0.45593999997E+02  0.45594000000E+02  0.51100000000E-03 0. -1.
         11   -1    0    0    0    0 -0.00000000000E+00 -0.00000000000E+00 -0.45593999997E+02  0.45594000000E+02  0.51100000000E-03 0.  1.
    9900012    2    1    2    0    0 -0.13571426705E+02 -0.89325165539E+01 -0.40244867075E+02  0.47787276496E+02  0.20000024855E+02 0.  0.
         12    1    1    2    0    0  0.13571426705E+02  0.89325165539E+01  0.40244867075E+02  0.43400723504E+02  0.00000000000E+00 0. -1.
         11    1    3    3    0    0 -0.24235128941E+01 -0.72964797571E+01 -0.11111496527E+02  0.13512120001E+02  0.51100000000E-03 0. -1.
        -11    1    3    3    0    0 -0.76769274091E+01 -0.56535436088E+01 -0.78809724215E+01  0.12369619895E+02  0.51100000000E-03 0.  1.
        -12    1    3    3    0    0 -0.34709864019E+01  0.40175068120E+01 -0.21252398126E+02  0.21905536599E+02  0.00000000000E+00 0.  1.
</event>
<event>
 7    1  0.2769403E-010  0.4778727E+02  0.7816164E-02  0.1312668E+00
        -11   -1    0    0    0    0  0.00000000000E+00  0.00000000000E+00  0.45593999997E+02  0.45594000000E+02  0.51100000000E-03 0.  1.
         11   -1    0    0    0    0 -0.00000000000E+00 -0.00000000000E+00 -0.45593999997E+02  0.45594000000E+02  0.51100000000E-03 0. -1.
    9900012    2    1    2    0    0  0.10753487375E+02  0.10416360345E+02  0.40736778003E+02  0.47787272637E+02  0.20000007260E+02 0.  0.
         12    1    1    2    0    0 -0.10753487375E+02 -0.10416360345E+02 -0.40736778003E+02  0.43400727363E+02  0.00000000000E+00 0. -1.
         11    1    3    3    0    0  0.13874865592E+01  0.38575562641E+01  0.11752017330E+02  0.12446516415E+02  0.51100000000E-03 0. -1.
        -11    1    3    3    0    0  0.11011648858E+02  0.37628225632E+01  0.29803470943E+02  0.31994720263E+02  0.51100000000E-03 0.  1.
         12    1    3    3    0    0 -0.16456480425E+01  0.27959815180E+01 -0.81871026968E+00  0.33460359584E+01  0.00000000000E+00 0. -1.
</event>
<event>
 7    1  0.2769403E-010  0.4778722E+02  0.7816164E-02  0.1312668E+00
        -11   -1    0    0    0    0  0.00000000000E+00  0.00000000000E+00  0.45593999997E+02  0.45594000000E+02  0.51100000000E-03 0.  1.
         11   -1    0    0    0    0 -0.00000000000E+00 -0.00000000000E+00 -0.45593999997E+02  0.45594000000E+02  0.51100000000E-03 0. -1.
    9900012    2    1    2    0    0 -0.24177154417E+02 -0.95397052095E+01  0.34757539083E+02  0.47787224727E+02  0.19999788821E+02 0.  0.
         12    1    1    2    0    0  0.24177154417E+02  0.95397052095E+01 -0.34757539083E+02  0.43400775273E+02  0.00000000000E+00 0. -1.
         11    1    3    3    0    0 -0.10737415544E+02  0.13751290628E+01  0.15685641500E+02  0.19058395054E+02  0.51100000000E-03 0.  1.
        -11    1    3    3    0    0  0.17957155068E+00 -0.74187447543E+01  0.63506579140E+01  0.97673371946E+01  0.51100000000E-03 0. -1.
         12    1    3    3    0    0 -0.13619310423E+02 -0.34960895180E+01  0.12721239669E+02  0.18961492479E+02  0.00000000000E+00 0. -1.
</event>
<event>
 7    1  0.2769403E-010  0.4778727E+02  0.7816164E-02  0.1312668E+00
        -11   -1    0    0    0    0  0.00000000000E+00  0.00000000000E+00  0.45593999997E+02  0.45594000000E+02  0.51100000000E-03 0. -1.
         11   -1    0    0    0    0 -0.00000000000E+00 -0.00000000000E+00 -0.45593999997E+02  0.45594000000E+02  0.51100000000E-03 0.  1.
    9900012    2    1    2    0    0  0.41397291449E+02 -0.23295126559E+01  0.12824229870E+02  0.47787271432E+02  0.20000001765E+02 0.  0.
         12    1    1    2    0    0 -0.41397291449E+02  0.23295126559E+01 -0.12824229870E+02  0.43400728568E+02  0.00000000000E+00 0. -1.
         11    1    3    3    0    0  0.75380241013E+01 -0.53041876347E+01  0.94866767196E+00  0.92658612351E+01  0.51100000000E-03 0.  1.
        -11    1    3    3    0    0  0.94236519827E-01 -0.18396494243E+00  0.36103748942E+01  0.36162868746E+01  0.51100000000E-03 0. -1.
        -12    1    3    3    0    0  0.33765030828E+02  0.31586399212E+01  0.82651873036E+01  0.34905123322E+02  0.00000000000E+00 0.  1.
</event>
<event>
 7    1  0.2769403E-010  0.4778728E+02  0.7816164E-02  0.1312668E+00
        -11   -1    0    0    0    0  0.00000000000E+00  0.00000000000E+00  0.45593999997E+02  0.45594000000E+02  0.51100000000E-03 0.  1.
         11   -1    0    0    0    0 -0.00000000000E+00 -0.00000000000E+00 -0.45593999997E+02  0.45594000000E+02  0.51100000000E-03 0. -1.
    9900012    2    1    2    0    0 -0.22563428448E+02 -0.33532799865E+02  0.15813468971E+02  0.47787276838E+02  0.20000026416E+02 0.  0.
         12    1    1    2    0    0  0.22563428448E+02  0.33532799865E+02 -0.15813468971E+02  0.43400723162E+02  0.00000000000E+00 0. -1.
         11    1    3    3    0    0 -0.61691931542E+01 -0.97282600183E+01  0.69586021457E+01  0.13458087949E+02  0.51100000000E-03 0. -1.
        -11    1    3    3    0    0 -0.17610374741E+02 -0.20090391470E+02  0.24527269355E+01  0.26828436362E+02  0.51100000000E-03 0.  1.
         12    1    3    3    0    0  0.12161394472E+01 -0.37141483758E+01  0.64021398896E+01  0.75007525275E+01  0.00000000000E+00 0. -1.
</event>
<event>
 7    1  0.2769403E-010  0.4778727E+02  0.7816164E-02  0.1312668E+00
        -11   -1    0    0    0    0  0.00000000000E+00  0.00000000000E+00  0.45593999997E+02  0.45594000000E+02  0.51100000000E-03 0.  1.
         11   -1    0    0    0    0 -0.00000000000E+00 -0.00000000000E+00 -0.45593999997E+02  0.45594000000E+02  0.51100000000E-03 0. -1.
    9900012    2    1    2    0    0 -0.29265018613E+02 -0.20081374951E+02  0.24978396409E+02  0.47787271648E+02  0.20000002752E+02 0.  0.
         12    1    1    2    0    0  0.29265018613E+02  0.20081374951E+02 -0.24978396409E+02  0.43400728352E+02  0.00000000000E+00 0. -1.
         11    1    3    3    0    0 -0.53880314309E+01 -0.12943065724E+02  0.15691203775E+02  0.21042046222E+02  0.51100000000E-03 0.  1.
        -11    1    3    3    0    0 -0.52809630775E+01 -0.38732201784E+00  0.18136786263E+01  0.55971438960E+01  0.51100000000E-03 0. -1.
        -12    1    3    3    0    0 -0.18596024104E+02 -0.67509872097E+01  0.74735140071E+01  0.21148081530E+02  0.00000000000E+00 0.  1.
</event>
<event>
 7    1  0.2769403E-010  0.4778728E+02  0.7816164E-02  0.1312668E+00
        -11   -1    0    0    0    0  0.00000000000E+00  0.00000000000E+00  0.45593999997E+02  0.45594000000E+02  0.51100000000E-03 0. -1.
         11   -1    0    0    0    0 -0.00000000000E+00 -0.00000000000E+00 -0.45593999997E+02  0.45594000000E+02  0.51100000000E-03 0.  1.
    9900012    2    1    2    0    0  0.38410449116E+02  0.16233628755E+02 -0.12030358638E+02  0.47787276125E+02  0.20000023166E+02 0.  0.
         12    1    1    2    0    0 -0.38410449116E+02 -0.16233628755E+02  0.12030358638E+02  0.43400723875E+02  0.00000000000E+00 0. -1.
         11    1    3    3    0    0  0.31910838443E+01  0.42361329804E+01 -0.60086243279E+01  0.80144497817E+01  0.51100000000E-03 0.  1.
        -11    1    3    3    0    0  0.34000596809E+01  0.51692720986E+01 -0.35548954432E+01  0.71357593664E+01  0.51100000000E-03 0. -1.
        -12    1    3    3    0    0  0.31819305591E+02  0.68282236764E+01 -0.24668388665E+01  0.32637066977E+02  0.00000000000E+00 0.  1.
</event>
<event>
 7    1  0.2769403E-010  0.4778727E+02  0.7816164E-02  0.1312668E+00
        -11   -1    0    0    0    0  0.00000000000E+00  0.00000000000E+00  0.45593999997E+02  0.45594000000E+02  0.51100000000E-03 0.  1.
         11   -1    0    0    0    0 -0.00000000000E+00 -0.00000000000E+00 -0.45593999997E+02  0.45594000000E+02  0.51100000000E-03 0. -1.
    9900012    2    1    2    0    0  0.15901334967E+02 -0.21594370861E+02  0.34124093975E+02  0.47787273091E+02  0.20000009331E+02 0.  0.
         12    1    1    2    0    0 -0.15901334967E+02  0.21594370861E+02 -0.34124093975E+02  0.43400726909E+02  0.00000000000E+00 0. -1.
         11    1    3    3    0    0  0.11418761516E+02 -0.11234040767E+02  0.22113873680E+02  0.27305955319E+02  0.51100000000E-03 0. -1.
        -11    1    3    3    0    0  0.16409234955E+01  0.22919522993E+01  0.18266516966E-01  0.28188666494E+01  0.51100000000E-03 0.  1.
         12    1    3    3    0    0  0.28416499557E+01 -0.12652282393E+02  0.11991953778E+02  0.17662451122E+02  0.00000000000E+00 0. -1.
</event>
<event>
 7    1  0.3043222E-010  0.4778726E+02  0.7816164E-02  0.1312668E+00
        -11   -1    0    0    0    0  0.00000000000E+00  0.00000000000E+00  0.45593999997E+02  0.45594000000E+02  0.51100000000E-03 0. -1.
         11   -1    0    0    0    0 -0.00000000000E+00 -0.00000000000E+00 -0.45593999997E+02  0.45594000000E+02  0.51100000000E-03 0.  1.
    9900012    2    1    2    0    0  0.15867447877E+02 -0.20088716890E+02 -0.35046991032E+02  0.47787262347E+02  0.19999960346E+02 0.  0.
         12    1    1    2    0    0 -0.15867447877E+02  0.20088716890E+02  0.35046991032E+02  0.43400737653E+02  0.00000000000E+00 0. -1.
         11    1    3    3    0    0  0.29121959093E+01 -0.56023987650E+01 -0.55216705720E-01  0.63143333838E+01  0.51100000000E-03 0. -1.
        -11    1    3    3    0    0  0.10874077113E+02 -0.10407301704E+02 -0.16125105606E+02  0.22058479388E+02  0.51100000000E-03 0.  1.
         12    1    3    3    0    0  0.20811748546E+01 -0.40790164201E+01 -0.18866668720E+02  0.19414449576E+02  0.00000000000E+00 0. -1.
</event>
<event>
 7    1  0.3776878E-010  0.4778730E+02  0.7816164E-02  0.1312668E+00
        -11   -1    0    0    0    0  0.00000000000E+00  0.00000000000E+00  0.45593999997E+02  0.45594000000E+02  0.51100000000E-03 0.  1.
         11   -1    0    0    0    0 -0.00000000000E+00 -0.00000000000E+00 -0.45593999997E+02  0.45594000000E+02  0.51100000000E-03 0. -1.
    9900012    2    1    2    0    0 -0.42095970854E+01  0.43062124735E+02 -0.33989877029E+01  0.47787304018E+02  0.20000150339E+02 0.  0.
         12    1    1    2    0    0  0.42095970854E+01 -0.43062124735E+02  0.33989877029E+01  0.43400695982E+02  0.00000000000E+00 0. -1.
         11    1    3    3    0    0 -0.57582897799E+01  0.22526208154E+02 -0.35340358893E+01  0.23517596921E+02  0.51100000000E-03 0. -1.
        -11    1    3    3    0    0  0.56291033841E+00  0.19422130830E+02  0.42539289788E+01  0.19890498889E+02  0.51100000000E-03 0.  1.
         12    1    3    3    0    0  0.98578235602E+00  0.11137857507E+01 -0.41188807923E+01  0.43792082085E+01  0.00000000000E+00 0. -1.
</event>
<event>
 7    1  0.2769403E-010  0.4778727E+02  0.7816164E-02  0.1312668E+00
        -11   -1    0    0    0    0  0.00000000000E+00  0.00000000000E+00  0.45593999997E+02  0.45594000000E+02  0.51100000000E-03 0. -1.
         11   -1    0    0    0    0 -0.00000000000E+00 -0.00000000000E+00 -0.45593999997E+02  0.45594000000E+02  0.51100000000E-03 0.  1.
    9900012    2    1    2    0    0 -0.41729160812E+02  0.11875715774E+02 -0.11259187183E+01  0.47787272124E+02  0.20000004920E+02 0.  0.
         12    1    1    2    0    0  0.41729160812E+02 -0.11875715774E+02  0.11259187183E+01  0.43400727876E+02  0.00000000000E+00 0. -1.
         11    1    3    3    0    0 -0.15209907917E+02  0.26755493893E+01 -0.10007578263E+01  0.15475832122E+02  0.51100000000E-03 0. -1.
        -11    1    3    3    0    0 -0.22424719755E+02  0.13060884324E+02  0.25582076762E+01  0.26076793940E+02  0.51100000000E-03 0.  1.
         12    1    3    3    0    0 -0.40945331407E+01 -0.38607179393E+01 -0.26833685681E+01  0.62346460621E+01  0.00000000000E+00 0. -1.
</event>
<event>
 7    1  0.2769403E-010  0.4778727E+02  0.7816164E-02  0.1312668E+00
        -11   -1    0    0    0    0  0.00000000000E+00  0.00000000000E+00  0.45593999997E+02  0.45594000000E+02  0.51100000000E-03 0.  1.
         11   -1    0    0    0    0 -0.00000000000E+00 -0.00000000000E+00 -0.45593999997E+02  0.45594000000E+02  0.51100000000E-03 0. -1.
    9900012    2    1    2    0    0 -0.64956814451E+01  0.33956293373E+02  0.26237362732E+02  0.47787274888E+02  0.20000017526E+02 0.  0.
         12    1    1    2    0    0  0.64956814451E+01 -0.33956293373E+02 -0.26237362732E+02  0.43400725112E+02  0.00000000000E+00 0. -1.
         11    1    3    3    0    0 -0.71275970788E+01  0.11384527671E+02  0.30184293986E+01  0.13766663601E+02  0.51100000000E-03 0.  1.
        -11    1    3    3    0    0  0.57189822915E+00 -0.10202222467E+01  0.51352834133E+00  0.12773537629E+01  0.51100000000E-03 0. -1.
        -12    1    3    3    0    0  0.60017404508E-01  0.23591987949E+02  0.22705404992E+02  0.32743257525E+02  0.00000000000E+00 0.  1.
</event>
<event>
 7    1  0.2769403E-010  0.4778727E+02  0.7816164E-02  0.1312668E+00
        -11   -1    0    0    0    0  0.00000000000E+00  0.00000000000E+00  0.45593999997E+02  0.45594000000E+02  0.51100000000E-03 0. -1.
         11   -1    0    0    0    0 -0.00000000000E+00 -0.00000000000E+00 -0.45593999997E+02  0.45594000000E+02  0.51100000000E-03 0.  1.
    9900012    2    1    2    0    0 -0.77225306109E+01  0.41705528397E+02 -0.91996991755E+01  0.47787273706E+02  0.20000012134E+02 0.  0.
         12    1    1    2    0    0  0.77225306109E+01 -0.41705528397E+02  0.91996991755E+01  0.43400726294E+02  0.00000000000E+00 0. -1.
         11    1    3    3    0    0 -0.11594011748E+02  0.26332708820E+02 -0.11811437741E+02  0.31102133753E+02  0.51100000000E-03 0. -1.
        -11    1    3    3    0    0  0.87979195881E+00  0.45716322704E+01 -0.12674356656E+01  0.48249610293E+01  0.51100000000E-03 0.  1.
         12    1    3    3    0    0  0.29916891784E+01  0.10801187307E+02  0.38791742313E+01  0.11860178923E+02  0.00000000000E+00 0. -1.
</event>
<event>
 7    1  0.2769403E-010  0.4778726E+02  0.7816164E-02  0.1312668E+00
        -11   -1    0    0    0    0  0.00000000000E+00  0.00000000000E+00  0.45593999997E+02  0.45594000000E+02  0.51100000000E-03 0.  1.
         11   -1    0    0    0    0 -0.00000000000E+00 -0.00000000000E+00 -0.45593999997E+02  0.45594000000E+02  0.51100000000E-03 0. -1.
    9900012    2    1    2    0    0 -0.10415256419E+02 -0.41350342776E+02 -0.80805611090E+01  0.47787264040E+02  0.19999968066E+02 0.  0.
         12    1    1    2    0    0  0.10415256419E+02  0.41350342776E+02  0.80805611090E+01  0.43400735960E+02  0.00000000000E+00 0. -1.
         11    1    3    3    0    0 -0.48037633876E+01 -0.11952591423E+02  0.45776813710E+00  0.12889923830E+02  0.51100000000E-03 0.  1.
        -11    1    3    3    0    0 -0.10437005590E+02 -0.16653315247E+02 -0.81158876422E+01  0.21263387004E+02  0.51100000000E-03 0. -1.
         12    1    3    3    0    0  0.48255125589E+01 -0.12744436107E+02 -0.42244160396E+00  0.13633953207E+02  0.00000000000E+00 0. -1.
</event>
<event>
 7    1  0.2769403E-010  0.4778729E+02  0.7816164E-02  0.1312668E+00
        -11   -1    0    0    0    0  0.00000000000E+00  0.00000000000E+00  0.45593999997E+02  0.45594000000E+02  0.51100000000E-03 0.  1.
         11   -1    0    0    0    0 -0.00000000000E+00 -0.00000000000E+00 -0.45593999997E+02  0.45594000000E+02  0.51100000000E-03 0. -1.
    9900012    2    1    2    0    0  0.18268839284E+02 -0.29865689291E+02  0.25649797777E+02  0.47787285586E+02  0.20000066303E+02 0.  0.
         12    1    1    2    0    0 -0.18268839284E+02  0.29865689291E+02 -0.25649797777E+02  0.43400714414E+02  0.00000000000E+00 0. -1.
         11    1    3    3    0    0  0.18869343607E+02 -0.20731320462E+02  0.18857064481E+02  0.33785035998E+02  0.51100000000E-03 0. -1.
        -11    1    3    3    0    0  0.11897219710E+01 -0.88627307583E+01  0.78555576465E+01  0.11902656051E+02  0.51100000000E-03 0.  1.
         12    1    3    3    0    0 -0.17902262939E+01 -0.27163807058E+00 -0.10628243508E+01  0.20995935381E+01  0.00000000000E+00 0. -1.
</event>
<event>
 7    1  0.2769403E-010  0.4778727E+02  0.7816164E-02  0.1312668E+00
        -11   -1    0    0    0    0  0.00000000000E+00  0.00000000000E+00  0.45593999997E+02  0.45594000000E+02  0.51100000000E-03 0.  1.
         11   -1    0    0    0    0 -0.00000000000E+00 -0.00000000000E+00 -0.45593999997E+02  0.45594000000E+02  0.51100000000E-03 0. -1.
    9900012    2    1    2    0    0  0.31676228464E+02  0.29656086547E+02  0.86982774276E+00  0.47787268217E+02  0.19999987110E+02 0.  0.
         12    1    1    2    0    0 -0.31676228464E+02 -0.29656086547E+02 -0.86982774276E+00  0.43400731783E+02  0.00000000000E+00 0. -1.
         11    1    3    3    0    0  0.19913215599E+01 -0.72331045611E+00 -0.64427935156E+00  0.22144154341E+01  0.51100000000E-03 0. -1.
        -11    1    3    3    0    0  0.59546912569E+01  0.10478472353E+02 -0.63454981182E+01  0.13620648936E+02  0.51100000000E-03 0.  1.
         12    1    3    3    0    0  0.23730215647E+02  0.19900924650E+02  0.78596052126E+01  0.31952203847E+02  0.00000000000E+00 0. -1.
</event>
<event>
 7    1  0.2769403E-010  0.4778727E+02  0.7816164E-02  0.1312668E+00
        -11   -1    0    0    0    0  0.00000000000E+00  0.00000000000E+00  0.45593999997E+02  0.45594000000E+02  0.51100000000E-03 0.  1.
         11   -1    0    0    0    0 -0.00000000000E+00 -0.00000000000E+00 -0.45593999997E+02  0.45594000000E+02  0.51100000000E-03 0. -1.
    9900012    2    1    2    0    0  0.43016682326E+02  0.29468150961E+01 -0.49501813729E+01  0.47787274508E+02  0.20000015794E+02 0.  0.
         12    1    1    2    0    0 -0.43016682326E+02 -0.29468150961E+01  0.49501813729E+01  0.43400725492E+02  0.00000000000E+00 0. -1.
         11    1    3    3    0    0  0.31706318532E+01  0.47407971522E+01  0.59710167628E+00  0.57345091036E+01  0.51100000000E-03 0. -1.
        -11    1    3    3    0    0  0.64901830072E+01 -0.48126336955E+01 -0.23151523058E+01  0.84049895309E+01  0.51100000000E-03 0.  1.
        -12    1    3    3    0    0  0.33355867466E+02  0.30186516394E+01 -0.32321307434E+01  0.33647775874E+02  0.00000000000E+00 0.  1.
</event>
<event>
 7    1  0.2769403E-010  0.4778727E+02  0.7816164E-02  0.1312668E+00
        -11   -1    0    0    0    0  0.00000000000E+00  0.00000000000E+00  0.45593999997E+02  0.45594000000E+02  0.51100000000E-03 0.  1.
         11   -1    0    0    0    0 -0.00000000000E+00 -0.00000000000E+00 -0.45593999997E+02  0.45594000000E+02  0.51100000000E-03 0. -1.
    9900012    2    1    2    0    0 -0.15362639535E+02 -0.12158795660E+02  0.38726944649E+02  0.47787271351E+02  0.20000001399E+02 0.  0.
         12    1    1    2    0    0  0.15362639535E+02  0.12158795660E+02 -0.38726944649E+02  0.43400728649E+02  0.00000000000E+00 0. -1.
         11    1    3    3    0    0 -0.17233247393E+01 -0.38578547794E+01 -0.11982209307E+01  0.43918817511E+01  0.51100000000E-03 0. -1.
        -11    1    3    3    0    0 -0.79932409552E+01 -0.26973109811E+01  0.14734877126E+02  0.16978927872E+02  0.51100000000E-03 0.  1.
        -12    1    3    3    0    0 -0.56460738402E+01 -0.56036298997E+01  0.25190288454E+02  0.26416461728E+02  0.00000000000E+00 0.  1.
</event>
<event>
 7    1  0.2769403E-010  0.4778727E+02  0.7816164E-02  0.1312668E+00
        -11   -1    0    0    0    0  0.00000000000E+00  0.00000000000E+00  0.45593999997E+02  0.45594000000E+02  0.51100000000E-03 0.  1.
         11   -1    0    0    0    0 -0.00000000000E+00 -0.00000000000E+00 -0.45593999997E+02  0.45594000000E+02  0.51100000000E-03 0. -1.
    9900012    2    1    2    0    0  0.14662252403E+02 -0.12125438106E+02  0.39007888703E+02  0.47787271022E+02  0.19999999897E+02 0.  0.
         12    1    1    2    0    0 -0.14662252403E+02  0.12125438106E+02 -0.39007888703E+02  0.43400728978E+02  0.00000000000E+00 0. -1.
         11    1    3    3    0    0  0.10187127321E+02  0.52686980531E+00  0.11293507020E+02  0.15218359172E+02  0.51100000000E-03 0. -1.
        -11    1    3    3    0    0 -0.51430623202E+00  0.99645515253E+00  0.79949993233E+01  0.80732551188E+01  0.51100000000E-03 0.  1.
        -12    1    3    3    0    0  0.49894313145E+01 -0.13648763064E+02  0.19719382360E+02  0.24495656731E+02  0.00000000000E+00 0.  1.
</event>
<event>
 7    1  0.2769403E-010  0.4778727E+02  0.7816164E-02  0.1312668E+00
        -11   -1    0    0    0    0  0.00000000000E+00  0.00000000000E+00  0.45593999997E+02  0.45594000000E+02  0.51100000000E-03 0.  1.
         11   -1    0    0    0    0 -0.00000000000E+00 -0.00000000000E+00 -0.45593999997E+02  0.45594000000E+02  0.51100000000E-03 0. -1.
    9900012    2    1    2    0    0  0.31669186660E+02 -0.17364401040E+02  0.24065813289E+02  0.47787272167E+02  0.20000005116E+02 0.  0.
         12    1    1    2    0    0 -0.31669186660E+02  0.17364401040E+02 -0.24065813289E+02  0.43400727833E+02  0.00000000000E+00 0. -1.
         11    1    3    3    0    0  0.22374562711E+02 -0.81500297097E+01  0.75212013481E+01  0.24972234797E+02  0.51100000000E-03 0. -1.
        -11    1    3    3    0    0  0.53379559367E+01 -0.20910011498E+01  0.18705340671E+01  0.60303364208E+01  0.51100000000E-03 0.  1.
        -12    1    3    3    0    0  0.39566680129E+01 -0.71233701803E+01  0.14674077874E+02  0.16784700949E+02  0.00000000000E+00 0.  1.
</event>
<event>
 7    1  0.2769403E-010  0.4778727E+02  0.7816164E-02  0.1312668E+00
        -11   -1    0    0    0    0  0.00000000000E+00  0.00000000000E+00  0.45593999997E+02  0.45594000000E+02  0.51100000000E-03 0.  1.
         11   -1    0    0    0    0 -0.00000000000E+00 -0.00000000000E+00 -0.45593999997E+02  0.45594000000E+02  0.51100000000E-03 0. -1.
    9900012    2    1    2    0    0 -0.20298251558E+02 -0.22031120285E+01  0.38298183621E+02  0.47787267431E+02  0.19999983523E+02 0.  0.
         12    1    1    2    0    0  0.20298251558E+02  0.22031120285E+01 -0.38298183621E+02  0.43400732569E+02  0.00000000000E+00 0. -1.
         11    1    3    3    0    0 -0.12596887554E+02  0.32517565565E+01  0.73711527382E+01  0.14952905728E+02  0.51100000000E-03 0. -1.
        -11    1    3    3    0    0 -0.60962512824E+01 -0.21168739797E+01  0.12822677699E+02  0.14355016502E+02  0.51100000000E-03 0.  1.
         12    1    3    3    0    0 -0.16051127209E+01 -0.33379946053E+01  0.18104353184E+02  0.18479345200E+02  0.00000000000E+00 0. -1.
</event>
<event>
 7    1  0.2769403E-010  0.4778727E+02  0.7816164E-02  0.1312668E+00
        -11   -1    0    0    0    0  0.00000000000E+00  0.00000000000E+00  0.45593999997E+02  0.45594000000E+02  0.51100000000E-03 0.  1.
         11   -1    0    0    0    0 -0.00000000000E+00 -0.00000000000E+00 -0.45593999997E+02  0.45594000000E+02  0.51100000000E-03 0. -1.
    9900012    2    1    2    0    0  0.28453099400E+02 -0.29328343257E+02  0.14625063576E+02  0.47787273413E+02  0.20000010799E+02 0.  0.
         12    1    1    2    0    0 -0.28453099400E+02  0.29328343257E+02 -0.14625063576E+02  0.43400726587E+02  0.00000000000E+00 0. -1.
         11    1    3    3    0    0  0.19271892519E+00  0.61858705509E+00 -0.10611784353E+01  0.12433384340E+01  0.51100000000E-03 0. -1.
        -11    1    3    3    0    0  0.23355045327E+01 -0.94441057623E+01  0.80343309345E+01  0.12617297210E+02  0.51100000000E-03 0.  1.
         12    1    3    3    0    0  0.25924875943E+02 -0.20502824550E+02  0.76519110764E+01  0.33926637769E+02  0.00000000000E+00 0. -1.
</event>
<event>
 7    1  0.2769403E-010  0.4778728E+02  0.7816164E-02  0.1312668E+00
        -11   -1    0    0    0    0  0.00000000000E+00  0.00000000000E+00  0.45593999997E+02  0.45594000000E+02  0.51100000000E-03 0.  1.
         11   -1    0    0    0    0 -0.00000000000E+00 -0.00000000000E+00 -0.45593999997E+02  0.45594000000E+02  0.51100000000E-03 0. -1.
    9900012    2    1    2    0    0 -0.31957230560E+02  0.27714290371E+02  0.97096061073E+01  0.47787275045E+02  0.20000018242E+02 0.  0.
         12    1    1    2    0    0  0.31957230560E+02 -0.27714290371E+02 -0.97096061073E+01  0.43400724955E+02  0.00000000000E+00 0. -1.
         11    1    3    3    0    0 -0.21341129758E+02  0.23248336159E+02  0.73776769739E+01  0.32409243609E+02  0.51100000000E-03 0. -1.
        -11    1    3    3    0    0  0.20959970093E+00  0.41668513280E+01  0.17746571419E+01  0.45338714424E+01  0.51100000000E-03 0.  1.
        -12    1    3    3    0    0 -0.10825700503E+02  0.29910288430E+00  0.55727199151E+00  0.10844159994E+02  0.00000000000E+00 0.  1.
</event>
<event>
 7    1  0.2769403E-010  0.4778727E+02  0.7816164E-02  0.1312668E+00
        -11   -1    0    0    0    0  0.00000000000E+00  0.00000000000E+00  0.45593999997E+02  0.45594000000E+02  0.51100000000E-03 0.  1.
         11   -1    0    0    0    0 -0.00000000000E+00 -0.00000000000E+00 -0.45593999997E+02  0.45594000000E+02  0.51100000000E-03 0. -1.
    9900012    2    1    2    0    0  0.13065452710E+02  0.22759183681E+02  0.34567861389E+02  0.47787268009E+02  0.19999986160E+02 0.  0.
         12    1    1    2    0    0 -0.13065452710E+02 -0.22759183681E+02 -0.34567861389E+02  0.43400731991E+02  0.00000000000E+00 0. -1.
         11    1    3    3    0    0  0.18724480193E+00  0.12668695777E+02  0.16462237014E+02  0.20773448464E+02  0.51100000000E-03 0. -1.
        -11    1    3    3    0    0 -0.16373337051E+01  0.34615305612E+01  0.53789442654E+01  0.66027340670E+01  0.51100000000E-03 0.  1.
         12    1    3    3    0    0  0.14515541613E+02  0.66289573430E+01  0.12726680109E+02  0.20411085478E+02  0.00000000000E+00 0. -1.
</event>
<event>
 7    1  0.2769403E-010  0.4778728E+02  0.7816164E-02  0.1312668E+00
        -11   -1    0    0    0    0  0.00000000000E+00  0.00000000000E+00  0.45593999997E+02  0.45594000000E+02  0.51100000000E-03 0.  1.
         11   -1    0    0    0    0 -0.00000000000E+00 -0.00000000000E+00 -0.45593999997E+02  0.45594000000E+02  0.51100000000E-03 0. -1.
    9900012    2    1    2    0    0 -0.44014718062E+01  0.41231966328E+02  0.12813062568E+02  0.47787279111E+02  0.20000036778E+02 0.  0.
         12    1    1    2    0    0  0.44014718062E+01 -0.41231966328E+02 -0.12813062568E+02  0.43400720889E+02  0.00000000000E+00 0. -1.
         11    1    3    3    0    0  0.12863261550E+01  0.56383411017E+01  0.20045144123E+01  0.61207518857E+01  0.51100000000E-03 0.  1.
        -11    1    3    3    0    0 -0.16106539719E+01  0.21930685256E+02 -0.25387251344E+01  0.22135814590E+02  0.51100000000E-03 0. -1.
         12    1    3    3    0    0 -0.40771439893E+01  0.13662939970E+02  0.13347273290E+02  0.19530712635E+02  0.00000000000E+00 0. -1.
</event>
<event>
 7    1  0.2769403E-010  0.4778730E+02  0.7816164E-02  0.1312668E+00
        -11   -1    0    0    0    0  0.00000000000E+00  0.00000000000E+00  0.45593999997E+02  0.45594000000E+02  0.51100000000E-03 0.  1.
         11   -1    0    0    0    0 -0.00000000000E+00 -0.00000000000E+00 -0.45593999997E+02  0.45594000000E+02  0.51100000000E-03 0. -1.
    9900012    2    1    2    0    0  0.38434227864E+01  0.27542009015E+02  0.33320969021E+02  0.47787295676E+02  0.20000112307E+02 0.  0.
         12    1    1    2    0    0 -0.38434227864E+01 -0.27542009015E+02 -0.33320969021E+02  0.43400704324E+02  0.00000000000E+00 0. -1.
         11    1    3    3    0    0  0.85004521674E+01  0.21393080539E+02  0.20877159915E+02  0.31076959124E+02  0.51100000000E-03 0.  1.
        -11    1    3    3    0    0  0.16433442360E+01 -0.16138874483E+00  0.44061091103E+01  0.47053612357E+01  0.51100000000E-03 0. -1.
        -12    1    3    3    0    0 -0.63003736171E+01  0.63103172209E+01  0.80376999955E+01  0.12004975317E+02  0.00000000000E+00 0.  1.
</event>
<event>
 7    1  0.2769403E-010  0.4778727E+02  0.7816164E-02  0.1312668E+00
        -11   -1    0    0    0    0  0.00000000000E+00  0.00000000000E+00  0.45593999997E+02  0.45594000000E+02  0.51100000000E-03 0. -1.
         11   -1    0    0    0    0 -0.00000000000E+00 -0.00000000000E+00 -0.45593999997E+02  0.45594000000E+02  0.51100000000E-03 0.  1.
    9900012    2    1    2    0    0 -0.31761219506E+02 -0.18343477288E+02  0.23202696684E+02  0.47787270088E+02  0.19999995638E+02 0.  0.
         12    1    1    2    0    0  0.31761219506E+02  0.18343477288E+02 -0.23202696684E+02  0.43400729912E+02  0.00000000000E+00 0. -1.
         11    1    3    3    0    0 -0.10703087607E+01 -0.18130912966E+01  0.54105827792E+00  0.21738457199E+01  0.51100000000E-03 0. -1.
        -11    1    3    3    0    0 -0.51886184530E+01  0.38131165631E+01  0.67100842375E+01  0.92998306496E+01  0.51100000000E-03 0.  1.
        -12    1    3    3    0    0 -0.25502292292E+02 -0.20343502554E+02  0.15951554169E+02  0.36313593718E+02  0.00000000000E+00 0.  1.
</event>
<event>
 7    1  0.2769403E-010  0.4778727E+02  0.7816164E-02  0.1312668E+00
        -11   -1    0    0    0    0  0.00000000000E+00  0.00000000000E+00  0.45593999997E+02  0.45594000000E+02  0.51100000000E-03 0.  1.
         11   -1    0    0    0    0 -0.00000000000E+00 -0.00000000000E+00 -0.45593999997E+02  0.45594000000E+02  0.51100000000E-03 0. -1.
    9900012    2    1    2    0    0 -0.32414815667E+02  0.24578148318E+02  0.15126716060E+02  0.47787272031E+02  0.20000004497E+02 0.  0.
         12    1    1    2    0    0  0.32414815667E+02 -0.24578148318E+02 -0.15126716060E+02  0.43400727969E+02  0.00000000000E+00 0. -1.
         11    1    3    3    0    0 -0.32749773120E+01  0.68108881985E+01 -0.32161506336E+01  0.82132392882E+01  0.51100000000E-03 0. -1.
        -11    1    3    3    0    0 -0.28597523118E+01  0.40151667172E+01  0.50943144139E+01  0.70888494596E+01  0.51100000000E-03 0.  1.
         12    1    3    3    0    0 -0.26280086044E+02  0.13752093402E+02  0.13248552280E+02  0.32485183283E+02  0.00000000000E+00 0. -1.
</event>
<event>
 7    1  0.2769403E-010  0.4778727E+02  0.7816164E-02  0.1312668E+00
        -11   -1    0    0    0    0  0.00000000000E+00  0.00000000000E+00  0.45593999997E+02  0.45594000000E+02  0.51100000000E-03 0.  1.
         11   -1    0    0    0    0 -0.00000000000E+00 -0.00000000000E+00 -0.45593999997E+02  0.45594000000E+02  0.51100000000E-03 0. -1.
    9900012    2    1    2    0    0 -0.32481534889E+02  0.15998688554E+01  0.28740451355E+02  0.47787271513E+02  0.20000002137E+02 0.  0.
         12    1    1    2    0    0  0.32481534889E+02 -0.15998688554E+01 -0.28740451355E+02  0.43400728487E+02  0.00000000000E+00 0. -1.
         11    1    3    3    0    0 -0.12364147515E+02 -0.76659939899E+01  0.13930091960E+02  0.20141674953E+02  0.51100000000E-03 0.  1.
        -11    1    3    3    0    0 -0.95243563680E+01  0.61420066252E+01  0.11429443992E+02  0.16095645369E+02  0.51100000000E-03 0. -1.
        -12    1    3    3    0    0 -0.10593031005E+02  0.31238562201E+01  0.33809154036E+01  0.11549951192E+02  0.00000000000E+00 0.  1.
</event>
<event>
 7    1  0.2769403E-010  0.4778727E+02  0.7816164E-02  0.1312668E+00
        -11   -1    0    0    0    0  0.00000000000E+00  0.00000000000E+00  0.45593999997E+02  0.45594000000E+02  0.51100000000E-03 0.  1.
         11   -1    0    0    0    0 -0.00000000000E+00 -0.00000000000E+00 -0.45593999997E+02  0.45594000000E+02  0.51100000000E-03 0. -1.
    9900012    2    1    2    0    0 -0.24594217833E+02  0.12986455382E+02  0.33318158709E+02  0.47787271043E+02  0.19999999995E+02 0.  0.
         12    1    1    2    0    0  0.24594217833E+02 -0.12986455382E+02 -0.33318158709E+02  0.43400728957E+02  0.00000000000E+00 0. -1.
         11    1    3    3    0    0 -0.46251790516E+01  0.11119501844E+01  0.21187588197E+00  0.47616810185E+01  0.51100000000E-03 0. -1.
        -11    1    3    3    0    0 -0.11213516735E+02 -0.16508934484E+01  0.14733872675E+02  0.18589120770E+02  0.51100000000E-03 0.  1.
         12    1    3    3    0    0 -0.87555220469E+01  0.13525398646E+02  0.18372410152E+02  0.24436469255E+02  0.00000000000E+00 0. -1.
</event>
<event>
 7    1  0.2769403E-010  0.4778727E+02  0.7816164E-02  0.1312668E+00
        -11   -1    0    0    0    0  0.00000000000E+00  0.00000000000E+00  0.45593999997E+02  0.45594000000E+02  0.51100000000E-03 0. -1.
         11   -1    0    0    0    0 -0.00000000000E+00 -0.00000000000E+00 -0.45593999997E+02  0.45594000000E+02  0.51100000000E-03 0.  1.
    9900012    2    1    2    0    0 -0.28603877011E+02 -0.31600253651E+02 -0.81771349892E+01  0.47787270196E+02  0.19999996133E+02 0.  0.
         12    1    1    2    0    0  0.28603877011E+02  0.31600253651E+02  0.81771349892E+01  0.43400729804E+02  0.00000000000E+00 0. -1.
         11    1    3    3    0    0 -0.96674323255E+01 -0.40883970664E+01  0.24014515327E+01  0.10767599921E+02  0.51100000000E-03 0. -1.
        -11    1    3    3    0    0 -0.11598062548E+02 -0.71585058945E+01 -0.21397086692E+01  0.13796289898E+02  0.51100000000E-03 0.  1.
         12    1    3    3    0    0 -0.73383821371E+01 -0.20353350690E+02 -0.84388778527E+01  0.23223380377E+02  0.00000000000E+00 0. -1.
</event>
<event>
 7    1  0.2769403E-010  0.4778727E+02  0.7816164E-02  0.1312668E+00
        -11   -1    0    0    0    0  0.00000000000E+00  0.00000000000E+00  0.45593999997E+02  0.45594000000E+02  0.51100000000E-03 0. -1.
         11   -1    0    0    0    0 -0.00000000000E+00 -0.00000000000E+00 -0.45593999997E+02  0.45594000000E+02  0.51100000000E-03 0.  1.
    9900012    2    1    2    0    0 -0.31242684864E+02 -0.27650754765E+02  0.11956313477E+02  0.47787273871E+02  0.20000012886E+02 0.  0.
         12    1    1    2    0    0  0.31242684864E+02  0.27650754765E+02 -0.11956313477E+02  0.43400726129E+02  0.00000000000E+00 0. -1.
         11    1    3    3    0    0  0.11649511127E+01 -0.21351202310E+01 -0.13593767540E+01  0.27863515421E+01  0.51100000000E-03 0.  1.
        -11    1    3    3    0    0  0.47690667804E-01  0.98333506079E+00  0.81100588748E+00  0.12755206985E+01  0.51100000000E-03 0. -1.
        -12    1    3    3    0    0 -0.32455326645E+02 -0.26498969595E+02  0.12504684343E+02  0.43725401630E+02  0.00000000000E+00 0.  1.
</event>
<event>
 7    1  0.2769403E-010  0.4778727E+02  0.7816164E-02  0.1312668E+00
        -11   -1    0    0    0    0  0.00000000000E+00  0.00000000000E+00  0.45593999997E+02  0.45594000000E+02  0.51100000000E-03 0.  1.
         11   -1    0    0    0    0 -0.00000000000E+00 -0.00000000000E+00 -0.45593999997E+02  0.45594000000E+02  0.51100000000E-03 0. -1.
    9900012    2    1    2    0    0 -0.12807726419E+02  0.28633286549E+02  0.29995337496E+02  0.47787271595E+02  0.20000002510E+02 0.  0.
         12    1    1    2    0    0  0.12807726419E+02 -0.28633286549E+02 -0.29995337496E+02  0.43400728405E+02  0.00000000000E+00 0. -1.
         11    1    3    3    0    0 -0.25750629107E+01  0.31098751494E+01  0.86066127760E+01  0.95066322206E+01  0.51100000000E-03 0. -1.
        -11    1    3    3    0    0 -0.35429878669E+01  0.15844798555E+02  0.20952640371E+02  0.26507047045E+02  0.51100000000E-03 0.  1.
         12    1    3    3    0    0 -0.66896756411E+01  0.96786128445E+01  0.43608434845E+00  0.11773592329E+02  0.00000000000E+00 0. -1.
</event>
<event>
 7    1  0.2769403E-010  0.4778728E+02  0.7816164E-02  0.1312668E+00
        -11   -1    0    0    0    0  0.00000000000E+00  0.00000000000E+00  0.45593999997E+02  0.45594000000E+02  0.51100000000E-03 0.  1.
         11   -1    0    0    0    0 -0.00000000000E+00 -0.00000000000E+00 -0.45593999997E+02  0.45594000000E+02  0.51100000000E-03 0. -1.
    9900012    2    1    2    0    0 -0.19203031743E+02 -0.13470757003E+02  0.36515814381E+02  0.47787280856E+02  0.20000044734E+02 0.  0.
         12    1    1    2    0    0  0.19203031743E+02  0.13470757003E+02 -0.36515814381E+02  0.43400719144E+02  0.00000000000E+00 0. -1.
         11    1    3    3    0    0 -0.12509442472E+02 -0.13120292406E+02  0.24236774863E+02  0.30266309320E+02  0.51100000000E-03 0. -1.
        -11    1    3    3    0    0 -0.86505312820E+01 -0.12049590871E+01  0.12631177830E+02  0.15356766310E+02  0.51100000000E-03 0.  1.
         12    1    3    3    0    0  0.19569420115E+01  0.85449449014E+00 -0.35213831291E+00  0.21642052263E+01  0.00000000000E+00 0. -1.
</event>
<event>
 7    1  0.2769403E-010  0.4778727E+02  0.7816164E-02  0.1312668E+00
        -11   -1    0    0    0    0  0.00000000000E+00  0.00000000000E+00  0.45593999997E+02  0.45594000000E+02  0.51100000000E-03 0. -1.
         11   -1    0    0    0    0 -0.00000000000E+00 -0.00000000000E+00 -0.45593999997E+02  0.45594000000E+02  0.51100000000E-03 0.  1.
    9900012    2    1    2    0    0 -0.75359417848E+01 -0.80281067143E+01 -0.41980740430E+02  0.47787268635E+02  0.19999989014E+02 0.  0.
         12    1    1    2    0    0  0.75359417848E+01  0.80281067143E+01  0.41980740430E+02  0.43400731365E+02  0.00000000000E+00 0. -1.
         11    1    3    3    0    0 -0.51151926989E+00 -0.45680484326E+00  0.22127898651E+01  0.23166272632E+01  0.51100000000E-03 0. -1.
        -11    1    3    3    0    0 -0.39583604199E+00 -0.92779217188E+00 -0.86652415577E+01  0.87237546962E+01  0.51100000000E-03 0.  1.
         12    1    3    3    0    0 -0.66285864729E+01 -0.66435096991E+01 -0.35528288737E+02  0.36746886675E+02  0.00000000000E+00 0. -1.
</event>
<event>
 7    1  0.2769403E-010  0.4778729E+02  0.7816164E-02  0.1312668E+00
        -11   -1    0    0    0    0  0.00000000000E+00  0.00000000000E+00  0.45593999997E+02  0.45594000000E+02  0.51100000000E-03 0.  1.
         11   -1    0    0    0    0 -0.00000000000E+00 -0.00000000000E+00 -0.45593999997E+02  0.45594000000E+02  0.51100000000E-03 0. -1.
    9900012    2    1    2    0    0 -0.18812502177E+02 -0.14285687674E+02  0.36409212700E+02  0.47787287103E+02  0.20000073218E+02 0.  0.
         12    1    1    2    0    0  0.18812502177E+02  0.14285687674E+02 -0.36409212700E+02  0.43400712897E+02  0.00000000000E+00 0. -1.
         11    1    3    3    0    0 -0.77754424694E+00 -0.57231880038E+01  0.43510214174E+01  0.72312408077E+01  0.51100000000E-03 0. -1.
        -11    1    3    3    0    0 -0.40068413619E+01 -0.84239926112E+01  0.63988998336E+01  0.11312132803E+02  0.51100000000E-03 0.  1.
         12    1    3    3    0    0 -0.14028116569E+02 -0.13850705915E+00  0.25659291449E+02  0.29243913492E+02  0.00000000000E+00 0. -1.
</event>
<event>
 7    1  0.2769403E-010  0.4778727E+02  0.7816164E-02  0.1312668E+00
        -11   -1    0    0    0    0  0.00000000000E+00  0.00000000000E+00  0.45593999997E+02  0.45594000000E+02  0.51100000000E-03 0. -1.
         11   -1    0    0    0    0 -0.00000000000E+00 -0.00000000000E+00 -0.45593999997E+02  0.45594000000E+02  0.51100000000E-03 0.  1.
    9900012    2    1    2    0    0 -0.31887844480E+02 -0.10017026257E+02 -0.27684794559E+02  0.47787270855E+02  0.19999999135E+02 0.  0.
         12    1    1    2    0    0  0.31887844480E+02  0.10017026257E+02  0.27684794559E+02  0.43400729145E+02  0.00000000000E+00 0. -1.
         11    1    3    3    0    0 -0.58372482560E+01 -0.69958703573E+01 -0.28900101410E+01  0.95586520041E+01  0.51100000000E-03 0. -1.
        -11    1    3    3    0    0 -0.77350746570E+01 -0.68532919161E+01 -0.77540199063E+01  0.12919899961E+02  0.51100000000E-03 0.  1.
        -12    1    3    3    0    0 -0.18315521567E+02  0.38321360166E+01 -0.17040764511E+02  0.25308718890E+02  0.00000000000E+00 0.  1.
</event>
<event>
 7    1  0.2769403E-010  0.4778727E+02  0.7816164E-02  0.1312668E+00
        -11   -1    0    0    0    0  0.00000000000E+00  0.00000000000E+00  0.45593999997E+02  0.45594000000E+02  0.51100000000E-03 0.  1.
         11   -1    0    0    0    0 -0.00000000000E+00 -0.00000000000E+00 -0.45593999997E+02  0.45594000000E+02  0.51100000000E-03 0. -1.
    9900012    2    1    2    0    0  0.41873637922E+02  0.16884796679E+01  0.11285861997E+02  0.47787271925E+02  0.20000004013E+02 0.  0.
         12    1    1    2    0    0 -0.41873637922E+02 -0.16884796679E+01 -0.11285861997E+02  0.43400728075E+02  0.00000000000E+00 0. -1.
         11    1    3    3    0    0  0.17588112917E+01  0.70800776524E+00 -0.27156445408E+01  0.33120111244E+01  0.51100000000E-03 0. -1.
        -11    1    3    3    0    0  0.75090605326E+00 -0.20023768151E+01  0.26371624043E+01  0.33952906530E+01  0.51100000000E-03 0.  1.
         12    1    3    3    0    0  0.39363920578E+02  0.29828487178E+01  0.11364344134E+02  0.41079970147E+02  0.00000000000E+00 0. -1.
</event>
<event>
 7    1  0.2769403E-010  0.4778727E+02  0.7816164E-02  0.1312668E+00
        -11   -1    0    0    0    0  0.00000000000E+00  0.00000000000E+00  0.45593999997E+02  0.45594000000E+02  0.51100000000E-03 0.  1.
         11   -1    0    0    0    0 -0.00000000000E+00 -0.00000000000E+00 -0.45593999997E+02  0.45594000000E+02  0.51100000000E-03 0. -1.
    9900012    2    1    2    0    0  0.24986638351E+02  0.11313233958E+02  0.33634830387E+02  0.47787272197E+02  0.20000005254E+02 0.  0.
         12    1    1    2    0    0 -0.24986638351E+02 -0.11313233958E+02 -0.33634830387E+02  0.43400727803E+02  0.00000000000E+00 0. -1.
         11    1    3    3    0    0  0.39770017567E+01  0.35274748174E+01  0.30795658527E+00  0.53248905228E+01  0.51100000000E-03 0. -1.
        -11    1    3    3    0    0  0.13484250021E+02  0.10148435034E+02  0.15275734949E+02  0.22763211785E+02  0.51100000000E-03 0.  1.
         12    1    3    3    0    0  0.75253865738E+01 -0.23626758930E+01  0.18051138852E+02  0.19699169889E+02  0.00000000000E+00 0. -1.
</event>
<event>
 7    1  0.2769403E-010  0.4778732E+02  0.7816164E-02  0.1312668E+00
        -11   -1    0    0    0    0  0.00000000000E+00  0.00000000000E+00  0.45593999997E+02  0.45594000000E+02  0.51100000000E-03 0.  1.
         11   -1    0    0    0    0 -0.00000000000E+00 -0.00000000000E+00 -0.45593999997E+02  0.45594000000E+02  0.51100000000E-03 0. -1.
    9900012    2    1    2    0    0 -0.45832577922E+01  0.40939982586E+02  0.13657626783E+02  0.47787318030E+02  0.20000214224E+02 0.  0.
         12    1    1    2    0    0  0.45832577922E+01 -0.40939982586E+02 -0.13657626783E+02  0.43400681970E+02  0.00000000000E+00 0. -1.
         11    1    3    3    0    0 -0.10060725828E+02  0.23452346642E+02  0.15525183131E+01  0.25566405312E+02  0.51100000000E-03 0. -1.
        -11    1    3    3    0    0  0.16356145826E+01  0.19390069903E+01  0.97762683601E+00  0.27185911173E+01  0.51100000000E-03 0.  1.
         12    1    3    3    0    0  0.38418534530E+01  0.15548628953E+02  0.11127481634E+02  0.19502321600E+02  0.00000000000E+00 0. -1.
</event>
<event>
 7    1  0.2769403E-010  0.4778728E+02  0.7816164E-02  0.1312668E+00
        -11   -1    0    0    0    0  0.00000000000E+00  0.00000000000E+00  0.45593999997E+02  0.45594000000E+02  0.51100000000E-03 0.  1.
         11   -1    0    0    0    0 -0.00000000000E+00 -0.00000000000E+00 -0.45593999997E+02  0.45594000000E+02  0.51100000000E-03 0. -1.
    9900012    2    1    2    0    0  0.16989214327E+02 -0.63976987068E+01  0.39421552104E+02  0.47787277396E+02  0.20000028961E+02 0.  0.
         12    1    1    2    0    0 -0.16989214327E+02  0.63976987068E+01 -0.39421552104E+02  0.43400722604E+02  0.00000000000E+00 0. -1.
         11    1    3    3    0    0  0.48922256439E+01  0.25313032604E+00  0.81508666449E+01  0.95097094613E+01  0.51100000000E-03 0.  1.
        -11    1    3    3    0    0 -0.43461401298E+01 -0.26207804795E+01  0.85530035209E+01  0.99454157198E+01  0.51100000000E-03 0. -1.
         12    1    3    3    0    0  0.16443128813E+02 -0.40300485534E+01  0.22717681939E+02  0.28332152215E+02  0.00000000000E+00 0. -1.
</event>
<event>
 7    1  0.2769403E-010  0.4778727E+02  0.7816164E-02  0.1312668E+00
        -11   -1    0    0    0    0  0.00000000000E+00  0.00000000000E+00  0.45593999997E+02  0.45594000000E+02  0.51100000000E-03 0.  1.
         11   -1    0    0    0    0 -0.00000000000E+00 -0.00000000000E+00 -0.45593999997E+02  0.45594000000E+02  0.51100000000E-03 0. -1.
    9900012    2    1    2    0    0  0.64074682660E+01 -0.38455185910E+02  0.19072650224E+02  0.47787274666E+02  0.20000016510E+02 0.  0.
         12    1    1    2    0    0 -0.64074682660E+01  0.38455185910E+02 -0.19072650224E+02  0.43400725334E+02  0.00000000000E+00 0. -1.
         11    1    3    3    0    0  0.66070178092E+01 -0.13572225634E+02  0.22966397503E+01  0.15268678639E+02  0.51100000000E-03 0. -1.
        -11    1    3    3    0    0  0.30955562331E+01 -0.24214884950E+02  0.13885243086E+02  0.28084570450E+02  0.51100000000E-03 0.  1.
        -12    1    3    3    0    0 -0.32951057763E+01 -0.66807532632E+00  0.28907673881E+01  0.44340255762E+01  0.00000000000E+00 0.  1.
</event>
<event>
 7    1  0.3039331E-010  0.4778727E+02  0.7816164E-02  0.1312668E+00
        -11   -1    0    0    0    0  0.00000000000E+00  0.00000000000E+00  0.45593999997E+02  0.45594000000E+02  0.51100000000E-03 0.  1.
         11   -1    0    0    0    0 -0.00000000000E+00 -0.00000000000E+00 -0.45593999997E+02  0.45594000000E+02  0.51100000000E-03 0. -1.
    9900012    2    1    2    0    0  0.35504903771E+01 -0.37105184020E+02  0.22231122070E+02  0.47787268997E+02  0.19999990667E+02 0.  0.
         12    1    1    2    0    0 -0.35504903771E+01  0.37105184020E+02 -0.22231122070E+02  0.43400731003E+02  0.00000000000E+00 0. -1.
         11    1    3    3    0    0  0.26854891923E+01 -0.12318823508E+02  0.13448407739E+02  0.18434341208E+02  0.51100000000E-03 0. -1.
        -11    1    3    3    0    0 -0.33205035387E+01 -0.14122539672E+02  0.10306883545E+02  0.17796171476E+02  0.51100000000E-03 0.  1.
         12    1    3    3    0    0  0.41855047235E+01 -0.10663820840E+02 -0.15241692131E+01  0.11556756313E+02  0.00000000000E+00 0. -1.
</event>
<event>
 7    1  0.2769403E-010  0.4778727E+02  0.7816164E-02  0.1312668E+00
        -11   -1    0    0    0    0  0.00000000000E+00  0.00000000000E+00  0.45593999997E+02  0.45594000000E+02  0.51100000000E-03 0.  1.
         11   -1    0    0    0    0 -0.00000000000E+00 -0.00000000000E+00 -0.45593999997E+02  0.45594000000E+02  0.51100000000E-03 0. -1.
    9900012    2    1    2    0    0  0.34347438148E+02 -0.25878731940E+02  0.58453545724E+01  0.47787269082E+02  0.19999991051E+02 0.  0.
         12    1    1    2    0    0 -0.34347438148E+02  0.25878731940E+02 -0.58453545724E+01  0.43400730918E+02  0.00000000000E+00 0. -1.
         11    1    3    3    0    0  0.49030796301E+01 -0.92238963664E+01  0.32198743442E+01  0.10931058736E+02  0.51100000000E-03 0. -1.
        -11    1    3    3    0    0  0.82797959156E+01 -0.84609245574E+01 -0.50888626208E+01  0.12885603898E+02  0.51100000000E-03 0.  1.
        -12    1    3    3    0    0  0.21164562603E+02 -0.81939110160E+01  0.77143428490E+01  0.23970606448E+02  0.00000000000E+00 0.  1.
</event>
<event>
 7    1  0.2769403E-010  0.4778727E+02  0.7816164E-02  0.1312668E+00
        -11   -1    0    0    0    0  0.00000000000E+00  0.00000000000E+00  0.45593999997E+02  0.45594000000E+02  0.51100000000E-03 0.  1.
         11   -1    0    0    0    0 -0.00000000000E+00 -0.00000000000E+00 -0.45593999997E+02  0.45594000000E+02  0.51100000000E-03 0. -1.
    9900012    2    1    2    0    0 -0.36962682552E+02  0.21735583503E+02 -0.67043481815E+01  0.47787265258E+02  0.19999973616E+02 0.  0.
         12    1    1    2    0    0  0.36962682552E+02 -0.21735583503E+02  0.67043481815E+01  0.43400734742E+02  0.00000000000E+00 0. -1.
         11    1    3    3    0    0 -0.57505265315E+01 -0.25278882091E+01 -0.14290545347E+01  0.64421247513E+01  0.51100000000E-03 0. -1.
        -11    1    3    3    0    0 -0.16086831962E+02  0.60393652793E+01 -0.53044559961E+00  0.17191319564E+02  0.51100000000E-03 0.  1.
        -12    1    3    3    0    0 -0.15125324058E+02  0.18224106433E+02 -0.47448480471E+01  0.24153820942E+02  0.00000000000E+00 0.  1.
</event>
<event>
 7    1  0.2769403E-010  0.4778727E+02  0.7816164E-02  0.1312668E+00
        -11   -1    0    0    0    0  0.00000000000E+00  0.00000000000E+00  0.45593999997E+02  0.45594000000E+02  0.51100000000E-03 0.  1.
         11   -1    0    0    0    0 -0.00000000000E+00 -0.00000000000E+00 -0.45593999997E+02  0.45594000000E+02  0.51100000000E-03 0. -1.
    9900012    2    1    2    0    0  0.42351499498E+01  0.10939245682E+02  0.41785398222E+02  0.47787273097E+02  0.20000009357E+02 0.  0.
         12    1    1    2    0    0 -0.42351499498E+01 -0.10939245682E+02 -0.41785398222E+02  0.43400726903E+02  0.00000000000E+00 0. -1.
         11    1    3    3    0    0 -0.11932968213E+01  0.28951491251E+00  0.48744193135E+01  0.50267027059E+01  0.51100000000E-03 0. -1.
        -11    1    3    3    0    0  0.17242860943E+01  0.23123238749E+01  0.32498607436E+02  0.32626361884E+02  0.51100000000E-03 0.  1.
         12    1    3    3    0    0  0.37041606767E+01  0.83374068947E+01  0.44123714718E+01  0.10134208506E+02  0.00000000000E+00 0. -1.
</event>
<event>
 7    1  0.2769403E-010  0.4778727E+02  0.7816164E-02  0.1312668E+00
        -11   -1    0    0    0    0  0.00000000000E+00  0.00000000000E+00  0.45593999997E+02  0.45594000000E+02  0.51100000000E-03 0.  1.
         11   -1    0    0    0    0 -0.00000000000E+00 -0.00000000000E+00 -0.45593999997E+02  0.45594000000E+02  0.51100000000E-03 0. -1.
    9900012    2    1    2    0    0 -0.11759191931E+02 -0.33890621447E+02 -0.24428886231E+02  0.47787270751E+02  0.19999998660E+02 0.  0.
         12    1    1    2    0    0  0.11759191931E+02  0.33890621447E+02  0.24428886231E+02  0.43400729249E+02  0.00000000000E+00 0. -1.
         11    1    3    3    0    0 -0.36288518406E+01 -0.67360839626E+01 -0.15835539365E+02  0.17587145876E+02  0.51100000000E-03 0. -1.
        -11    1    3    3    0    0  0.31024945096E+00 -0.79527814938E+01 -0.28400886140E+01  0.84503900387E+01  0.51100000000E-03 0.  1.
         12    1    3    3    0    0 -0.84405895409E+01 -0.19201755990E+02 -0.57532582520E+01  0.21749734836E+02  0.00000000000E+00 0. -1.
</event>
<event>
 7    1  0.2769403E-010  0.4778723E+02  0.7816164E-02  0.1312668E+00
        -11   -1    0    0    0    0  0.00000000000E+00  0.00000000000E+00  0.45593999997E+02  0.45594000000E+02  0.51100000000E-03 0. -1.
         11   -1    0    0    0    0 -0.00000000000E+00 -0.00000000000E+00 -0.45593999997E+02  0.45594000000E+02  0.51100000000E-03 0.  1.
    9900012    2    1    2    0    0 -0.21643418137E+02  0.35902101398E+02  0.11235126150E+02  0.47787233958E+02  0.19999830907E+02 0.  0.
         12    1    1    2    0    0  0.21643418137E+02 -0.35902101398E+02 -0.11235126150E+02  0.43400766042E+02  0.00000000000E+00 0. -1.
         11    1    3    3    0    0 -0.69114299291E+01  0.12635048237E+02  0.68654096148E+01  0.15954502721E+02  0.51100000000E-03 0. -1.
        -11    1    3    3    0    0 -0.15685968954E+02  0.11196693145E+02  0.11625657786E+01  0.19307177911E+02  0.51100000000E-03 0.  1.
         12    1    3    3    0    0  0.95398074646E+00  0.12070360015E+02  0.32071507568E+01  0.12525553327E+02  0.00000000000E+00 0. -1.
</event>
<event>
 7    1  0.2769403E-010  0.4778727E+02  0.7816164E-02  0.1312668E+00
        -11   -1    0    0    0    0  0.00000000000E+00  0.00000000000E+00  0.45593999997E+02  0.45594000000E+02  0.51100000000E-03 0. -1.
         11   -1    0    0    0    0 -0.00000000000E+00 -0.00000000000E+00 -0.45593999997E+02  0.45594000000E+02  0.51100000000E-03 0.  1.
    9900012    2    1    2    0    0  0.34852279804E+01  0.42657616370E+02 -0.71975157090E+01  0.47787270964E+02  0.19999999636E+02 0.  0.
         12    1    1    2    0    0 -0.34852279804E+01 -0.42657616370E+02  0.71975157090E+01  0.43400729036E+02  0.00000000000E+00 0. -1.
         11    1    3    3    0    0  0.29018592336E+00  0.25012859049E+02 -0.72732210568E+00  0.25025113854E+02  0.51100000000E-03 0.  1.
        -11    1    3    3    0    0  0.53734205248E+01  0.35274021385E+01  0.12149742287E+01  0.65415882338E+01  0.51100000000E-03 0. -1.
         12    1    3    3    0    0 -0.21783784677E+01  0.14117355182E+02 -0.76851678320E+01  0.16220568877E+02  0.00000000000E+00 0. -1.
</event>
<event>
 7    1  0.2769403E-010  0.4778727E+02  0.7816164E-02  0.1312668E+00
        -11   -1    0    0    0    0  0.00000000000E+00  0.00000000000E+00  0.45593999997E+02  0.45594000000E+02  0.51100000000E-03 0. -1.
         11   -1    0    0    0    0 -0.00000000000E+00 -0.00000000000E+00 -0.45593999997E+02  0.45594000000E+02  0.51100000000E-03 0.  1.
    9900012    2    1    2    0    0  0.34605683610E+02  0.13858859149E+02 -0.22226152624E+02  0.47787272178E+02  0.20000005166E+02 0.  0.
         12    1    1    2    0    0 -0.34605683610E+02 -0.13858859149E+02  0.22226152624E+02  0.43400727822E+02  0.00000000000E+00 0. -1.
         11    1    3    3    0    0  0.51757217734E+01  0.61806045086E+01  0.36630022893E+00  0.80698292477E+01  0.51100000000E-03 0.  1.
        -11    1    3    3    0    0 -0.67857202382E+00  0.37844648515E+00  0.62920721094E+00  0.99979183286E+00  0.51100000000E-03 0. -1.
        -12    1    3    3    0    0  0.30108533861E+02  0.72998081552E+01 -0.23221660064E+02  0.38717651097E+02  0.00000000000E+00 0.  1.
</event>
<event>
 7    1  0.2769403E-010  0.4778727E+02  0.7816164E-02  0.1312668E+00
        -11   -1    0    0    0    0  0.00000000000E+00  0.00000000000E+00  0.45593999997E+02  0.45594000000E+02  0.51100000000E-03 0. -1.
         11   -1    0    0    0    0 -0.00000000000E+00 -0.00000000000E+00 -0.45593999997E+02  0.45594000000E+02  0.51100000000E-03 0.  1.
    9900012    2    1    2    0    0 -0.24641215563E+02  0.11244675040E+02 -0.33911522848E+02  0.47787267252E+02  0.19999982708E+02 0.  0.
         12    1    1    2    0    0  0.24641215563E+02 -0.11244675040E+02  0.33911522848E+02  0.43400732748E+02  0.00000000000E+00 0. -1.
         11    1    3    3    0    0  0.27472782214E+01  0.26112575786E+01 -0.14289642367E+01  0.40506965844E+01  0.51100000000E-03 0. -1.
        -11    1    3    3    0    0 -0.64783048970E+01  0.46146006323E+01 -0.78242577133E+01  0.11157149383E+02  0.51100000000E-03 0.  1.
        -12    1    3    3    0    0 -0.20910188888E+02  0.40188168293E+01 -0.24658300898E+02  0.32579421284E+02  0.00000000000E+00 0.  1.
</event>
<event>
 7    1  0.2769403E-010  0.4778727E+02  0.7816164E-02  0.1312668E+00
        -11   -1    0    0    0    0  0.00000000000E+00  0.00000000000E+00  0.45593999997E+02  0.45594000000E+02  0.51100000000E-03 0.  1.
         11   -1    0    0    0    0 -0.00000000000E+00 -0.00000000000E+00 -0.45593999997E+02  0.45594000000E+02  0.51100000000E-03 0. -1.
    9900012    2    1    2    0    0  0.27127724788E+02  0.13541215618E+02  0.31053917731E+02  0.47787265225E+02  0.19999973465E+02 0.  0.
         12    1    1    2    0    0 -0.27127724788E+02 -0.13541215618E+02 -0.31053917731E+02  0.43400734775E+02  0.00000000000E+00 0. -1.
         11    1    3    3    0    0  0.61756248590E+00 -0.73783767149E+00 -0.12655316377E+01  0.15897667882E+01  0.51100000000E-03 0. -1.
        -11    1    3    3    0    0  0.69738860794E+01  0.10754690948E+02  0.15985118739E+02  0.20489570171E+02  0.51100000000E-03 0.  1.
        -12    1    3    3    0    0  0.19536276223E+02  0.35243623420E+01  0.16334330629E+02  0.25707928265E+02  0.00000000000E+00 0.  1.
</event>
<event>
 7    1  0.2769403E-010  0.4778727E+02  0.7816164E-02  0.1312668E+00
        -11   -1    0    0    0    0  0.00000000000E+00  0.00000000000E+00  0.45593999997E+02  0.45594000000E+02  0.51100000000E-03 0.  1.
         11   -1    0    0    0    0 -0.00000000000E+00 -0.00000000000E+00 -0.45593999997E+02  0.45594000000E+02  0.51100000000E-03 0. -1.
    9900012    2    1    2    0    0 -0.31894163713E+02  0.12514755321E+02  0.26641449052E+02  0.47787267434E+02  0.19999983538E+02 0.  0.
         12    1    1    2    0    0  0.31894163713E+02 -0.12514755321E+02 -0.26641449052E+02  0.43400732566E+02  0.00000000000E+00 0. -1.
         11    1    3    3    0    0 -0.80451343228E+00 -0.47780264469E-03  0.40356532857E+01  0.41150625505E+01  0.51100000000E-03 0. -1.
        -11    1    3    3    0    0 -0.19004854490E+02  0.11104314941E+02  0.22540723134E+02  0.31505150438E+02  0.51100000000E-03 0.  1.
         12    1    3    3    0    0 -0.12084795791E+02  0.14109181823E+01  0.65072632862E-01  0.12167054445E+02  0.00000000000E+00 0. -1.
</event>
<event>
 7    1  0.2769403E-010  0.4778727E+02  0.7816164E-02  0.1312668E+00
        -11   -1    0    0    0    0  0.00000000000E+00  0.00000000000E+00  0.45593999997E+02  0.45594000000E+02  0.51100000000E-03 0. -1.
         11   -1    0    0    0    0 -0.00000000000E+00 -0.00000000000E+00 -0.45593999997E+02  0.45594000000E+02  0.51100000000E-03 0.  1.
    9900012    2    1    2    0    0  0.15068916793E+02  0.38731588599E+02 -0.12506592959E+02  0.47787273322E+02  0.20000010386E+02 0.  0.
         12    1    1    2    0    0 -0.15068916793E+02 -0.38731588599E+02  0.12506592959E+02  0.43400726678E+02  0.00000000000E+00 0. -1.
         11    1    3    3    0    0  0.58224868484E+01  0.18341459932E+02  0.22078046206E+01  0.19369690422E+02  0.51100000000E-03 0. -1.
        -11    1    3    3    0    0  0.35261859713E+01  0.29848583716E+01  0.44043962805E+00  0.46408355207E+01  0.51100000000E-03 0.  1.
        -12    1    3    3    0    0  0.57202439736E+01  0.17405270295E+02 -0.15154837208E+02  0.23776747380E+02  0.00000000000E+00 0.  1.
</event>
<event>
 7    1  0.2769403E-010  0.4778727E+02  0.7816164E-02  0.1312668E+00
        -11   -1    0    0    0    0  0.00000000000E+00  0.00000000000E+00  0.45593999997E+02  0.45594000000E+02  0.51100000000E-03 0.  1.
         11   -1    0    0    0    0 -0.00000000000E+00 -0.00000000000E+00 -0.45593999997E+02  0.45594000000E+02  0.51100000000E-03 0. -1.
    9900012    2    1    2    0    0  0.73715135156E+01 -0.19831235513E+02  0.37894673271E+02  0.47787269870E+02  0.19999994645E+02 0.  0.
         12    1    1    2    0    0 -0.73715135156E+01  0.19831235513E+02 -0.37894673271E+02  0.43400730130E+02  0.00000000000E+00 0. -1.
         11    1    3    3    0    0  0.89296837293E+00 -0.33810865585E+01  0.23462741568E+02  0.23721917734E+02  0.51100000000E-03 0. -1.
        -11    1    3    3    0    0  0.16480579015E+01 -0.33502160726E+00 -0.29399567620E+00  0.17072691770E+01  0.51100000000E-03 0.  1.
        -12    1    3    3    0    0  0.48304872412E+01 -0.16115127347E+02  0.14725927380E+02  0.22358082959E+02  0.00000000000E+00 0.  1.
</event>
<event>
 7    1  0.2769403E-010  0.4778727E+02  0.7816164E-02  0.1312668E+00
        -11   -1    0    0    0    0  0.00000000000E+00  0.00000000000E+00  0.45593999997E+02  0.45594000000E+02  0.51100000000E-03 0. -1.
         11   -1    0    0    0    0 -0.00000000000E+00 -0.00000000000E+00 -0.45593999997E+02  0.45594000000E+02  0.51100000000E-03 0.  1.
    9900012    2    1    2    0    0  0.29000963796E+02 -0.32278173774E+02 -0.82885439532E+00  0.47787269558E+02  0.19999993224E+02 0.  0.
         12    1    1    2    0    0 -0.29000963796E+02  0.32278173774E+02  0.82885439532E+00  0.43400730442E+02  0.00000000000E+00 0. -1.
         11    1    3    3    0    0  0.77775869417E+01 -0.11906444511E+02 -0.33088448380E+01  0.14601463418E+02  0.51100000000E-03 0. -1.
        -11    1    3    3    0    0  0.14189311735E+02 -0.10348811824E+02 -0.56952148285E+01  0.18462663564E+02  0.51100000000E-03 0.  1.
         12    1    3    3    0    0  0.70340651193E+01 -0.10022917439E+02  0.81752052712E+01  0.14723142576E+02  0.00000000000E+00 0. -1.
</event>
<event>
 7    1  0.2769403E-010  0.4778728E+02  0.7816164E-02  0.1312668E+00
        -11   -1    0    0    0    0  0.00000000000E+00  0.00000000000E+00  0.45593999997E+02  0.45594000000E+02  0.51100000000E-03 0.  1.
         11   -1    0    0    0    0 -0.00000000000E+00 -0.00000000000E+00 -0.45593999997E+02  0.45594000000E+02  0.51100000000E-03 0. -1.
    9900012    2    1    2    0    0  0.52405228824E+01 -0.41733907729E+02  0.10697695871E+02  0.47787276143E+02  0.20000023246E+02 0.  0.
         12    1    1    2    0    0 -0.52405228824E+01  0.41733907729E+02 -0.10697695871E+02  0.43400723857E+02  0.00000000000E+00 0. -1.
         11    1    3    3    0    0 -0.15772955647E+01  0.69732457443E+00 -0.80076952516E+00  0.19014086762E+01  0.51100000000E-03 0. -1.
        -11    1    3    3    0    0 -0.31402515209E+01 -0.86784432019E+01  0.22312541023E+01  0.94950013772E+01  0.51100000000E-03 0.  1.
         12    1    3    3    0    0  0.99580699680E+01 -0.33752789101E+02  0.92672112936E+01  0.36390866090E+02  0.00000000000E+00 0. -1.
</event>
<event>
 7    1  0.2769403E-010  0.4778727E+02  0.7816164E-02  0.1312668E+00
        -11   -1    0    0    0    0  0.00000000000E+00  0.00000000000E+00  0.45593999997E+02  0.45594000000E+02  0.51100000000E-03 0.  1.
         11   -1    0    0    0    0 -0.00000000000E+00 -0.00000000000E+00 -0.45593999997E+02  0.45594000000E+02  0.51100000000E-03 0. -1.
    9900012    2    1    2    0    0  0.29870339438E+02  0.72616950200E+01  0.30637463222E+02  0.47787267916E+02  0.19999985738E+02 0.  0.
         12    1    1    2    0    0 -0.29870339438E+02 -0.72616950200E+01 -0.30637463222E+02  0.43400732084E+02  0.00000000000E+00 0. -1.
         11    1    3    3    0    0  0.17625054783E+01  0.18019248785E+01  0.95857551656E+01  0.99116124412E+01  0.51100000000E-03 0. -1.
        -11    1    3    3    0    0 -0.87825937377E+00  0.15409339877E+01  0.30557331263E+01  0.35331745332E+01  0.51100000000E-03 0.  1.
        -12    1    3    3    0    0  0.28986093334E+02  0.39188361538E+01  0.17995974930E+02  0.34342480942E+02  0.00000000000E+00 0.  1.
</event>
<event>
 7    1  0.2769403E-010  0.4778727E+02  0.7816164E-02  0.1312668E+00
        -11   -1    0    0    0    0  0.00000000000E+00  0.00000000000E+00  0.45593999997E+02  0.45594000000E+02  0.51100000000E-03 0.  1.
         11   -1    0    0    0    0 -0.00000000000E+00 -0.00000000000E+00 -0.45593999997E+02  0.45594000000E+02  0.51100000000E-03 0. -1.
    9900012    2    1    2    0    0 -0.25045631932E+02  0.34916514538E+02 -0.60972616095E+01  0.47787271141E+02  0.20000000441E+02 0.  0.
         12    1    1    2    0    0  0.25045631932E+02 -0.34916514538E+02  0.60972616095E+01  0.43400728859E+02  0.00000000000E+00 0. -1.
         11    1    3    3    0    0 -0.13126052068E+02  0.60925911116E+01 -0.29361583845E+01  0.14765972222E+02  0.51100000000E-03 0. -1.
        -11    1    3    3    0    0 -0.49233140380E+01  0.10809054500E+02 -0.62959554458E+01  0.13442980902E+02  0.51100000000E-03 0.  1.
        -12    1    3    3    0    0 -0.69962658264E+01  0.18014868926E+02  0.31348522208E+01  0.19578318017E+02  0.00000000000E+00 0.  1.
</event>
<event>
 7    1  0.2769403E-010  0.4778728E+02  0.7816164E-02  0.1312668E+00
        -11   -1    0    0    0    0  0.00000000000E+00  0.00000000000E+00  0.45593999997E+02  0.45594000000E+02  0.51100000000E-03 0. -1.
         11   -1    0    0    0    0 -0.00000000000E+00 -0.00000000000E+00 -0.45593999997E+02  0.45594000000E+02  0.51100000000E-03 0.  1.
    9900012    2    1    2    0    0  0.30923991667E+02  0.14400457344E+02 -0.26832000780E+02  0.47787277677E+02  0.20000030239E+02 0.  0.
         12    1    1    2    0    0 -0.30923991667E+02 -0.14400457344E+02  0.26832000780E+02  0.43400722323E+02  0.00000000000E+00 0. -1.
         11    1    3    3    0    0  0.33548008801E+01  0.38220194029E+01 -0.47935576254E+01  0.69886133267E+01  0.51100000000E-03 0. -1.
        -11    1    3    3    0    0  0.15343296015E+02  0.10673874858E+02 -0.21600595391E+02  0.28564559486E+02  0.51100000000E-03 0.  1.
         12    1    3    3    0    0  0.12225894772E+02 -0.95436917629E-01 -0.43784776374E+00  0.12234104864E+02  0.00000000000E+00 0. -1.
</event>
<event>
 7    1  0.2769403E-010  0.4778727E+02  0.7816164E-02  0.1312668E+00
        -11   -1    0    0    0    0  0.00000000000E+00  0.00000000000E+00  0.45593999997E+02  0.45594000000E+02  0.51100000000E-03 0.  1.
         11   -1    0    0    0    0 -0.00000000000E+00 -0.00000000000E+00 -0.45593999997E+02  0.45594000000E+02  0.51100000000E-03 0. -1.
    9900012    2    1    2    0    0 -0.23059872043E+02 -0.36693557547E+02  0.23342610455E+01  0.47787266841E+02  0.19999980836E+02 0.  0.
         12    1    1    2    0    0  0.23059872043E+02  0.36693557547E+02 -0.23342610455E+01  0.43400733159E+02  0.00000000000E+00 0. -1.
         11    1    3    3    0    0 -0.19422604436E+02 -0.16698355585E+02  0.33903697965E+01  0.25837322809E+02  0.51100000000E-03 0. -1.
        -11    1    3    3    0    0 -0.26415963969E+01 -0.90831024507E+01  0.34957192417E+01  0.10084683184E+02  0.51100000000E-03 0.  1.
        -12    1    3    3    0    0 -0.99567120960E+00 -0.10912099512E+02 -0.45518279927E+01  0.11865260848E+02  0.00000000000E+00 0.  1.
</event>
<event>
 7    1  0.2769403E-010  0.4778727E+02  0.7816164E-02  0.1312668E+00
        -11   -1    0    0    0    0  0.00000000000E+00  0.00000000000E+00  0.45593999997E+02  0.45594000000E+02  0.51100000000E-03 0.  1.
         11   -1    0    0    0    0 -0.00000000000E+00 -0.00000000000E+00 -0.45593999997E+02  0.45594000000E+02  0.51100000000E-03 0. -1.
    9900012    2    1    2    0    0  0.19126461838E+02  0.27493818646E+02  0.27602385683E+02  0.47787270725E+02  0.19999998545E+02 0.  0.
         12    1    1    2    0    0 -0.19126461838E+02 -0.27493818646E+02 -0.27602385683E+02  0.43400729275E+02  0.00000000000E+00 0. -1.
         11    1    3    3    0    0  0.91714249639E+01  0.36257195034E+01  0.29434593149E+01  0.10291978954E+02  0.51100000000E-03 0. -1.
        -11    1    3    3    0    0  0.53810290392E+01  0.19068610396E+01  0.63552597975E+01  0.85428870940E+01  0.51100000000E-03 0.  1.
        -12    1    3    3    0    0  0.45740078352E+01  0.21961238103E+02  0.18303666571E+02  0.28952404678E+02  0.00000000000E+00 0.  1.
</event>
<event>
 7    1  0.2769403E-010  0.4778727E+02  0.7816164E-02  0.1312668E+00
        -11   -1    0    0    0    0  0.00000000000E+00  0.00000000000E+00  0.45593999997E+02  0.45594000000E+02  0.51100000000E-03 0. -1.
         11   -1    0    0    0    0 -0.00000000000E+00 -0.00000000000E+00 -0.45593999997E+02  0.45594000000E+02  0.51100000000E-03 0.  1.
    9900012    2    1    2    0    0 -0.22837744179E+02  0.34908834579E+02 -0.11976389202E+02  0.47787272020E+02  0.20000004449E+02 0.  0.
         12    1    1    2    0    0  0.22837744179E+02 -0.34908834579E+02  0.11976389202E+02  0.43400727980E+02  0.00000000000E+00 0. -1.
         11    1    3    3    0    0  0.29969416895E+01  0.24200811054E+01 -0.27798422585E+01  0.47503658059E+01  0.51100000000E-03 0. -1.
        -11    1    3    3    0    0 -0.16847830804E+01  0.33723962778E+01  0.91749540260E+00  0.38798645282E+01  0.51100000000E-03 0.  1.
        -12    1    3    3    0    0 -0.24149902788E+02  0.29116357196E+02 -0.10114042347E+02  0.39157041686E+02  0.00000000000E+00 0.  1.
</event>
<event>
 7    1  0.2769403E-010  0.4778727E+02  0.7816164E-02  0.1312668E+00
        -11   -1    0    0    0    0  0.00000000000E+00  0.00000000000E+00  0.45593999997E+02  0.45594000000E+02  0.51100000000E-03 0.  1.
         11   -1    0    0    0    0 -0.00000000000E+00 -0.00000000000E+00 -0.45593999997E+02  0.45594000000E+02  0.51100000000E-03 0. -1.
    9900012    2    1    2    0    0 -0.35791273647E+02  0.32599836860E+01  0.24330649630E+02  0.47787271039E+02  0.19999999976E+02 0.  0.
         12    1    1    2    0    0  0.35791273647E+02 -0.32599836860E+01 -0.24330649630E+02  0.43400728961E+02  0.00000000000E+00 0. -1.
         11    1    3    3    0    0 -0.76925915710E+01  0.37422986352E+01  0.89354373349E+01  0.12370238671E+02  0.51100000000E-03 0. -1.
        -11    1    3    3    0    0 -0.16773735185E+02  0.45395271518E+01  0.15106141178E+02  0.23025225306E+02  0.51100000000E-03 0.  1.
         12    1    3    3    0    0 -0.11324946891E+02 -0.50218421010E+01  0.28907111735E+00  0.12391807062E+02  0.00000000000E+00 0. -1.
</event>
<event>
 7    1  0.2769403E-010  0.4778727E+02  0.7816164E-02  0.1312668E+00
        -11   -1    0    0    0    0  0.00000000000E+00  0.00000000000E+00  0.45593999997E+02  0.45594000000E+02  0.51100000000E-03 0.  1.
         11   -1    0    0    0    0 -0.00000000000E+00 -0.00000000000E+00 -0.45593999997E+02  0.45594000000E+02  0.51100000000E-03 0. -1.
    9900012    2    1    2    0    0 -0.16571308587E+02 -0.96908151407E+01  0.38924322238E+02  0.47787273876E+02  0.20000012912E+02 0.  0.
         12    1    1    2    0    0  0.16571308587E+02  0.96908151407E+01 -0.38924322238E+02  0.43400726124E+02  0.00000000000E+00 0. -1.
         11    1    3    3    0    0 -0.81201571289E+01 -0.55655752199E+00  0.21645059225E+02  0.23124776695E+02  0.51100000000E-03 0. -1.
        -11    1    3    3    0    0 -0.87396449186E+01 -0.90491863974E+01  0.19070439430E+02  0.22846243194E+02  0.51100000000E-03 0.  1.
        -12    1    3    3    0    0  0.28849346066E+00 -0.85071221277E-01 -0.17911764172E+01  0.18162539874E+01  0.00000000000E+00 0.  1.
</event>
<event>
 7    1  0.2769403E-010  0.4778727E+02  0.7816164E-02  0.1312668E+00
        -11   -1    0    0    0    0  0.00000000000E+00  0.00000000000E+00  0.45593999997E+02  0.45594000000E+02  0.51100000000E-03 0. -1.
         11   -1    0    0    0    0 -0.00000000000E+00 -0.00000000000E+00 -0.45593999997E+02  0.45594000000E+02  0.51100000000E-03 0.  1.
    9900012    2    1    2    0    0 -0.15100661308E+02 -0.24213438838E+02 -0.32700195819E+02  0.47787269604E+02  0.19999993435E+02 0.  0.
         12    1    1    2    0    0  0.15100661308E+02  0.24213438838E+02  0.32700195819E+02  0.43400730396E+02  0.00000000000E+00 0. -1.
         11    1    3    3    0    0 -0.21468400705E+01 -0.15355974594E+02 -0.11839359517E+02  0.19508595851E+02  0.51100000000E-03 0. -1.
        -11    1    3    3    0    0 -0.24450364645E+01 -0.77164347288E+01 -0.12056604243E+02  0.14521820629E+02  0.51100000000E-03 0.  1.
        -12    1    3    3    0    0 -0.10508784773E+02 -0.11410295144E+01 -0.88042320585E+01  0.13756853125E+02  0.00000000000E+00 0.  1.
</event>
<event>
 7    1  0.2769403E-010  0.4778727E+02  0.7816164E-02  0.1312668E+00
        -11   -1    0    0    0    0  0.00000000000E+00  0.00000000000E+00  0.45593999997E+02  0.45594000000E+02  0.51100000000E-03 0.  1.
         11   -1    0    0    0    0 -0.00000000000E+00 -0.00000000000E+00 -0.45593999997E+02  0.45594000000E+02  0.51100000000E-03 0. -1.
    9900012    2    1    2    0    0 -0.40403134445E+02 -0.29500956623E+01 -0.15572633102E+02  0.47787271445E+02  0.20000001828E+02 0.  0.
         12    1    1    2    0    0  0.40403134445E+02  0.29500956623E+01  0.15572633102E+02  0.43400728555E+02  0.00000000000E+00 0. -1.
         11    1    3    3    0    0 -0.22137653538E+02  0.72178182482E+01 -0.10186915780E+02  0.25415464933E+02  0.51100000000E-03 0. -1.
        -11    1    3    3    0    0 -0.35727307076E+01 -0.63176702762E+00  0.94083186792E+00  0.37481594351E+01  0.51100000000E-03 0.  1.
         12    1    3    3    0    0 -0.14692750199E+02 -0.95361468829E+01 -0.63265491900E+01  0.18623647077E+02  0.00000000000E+00 0. -1.
</event>
<event>
 7    1  0.2769403E-010  0.4778727E+02  0.7816164E-02  0.1312668E+00
        -11   -1    0    0    0    0  0.00000000000E+00  0.00000000000E+00  0.45593999997E+02  0.45594000000E+02  0.51100000000E-03 0.  1.
         11   -1    0    0    0    0 -0.00000000000E+00 -0.00000000000E+00 -0.45593999997E+02  0.45594000000E+02  0.51100000000E-03 0. -1.
    9900012    2    1    2    0    0 -0.14551287896E+02 -0.19816838380E+02  0.35765574873E+02  0.47787269490E+02  0.19999992913E+02 0.  0.
         12    1    1    2    0    0  0.14551287896E+02  0.19816838380E+02 -0.35765574873E+02  0.43400730510E+02  0.00000000000E+00 0. -1.
         11    1    3    3    0    0 -0.31441133315E+01 -0.97416307340E+01  0.14480764960E+02  0.17733509864E+02  0.51100000000E-03 0. -1.
        -11    1    3    3    0    0 -0.29616814544E+01 -0.55814956739E+01  0.19267055106E+02  0.20276687691E+02  0.51100000000E-03 0.  1.
         12    1    3    3    0    0 -0.84454931104E+01 -0.44937119719E+01  0.20177548062E+01  0.97770719350E+01  0.00000000000E+00 0. -1.
</event>
<event>
 7    1  0.2769403E-010  0.4778727E+02  0.7816164E-02  0.1312668E+00
        -11   -1    0    0    0    0  0.00000000000E+00  0.00000000000E+00  0.45593999997E+02  0.45594000000E+02  0.51100000000E-03 0. -1.
         11   -1    0    0    0    0 -0.00000000000E+00 -0.00000000000E+00 -0.45593999997E+02  0.45594000000E+02  0.51100000000E-03 0.  1.
    9900012    2    1    2    0    0 -0.23620316246E+02 -0.50828299473E+01 -0.36053690362E+02  0.47787273179E+02  0.20000009734E+02 0.  0.
         12    1    1    2    0    0  0.23620316246E+02  0.50828299473E+01  0.36053690362E+02  0.43400726821E+02  0.00000000000E+00 0. -1.
         11    1    3    3    0    0 -0.29126422973E+01  0.35951777068E+00 -0.10577063549E+02  0.10976657586E+02  0.51100000000E-03 0. -1.
        -11    1    3    3    0    0 -0.67756764398E+01  0.55657229068E+01 -0.94484709636E+01  0.12890332288E+02  0.51100000000E-03 0.  1.
         12    1    3    3    0    0 -0.13931997509E+02 -0.11008070625E+02 -0.16028155850E+02  0.23920283305E+02  0.00000000000E+00 0. -1.
</event>
<event>
 7    1  0.2769403E-010  0.4778727E+02  0.7816164E-02  0.1312668E+00
        -11   -1    0    0    0    0  0.00000000000E+00  0.00000000000E+00  0.45593999997E+02  0.45594000000E+02  0.51100000000E-03 0.  1.
         11   -1    0    0    0    0 -0.00000000000E+00 -0.00000000000E+00 -0.45593999997E+02  0.45594000000E+02  0.51100000000E-03 0. -1.
    9900012    2    1    2    0    0  0.16470935088E+02  0.20657054280E+02  0.34432801221E+02  0.47787269659E+02  0.19999993682E+02 0.  0.
         12    1    1    2    0    0 -0.16470935088E+02 -0.20657054280E+02 -0.34432801221E+02  0.43400730341E+02  0.00000000000E+00 0. -1.
         11    1    3    3    0    0 -0.37851399032E+01  0.53641909097E+01  0.79142708285E+01  0.10282874657E+02  0.51100000000E-03 0. -1.
        -11    1    3    3    0    0  0.41057573775E+01  0.20484000703E+01  0.13189682662E+01  0.47741872647E+01  0.51100000000E-03 0.  1.
         12    1    3    3    0    0  0.16150317614E+02  0.13244463300E+02  0.25199562127E+02  0.32730207737E+02  0.00000000000E+00 0. -1.
</event>
<event>
 7    1  0.2769403E-010  0.4778727E+02  0.7816164E-02  0.1312668E+00
        -11   -1    0    0    0    0  0.00000000000E+00  0.00000000000E+00  0.45593999997E+02  0.45594000000E+02  0.51100000000E-03 0.  1.
         11   -1    0    0    0    0 -0.00000000000E+00 -0.00000000000E+00 -0.45593999997E+02  0.45594000000E+02  0.51100000000E-03 0. -1.
    9900012    2    1    2    0    0  0.38198905237E+02 -0.14995988029E+02 -0.14127532048E+02  0.47787272126E+02  0.20000004931E+02 0.  0.
         12    1    1    2    0    0 -0.38198905237E+02  0.14995988029E+02  0.14127532048E+02  0.43400727874E+02  0.00000000000E+00 0. -1.
         11    1    3    3    0    0  0.24090395490E-01  0.10716647330E+01 -0.25239455691E+01  0.27421428016E+01  0.51100000000E-03 0. -1.
        -11    1    3    3    0    0  0.17045572913E+02 -0.40262077357E+00 -0.26198713307E+01  0.17250431458E+02  0.51100000000E-03 0.  1.
        -12    1    3    3    0    0  0.21129241928E+02 -0.15665031988E+02 -0.89837151477E+01  0.27794697867E+02  0.00000000000E+00 0.  1.
</event>
<event>
 7    1  0.2769403E-010  0.4778727E+02  0.7816164E-02  0.1312668E+00
        -11   -1    0    0    0    0  0.00000000000E+00  0.00000000000E+00  0.45593999997E+02  0.45594000000E+02  0.51100000000E-03 0.  1.
         11   -1    0    0    0    0 -0.00000000000E+00 -0.00000000000E+00 -0.45593999997E+02  0.45594000000E+02  0.51100000000E-03 0. -1.
    9900012    2    1    2    0    0 -0.23325313668E+02  0.35389403778E+02  0.93350402615E+01  0.47787272654E+02  0.20000007339E+02 0.  0.
         12    1    1    2    0    0  0.23325313668E+02 -0.35389403778E+02 -0.93350402615E+01  0.43400727346E+02  0.00000000000E+00 0. -1.
         11    1    3    3    0    0 -0.30358442943E+01  0.21243960346E+01 -0.30962886973E+01  0.48287071820E+01  0.51100000000E-03 0. -1.
        -11    1    3    3    0    0 -0.90538900039E+01  0.21595979606E+02  0.15991069832E+01  0.23471608440E+02  0.51100000000E-03 0.  1.
        -12    1    3    3    0    0 -0.11235579369E+02  0.11669028138E+02  0.10832221976E+02  0.19486957032E+02  0.00000000000E+00 0.  1.
</event>
<event>
 7    1  0.2769403E-010  0.4778727E+02  0.7816164E-02  0.1312668E+00
        -11   -1    0    0    0    0  0.00000000000E+00  0.00000000000E+00  0.45593999997E+02  0.45594000000E+02  0.51100000000E-03 0.  1.
         11   -1    0    0    0    0 -0.00000000000E+00 -0.00000000000E+00 -0.45593999997E+02  0.45594000000E+02  0.51100000000E-03 0. -1.
    9900012    2    1    2    0    0 -0.66444729725E+01  0.17753309947E+02  0.39042212474E+02  0.47787269706E+02  0.19999993897E+02 0.  0.
         12    1    1    2    0    0  0.66444729725E+01 -0.17753309947E+02 -0.39042212474E+02  0.43400730294E+02  0.00000000000E+00 0. -1.
         11    1    3    3    0    0 -0.31438774992E+01  0.48066028646E+01  0.10641471017E+01  0.58412161528E+01  0.51100000000E-03 0. -1.
        -11    1    3    3    0    0 -0.64039581390E+01  0.90245288965E+01  0.16138398385E+02  0.19567848741E+02  0.51100000000E-03 0.  1.
         12    1    3    3    0    0  0.29033626656E+01  0.39221781861E+01  0.21839666988E+02  0.22378204813E+02  0.00000000000E+00 0. -1.
</event>
<event>
 7    1  0.2769403E-010  0.4778727E+02  0.7816164E-02  0.1312668E+00
        -11   -1    0    0    0    0  0.00000000000E+00  0.00000000000E+00  0.45593999997E+02  0.45594000000E+02  0.51100000000E-03 0.  1.
         11   -1    0    0    0    0 -0.00000000000E+00 -0.00000000000E+00 -0.45593999997E+02  0.45594000000E+02  0.51100000000E-03 0. -1.
    9900012    2    1    2    0    0 -0.15937589240E+02 -0.25968517240E+02  0.30907157449E+02  0.47787273970E+02  0.20000013337E+02 0.  0.
         12    1    1    2    0    0  0.15937589240E+02  0.25968517240E+02 -0.30907157449E+02  0.43400726030E+02  0.00000000000E+00 0. -1.
         11    1    3    3    0    0  0.43458307779E+00 -0.34055235879E+01  0.63209567416E+01  0.71931180826E+01  0.51100000000E-03 0. -1.
        -11    1    3    3    0    0 -0.13669656157E+02 -0.25101679892E+02  0.22101197977E+02  0.36130551963E+02  0.51100000000E-03 0.  1.
         12    1    3    3    0    0 -0.27025161608E+01  0.25386862400E+01  0.24850027301E+01  0.44636039244E+01  0.00000000000E+00 0. -1.
</event>
<event>
 7    1  0.2769403E-010  0.4778727E+02  0.7816164E-02  0.1312668E+00
        -11   -1    0    0    0    0  0.00000000000E+00  0.00000000000E+00  0.45593999997E+02  0.45594000000E+02  0.51100000000E-03 0.  1.
         11   -1    0    0    0    0 -0.00000000000E+00 -0.00000000000E+00 -0.45593999997E+02  0.45594000000E+02  0.51100000000E-03 0. -1.
    9900012    2    1    2    0    0  0.19829791309E+02  0.27411981077E+02  0.27184301201E+02  0.47787267729E+02  0.19999984883E+02 0.  0.
         12    1    1    2    0    0 -0.19829791309E+02 -0.27411981077E+02 -0.27184301201E+02  0.43400732271E+02  0.00000000000E+00 0. -1.
         11    1    3    3    0    0  0.83768182355E+01  0.28325891899E+01  0.37123944442E+01  0.95904388867E+01  0.51100000000E-03 0. -1.
        -11    1    3    3    0    0  0.10298712607E+02  0.12785904709E+02  0.68640703120E+01  0.17794895395E+02  0.51100000000E-03 0.  1.
        -12    1    3    3    0    0  0.11542604661E+01  0.11793487177E+02  0.16607836444E+02  0.20401933447E+02  0.00000000000E+00 0.  1.
</event>
<event>
 7    1  0.2769403E-010  0.4778727E+02  0.7816164E-02  0.1312668E+00
        -11   -1    0    0    0    0  0.00000000000E+00  0.00000000000E+00  0.45593999997E+02  0.45594000000E+02  0.51100000000E-03 0. -1.
         11   -1    0    0    0    0 -0.00000000000E+00 -0.00000000000E+00 -0.45593999997E+02  0.45594000000E+02  0.51100000000E-03 0.  1.
    9900012    2    1    2    0    0  0.17047809168E+02  0.19264035720E+02 -0.34955579259E+02  0.47787269695E+02  0.19999993848E+02 0.  0.
         12    1    1    2    0    0 -0.17047809168E+02 -0.19264035720E+02  0.34955579259E+02  0.43400730305E+02  0.00000000000E+00 0. -1.
         11    1    3    3    0    0  0.17648739664E+01  0.36085625673E+01  0.20611073808E+01  0.45149382959E+01  0.51100000000E-03 0. -1.
        -11    1    3    3    0    0  0.18072740688E+01  0.51193870625E+00 -0.16125720151E+01  0.24756230658E+01  0.51100000000E-03 0.  1.
        -12    1    3    3    0    0  0.13475661133E+02  0.15143534447E+02 -0.35404114624E+02  0.40796708334E+02  0.00000000000E+00 0.  1.
</event>
<event>
 7    1  0.2769403E-010  0.4778727E+02  0.7816164E-02  0.1312668E+00
        -11   -1    0    0    0    0  0.00000000000E+00  0.00000000000E+00  0.45593999997E+02  0.45594000000E+02  0.51100000000E-03 0. -1.
         11   -1    0    0    0    0 -0.00000000000E+00 -0.00000000000E+00 -0.45593999997E+02  0.45594000000E+02  0.51100000000E-03 0.  1.
    9900012    2    1    2    0    0 -0.26999724472E+02 -0.31784713351E+02 -0.12015410081E+02  0.47787271852E+02  0.20000003683E+02 0.  0.
         12    1    1    2    0    0  0.26999724472E+02  0.31784713351E+02  0.12015410081E+02  0.43400728148E+02  0.00000000000E+00 0. -1.
         11    1    3    3    0    0 -0.13293551432E+02 -0.19614687839E+02 -0.11891843998E+02  0.26511703880E+02  0.51100000000E-03 0. -1.
        -11    1    3    3    0    0 -0.60757688081E+01 -0.12158622266E+02  0.63875419179E+00  0.13607169771E+02  0.51100000000E-03 0.  1.
         12    1    3    3    0    0 -0.76304042311E+01 -0.11403246914E-01 -0.76232027477E+00  0.76683982008E+01  0.00000000000E+00 0. -1.
</event>
<event>
 7    1  0.2769403E-010  0.4778727E+02  0.7816164E-02  0.1312668E+00
        -11   -1    0    0    0    0  0.00000000000E+00  0.00000000000E+00  0.45593999997E+02  0.45594000000E+02  0.51100000000E-03 0. -1.
         11   -1    0    0    0    0 -0.00000000000E+00 -0.00000000000E+00 -0.45593999997E+02  0.45594000000E+02  0.51100000000E-03 0.  1.
    9900012    2    1    2    0    0  0.13257721615E+02 -0.40806439311E+02 -0.65338436152E+01  0.47787265167E+02  0.19999973203E+02 0.  0.
         12    1    1    2    0    0 -0.13257721615E+02  0.40806439311E+02  0.65338436152E+01  0.43400734833E+02  0.00000000000E+00 0. -1.
         11    1    3    3    0    0  0.37607692338E+01 -0.28063242521E+01 -0.71370547743E+00  0.47463898710E+01  0.51100000000E-03 0. -1.
        -11    1    3    3    0    0  0.92104467478E+01 -0.32930220217E+02 -0.10869187563E+02  0.35879952221E+02  0.51100000000E-03 0.  1.
        -12    1    3    3    0    0  0.28650563299E+00 -0.50698948421E+01  0.50490494258E+01  0.71609230754E+01  0.00000000000E+00 0.  1.
</event>
<event>
 7    1  0.2769403E-010  0.4778727E+02  0.7816164E-02  0.1312668E+00
        -11   -1    0    0    0    0  0.00000000000E+00  0.00000000000E+00  0.45593999997E+02  0.45594000000E+02  0.51100000000E-03 0.  1.
         11   -1    0    0    0    0 -0.00000000000E+00 -0.00000000000E+00 -0.45593999997E+02  0.45594000000E+02  0.51100000000E-03 0. -1.
    9900012    2    1    2    0    0 -0.19535272528E+01  0.43074973665E+02  0.49349143954E+01  0.47787274141E+02  0.20000014120E+02 0.  0.
         12    1    1    2    0    0  0.19535272528E+01 -0.43074973665E+02 -0.49349143954E+01  0.43400725859E+02  0.00000000000E+00 0. -1.
         11    1    3    3    0    0 -0.82648316119E+01  0.10219666275E+02 -0.33014919287E+00  0.13147548026E+02  0.51100000000E-03 0. -1.
        -11    1    3    3    0    0  0.19665978895E+00  0.85328122790E+01 -0.14956319202E+01  0.86651298642E+01  0.51100000000E-03 0.  1.
         12    1    3    3    0    0  0.61146445701E+01  0.24322495111E+02  0.67606955085E+01  0.25974596251E+02  0.00000000000E+00 0. -1.
</event>
<event>
 7    1  0.2769403E-010  0.4778727E+02  0.7816164E-02  0.1312668E+00
        -11   -1    0    0    0    0  0.00000000000E+00  0.00000000000E+00  0.45593999997E+02  0.45594000000E+02  0.51100000000E-03 0.  1.
         11   -1    0    0    0    0 -0.00000000000E+00 -0.00000000000E+00 -0.45593999997E+02  0.45594000000E+02  0.51100000000E-03 0. -1.
    9900012    2    1    2    0    0 -0.22016881550E+02  0.24520471997E+02  0.28242284210E+02  0.47787271463E+02  0.20000001908E+02 0.  0.
         12    1    1    2    0    0  0.22016881550E+02 -0.24520471997E+02 -0.28242284210E+02  0.43400728537E+02  0.00000000000E+00 0. -1.
         11    1    3    3    0    0 -0.11002383255E+02  0.52804646216E+01  0.44565383455E+01  0.12992169880E+02  0.51100000000E-03 0. -1.
        -11    1    3    3    0    0 -0.94049094524E+01  0.16798752263E+02  0.12076969612E+02  0.22726715439E+02  0.51100000000E-03 0.  1.
        -12    1    3    3    0    0 -0.16095888428E+01  0.24412551128E+01  0.11708776253E+02  0.12068386144E+02  0.00000000000E+00 0.  1.
</event>
<event>
 7    1  0.2769403E-010  0.4778728E+02  0.7816164E-02  0.1312668E+00
        -11   -1    0    0    0    0  0.00000000000E+00  0.00000000000E+00  0.45593999997E+02  0.45594000000E+02  0.51100000000E-03 0. -1.
         11   -1    0    0    0    0 -0.00000000000E+00 -0.00000000000E+00 -0.45593999997E+02  0.45594000000E+02  0.51100000000E-03 0.  1.
    9900012    2    1    2    0    0 -0.37918803256E+02  0.15057342984E+02 -0.14800800741E+02  0.47787275114E+02  0.20000018553E+02 0.  0.
         12    1    1    2    0    0  0.37918803256E+02 -0.15057342984E+02  0.14800800741E+02  0.43400724886E+02  0.00000000000E+00 0. -1.
         11    1    3    3    0    0 -0.31284963412E+01  0.71528511385E+01 -0.18539735583E+01  0.80242125459E+01  0.51100000000E-03 0. -1.
        -11    1    3    3    0    0 -0.11162059158E+02  0.83242701310E+01 -0.56900278035E+01  0.15041989713E+02  0.51100000000E-03 0.  1.
        -12    1    3    3    0    0 -0.23628247757E+02 -0.41977828555E+00 -0.72567993788E+01  0.24721072855E+02  0.00000000000E+00 0.  1.
</event>
<event>
 7    1  0.2769403E-010  0.4778727E+02  0.7816164E-02  0.1312668E+00
        -11   -1    0    0    0    0  0.00000000000E+00  0.00000000000E+00  0.45593999997E+02  0.45594000000E+02  0.51100000000E-03 0. -1.
         11   -1    0    0    0    0 -0.00000000000E+00 -0.00000000000E+00 -0.45593999997E+02  0.45594000000E+02  0.51100000000E-03 0.  1.
    9900012    2    1    2    0    0  0.30703948149E+01 -0.32815331567E+02 -0.28237392246E+02  0.47787266930E+02  0.19999981240E+02 0.  0.
         12    1    1    2    0    0 -0.30703948149E+01  0.32815331567E+02  0.28237392246E+02  0.43400733070E+02  0.00000000000E+00 0. -1.
         11    1    3    3    0    0  0.21982956962E+01 -0.22807459937E+02 -0.19918412865E+02  0.30360433199E+02  0.51100000000E-03 0. -1.
        -11    1    3    3    0    0 -0.19145639202E+01 -0.97793323913E+01 -0.10038248860E+02  0.14144516162E+02  0.51100000000E-03 0.  1.
         12    1    3    3    0    0  0.27866630390E+01 -0.22853923920E+00  0.17192694792E+01  0.32823175682E+01  0.00000000000E+00 0. -1.
</event>
<event>
 7    1  0.2769403E-010  0.4778725E+02  0.7816164E-02  0.1312668E+00
        -11   -1    0    0    0    0  0.00000000000E+00  0.00000000000E+00  0.45593999997E+02  0.45594000000E+02  0.51100000000E-03 0. -1.
         11   -1    0    0    0    0 -0.00000000000E+00 -0.00000000000E+00 -0.45593999997E+02  0.45594000000E+02  0.51100000000E-03 0.  1.
    9900012    2    1    2    0    0 -0.26615451736E+02 -0.34073553263E+02 -0.37730732511E+01  0.47787246725E+02  0.19999889116E+02 0.  0.
         12    1    1    2    0    0  0.26615451736E+02  0.34073553263E+02  0.37730732511E+01  0.43400753275E+02  0.00000000000E+00 0. -1.
         11    1    3    3    0    0 -0.32052626545E+00  0.72844971618E+00  0.34354673565E+00  0.86683371909E+00  0.51100000000E-03 0. -1.
        -11    1    3    3    0    0 -0.14751104060E+02 -0.27803384202E+02  0.30761321054E+01  0.31624133712E+02  0.51100000000E-03 0.  1.
        -12    1    3    3    0    0 -0.11543821411E+02 -0.69986187777E+01 -0.71927520922E+01  0.15296279294E+02  0.00000000000E+00 0.  1.
</event>
<event>
 7    1  0.2769403E-010  0.4778727E+02  0.7816164E-02  0.1312668E+00
        -11   -1    0    0    0    0  0.00000000000E+00  0.00000000000E+00  0.45593999997E+02  0.45594000000E+02  0.51100000000E-03 0.  1.
         11   -1    0    0    0    0 -0.00000000000E+00 -0.00000000000E+00 -0.45593999997E+02  0.45594000000E+02  0.51100000000E-03 0. -1.
    9900012    2    1    2    0    0  0.42868080626E+02  0.16172428889E+00  0.67767834162E+01  0.47787270918E+02  0.19999999426E+02 0.  0.
         12    1    1    2    0    0 -0.42868080626E+02 -0.16172428889E+00 -0.67767834162E+01  0.43400729082E+02  0.00000000000E+00 0. -1.
         11    1    3    3    0    0  0.22769469512E+02 -0.90070393470E+01  0.53379988638E+01  0.25061319434E+02  0.51100000000E-03 0. -1.
        -11    1    3    3    0    0  0.37286852009E+01  0.11320344400E+01 -0.16467979674E+01  0.42304301327E+01  0.51100000000E-03 0.  1.
        -12    1    3    3    0    0  0.16369925913E+02  0.80367291958E+01  0.30855825198E+01  0.18495521352E+02  0.00000000000E+00 0.  1.
</event>
<event>
 7    1  0.2769403E-010  0.4778727E+02  0.7816164E-02  0.1312668E+00
        -11   -1    0    0    0    0  0.00000000000E+00  0.00000000000E+00  0.45593999997E+02  0.45594000000E+02  0.51100000000E-03 0. -1.
         11   -1    0    0    0    0 -0.00000000000E+00 -0.00000000000E+00 -0.45593999997E+02  0.45594000000E+02  0.51100000000E-03 0.  1.
    9900012    2    1    2    0    0 -0.24744009912E+02 -0.28225779239E+02 -0.21786755060E+02  0.47787270327E+02  0.19999996727E+02 0.  0.
         12    1    1    2    0    0  0.24744009912E+02  0.28225779239E+02  0.21786755060E+02  0.43400729673E+02  0.00000000000E+00 0. -1.
         11    1    3    3    0    0  0.56356601408E+00 -0.64837617611E+01 -0.18888412038E+01  0.67767613638E+01  0.51100000000E-03 0. -1.
        -11    1    3    3    0    0 -0.61859045622E+01 -0.11668043193E+02 -0.29172292826E+01  0.13524750429E+02  0.51100000000E-03 0.  1.
        -12    1    3    3    0    0 -0.19121671363E+02 -0.10073974285E+02 -0.16980684573E+02  0.27485758534E+02  0.00000000000E+00 0.  1.
</event>
<event>
 7    1  0.2769403E-010  0.4778727E+02  0.7816164E-02  0.1312668E+00
        -11   -1    0    0    0    0  0.00000000000E+00  0.00000000000E+00  0.45593999997E+02  0.45594000000E+02  0.51100000000E-03 0. -1.
         11   -1    0    0    0    0 -0.00000000000E+00 -0.00000000000E+00 -0.45593999997E+02  0.45594000000E+02  0.51100000000E-03 0.  1.
    9900012    2    1    2    0    0 -0.19903994343E+02 -0.34399932958E+02 -0.17438432160E+02  0.47787270807E+02  0.19999998915E+02 0.  0.
         12    1    1    2    0    0  0.19903994343E+02  0.34399932958E+02  0.17438432160E+02  0.43400729193E+02  0.00000000000E+00 0. -1.
         11    1    3    3    0    0 -0.47990985498E+01  0.52957725144E+00 -0.32618682112E+01  0.58267987303E+01  0.51100000000E-03 0. -1.
        -11    1    3    3    0    0 -0.12687881054E+02 -0.24996765257E+02 -0.14836512935E+02  0.31716599996E+02  0.51100000000E-03 0.  1.
         12    1    3    3    0    0 -0.24170147393E+01 -0.99327449522E+01  0.65994898607E+00  0.10243872080E+02  0.00000000000E+00 0. -1.
</event>
<event>
 7    1  0.2769403E-010  0.4778727E+02  0.7816164E-02  0.1312668E+00
        -11   -1    0    0    0    0  0.00000000000E+00  0.00000000000E+00  0.45593999997E+02  0.45594000000E+02  0.51100000000E-03 0.  1.
         11   -1    0    0    0    0 -0.00000000000E+00 -0.00000000000E+00 -0.45593999997E+02  0.45594000000E+02  0.51100000000E-03 0. -1.
    9900012    2    1    2    0    0  0.15083362148E+01  0.24188850461E+02  0.36003442889E+02  0.47787268847E+02  0.19999989983E+02 0.  0.
         12    1    1    2    0    0 -0.15083362148E+01 -0.24188850461E+02 -0.36003442889E+02  0.43400731153E+02  0.00000000000E+00 0. -1.
         11    1    3    3    0    0  0.48456750072E+01  0.68845592726E+01  0.97727838483E+01  0.12899032020E+02  0.51100000000E-03 0. -1.
        -11    1    3    3    0    0 -0.26965156810E+01  0.14586097588E+02  0.88249937957E+01  0.17259952358E+02  0.51100000000E-03 0.  1.
         12    1    3    3    0    0 -0.64082311143E+00  0.27181936005E+01  0.17405665245E+02  0.17628284469E+02  0.00000000000E+00 0. -1.
</event>
<event>
 7    1  0.2769403E-010  0.4778727E+02  0.7816164E-02  0.1312668E+00
        -11   -1    0    0    0    0  0.00000000000E+00  0.00000000000E+00  0.45593999997E+02  0.45594000000E+02  0.51100000000E-03 0.  1.
         11   -1    0    0    0    0 -0.00000000000E+00 -0.00000000000E+00 -0.45593999997E+02  0.45594000000E+02  0.51100000000E-03 0. -1.
    9900012    2    1    2    0    0 -0.44784455659E+01  0.53126125651E+01  0.42840903592E+02  0.47787270196E+02  0.19999996132E+02 0.  0.
         12    1    1    2    0    0  0.44784455659E+01 -0.53126125651E+01 -0.42840903592E+02  0.43400729804E+02  0.00000000000E+00 0. -1.
         11    1    3    3    0    0  0.50951795149E+01  0.39013083548E+01  0.13466223729E+02  0.14917112420E+02  0.51100000000E-03 0. -1.
        -11    1    3    3    0    0 -0.22692489467E+01 -0.53113617696E+00  0.22600823229E+02  0.22720669165E+02  0.51100000000E-03 0.  1.
         12    1    3    3    0    0 -0.73043761341E+01  0.19424403872E+01  0.67738566338E+01  0.10149488611E+02  0.00000000000E+00 0. -1.
</event>
<event>
 7    1  0.2769403E-010  0.4778727E+02  0.7816164E-02  0.1312668E+00
        -11   -1    0    0    0    0  0.00000000000E+00  0.00000000000E+00  0.45593999997E+02  0.45594000000E+02  0.51100000000E-03 0. -1.
         11   -1    0    0    0    0 -0.00000000000E+00 -0.00000000000E+00 -0.45593999997E+02  0.45594000000E+02  0.51100000000E-03 0.  1.
    9900012    2    1    2    0    0 -0.37448684371E+01  0.26240676340E+02 -0.34366060390E+02  0.47787271422E+02  0.20000001721E+02 0.  0.
         12    1    1    2    0    0  0.37448684371E+01 -0.26240676340E+02  0.34366060390E+02  0.43400728578E+02  0.00000000000E+00 0. -1.
         11    1    3    3    0    0 -0.44836322380E+01  0.92700210046E+00 -0.44612898804E+01  0.63926049931E+01  0.51100000000E-03 0. -1.
        -11    1    3    3    0    0  0.19329051078E+01  0.32084900526E-01  0.33375646221E+00  0.19617709432E+01  0.51100000000E-03 0.  1.
        -12    1    3    3    0    0 -0.11941413068E+01  0.25281589339E+02 -0.30238526972E+02  0.39432895486E+02  0.00000000000E+00 0.  1.
</event>
<event>
 7    1  0.2769403E-010  0.4778722E+02  0.7816164E-02  0.1312668E+00
        -11   -1    0    0    0    0  0.00000000000E+00  0.00000000000E+00  0.45593999997E+02  0.45594000000E+02  0.51100000000E-03 0.  1.
         11   -1    0    0    0    0 -0.00000000000E+00 -0.00000000000E+00 -0.45593999997E+02  0.45594000000E+02  0.51100000000E-03 0. -1.
    9900012    2    1    2    0    0  0.72980957184E+01 -0.12746456601E+02  0.40839853003E+02  0.47787217169E+02  0.19999754361E+02 0.  0.
         12    1    1    2    0    0 -0.72980957184E+01  0.12746456601E+02 -0.40839853003E+02  0.43400782831E+02  0.00000000000E+00 0. -1.
         11    1    3    3    0    0 -0.83347547007E+00  0.33797885332E+01  0.23224042610E+01  0.41846402117E+01  0.51100000000E-03 0. -1.
        -11    1    3    3    0    0  0.47286579518E+01 -0.90226608240E+00  0.82570712266E+01  0.95579033062E+01  0.51100000000E-03 0.  1.
         12    1    3    3    0    0  0.34029132367E+01 -0.15223979052E+02  0.30260377515E+02  0.34044673652E+02  0.00000000000E+00 0. -1.
</event>
<event>
 7    1  0.2769403E-010  0.4778727E+02  0.7816164E-02  0.1312668E+00
        -11   -1    0    0    0    0  0.00000000000E+00  0.00000000000E+00  0.45593999997E+02  0.45594000000E+02  0.51100000000E-03 0.  1.
         11   -1    0    0    0    0 -0.00000000000E+00 -0.00000000000E+00 -0.45593999997E+02  0.45594000000E+02  0.51100000000E-03 0. -1.
    9900012    2    1    2    0    0  0.37149588852E+02  0.21827625459E+01 -0.22333088980E+02  0.47787271117E+02  0.20000000329E+02 0.  0.
         12    1    1    2    0    0 -0.37149588852E+02 -0.21827625459E+01  0.22333088980E+02  0.43400728883E+02  0.00000000000E+00 0. -1.
         11    1    3    3    0    0  0.15342180701E+02  0.38207800804E+01 -0.85520550306E+01  0.17975497617E+02  0.51100000000E-03 0. -1.
        -11    1    3    3    0    0  0.41539859502E+01  0.59176902154E+01 -0.35775007207E+01  0.80667941853E+01  0.51100000000E-03 0.  1.
        -12    1    3    3    0    0  0.17653422201E+02 -0.75557077500E+01 -0.10203533228E+02  0.21744979314E+02  0.00000000000E+00 0.  1.
</event>
<event>
 7    1  0.2769403E-010  0.4778726E+02  0.7816164E-02  0.1312668E+00
        -11   -1    0    0    0    0  0.00000000000E+00  0.00000000000E+00  0.45593999997E+02  0.45594000000E+02  0.51100000000E-03 0. -1.
         11   -1    0    0    0    0 -0.00000000000E+00 -0.00000000000E+00 -0.45593999997E+02  0.45594000000E+02  0.51100000000E-03 0.  1.
    9900012    2    1    2    0    0 -0.26037731313E+01  0.13908570466E+02 -0.41029207754E+02  0.47787264340E+02  0.19999969431E+02 0.  0.
         12    1    1    2    0    0  0.26037731313E+01 -0.13908570466E+02  0.41029207754E+02  0.43400735660E+02  0.00000000000E+00 0. -1.
         11    1    3    3    0    0 -0.80124852044E+01 -0.64069238495E+00 -0.92829019934E+01  0.12279359738E+02  0.51100000000E-03 0. -1.
        -11    1    3    3    0    0  0.39238110498E+01  0.77273457441E+01 -0.20689969206E+02  0.22431740713E+02  0.51100000000E-03 0.  1.
         12    1    3    3    0    0  0.14849010233E+01  0.68219171065E+01 -0.11056336555E+02  0.13076163890E+02  0.00000000000E+00 0. -1.
</event>
<event>
 7    1  0.2769403E-010  0.4778725E+02  0.7816164E-02  0.1312668E+00
        -11   -1    0    0    0    0  0.00000000000E+00  0.00000000000E+00  0.45593999997E+02  0.45594000000E+02  0.51100000000E-03 0.  1.
         11   -1    0    0    0    0 -0.00000000000E+00 -0.00000000000E+00 -0.45593999997E+02  0.45594000000E+02  0.51100000000E-03 0. -1.
    9900012    2    1    2    0    0 -0.20308060624E+02 -0.24432161047E+02  0.29568179583E+02  0.47787250426E+02  0.19999905992E+02 0.  0.
         12    1    1    2    0    0  0.20308060624E+02  0.24432161047E+02 -0.29568179583E+02  0.43400749574E+02  0.00000000000E+00 0. -1.
         11    1    3    3    0    0 -0.79497298353E+01 -0.13857188961E+02  0.91398757456E+01  0.18405358439E+02  0.51100000000E-03 0. -1.
        -11    1    3    3    0    0 -0.11749480386E+02 -0.48951500753E+01  0.64246177251E+01  0.14257927507E+02  0.51100000000E-03 0.  1.
        -12    1    3    3    0    0 -0.60885040221E+00 -0.56798220110E+01  0.14003686112E+02  0.15123964481E+02  0.00000000000E+00 0.  1.
</event>
<event>
 7    1  0.2769403E-010  0.4778727E+02  0.7816164E-02  0.1312668E+00
        -11   -1    0    0    0    0  0.00000000000E+00  0.00000000000E+00  0.45593999997E+02  0.45594000000E+02  0.51100000000E-03 0.  1.
         11   -1    0    0    0    0 -0.00000000000E+00 -0.00000000000E+00 -0.45593999997E+02  0.45594000000E+02  0.51100000000E-03 0. -1.
    9900012    2    1    2    0    0  0.41325012561E+02 -0.78987972217E+00  0.13237931298E+02  0.47787269613E+02  0.19999993472E+02 0.  0.
         12    1    1    2    0    0 -0.41325012561E+02  0.78987972217E+00 -0.13237931298E+02  0.43400730387E+02  0.00000000000E+00 0. -1.
         11    1    3    3    0    0  0.22752844224E+02  0.51852481152E+01  0.44556586035E+01  0.23757769511E+02  0.51100000000E-03 0. -1.
        -11    1    3    3    0    0  0.19300529760E+02 -0.49283270838E+01  0.99799572072E+01  0.22280000067E+02  0.51100000000E-03 0.  1.
         12    1    3    3    0    0 -0.72836142312E+00 -0.10468007535E+01 -0.11976845126E+01  0.17495000349E+01  0.00000000000E+00 0. -1.
</event>
<event>
 7    1  0.2769403E-010  0.4778727E+02  0.7816164E-02  0.1312668E+00
        -11   -1    0    0    0    0  0.00000000000E+00  0.00000000000E+00  0.45593999997E+02  0.45594000000E+02  0.51100000000E-03 0. -1.
         11   -1    0    0    0    0 -0.00000000000E+00 -0.00000000000E+00 -0.45593999997E+02  0.45594000000E+02  0.51100000000E-03 0.  1.
    9900012    2    1    2    0    0 -0.37472149598E+02 -0.13560326842E+02  0.17192405586E+02  0.47787271096E+02  0.20000000236E+02 0.  0.
         12    1    1    2    0    0  0.37472149598E+02  0.13560326842E+02 -0.17192405586E+02  0.43400728904E+02  0.00000000000E+00 0. -1.
         11    1    3    3    0    0  0.50694019002E+00 -0.85565429974E+00  0.33366081755E+01  0.34816787638E+01  0.51100000000E-03 0. -1.
        -11    1    3    3    0    0 -0.76510053092E+01 -0.27799919255E+01  0.88157806661E+01  0.11999342747E+02  0.51100000000E-03 0.  1.
        -12    1    3    3    0    0 -0.30328084479E+02 -0.99246806166E+01  0.50400167446E+01  0.32306249585E+02  0.00000000000E+00 0.  1.
</event>
<event>
 7    1  0.2769403E-010  0.4778730E+02  0.7816164E-02  0.1312668E+00
        -11   -1    0    0    0    0  0.00000000000E+00  0.00000000000E+00  0.45593999997E+02  0.45594000000E+02  0.51100000000E-03 0. -1.
         11   -1    0    0    0    0 -0.00000000000E+00 -0.00000000000E+00 -0.45593999997E+02  0.45594000000E+02  0.51100000000E-03 0.  1.
    9900012    2    1    2    0    0 -0.11912348225E+02 -0.33009487441E+02 -0.25536055502E+02  0.47787303785E+02  0.20000149277E+02 0.  0.
         12    1    1    2    0    0  0.11912348225E+02  0.33009487441E+02  0.25536055502E+02  0.43400696215E+02  0.00000000000E+00 0. -1.
         11    1    3    3    0    0  0.36144592092E+00 -0.93406994887E+01 -0.10919305718E+02  0.14373953796E+02  0.51100000000E-03 0. -1.
        -11    1    3    3    0    0 -0.11788937315E+02 -0.11532019423E+02 -0.13318240139E+02  0.21197689395E+02  0.51100000000E-03 0.  1.
         12    1    3    3    0    0 -0.48485683083E+00 -0.12136768529E+02 -0.12985096445E+01  0.12215660595E+02  0.00000000000E+00 0. -1.
</event>
<event>
 7    1  0.2769403E-010  0.4778727E+02  0.7816164E-02  0.1312668E+00
        -11   -1    0    0    0    0  0.00000000000E+00  0.00000000000E+00  0.45593999997E+02  0.45594000000E+02  0.51100000000E-03 0.  1.
         11   -1    0    0    0    0 -0.00000000000E+00 -0.00000000000E+00 -0.45593999997E+02  0.45594000000E+02  0.51100000000E-03 0. -1.
    9900012    2    1    2    0    0  0.10414041510E+02  0.20178166314E+02  0.36986656658E+02  0.47787269280E+02  0.19999991953E+02 0.  0.
         12    1    1    2    0    0 -0.10414041510E+02 -0.20178166314E+02 -0.36986656658E+02  0.43400730720E+02  0.00000000000E+00 0. -1.
         11    1    3    3    0    0  0.67208352189E+01  0.12258471376E+02  0.15617141212E+02  0.20960315990E+02  0.51100000000E-03 0. -1.
        -11    1    3    3    0    0  0.62496596837E+01  0.65280867761E+01  0.52601302856E+01  0.10456726735E+02  0.51100000000E-03 0.  1.
         12    1    3    3    0    0 -0.25564533925E+01  0.13916081618E+01  0.16109385160E+02  0.16370226555E+02  0.00000000000E+00 0. -1.
</event>
<event>
 7    1  0.2769403E-010  0.4778727E+02  0.7816164E-02  0.1312668E+00
        -11   -1    0    0    0    0  0.00000000000E+00  0.00000000000E+00  0.45593999997E+02  0.45594000000E+02  0.51100000000E-03 0.  1.
         11   -1    0    0    0    0 -0.00000000000E+00 -0.00000000000E+00 -0.45593999997E+02  0.45594000000E+02  0.51100000000E-03 0. -1.
    9900012    2    1    2    0    0  0.29584424201E+02  0.29796749639E+02 -0.10979030722E+02  0.47787267749E+02  0.19999984974E+02 0.  0.
         12    1    1    2    0    0 -0.29584424201E+02 -0.29796749639E+02  0.10979030722E+02  0.43400732251E+02  0.00000000000E+00 0. -1.
         11    1    3    3    0    0  0.77062332763E+01  0.14814594387E+02 -0.75432848891E+01  0.18323738301E+02  0.51100000000E-03 0. -1.
        -11    1    3    3    0    0  0.58703847499E+01  0.75505781417E+01 -0.64820992054E+01  0.11553798412E+02  0.51100000000E-03 0.  1.
        -12    1    3    3    0    0  0.16007806175E+02  0.74315771106E+01  0.30463533730E+01  0.17909731035E+02  0.00000000000E+00 0.  1.
</event>
<event>
 7    1  0.2769403E-010  0.4778723E+02  0.7816164E-02  0.1312668E+00
        -11   -1    0    0    0    0  0.00000000000E+00  0.00000000000E+00  0.45593999997E+02  0.45594000000E+02  0.51100000000E-03 0.  1.
         11   -1    0    0    0    0 -0.00000000000E+00 -0.00000000000E+00 -0.45593999997E+02  0.45594000000E+02  0.51100000000E-03 0. -1.
    9900012    2    1    2    0    0 -0.29570740889E+02  0.19383915812E+02  0.25168668706E+02  0.47787230498E+02  0.19999815132E+02 0.  0.
         12    1    1    2    0    0  0.29570740889E+02 -0.19383915812E+02 -0.25168668706E+02  0.43400769502E+02  0.00000000000E+00 0. -1.
         11    1    3    3    0    0 -0.24682861726E+01  0.39159083099E+01  0.41107084511E+01  0.61906945291E+01  0.51100000000E-03 0. -1.
        -11    1    3    3    0    0 -0.55783325877E+01  0.28994686148E+01 -0.29901763095E+01  0.69617431244E+01  0.51100000000E-03 0.  1.
        -12    1    3    3    0    0 -0.21524122128E+02  0.12568538887E+02  0.24048136565E+02  0.34634792845E+02  0.00000000000E+00 0.  1.
</event>
<event>
 7    1  0.2769403E-010  0.4778727E+02  0.7816164E-02  0.1312668E+00
        -11   -1    0    0    0    0  0.00000000000E+00  0.00000000000E+00  0.45593999997E+02  0.45594000000E+02  0.51100000000E-03 0.  1.
         11   -1    0    0    0    0 -0.00000000000E+00 -0.00000000000E+00 -0.45593999997E+02  0.45594000000E+02  0.51100000000E-03 0. -1.
    9900012    2    1    2    0    0  0.38629182047E+02  0.15406130940E+02  0.12412111707E+02  0.47787273126E+02  0.20000009491E+02 0.  0.
         12    1    1    2    0    0 -0.38629182047E+02 -0.15406130940E+02 -0.12412111707E+02  0.43400726874E+02  0.00000000000E+00 0. -1.
         11    1    3    3    0    0  0.21878603060E+00  0.27849986364E+01  0.16070419037E+01  0.32228355021E+01  0.51100000000E-03 0. -1.
        -11    1    3    3    0    0  0.56825722096E+01 -0.96977156431E+00  0.67792641937E+01  0.88989048244E+01  0.51100000000E-03 0.  1.
         12    1    3    3    0    0  0.32727823807E+02  0.13590903867E+02  0.40258056095E+01  0.35665532800E+02  0.00000000000E+00 0. -1.
</event>
<event>
 7    1  0.2769403E-010  0.4778727E+02  0.7816164E-02  0.1312668E+00
        -11   -1    0    0    0    0  0.00000000000E+00  0.00000000000E+00  0.45593999997E+02  0.45594000000E+02  0.51100000000E-03 0. -1.
         11   -1    0    0    0    0 -0.00000000000E+00 -0.00000000000E+00 -0.45593999997E+02  0.45594000000E+02  0.51100000000E-03 0.  1.
    9900012    2    1    2    0    0  0.40141988738E+02 -0.13611567039E+02  0.93257335924E+01  0.47787270465E+02  0.19999997359E+02 0.  0.
         12    1    1    2    0    0 -0.40141988738E+02  0.13611567039E+02 -0.93257335924E+01  0.43400729535E+02  0.00000000000E+00 0. -1.
         11    1    3    3    0    0  0.40055371472E+01  0.18225110558E+01  0.25627600905E+00  0.44081234148E+01  0.51100000000E-03 0. -1.
        -11    1    3    3    0    0  0.74963025201E+01 -0.10662698673E+02  0.54189165399E+01  0.14115677497E+02  0.51100000000E-03 0.  1.
         12    1    3    3    0    0  0.28640149071E+02 -0.47713794212E+01  0.36505410434E+01  0.29263469553E+02  0.00000000000E+00 0. -1.
</event>
<event>
 7    1  0.2769403E-010  0.4778727E+02  0.7816164E-02  0.1312668E+00
        -11   -1    0    0    0    0  0.00000000000E+00  0.00000000000E+00  0.45593999997E+02  0.45594000000E+02  0.51100000000E-03 0.  1.
         11   -1    0    0    0    0 -0.00000000000E+00 -0.00000000000E+00 -0.45593999997E+02  0.45594000000E+02  0.51100000000E-03 0. -1.
    9900012    2    1    2    0    0  0.66184267122E+00 -0.31995712191E+02  0.29316541742E+02  0.47787271273E+02  0.20000001042E+02 0.  0.
         12    1    1    2    0    0 -0.66184267122E+00  0.31995712191E+02 -0.29316541742E+02  0.43400728727E+02  0.00000000000E+00 0. -1.
         11    1    3    3    0    0  0.40019866516E+01 -0.34265808722E+01  0.38584802241E+01  0.65303310433E+01  0.51100000000E-03 0. -1.
        -11    1    3    3    0    0  0.47817297641E+01 -0.18767661844E+02  0.18338738026E+02  0.26672071222E+02  0.51100000000E-03 0.  1.
        -12    1    3    3    0    0 -0.81218737446E+01 -0.98014694743E+01  0.71193234921E+01  0.14584869007E+02  0.00000000000E+00 0.  1.
</event>
<event>
 7    1  0.2769403E-010  0.4778727E+02  0.7816164E-02  0.1312668E+00
        -11   -1    0    0    0    0  0.00000000000E+00  0.00000000000E+00  0.45593999997E+02  0.45594000000E+02  0.51100000000E-03 0. -1.
         11   -1    0    0    0    0 -0.00000000000E+00 -0.00000000000E+00 -0.45593999997E+02  0.45594000000E+02  0.51100000000E-03 0.  1.
    9900012    2    1    2    0    0  0.33753207867E+02  0.68722715668E+00 -0.27274016752E+02  0.47787270602E+02  0.19999997983E+02 0.  0.
         12    1    1    2    0    0 -0.33753207867E+02 -0.68722715668E+00  0.27274016752E+02  0.43400729398E+02  0.00000000000E+00 0. -1.
         11    1    3    3    0    0  0.13714446883E+00 -0.37861365741E+00  0.15547664874E+01  0.16060684912E+01  0.51100000000E-03 0. -1.
        -11    1    3    3    0    0  0.22869358314E+02 -0.88573035639E+00 -0.11290739666E+02  0.25520048402E+02  0.51100000000E-03 0.  1.
         12    1    3    3    0    0  0.10746705084E+02  0.19515711705E+01 -0.17538043574E+02  0.20661153709E+02  0.00000000000E+00 0. -1.
</event>
<event>
 7    1  0.2769403E-010  0.4778727E+02  0.7816164E-02  0.1312668E+00
        -11   -1    0    0    0    0  0.00000000000E+00  0.00000000000E+00  0.45593999997E+02  0.45594000000E+02  0.51100000000E-03 0.  1.
         11   -1    0    0    0    0 -0.00000000000E+00 -0.00000000000E+00 -0.45593999997E+02  0.45594000000E+02  0.51100000000E-03 0. -1.
    9900012    2    1    2    0    0  0.12220739178E+02 -0.98368272653E+01  0.40466203654E+02  0.47787271033E+02  0.19999999946E+02 0.  0.
         12    1    1    2    0    0 -0.12220739178E+02  0.98368272653E+01 -0.40466203654E+02  0.43400728967E+02  0.00000000000E+00 0. -1.
         11    1    3    3    0    0  0.91058564019E+00  0.40825047290E+01  0.14995335875E+02  0.15567790766E+02  0.51100000000E-03 0. -1.
        -11    1    3    3    0    0  0.23696297007E+01 -0.60003142561E+01  0.15029205816E+02  0.16355303232E+02  0.51100000000E-03 0.  1.
         12    1    3    3    0    0  0.89405238370E+01 -0.79190177382E+01  0.10441661963E+02  0.15864177034E+02  0.00000000000E+00 0. -1.
</event>
<event>
 7    1  0.2769403E-010  0.4778727E+02  0.7816164E-02  0.1312668E+00
        -11   -1    0    0    0    0  0.00000000000E+00  0.00000000000E+00  0.45593999997E+02  0.45594000000E+02  0.51100000000E-03 0.  1.
         11   -1    0    0    0    0 -0.00000000000E+00 -0.00000000000E+00 -0.45593999997E+02  0.45594000000E+02  0.51100000000E-03 0. -1.
    9900012    2    1    2    0    0  0.33436821219E+02  0.15871625092E+02  0.22664806584E+02  0.47787274732E+02  0.20000016814E+02 0.  0.
         12    1    1    2    0    0 -0.33436821219E+02 -0.15871625092E+02 -0.22664806584E+02  0.43400725268E+02  0.00000000000E+00 0. -1.
         11    1    3    3    0    0  0.23474867212E+02  0.11879740316E+02  0.90045139851E+01  0.27807892638E+02  0.51100000000E-03 0. -1.
        -11    1    3    3    0    0  0.10416725279E+02  0.63241450410E+01  0.11782128907E+02  0.16950561580E+02  0.51100000000E-03 0.  1.
        -12    1    3    3    0    0 -0.45477127238E+00 -0.23322602647E+01  0.18781636918E+01  0.30288205139E+01  0.00000000000E+00 0.  1.
</event>
<event>
 7    1  0.2769403E-010  0.4778727E+02  0.7816164E-02  0.1312668E+00
        -11   -1    0    0    0    0  0.00000000000E+00  0.00000000000E+00  0.45593999997E+02  0.45594000000E+02  0.51100000000E-03 0.  1.
         11   -1    0    0    0    0 -0.00000000000E+00 -0.00000000000E+00 -0.45593999997E+02  0.45594000000E+02  0.51100000000E-03 0. -1.
    9900012    2    1    2    0    0  0.13396130192E+02 -0.40519158933E+02  0.78971312942E+01  0.47787271580E+02  0.20000002441E+02 0.  0.
         12    1    1    2    0    0 -0.13396130192E+02  0.40519158933E+02 -0.78971312942E+01  0.43400728420E+02  0.00000000000E+00 0. -1.
         11    1    3    3    0    0  0.81172648931E+00 -0.19027707260E+02  0.46155618831E+01  0.19596325044E+02  0.51100000000E-03 0. -1.
        -11    1    3    3    0    0  0.40440998249E+01 -0.16083913986E+02  0.61425748294E+01  0.17685538112E+02  0.51100000000E-03 0.  1.
        -12    1    3    3    0    0  0.85403038778E+01 -0.54075376865E+01 -0.28610054183E+01  0.10505408424E+02  0.00000000000E+00 0.  1.
</event>
<event>
 7    1  0.2769403E-010  0.4778723E+02  0.7816164E-02  0.1312668E+00
        -11   -1    0    0    0    0  0.00000000000E+00  0.00000000000E+00  0.45593999997E+02  0.45594000000E+02  0.51100000000E-03 0.  1.
         11   -1    0    0    0    0 -0.00000000000E+00 -0.00000000000E+00 -0.45593999997E+02  0.45594000000E+02  0.51100000000E-03 0. -1.
    9900012    2    1    2    0    0 -0.18131734785E+01  0.39181872180E+02  0.18577397536E+02  0.47787234975E+02  0.19999835542E+02 0.  0.
         12    1    1    2    0    0  0.18131734785E+01 -0.39181872180E+02 -0.18577397536E+02  0.43400765025E+02  0.00000000000E+00 0. -1.
         11    1    3    3    0    0 -0.21588519816E+00  0.22200691276E+02  0.53313401075E+01  0.22832881709E+02  0.51100000000E-03 0. -1.
        -11    1    3    3    0    0 -0.14662421764E+01  0.17612971618E+02  0.75451937956E+01  0.19217090961E+02  0.51100000000E-03 0.  1.
         12    1    3    3    0    0 -0.13104610389E+00 -0.63179071391E+00  0.57008636327E+01  0.57372623041E+01  0.00000000000E+00 0. -1.
</event>
<event>
 7    1  0.2769403E-010  0.4778727E+02  0.7816164E-02  0.1312668E+00
        -11   -1    0    0    0    0  0.00000000000E+00  0.00000000000E+00  0.45593999997E+02  0.45594000000E+02  0.51100000000E-03 0.  1.
         11   -1    0    0    0    0 -0.00000000000E+00 -0.00000000000E+00 -0.45593999997E+02  0.45594000000E+02  0.51100000000E-03 0. -1.
    9900012    2    1    2    0    0 -0.11584205239E+02 -0.31691010014E+02  0.27296688926E+02  0.47787272437E+02  0.20000006347E+02 0.  0.
         12    1    1    2    0    0  0.11584205239E+02  0.31691010014E+02 -0.27296688926E+02  0.43400727563E+02  0.00000000000E+00 0. -1.
         11    1    3    3    0    0 -0.44878592016E+01 -0.79919690608E+01  0.66561556623E+01  0.11327703127E+02  0.51100000000E-03 0. -1.
        -11    1    3    3    0    0 -0.25436533328E+01 -0.16792499937E+02  0.33770408747E+01  0.17316542142E+02  0.51100000000E-03 0.  1.
         12    1    3    3    0    0 -0.45526927044E+01 -0.69065410157E+01  0.17263492389E+02  0.19143027167E+02  0.00000000000E+00 0. -1.
</event>
<event>
 7    1  0.2769403E-010  0.4778727E+02  0.7816164E-02  0.1312668E+00
        -11   -1    0    0    0    0  0.00000000000E+00  0.00000000000E+00  0.45593999997E+02  0.45594000000E+02  0.51100000000E-03 0. -1.
         11   -1    0    0    0    0 -0.00000000000E+00 -0.00000000000E+00 -0.45593999997E+02  0.45594000000E+02  0.51100000000E-03 0.  1.
    9900012    2    1    2    0    0 -0.42427038800E+02 -0.62914152089E+01  0.66323007068E+01  0.47787274899E+02  0.20000017574E+02 0.  0.
         12    1    1    2    0    0  0.42427038800E+02  0.62914152089E+01 -0.66323007068E+01  0.43400725101E+02  0.00000000000E+00 0. -1.
         11    1    3    3    0    0 -0.18609720420E+02 -0.77078650485E+01 -0.25331125071E+01  0.20301466375E+02  0.51100000000E-03 0. -1.
        -11    1    3    3    0    0 -0.77224016378E+01 -0.41625944310E+01  0.43010135887E+01  0.97704348728E+01  0.51100000000E-03 0.  1.
        -12    1    3    3    0    0 -0.16094916741E+02  0.55790442706E+01  0.48643996252E+01  0.17715373651E+02  0.00000000000E+00 0.  1.
</event>
<event>
 7    1  0.2769403E-010  0.4778727E+02  0.7816164E-02  0.1312668E+00
        -11   -1    0    0    0    0  0.00000000000E+00  0.00000000000E+00  0.45593999997E+02  0.45594000000E+02  0.51100000000E-03 0.  1.
         11   -1    0    0    0    0 -0.00000000000E+00 -0.00000000000E+00 -0.45593999997E+02  0.45594000000E+02  0.51100000000E-03 0. -1.
    9900012    2    1    2    0    0 -0.27719643297E+02  0.25689645344E+02  0.21337442370E+02  0.47787274783E+02  0.20000017047E+02 0.  0.
         12    1    1    2    0    0  0.27719643297E+02 -0.25689645344E+02 -0.21337442370E+02  0.43400725217E+02  0.00000000000E+00 0. -1.
         11    1    3    3    0    0 -0.12380929766E+02  0.22160532779E+02  0.82920552311E+01  0.26704584159E+02  0.51100000000E-03 0. -1.
        -11    1    3    3    0    0 -0.44951001270E+01  0.10452561056E+01  0.10697790537E+01  0.47373951664E+01  0.51100000000E-03 0.  1.
         12    1    3    3    0    0 -0.10843613405E+02  0.24838564597E+01  0.11975608085E+02  0.16345295458E+02  0.00000000000E+00 0. -1.
</event>
<event>
 7    1  0.2769403E-010  0.4778727E+02  0.7816164E-02  0.1312668E+00
        -11   -1    0    0    0    0  0.00000000000E+00  0.00000000000E+00  0.45593999997E+02  0.45594000000E+02  0.51100000000E-03 0.  1.
         11   -1    0    0    0    0 -0.00000000000E+00 -0.00000000000E+00 -0.45593999997E+02  0.45594000000E+02  0.51100000000E-03 0. -1.
    9900012    2    1    2    0    0 -0.15905254991E+02 -0.11333596272E+02  0.38758169808E+02  0.47787271117E+02  0.20000000329E+02 0.  0.
         12    1    1    2    0    0  0.15905254991E+02  0.11333596272E+02 -0.38758169808E+02  0.43400728883E+02  0.00000000000E+00 0. -1.
         11    1    3    3    0    0 -0.96745027277E+01  0.68726713904E+00  0.11588652040E+02  0.15111756864E+02  0.51100000000E-03 0. -1.
        -11    1    3    3    0    0 -0.87543579766E+01 -0.37880483385E+01  0.14556966529E+02  0.17403832009E+02  0.51100000000E-03 0.  1.
         12    1    3    3    0    0  0.25236057138E+01 -0.82328150724E+01  0.12612551239E+02  0.15271682244E+02  0.00000000000E+00 0. -1.
</event>
<event>
 7    1  0.2769403E-010  0.4778727E+02  0.7816164E-02  0.1312668E+00
        -11   -1    0    0    0    0  0.00000000000E+00  0.00000000000E+00  0.45593999997E+02  0.45594000000E+02  0.51100000000E-03 0. -1.
         11   -1    0    0    0    0 -0.00000000000E+00 -0.00000000000E+00 -0.45593999997E+02  0.45594000000E+02  0.51100000000E-03 0.  1.
    9900012    2    1    2    0    0 -0.29597915445E+02 -0.30021841717E+02 -0.10309006631E+02  0.47787271936E+02  0.20000004065E+02 0.  0.
         12    1    1    2    0    0  0.29597915445E+02  0.30021841717E+02  0.10309006631E+02  0.43400728064E+02  0.00000000000E+00 0. -1.
         11    1    3    3    0    0 -0.14630673045E+01 -0.84431588009E+01 -0.16796589609E+01  0.87320530782E+01  0.51100000000E-03 0. -1.
        -11    1    3    3    0    0 -0.67333020471E+01 -0.83175299170E+01 -0.88352287449E+01  0.13877317018E+02  0.51100000000E-03 0.  1.
        -12    1    3    3    0    0 -0.21401546093E+02 -0.13261152999E+02  0.20588107481E+00  0.25177901840E+02  0.00000000000E+00 0.  1.
</event>
<event>
 7    1  0.2769403E-010  0.4778727E+02  0.7816164E-02  0.1312668E+00
        -11   -1    0    0    0    0  0.00000000000E+00  0.00000000000E+00  0.45593999997E+02  0.45594000000E+02  0.51100000000E-03 0.  1.
         11   -1    0    0    0    0 -0.00000000000E+00 -0.00000000000E+00 -0.45593999997E+02  0.45594000000E+02  0.51100000000E-03 0. -1.
    9900012    2    1    2    0    0  0.36671197257E+02 -0.23008934150E+02 -0.30716914303E+01  0.47787273655E+02  0.20000011905E+02 0.  0.
         12    1    1    2    0    0 -0.36671197257E+02  0.23008934150E+02  0.30716914303E+01  0.43400726345E+02  0.00000000000E+00 0. -1.
         11    1    3    3    0    0  0.11817230401E+02 -0.23176595255E+01  0.18665784084E+01  0.12186164091E+02  0.51100000000E-03 0. -1.
        -11    1    3    3    0    0  0.10242589729E+02 -0.88327605285E+00  0.84997246696E+00  0.10315680995E+02  0.51100000000E-03 0.  1.
        -12    1    3    3    0    0  0.14611377127E+02 -0.19807998571E+02 -0.57882423057E+01  0.25285428570E+02  0.00000000000E+00 0.  1.
</event>
<event>
 7    1  0.2769403E-010  0.4778728E+02  0.7816164E-02  0.1312668E+00
        -11   -1    0    0    0    0  0.00000000000E+00  0.00000000000E+00  0.45593999997E+02  0.45594000000E+02  0.51100000000E-03 0. -1.
         11   -1    0    0    0    0 -0.00000000000E+00 -0.00000000000E+00 -0.45593999997E+02  0.45594000000E+02  0.51100000000E-03 0.  1.
    9900012    2    1    2    0    0  0.31065421312E+02 -0.27692943817E+02  0.12315158832E+02  0.47787277937E+02  0.20000031424E+02 0.  0.
         12    1    1    2    0    0 -0.31065421312E+02  0.27692943817E+02 -0.12315158832E+02  0.43400722063E+02  0.00000000000E+00 0. -1.
         11    1    3    3    0    0  0.12052070714E+01 -0.17267877084E+01 -0.28413654444E+01  0.35366195335E+01  0.51100000000E-03 0. -1.
        -11    1    3    3    0    0  0.34135654287E+01 -0.27460266434E+01  0.67825034584E+01  0.80743696155E+01  0.51100000000E-03 0.  1.
        -12    1    3    3    0    0  0.26446648812E+02 -0.23220129465E+02  0.83740208177E+01  0.36176288788E+02  0.00000000000E+00 0.  1.
</event>
<event>
 7    1  0.2769403E-010  0.4778726E+02  0.7816164E-02  0.1312668E+00
        -11   -1    0    0    0    0  0.00000000000E+00  0.00000000000E+00  0.45593999997E+02  0.45594000000E+02  0.51100000000E-03 0.  1.
         11   -1    0    0    0    0 -0.00000000000E+00 -0.00000000000E+00 -0.45593999997E+02  0.45594000000E+02  0.51100000000E-03 0. -1.
    9900012    2    1    2    0    0 -0.99819480319E+01  0.38871535401E+02  0.16522372385E+02  0.47787258760E+02  0.19999943992E+02 0.  0.
         12    1    1    2    0    0  0.99819480319E+01 -0.38871535401E+02 -0.16522372385E+02  0.43400741240E+02  0.00000000000E+00 0. -1.
         11    1    3    3    0    0 -0.36132355734E+01  0.64638646423E+01 -0.39653187842E+01  0.84000458775E+01  0.51100000000E-03 0. -1.
        -11    1    3    3    0    0 -0.15294751727E+01  0.20264505366E+02  0.10117327573E+02  0.22701316911E+02  0.51100000000E-03 0.  1.
         12    1    3    3    0    0 -0.48392372859E+01  0.12143165393E+02  0.10370363596E+02  0.16685895972E+02  0.00000000000E+00 0. -1.
</event>
<event>
 7    1  0.2769403E-010  0.4778728E+02  0.7816164E-02  0.1312668E+00
        -11   -1    0    0    0    0  0.00000000000E+00  0.00000000000E+00  0.45593999997E+02  0.45594000000E+02  0.51100000000E-03 0. -1.
         11   -1    0    0    0    0 -0.00000000000E+00 -0.00000000000E+00 -0.45593999997E+02  0.45594000000E+02  0.51100000000E-03 0.  1.
    9900012    2    1    2    0    0  0.56996502001E+00 -0.43382881487E+02  0.11061549218E+01  0.47787275986E+02  0.20000022528E+02 0.  0.
         12    1    1    2    0    0 -0.56996502001E+00  0.43382881487E+02 -0.11061549218E+01  0.43400724014E+02  0.00000000000E+00 0. -1.
         11    1    3    3    0    0  0.52676102001E+01 -0.16153096367E+02  0.29702283957E+00  0.16992894465E+02  0.51100000000E-03 0. -1.
        -11    1    3    3    0    0  0.24038274940E+01 -0.21538058501E+02  0.19321719812E+00  0.21672648286E+02  0.51100000000E-03 0.  1.
         12    1    3    3    0    0 -0.71014726741E+01 -0.56917266196E+01  0.61591488409E+00  0.91217332343E+01  0.00000000000E+00 0. -1.
</event>
<event>
 7    1  0.2769403E-010  0.4778727E+02  0.7816164E-02  0.1312668E+00
        -11   -1    0    0    0    0  0.00000000000E+00  0.00000000000E+00  0.45593999997E+02  0.45594000000E+02  0.51100000000E-03 0.  1.
         11   -1    0    0    0    0 -0.00000000000E+00 -0.00000000000E+00 -0.45593999997E+02  0.45594000000E+02  0.51100000000E-03 0. -1.
    9900012    2    1    2    0    0  0.35549071320E+02 -0.23235440117E+02  0.89443322978E+01  0.47787271557E+02  0.20000002336E+02 0.  0.
         12    1    1    2    0    0 -0.35549071320E+02  0.23235440117E+02 -0.89443322978E+01  0.43400728443E+02  0.00000000000E+00 0. -1.
         11    1    3    3    0    0  0.16615441545E+01 -0.63614100143E+01  0.26229569067E+01  0.70787124212E+01  0.51100000000E-03 0. -1.
        -11    1    3    3    0    0  0.46253970832E+01  0.23447325632E+01  0.38771251812E+00  0.52002298245E+01  0.51100000000E-03 0.  1.
        -12    1    3    3    0    0  0.29262130082E+02 -0.19218762666E+02  0.59336628730E+01  0.35508329311E+02  0.00000000000E+00 0.  1.
</event>
<event>
 7    1  0.2769403E-010  0.4778727E+02  0.7816164E-02  0.1312668E+00
        -11   -1    0    0    0    0  0.00000000000E+00  0.00000000000E+00  0.45593999997E+02  0.45594000000E+02  0.51100000000E-03 0.  1.
         11   -1    0    0    0    0 -0.00000000000E+00 -0.00000000000E+00 -0.45593999997E+02  0.45594000000E+02  0.51100000000E-03 0. -1.
    9900012    2    1    2    0    0  0.23238491711E+02  0.27228346016E+02  0.24540036304E+02  0.47787266071E+02  0.19999977323E+02 0.  0.
         12    1    1    2    0    0 -0.23238491711E+02 -0.27228346016E+02 -0.24540036304E+02  0.43400733929E+02  0.00000000000E+00 0. -1.
         11    1    3    3    0    0  0.12492853417E+02  0.12708558813E+02  0.11255239477E+02  0.21077458802E+02  0.51100000000E-03 0. -1.
        -11    1    3    3    0    0  0.76422371104E+01 -0.32109591525E+00  0.23014512349E+01  0.79877136082E+01  0.51100000000E-03 0.  1.
         12    1    3    3    0    0  0.31034011839E+01  0.14840883118E+02  0.10983345592E+02  0.18722093661E+02  0.00000000000E+00 0. -1.
</event>
<event>
 7    1  0.2769403E-010  0.4778727E+02  0.7816164E-02  0.1312668E+00
        -11   -1    0    0    0    0  0.00000000000E+00  0.00000000000E+00  0.45593999997E+02  0.45594000000E+02  0.51100000000E-03 0.  1.
         11   -1    0    0    0    0 -0.00000000000E+00 -0.00000000000E+00 -0.45593999997E+02  0.45594000000E+02  0.51100000000E-03 0. -1.
    9900012    2    1    2    0    0  0.13309239514E+02  0.16085015616E+02  0.38049441127E+02  0.47787267819E+02  0.19999985292E+02 0.  0.
         12    1    1    2    0    0 -0.13309239514E+02 -0.16085015616E+02 -0.38049441127E+02  0.43400732181E+02  0.00000000000E+00 0. -1.
         11    1    3    3    0    0 -0.18408705577E+01  0.29237816234E+01  0.70710979915E+01  0.78700527609E+01  0.51100000000E-03 0.  1.
        -11    1    3    3    0    0  0.45350983859E+01  0.18955371957E+01 -0.39710549576E+00  0.49313154093E+01  0.51100000000E-03 0. -1.
         12    1    3    3    0    0  0.10615011686E+02  0.11265696797E+02  0.31375448631E+02  0.34985899648E+02  0.00000000000E+00 0. -1.
</event>
<event>
 7    1  0.2769403E-010  0.4778727E+02  0.7816164E-02  0.1312668E+00
        -11   -1    0    0    0    0  0.00000000000E+00  0.00000000000E+00  0.45593999997E+02  0.45594000000E+02  0.51100000000E-03 0.  1.
         11   -1    0    0    0    0 -0.00000000000E+00 -0.00000000000E+00 -0.45593999997E+02  0.45594000000E+02  0.51100000000E-03 0. -1.
    9900012    2    1    2    0    0 -0.31934546689E+02 -0.24474483262E+02  0.16272921452E+02  0.47787267567E+02  0.19999984143E+02 0.  0.
         12    1    1    2    0    0  0.31934546689E+02  0.24474483262E+02 -0.16272921452E+02  0.43400732433E+02  0.00000000000E+00 0. -1.
         11    1    3    3    0    0 -0.35708723940E+01 -0.11178353202E+02  0.20232376637E+01  0.11907988951E+02  0.51100000000E-03 0. -1.
        -11    1    3    3    0    0  0.84363817394E-01  0.59020272778E+00  0.17426972992E+01  0.18418606493E+01  0.51100000000E-03 0.  1.
        -12    1    3    3    0    0 -0.28448038112E+02 -0.13886332788E+02  0.12506986489E+02  0.34037417966E+02  0.00000000000E+00 0.  1.
</event>
<event>
 7    1  0.2769403E-010  0.4778729E+02  0.7816164E-02  0.1312668E+00
        -11   -1    0    0    0    0  0.00000000000E+00  0.00000000000E+00  0.45593999997E+02  0.45594000000E+02  0.51100000000E-03 0.  1.
         11   -1    0    0    0    0 -0.00000000000E+00 -0.00000000000E+00 -0.45593999997E+02  0.45594000000E+02  0.51100000000E-03 0. -1.
    9900012    2    1    2    0    0  0.42524216644E+02  0.20634318888E+01  0.84294080070E+01  0.47787289502E+02  0.20000084156E+02 0.  0.
         12    1    1    2    0    0 -0.42524216644E+02 -0.20634318888E+01 -0.84294080070E+01  0.43400710498E+02  0.00000000000E+00 0. -1.
         11    1    3    3    0    0  0.22242563853E+02  0.86036754380E+01  0.24601819253E+01  0.23975140733E+02  0.51100000000E-03 0.  1.
        -11    1    3    3    0    0  0.17117257846E+02 -0.22274291548E+01  0.25130193876E+01  0.17443543892E+02  0.51100000000E-03 0. -1.
         12    1    3    3    0    0  0.31643949449E+01 -0.43128143944E+01  0.34562066941E+01  0.63686048771E+01  0.00000000000E+00 0. -1.
</event>
<event>
 7    1  0.2769403E-010  0.4778727E+02  0.7816164E-02  0.1312668E+00
        -11   -1    0    0    0    0  0.00000000000E+00  0.00000000000E+00  0.45593999997E+02  0.45594000000E+02  0.51100000000E-03 0.  1.
         11   -1    0    0    0    0 -0.00000000000E+00 -0.00000000000E+00 -0.45593999997E+02  0.45594000000E+02  0.51100000000E-03 0. -1.
    9900012    2    1    2    0    0 -0.84553060725E+01  0.38160193557E+02  0.18866126364E+02  0.47787270777E+02  0.19999998783E+02 0.  0.
         12    1    1    2    0    0  0.84553060725E+01 -0.38160193557E+02 -0.18866126364E+02  0.43400729223E+02  0.00000000000E+00 0. -1.
         11    1    3    3    0    0 -0.23182102823E+01  0.52495405414E+01 -0.16622725444E+00  0.57410283547E+01  0.51100000000E-03 0. -1.
        -11    1    3    3    0    0 -0.41494021442E+01  0.20755310491E+02  0.23303940777E+01  0.21293923747E+02  0.51100000000E-03 0.  1.
         12    1    3    3    0    0 -0.19876936460E+01  0.12155342524E+02  0.16701959541E+02  0.20752318676E+02  0.00000000000E+00 0. -1.
</event>
<event>
 7    1  0.2769403E-010  0.4778727E+02  0.7816164E-02  0.1312668E+00
        -11   -1    0    0    0    0  0.00000000000E+00  0.00000000000E+00  0.45593999997E+02  0.45594000000E+02  0.51100000000E-03 0.  1.
         11   -1    0    0    0    0 -0.00000000000E+00 -0.00000000000E+00 -0.45593999997E+02  0.45594000000E+02  0.51100000000E-03 0. -1.
    9900012    2    1    2    0    0  0.23473905593E+02 -0.26290228755E+02 -0.25326322052E+02  0.47787274655E+02  0.20000016464E+02 0.  0.
         12    1    1    2    0    0 -0.23473905593E+02  0.26290228755E+02  0.25326322052E+02  0.43400725345E+02  0.00000000000E+00 0. -1.
         11    1    3    3    0    0  0.13629723044E+02 -0.14150430749E+02 -0.10660935420E+02  0.22353066566E+02  0.51100000000E-03 0. -1.
        -11    1    3    3    0    0  0.99131881945E+01 -0.14918881314E+02 -0.11846800299E+02  0.21475357911E+02  0.51100000000E-03 0.  1.
         12    1    3    3    0    0 -0.69005645621E-01  0.27790833082E+01 -0.28185863329E+01  0.39588501777E+01  0.00000000000E+00 0. -1.
</event>
<event>
 7    1  0.2769403E-010  0.4778727E+02  0.7816164E-02  0.1312668E+00
        -11   -1    0    0    0    0  0.00000000000E+00  0.00000000000E+00  0.45593999997E+02  0.45594000000E+02  0.51100000000E-03 0.  1.
         11   -1    0    0    0    0 -0.00000000000E+00 -0.00000000000E+00 -0.45593999997E+02  0.45594000000E+02  0.51100000000E-03 0. -1.
    9900012    2    1    2    0    0 -0.28939628064E+01  0.26666508699E+02  0.34119581796E+02  0.47787267646E+02  0.19999984507E+02 0.  0.
         12    1    1    2    0    0  0.28939628064E+01 -0.26666508699E+02 -0.34119581796E+02  0.43400732354E+02  0.00000000000E+00 0. -1.
         11    1    3    3    0    0 -0.38156653078E+01  0.13452440608E+02  0.95905284072E+01  0.16955992906E+02  0.51100000000E-03 0. -1.
        -11    1    3    3    0    0  0.73873287199E+00  0.14413754256E+02  0.13586325367E+02  0.19821459967E+02  0.51100000000E-03 0.  1.
         12    1    3    3    0    0  0.18296962936E+00 -0.11996861646E+01  0.10942728022E+02  0.11009814773E+02  0.00000000000E+00 0. -1.
</event>
<event>
 7    1  0.2769403E-010  0.4778727E+02  0.7816164E-02  0.1312668E+00
        -11   -1    0    0    0    0  0.00000000000E+00  0.00000000000E+00  0.45593999997E+02  0.45594000000E+02  0.51100000000E-03 0.  1.
         11   -1    0    0    0    0 -0.00000000000E+00 -0.00000000000E+00 -0.45593999997E+02  0.45594000000E+02  0.51100000000E-03 0. -1.
    9900012    2    1    2    0    0 -0.29477412267E+02  0.21017188877E+02  0.23937075697E+02  0.47787266651E+02  0.19999979970E+02 0.  0.
         12    1    1    2    0    0  0.29477412267E+02 -0.21017188877E+02 -0.23937075697E+02  0.43400733349E+02  0.00000000000E+00 0. -1.
         11    1    3    3    0    0 -0.62796355186E+01  0.61763829560E+01  0.59312825283E+01  0.10618928447E+02  0.51100000000E-03 0. -1.
        -11    1    3    3    0    0 -0.18496292803E+02  0.18638515133E+02  0.12897385232E+02  0.29254907962E+02  0.51100000000E-03 0.  1.
         12    1    3    3    0    0 -0.47014839462E+01 -0.37977092115E+01  0.51084079364E+01  0.79134302421E+01  0.00000000000E+00 0. -1.
</event>
<event>
 7    1  0.2769403E-010  0.4778727E+02  0.7816164E-02  0.1312668E+00
        -11   -1    0    0    0    0  0.00000000000E+00  0.00000000000E+00  0.45593999997E+02  0.45594000000E+02  0.51100000000E-03 0. -1.
         11   -1    0    0    0    0 -0.00000000000E+00 -0.00000000000E+00 -0.45593999997E+02  0.45594000000E+02  0.51100000000E-03 0.  1.
    9900012    2    1    2    0    0 -0.67795996323E+00 -0.35268342927E+02 -0.25284538095E+02  0.47787268333E+02  0.19999987639E+02 0.  0.
         12    1    1    2    0    0  0.67795996323E+00  0.35268342927E+02  0.25284538095E+02  0.43400731667E+02  0.00000000000E+00 0. -1.
         11    1    3    3    0    0  0.87553241394E+01 -0.17210313963E+02 -0.16391578362E+02  0.25328530335E+02  0.51100000000E-03 0.  1.
        -11    1    3    3    0    0 -0.46534272345E+00 -0.34543601276E+01 -0.14813838742E+01  0.37873006463E+01  0.51100000000E-03 0. -1.
         12    1    3    3    0    0 -0.89679413791E+01 -0.14603668837E+02 -0.74115758590E+01  0.18671437352E+02  0.00000000000E+00 0. -1.
</event>
<event>
 7    1  0.2769403E-010  0.4778728E+02  0.7816164E-02  0.1312668E+00
        -11   -1    0    0    0    0  0.00000000000E+00  0.00000000000E+00  0.45593999997E+02  0.45594000000E+02  0.51100000000E-03 0. -1.
         11   -1    0    0    0    0 -0.00000000000E+00 -0.00000000000E+00 -0.45593999997E+02  0.45594000000E+02  0.51100000000E-03 0.  1.
    9900012    2    1    2    0    0  0.14851181555E+02  0.33361969385E+01 -0.40644000916E+02  0.47787278646E+02  0.20000034660E+02 0.  0.
         12    1    1    2    0    0 -0.14851181555E+02 -0.33361969385E+01  0.40644000916E+02  0.43400721354E+02  0.00000000000E+00 0. -1.
         11    1    3    3    0    0  0.18433085330E+01 -0.14107316143E+01 -0.39524653641E+01  0.45836593189E+01  0.51100000000E-03 0. -1.
        -11    1    3    3    0    0  0.14021163597E+02  0.79572072667E+01 -0.17804668387E+02  0.24019083928E+02  0.51100000000E-03 0.  1.
         12    1    3    3    0    0 -0.10132905752E+01 -0.32102787138E+01 -0.18886867164E+02  0.19184535399E+02  0.00000000000E+00 0. -1.
</event>
<event>
 7    1  0.2769403E-010  0.4778727E+02  0.7816164E-02  0.1312668E+00
        -11   -1    0    0    0    0  0.00000000000E+00  0.00000000000E+00  0.45593999997E+02  0.45594000000E+02  0.51100000000E-03 0.  1.
         11   -1    0    0    0    0 -0.00000000000E+00 -0.00000000000E+00 -0.45593999997E+02  0.45594000000E+02  0.51100000000E-03 0. -1.
    9900012    2    1    2    0    0  0.47715484449E+01 -0.38500917143E+02  0.19455980302E+02  0.47787268843E+02  0.19999989962E+02 0.  0.
         12    1    1    2    0    0 -0.47715484449E+01  0.38500917143E+02 -0.19455980302E+02  0.43400731157E+02  0.00000000000E+00 0. -1.
         11    1    3    3    0    0 -0.71753252539E+01 -0.14019692457E+02  0.77350859762E+01  0.17546185466E+02  0.51100000000E-03 0. -1.
        -11    1    3    3    0    0  0.36570949026E+01 -0.12079937826E+02  0.77269054861E+01  0.14798794196E+02  0.51100000000E-03 0.  1.
         12    1    3    3    0    0  0.82897787961E+01 -0.12401286860E+02  0.39939888401E+01  0.15442289181E+02  0.00000000000E+00 0. -1.
</event>
<event>
 7    1  0.2769403E-010  0.4778727E+02  0.7816164E-02  0.1312668E+00
        -11   -1    0    0    0    0  0.00000000000E+00  0.00000000000E+00  0.45593999997E+02  0.45594000000E+02  0.51100000000E-03 0. -1.
         11   -1    0    0    0    0 -0.00000000000E+00 -0.00000000000E+00 -0.45593999997E+02  0.45594000000E+02  0.51100000000E-03 0.  1.
    9900012    2    1    2    0    0  0.79559462168E+01  0.17081480622E+02 -0.39096666124E+02  0.47787270024E+02  0.19999995347E+02 0.  0.
         12    1    1    2    0    0 -0.79559462168E+01 -0.17081480622E+02  0.39096666124E+02  0.43400729976E+02  0.00000000000E+00 0. -1.
         11    1    3    3    0    0  0.66309539096E+01  0.20704441192E+01 -0.82627938679E+01  0.10794908585E+02  0.51100000000E-03 0. -1.
        -11    1    3    3    0    0  0.62313627830E+01  0.13354549141E+02 -0.18769283344E+02  0.23863358154E+02  0.51100000000E-03 0.  1.
         12    1    3    3    0    0 -0.49063704757E+01  0.16564873625E+01 -0.12064588912E+02  0.13129003284E+02  0.00000000000E+00 0. -1.
</event>
<event>
 7    1  0.2769403E-010  0.4778725E+02  0.7816164E-02  0.1312668E+00
        -11   -1    0    0    0    0  0.00000000000E+00  0.00000000000E+00  0.45593999997E+02  0.45594000000E+02  0.51100000000E-03 0. -1.
         11   -1    0    0    0    0 -0.00000000000E+00 -0.00000000000E+00 -0.45593999997E+02  0.45594000000E+02  0.51100000000E-03 0.  1.
    9900012    2    1    2    0    0 -0.32644155516E+02 -0.84961212033E+01 -0.27309343036E+02  0.47787249062E+02  0.19999899775E+02 0.  0.
         12    1    1    2    0    0  0.32644155516E+02  0.84961212033E+01  0.27309343036E+02  0.43400750938E+02  0.00000000000E+00 0. -1.
         11    1    3    3    0    0 -0.13255235954E+01 -0.75408737397E+00  0.50224230487E-01  0.15258385576E+01  0.51100000000E-03 0. -1.
        -11    1    3    3    0    0 -0.32193429928E+02 -0.66380416311E+01 -0.19379882251E+02  0.38158359026E+02  0.51100000000E-03 0.  1.
         12    1    3    3    0    0  0.87479800651E+00 -0.11039921982E+01 -0.79796850155E+01  0.81030514791E+01  0.00000000000E+00 0. -1.
</event>
<event>
 7    1  0.2769403E-010  0.4778727E+02  0.7816164E-02  0.1312668E+00
        -11   -1    0    0    0    0  0.00000000000E+00  0.00000000000E+00  0.45593999997E+02  0.45594000000E+02  0.51100000000E-03 0.  1.
         11   -1    0    0    0    0 -0.00000000000E+00 -0.00000000000E+00 -0.45593999997E+02  0.45594000000E+02  0.51100000000E-03 0. -1.
    9900012    2    1    2    0    0  0.42612952190E+02 -0.78387985731E+01  0.25125021895E+01  0.47787272764E+02  0.20000007838E+02 0.  0.
         12    1    1    2    0    0 -0.42612952190E+02  0.78387985731E+01 -0.25125021895E+01  0.43400727236E+02  0.00000000000E+00 0. -1.
         11    1    3    3    0    0  0.93107314791E+01  0.29772751643E+01 -0.79905683512E+00  0.98077714169E+01  0.51100000000E-03 0. -1.
        -11    1    3    3    0    0  0.31529208953E+02 -0.54065886692E+01  0.15761216487E+01  0.32028212219E+02  0.51100000000E-03 0.  1.
        -12    1    3    3    0    0  0.17730117580E+01 -0.54094850682E+01  0.17354373760E+01  0.59512891278E+01  0.00000000000E+00 0.  1.
</event>
<event>
 7    1  0.2769403E-010  0.4778727E+02  0.7816164E-02  0.1312668E+00
        -11   -1    0    0    0    0  0.00000000000E+00  0.00000000000E+00  0.45593999997E+02  0.45594000000E+02  0.51100000000E-03 0.  1.
         11   -1    0    0    0    0 -0.00000000000E+00 -0.00000000000E+00 -0.45593999997E+02  0.45594000000E+02  0.51100000000E-03 0. -1.
    9900012    2    1    2    0    0  0.16925036084E+02 -0.32432445721E+02  0.23351716472E+02  0.47787273692E+02  0.20000012071E+02 0.  0.
         12    1    1    2    0    0 -0.16925036084E+02  0.32432445721E+02 -0.23351716472E+02  0.43400726308E+02  0.00000000000E+00 0. -1.
         11    1    3    3    0    0  0.83590185068E+01 -0.70864558437E+01  0.23127166885E+01  0.11199986856E+02  0.51100000000E-03 0. -1.
        -11    1    3    3    0    0  0.59163777310E+01 -0.20811485726E+02  0.89638812652E+01  0.23419492547E+02  0.51100000000E-03 0.  1.
         12    1    3    3    0    0  0.26496398459E+01 -0.45345041514E+01  0.12075118519E+02  0.13167794290E+02  0.00000000000E+00 0. -1.
</event>
<event>
 7    1  0.2769403E-010  0.4778727E+02  0.7816164E-02  0.1312668E+00
        -11   -1    0    0    0    0  0.00000000000E+00  0.00000000000E+00  0.45593999997E+02  0.45594000000E+02  0.51100000000E-03 0.  1.
         11   -1    0    0    0    0 -0.00000000000E+00 -0.00000000000E+00 -0.45593999997E+02  0.45594000000E+02  0.51100000000E-03 0. -1.
    9900012    2    1    2    0    0 -0.14985377061E+02  0.40598652244E+02  0.32879944426E+01  0.47787274232E+02  0.20000014534E+02 0.  0.
         12    1    1    2    0    0  0.14985377061E+02 -0.40598652244E+02 -0.32879944426E+01  0.43400725768E+02  0.00000000000E+00 0. -1.
         11    1    3    3    0    0 -0.43921241122E+00  0.28613074098E+01 -0.41586207165E+01  0.50669630116E+01  0.51100000000E-03 0. -1.
        -11    1    3    3    0    0 -0.66231177013E+01  0.47772063835E+01  0.15628314796E+01  0.83144351227E+01  0.51100000000E-03 0.  1.
        -12    1    3    3    0    0 -0.79230469485E+01  0.32960138451E+02  0.58837836795E+01  0.34405876098E+02  0.00000000000E+00 0.  1.
</event>
<event>
 7    1  0.2769403E-010  0.4778727E+02  0.7816164E-02  0.1312668E+00
        -11   -1    0    0    0    0  0.00000000000E+00  0.00000000000E+00  0.45593999997E+02  0.45594000000E+02  0.51100000000E-03 0.  1.
         11   -1    0    0    0    0 -0.00000000000E+00 -0.00000000000E+00 -0.45593999997E+02  0.45594000000E+02  0.51100000000E-03 0. -1.
    9900012    2    1    2    0    0 -0.75114369711E+01 -0.41632266974E+02  0.96930962017E+01  0.47787268984E+02  0.19999990604E+02 0.  0.
         12    1    1    2    0    0  0.75114369711E+01  0.41632266974E+02 -0.96930962017E+01  0.43400731016E+02  0.00000000000E+00 0. -1.
         11    1    3    3    0    0 -0.48655330040E+01 -0.87376046450E+01  0.29581460482E+01  0.10429274886E+02  0.51100000000E-03 0. -1.
        -11    1    3    3    0    0 -0.52858670512E+01 -0.28505030240E+02  0.10676806266E+02  0.30894519446E+02  0.51100000000E-03 0.  1.
         12    1    3    3    0    0  0.26399630840E+01 -0.43896320889E+01 -0.39418561126E+01  0.64634746517E+01  0.00000000000E+00 0. -1.
</event>
<event>
 7    1  0.2769403E-010  0.4778727E+02  0.7816164E-02  0.1312668E+00
        -11   -1    0    0    0    0  0.00000000000E+00  0.00000000000E+00  0.45593999997E+02  0.45594000000E+02  0.51100000000E-03 0.  1.
         11   -1    0    0    0    0 -0.00000000000E+00 -0.00000000000E+00 -0.45593999997E+02  0.45594000000E+02  0.51100000000E-03 0. -1.
    9900012    2    1    2    0    0  0.28627805050E+02  0.12715952662E+01  0.32595322424E+02  0.47787271660E+02  0.20000002808E+02 0.  0.
         12    1    1    2    0    0 -0.28627805050E+02 -0.12715952662E+01 -0.32595322424E+02  0.43400728340E+02  0.00000000000E+00 0. -1.
         11    1    3    3    0    0  0.13216038437E+02  0.49544329089E+01  0.13665613575E+02  0.19645841088E+02  0.51100000000E-03 0. -1.
        -11    1    3    3    0    0  0.14303611740E+02 -0.29870621277E+01  0.21065137094E+02  0.25637001580E+02  0.51100000000E-03 0.  1.
         12    1    3    3    0    0  0.11081548728E+01 -0.69577551506E+00 -0.21354282446E+01  0.25044289923E+01  0.00000000000E+00 0. -1.
</event>
<event>
 7    1  0.2769403E-010  0.4778727E+02  0.7816164E-02  0.1312668E+00
        -11   -1    0    0    0    0  0.00000000000E+00  0.00000000000E+00  0.45593999997E+02  0.45594000000E+02  0.51100000000E-03 0. -1.
         11   -1    0    0    0    0 -0.00000000000E+00 -0.00000000000E+00 -0.45593999997E+02  0.45594000000E+02  0.51100000000E-03 0.  1.
    9900012    2    1    2    0    0 -0.13719321233E+02  0.37802171267E+02 -0.16321750903E+02  0.47787268668E+02  0.19999989165E+02 0.  0.
         12    1    1    2    0    0  0.13719321233E+02 -0.37802171267E+02  0.16321750903E+02  0.43400731332E+02  0.00000000000E+00 0. -1.
         11    1    3    3    0    0 -0.80525968699E+01  0.48969290257E+01 -0.40034722682E+01  0.10239727569E+02  0.51100000000E-03 0. -1.
        -11    1    3    3    0    0 -0.26784821095E+01  0.79410150399E+01 -0.88136732007E+01  0.12162023755E+02  0.51100000000E-03 0.  1.
        -12    1    3    3    0    0 -0.29882422538E+01  0.24964227202E+02 -0.35046054343E+01  0.25385517343E+02  0.00000000000E+00 0.  1.
</event>
<event>
 7    1  0.2769403E-010  0.4778727E+02  0.7816164E-02  0.1312668E+00
        -11   -1    0    0    0    0  0.00000000000E+00  0.00000000000E+00  0.45593999997E+02  0.45594000000E+02  0.51100000000E-03 0. -1.
         11   -1    0    0    0    0 -0.00000000000E+00 -0.00000000000E+00 -0.45593999997E+02  0.45594000000E+02  0.51100000000E-03 0.  1.
    9900012    2    1    2    0    0 -0.50156705280E+00 -0.30924177433E+02 -0.30447777008E+02  0.47787269083E+02  0.19999991055E+02 0.  0.
         12    1    1    2    0    0  0.50156705280E+00  0.30924177433E+02  0.30447777008E+02  0.43400730917E+02  0.00000000000E+00 0. -1.
         11    1    3    3    0    0  0.32632650654E+01 -0.49955305466E+01 -0.81321062339E+01  0.10086395609E+02  0.51100000000E-03 0. -1.
        -11    1    3    3    0    0 -0.67130336839E+01 -0.96199596010E+01 -0.16273475015E+02  0.20060768512E+02  0.51100000000E-03 0.  1.
        -12    1    3    3    0    0  0.29482015657E+01 -0.16308687286E+02 -0.60421957592E+01  0.17640104961E+02  0.00000000000E+00 0.  1.
</event>
<event>
 7    1  0.2769403E-010  0.4778728E+02  0.7816164E-02  0.1312668E+00
        -11   -1    0    0    0    0  0.00000000000E+00  0.00000000000E+00  0.45593999997E+02  0.45594000000E+02  0.51100000000E-03 0.  1.
         11   -1    0    0    0    0 -0.00000000000E+00 -0.00000000000E+00 -0.45593999997E+02  0.45594000000E+02  0.51100000000E-03 0. -1.
    9900012    2    1    2    0    0 -0.17304455697E+02 -0.25397108091E+02  0.30645798327E+02  0.47787282939E+02  0.20000054230E+02 0.  0.
         12    1    1    2    0    0  0.17304455697E+02  0.25397108091E+02 -0.30645798327E+02  0.43400717061E+02  0.00000000000E+00 0. -1.
         11    1    3    3    0    0  0.75721795804E+00 -0.62366419728E+01  0.60012767823E+01  0.86881761844E+01  0.51100000000E-03 0. -1.
        -11    1    3    3    0    0 -0.84231081476E+00 -0.47215691551E+01  0.12858740466E+02  0.13724063153E+02  0.51100000000E-03 0.  1.
         12    1    3    3    0    0 -0.17219362841E+02 -0.14438896963E+02  0.11785781079E+02  0.25375043601E+02  0.00000000000E+00 0. -1.
</event>
<event>
 7    1  0.2769403E-010  0.4778727E+02  0.7816164E-02  0.1312668E+00
        -11   -1    0    0    0    0  0.00000000000E+00  0.00000000000E+00  0.45593999997E+02  0.45594000000E+02  0.51100000000E-03 0.  1.
         11   -1    0    0    0    0 -0.00000000000E+00 -0.00000000000E+00 -0.45593999997E+02  0.45594000000E+02  0.51100000000E-03 0. -1.
    9900012    2    1    2    0    0  0.12502170292E+02 -0.28251520391E+02  0.30482298887E+02  0.47787271759E+02  0.20000003256E+02 0.  0.
         12    1    1    2    0    0 -0.12502170292E+02  0.28251520391E+02 -0.30482298887E+02  0.43400728241E+02  0.00000000000E+00 0. -1.
         11    1    3    3    0    0  0.50312017839E+01 -0.82374755059E+00  0.53504311413E+01  0.73904441731E+01  0.51100000000E-03 0. -1.
        -11    1    3    3    0    0  0.95623412940E+01 -0.93465675477E+01  0.94823430705E+01  0.16392422832E+02  0.51100000000E-03 0.  1.
         12    1    3    3    0    0 -0.20913727863E+01 -0.18081205293E+02  0.15649524676E+02  0.24004404753E+02  0.00000000000E+00 0. -1.
</event>
<event>
 7    1  0.2769403E-010  0.4778725E+02  0.7816164E-02  0.1312668E+00
        -11   -1    0    0    0    0  0.00000000000E+00  0.00000000000E+00  0.45593999997E+02  0.45594000000E+02  0.51100000000E-03 0.  1.
         11   -1    0    0    0    0 -0.00000000000E+00 -0.00000000000E+00 -0.45593999997E+02  0.45594000000E+02  0.51100000000E-03 0. -1.
    9900012    2    1    2    0    0 -0.54032875522E+01 -0.82928471090E+01  0.42257046477E+02  0.47787253388E+02  0.19999919498E+02 0.  0.
         12    1    1    2    0    0  0.54032875522E+01  0.82928471090E+01 -0.42257046477E+02  0.43400746612E+02  0.00000000000E+00 0. -1.
         11    1    3    3    0    0  0.67951663579E+01 -0.18387662532E+01  0.12417480853E+02  0.14274073636E+02  0.51100000000E-03 0.  1.
        -11    1    3    3    0    0  0.44355315987E+00  0.15297606009E+00  0.34391922256E-01  0.47045100279E+00  0.51100000000E-03 0. -1.
        -12    1    3    3    0    0 -0.12642007070E+02 -0.66070569159E+01  0.29805173701E+02  0.33042728749E+02  0.00000000000E+00 0.  1.
</event>
<event>
 7    1  0.2769403E-010  0.4778727E+02  0.7816164E-02  0.1312668E+00
        -11   -1    0    0    0    0  0.00000000000E+00  0.00000000000E+00  0.45593999997E+02  0.45594000000E+02  0.51100000000E-03 0. -1.
         11   -1    0    0    0    0 -0.00000000000E+00 -0.00000000000E+00 -0.45593999997E+02  0.45594000000E+02  0.51100000000E-03 0.  1.
    9900012    2    1    2    0    0 -0.86869505197E+01 -0.25872321124E+02 -0.33745857183E+02  0.47787274353E+02  0.20000015086E+02 0.  0.
         12    1    1    2    0    0  0.86869505197E+01  0.25872321124E+02  0.33745857183E+02  0.43400725647E+02  0.00000000000E+00 0. -1.
         11    1    3    3    0    0 -0.31903151292E+01  0.15367253329E+00  0.58832074613E+00  0.32477449765E+01  0.51100000000E-03 0.  1.
        -11    1    3    3    0    0  0.13017269933E+00 -0.32403485140E+00 -0.54781921611E+01  0.54893108067E+01  0.51100000000E-03 0. -1.
        -12    1    3    3    0    0 -0.56268080898E+01 -0.25701958806E+02 -0.28855985768E+02  0.39050218570E+02  0.00000000000E+00 0.  1.
</event>
<event>
 7    1  0.2769403E-010  0.4778727E+02  0.7816164E-02  0.1312668E+00
        -11   -1    0    0    0    0  0.00000000000E+00  0.00000000000E+00  0.45593999997E+02  0.45594000000E+02  0.51100000000E-03 0.  1.
         11   -1    0    0    0    0 -0.00000000000E+00 -0.00000000000E+00 -0.45593999997E+02  0.45594000000E+02  0.51100000000E-03 0. -1.
    9900012    2    1    2    0    0  0.22531352446E+02 -0.16064742940E+02  0.33434794150E+02  0.47787271105E+02  0.20000000277E+02 0.  0.
         12    1    1    2    0    0 -0.22531352446E+02  0.16064742940E+02 -0.33434794150E+02  0.43400728895E+02  0.00000000000E+00 0. -1.
         11    1    3    3    0    0  0.23284213094E+01  0.37595438559E+00 -0.69979176333E+00  0.24602024850E+01  0.51100000000E-03 0. -1.
        -11    1    3    3    0    0  0.15609608110E+01 -0.23642314820E+01 -0.11111183212E+01  0.30431518758E+01  0.51100000000E-03 0.  1.
        -12    1    3    3    0    0  0.18641970325E+02 -0.14076465844E+02  0.35245704235E+02  0.42283916744E+02  0.00000000000E+00 0.  1.
</event>
<event>
 7    1  0.2769403E-010  0.4778727E+02  0.7816164E-02  0.1312668E+00
        -11   -1    0    0    0    0  0.00000000000E+00  0.00000000000E+00  0.45593999997E+02  0.45594000000E+02  0.51100000000E-03 0.  1.
         11   -1    0    0    0    0 -0.00000000000E+00 -0.00000000000E+00 -0.45593999997E+02  0.45594000000E+02  0.51100000000E-03 0. -1.
    9900012    2    1    2    0    0  0.96317773047E+01  0.22642246155E+02  0.35751650438E+02  0.47787274729E+02  0.20000016801E+02 0.  0.
         12    1    1    2    0    0 -0.96317773047E+01 -0.22642246155E+02 -0.35751650438E+02  0.43400725271E+02  0.00000000000E+00 0. -1.
         11    1    3    3    0    0  0.48141018727E+01  0.11641252577E+02  0.14502010075E+02  0.19209441295E+02  0.51100000000E-03 0.  1.
        -11    1    3    3    0    0 -0.25720300542E+01  0.89680314101E+01  0.49390380769E+01  0.10556278859E+02  0.51100000000E-03 0. -1.
        -12    1    3    3    0    0  0.73897054862E+01  0.20329621678E+01  0.16310602287E+02  0.18021554575E+02  0.00000000000E+00 0.  1.
</event>
<event>
 7    1  0.2769403E-010  0.4778727E+02  0.7816164E-02  0.1312668E+00
        -11   -1    0    0    0    0  0.00000000000E+00  0.00000000000E+00  0.45593999997E+02  0.45594000000E+02  0.51100000000E-03 0.  1.
         11   -1    0    0    0    0 -0.00000000000E+00 -0.00000000000E+00 -0.45593999997E+02  0.45594000000E+02  0.51100000000E-03 0. -1.
    9900012    2    1    2    0    0 -0.20302503452E+02  0.87430294369E+01  0.37349580534E+02  0.47787269865E+02  0.19999994623E+02 0.  0.
         12    1    1    2    0    0  0.20302503452E+02 -0.87430294369E+01 -0.37349580534E+02  0.43400730135E+02  0.00000000000E+00 0. -1.
         11    1    3    3    0    0 -0.16055740388E+02  0.57658681350E+01  0.12855153718E+02  0.21360875734E+02  0.51100000000E-03 0. -1.
        -11    1    3    3    0    0 -0.65844874724E+01  0.26139482002E+01  0.21327867550E+02  0.22473676489E+02  0.51100000000E-03 0.  1.
        -12    1    3    3    0    0  0.23377244083E+01  0.36321310172E+00  0.31665592670E+01  0.39527176421E+01  0.00000000000E+00 0.  1.
</event>
<event>
 7    1  0.2769403E-010  0.4778726E+02  0.7816164E-02  0.1312668E+00
        -11   -1    0    0    0    0  0.00000000000E+00  0.00000000000E+00  0.45593999997E+02  0.45594000000E+02  0.51100000000E-03 0.  1.
         11   -1    0    0    0    0 -0.00000000000E+00 -0.00000000000E+00 -0.45593999997E+02  0.45594000000E+02  0.51100000000E-03 0. -1.
    9900012    2    1    2    0    0  0.30748541635E+02  0.10298742194E+02  0.28845926981E+02  0.47787257992E+02  0.19999940489E+02 0.  0.
         12    1    1    2    0    0 -0.30748541635E+02 -0.10298742194E+02 -0.28845926981E+02  0.43400742008E+02  0.00000000000E+00 0. -1.
         11    1    3    3    0    0  0.11121605876E+01 -0.98897957582E+00  0.54061674081E+01  0.56072834849E+01  0.51100000000E-03 0. -1.
        -11    1    3    3    0    0  0.32172648551E+01  0.13382772610E-01  0.99284020202E+01  0.10436672802E+02  0.51100000000E-03 0.  1.
        -12    1    3    3    0    0  0.26419116192E+02  0.11274338997E+02  0.13511357553E+02  0.31743301705E+02  0.00000000000E+00 0.  1.
</event>
<event>
 7    1  0.2769403E-010  0.4778727E+02  0.7816164E-02  0.1312668E+00
        -11   -1    0    0    0    0  0.00000000000E+00  0.00000000000E+00  0.45593999997E+02  0.45594000000E+02  0.51100000000E-03 0.  1.
         11   -1    0    0    0    0 -0.00000000000E+00 -0.00000000000E+00 -0.45593999997E+02  0.45594000000E+02  0.51100000000E-03 0. -1.
    9900012    2    1    2    0    0 -0.38073227086E+02  0.96250120419E+01  0.18477336167E+02  0.47787269253E+02  0.19999991832E+02 0.  0.
         12    1    1    2    0    0  0.38073227086E+02 -0.96250120419E+01 -0.18477336167E+02  0.43400730747E+02  0.00000000000E+00 0. -1.
         11    1    3    3    0    0 -0.49946400602E+01 -0.16440362092E+01  0.52313606682E+01  0.74173053793E+01  0.51100000000E-03 0. -1.
        -11    1    3    3    0    0 -0.50393953039E+01  0.94371387739E+00 -0.34137308893E+01  0.61595178185E+01  0.51100000000E-03 0.  1.
        -12    1    3    3    0    0 -0.28039191722E+02  0.10325334374E+02  0.16659706388E+02  0.34210446055E+02  0.00000000000E+00 0.  1.
</event>
<event>
 7    1  0.3514549E-010  0.4778727E+02  0.7816164E-02  0.1312668E+00
        -11   -1    0    0    0    0  0.00000000000E+00  0.00000000000E+00  0.45593999997E+02  0.45594000000E+02  0.51100000000E-03 0. -1.
         11   -1    0    0    0    0 -0.00000000000E+00 -0.00000000000E+00 -0.45593999997E+02  0.45594000000E+02  0.51100000000E-03 0.  1.
    9900012    2    1    2    0    0  0.71855569259E+01  0.12786238390E+02 -0.40847315062E+02  0.47787271110E+02  0.20000000297E+02 0.  0.
         12    1    1    2    0    0 -0.71855569259E+01 -0.12786238390E+02  0.40847315062E+02  0.43400728890E+02  0.00000000000E+00 0. -1.
         11    1    3    3    0    0  0.46926595331E+01  0.64647664582E+01 -0.97715322094E+01  0.12621295529E+02  0.51100000000E-03 0. -1.
        -11    1    3    3    0    0  0.33277292364E+01  0.10799421179E+02 -0.25978730738E+02  0.28330120555E+02  0.51100000000E-03 0.  1.
         12    1    3    3    0    0 -0.83483184357E+00 -0.44779492474E+01 -0.50970521145E+01  0.68358550253E+01  0.00000000000E+00 0. -1.
</event>
<event>
 7    1  0.2769403E-010  0.4778731E+02  0.7816164E-02  0.1312668E+00
        -11   -1    0    0    0    0  0.00000000000E+00  0.00000000000E+00  0.45593999997E+02  0.45594000000E+02  0.51100000000E-03 0.  1.
         11   -1    0    0    0    0 -0.00000000000E+00 -0.00000000000E+00 -0.45593999997E+02  0.45594000000E+02  0.51100000000E-03 0. -1.
    9900012    2    1    2    0    0  0.92846341423E+01  0.29111085202E+02  0.30821421517E+02  0.47787311790E+02  0.20000185774E+02 0.  0.
         12    1    1    2    0    0 -0.92846341423E+01 -0.29111085202E+02 -0.30821421517E+02  0.43400688210E+02  0.00000000000E+00 0. -1.
         11    1    3    3    0    0 -0.32411550885E+01  0.15969681904E+02  0.19013014074E+02  0.25040577686E+02  0.51100000000E-03 0. -1.
        -11    1    3    3    0    0  0.13416478866E+01  0.53516376748E+01  0.16849259932E+01  0.57687971638E+01  0.51100000000E-03 0.  1.
        -12    1    3    3    0    0  0.11184141344E+02  0.77897656228E+01  0.10123481450E+02  0.16977936940E+02  0.00000000000E+00 0.  1.
</event>
<event>
 7    1  0.2769403E-010  0.4778727E+02  0.7816164E-02  0.1312668E+00
        -11   -1    0    0    0    0  0.00000000000E+00  0.00000000000E+00  0.45593999997E+02  0.45594000000E+02  0.51100000000E-03 0. -1.
         11   -1    0    0    0    0 -0.00000000000E+00 -0.00000000000E+00 -0.45593999997E+02  0.45594000000E+02  0.51100000000E-03 0.  1.
    9900012    2    1    2    0    0 -0.31173737009E+02 -0.24033469020E+02 -0.18281513754E+02  0.47787271235E+02  0.20000000867E+02 0.  0.
         12    1    1    2    0    0  0.31173737009E+02  0.24033469020E+02  0.18281513754E+02  0.43400728765E+02  0.00000000000E+00 0. -1.
         11    1    3    3    0    0 -0.22460915434E+01 -0.66185161633E+00  0.10447749463E+01  0.25640845799E+01  0.51100000000E-03 0. -1.
        -11    1    3    3    0    0 -0.17228574220E+02 -0.96810047449E+01 -0.18694887662E+02  0.27203757966E+02  0.51100000000E-03 0.  1.
        -12    1    3    3    0    0 -0.11699071245E+02 -0.13690612659E+02 -0.63140103771E+00  0.18019428688E+02  0.00000000000E+00 0.  1.
</event>
<event>
 7    1  0.2769403E-010  0.4778727E+02  0.7816164E-02  0.1312668E+00
        -11   -1    0    0    0    0  0.00000000000E+00  0.00000000000E+00  0.45593999997E+02  0.45594000000E+02  0.51100000000E-03 0. -1.
         11   -1    0    0    0    0 -0.00000000000E+00 -0.00000000000E+00 -0.45593999997E+02  0.45594000000E+02  0.51100000000E-03 0.  1.
    9900012    2    1    2    0    0 -0.42183123925E+02 -0.82665055039E+01 -0.59893662261E+01  0.47787267690E+02  0.19999984704E+02 0.  0.
         12    1    1    2    0    0  0.42183123925E+02  0.82665055039E+01  0.59893662261E+01  0.43400732310E+02  0.00000000000E+00 0. -1.
         11    1    3    3    0    0 -0.18487814916E+02 -0.94040372680E+01  0.24796870189E+01  0.20889807689E+02  0.51100000000E-03 0. -1.
        -11    1    3    3    0    0 -0.12599174797E+02  0.97319346810E-01  0.47352436084E+00  0.12608445670E+02  0.51100000000E-03 0.  1.
        -12    1    3    3    0    0 -0.11096134211E+02  0.10402124173E+01 -0.89425776058E+01  0.14289014331E+02  0.00000000000E+00 0.  1.
</event>
<event>
 7    1  0.2769403E-010  0.4778727E+02  0.7816164E-02  0.1312668E+00
        -11   -1    0    0    0    0  0.00000000000E+00  0.00000000000E+00  0.45593999997E+02  0.45594000000E+02  0.51100000000E-03 0.  1.
         11   -1    0    0    0    0 -0.00000000000E+00 -0.00000000000E+00 -0.45593999997E+02  0.45594000000E+02  0.51100000000E-03 0. -1.
    9900012    2    1    2    0    0  0.26016424655E+02 -0.16383152774E+02  0.30632677063E+02  0.47787274768E+02  0.20000016976E+02 0.  0.
         12    1    1    2    0    0 -0.26016424655E+02  0.16383152774E+02 -0.30632677063E+02  0.43400725232E+02  0.00000000000E+00 0. -1.
         11    1    3    3    0    0  0.14941726340E+01 -0.14390813598E+01  0.64224473998E+01  0.67491731260E+01  0.51100000000E-03 0. -1.
        -11    1    3    3    0    0  0.55374826600E+01 -0.31529084417E+01  0.16012063668E+02  0.17233418959E+02  0.51100000000E-03 0.  1.
         12    1    3    3    0    0  0.18984769361E+02 -0.11791162972E+02  0.81981659951E+01  0.23804682682E+02  0.00000000000E+00 0. -1.
</event>
<event>
 7    1  0.2769403E-010  0.4778734E+02  0.7816164E-02  0.1312667E+00
        -11   -1    0    0    0    0  0.00000000000E+00  0.00000000000E+00  0.45593999997E+02  0.45594000000E+02  0.51100000000E-03 0.  1.
         11   -1    0    0    0    0 -0.00000000000E+00 -0.00000000000E+00 -0.45593999997E+02  0.45594000000E+02  0.51100000000E-03 0. -1.
    9900012    2    1    2    0    0 -0.36285106262E+01  0.19049475913E+02  0.38827425209E+02  0.47787336753E+02  0.20000299589E+02 0.  0.
         12    1    1    2    0    0  0.36285106262E+01 -0.19049475913E+02 -0.38827425209E+02  0.43400663247E+02  0.00000000000E+00 0. -1.
         11    1    3    3    0    0 -0.47800316996E+01  0.30247152568E+01  0.11402710929E+02  0.12728685016E+02  0.51100000000E-03 0. -1.
        -11    1    3    3    0    0 -0.50910013430E+00  0.11520182816E+02  0.27943924487E+02  0.30229732236E+02  0.51100000000E-03 0.  1.
         12    1    3    3    0    0  0.16606212077E+01  0.45045778398E+01 -0.51921020719E+00  0.48289195013E+01  0.00000000000E+00 0. -1.
</event>
<event>
 7    1  0.2769403E-010  0.4778728E+02  0.7816164E-02  0.1312668E+00
        -11   -1    0    0    0    0  0.00000000000E+00  0.00000000000E+00  0.45593999997E+02  0.45594000000E+02  0.51100000000E-03 0.  1.
         11   -1    0    0    0    0 -0.00000000000E+00 -0.00000000000E+00 -0.45593999997E+02  0.45594000000E+02  0.51100000000E-03 0. -1.
    9900012    2    1    2    0    0 -0.14644891362E+02  0.39404513975E+02  0.10790465169E+02  0.47787277619E+02  0.20000029977E+02 0.  0.
         12    1    1    2    0    0  0.14644891362E+02 -0.39404513975E+02 -0.10790465169E+02  0.43400722381E+02  0.00000000000E+00 0. -1.
         11    1    3    3    0    0 -0.65029444295E+01  0.11075615586E+02 -0.51171055782E+01  0.13825422837E+02  0.51100000000E-03 0. -1.
        -11    1    3    3    0    0 -0.47632461359E+01  0.74519379705E+01  0.51520937072E+01  0.10235426864E+02  0.51100000000E-03 0.  1.
         12    1    3    3    0    0 -0.33787007963E+01  0.20876960418E+02  0.10755477040E+02  0.23726427918E+02  0.00000000000E+00 0. -1.
</event>
<event>
 7    1  0.2769403E-010  0.4778727E+02  0.7816164E-02  0.1312668E+00
        -11   -1    0    0    0    0  0.00000000000E+00  0.00000000000E+00  0.45593999997E+02  0.45594000000E+02  0.51100000000E-03 0.  1.
         11   -1    0    0    0    0 -0.00000000000E+00 -0.00000000000E+00 -0.45593999997E+02  0.45594000000E+02  0.51100000000E-03 0. -1.
    9900012    2    1    2    0    0  0.36247435440E+02 -0.21287790828E+02  0.10797081622E+02  0.47787267451E+02  0.19999983614E+02 0.  0.
         12    1    1    2    0    0 -0.36247435440E+02  0.21287790828E+02 -0.10797081622E+02  0.43400732549E+02  0.00000000000E+00 0. -1.
         11    1    3    3    0    0  0.14853641755E+02 -0.15099703815E+02  0.47074810268E+01  0.21697744274E+02  0.51100000000E-03 0. -1.
        -11    1    3    3    0    0  0.15790338750E+02 -0.83452947350E+01  0.82958898629E+01  0.19692651699E+02  0.51100000000E-03 0.  1.
         12    1    3    3    0    0  0.56034549350E+01  0.21572077229E+01 -0.22062892681E+01  0.63968714778E+01  0.00000000000E+00 0. -1.
</event>
<event>
 7    1  0.2769403E-010  0.4778723E+02  0.7816164E-02  0.1312668E+00
        -11   -1    0    0    0    0  0.00000000000E+00  0.00000000000E+00  0.45593999997E+02  0.45594000000E+02  0.51100000000E-03 0. -1.
         11   -1    0    0    0    0 -0.00000000000E+00 -0.00000000000E+00 -0.45593999997E+02  0.45594000000E+02  0.51100000000E-03 0.  1.
    9900012    2    1    2    0    0 -0.14891227793E+02  0.36311370595E+02 -0.18530054347E+02  0.47787225655E+02  0.19999793048E+02 0.  0.
         12    1    1    2    0    0  0.14891227793E+02 -0.36311370595E+02  0.18530054347E+02  0.43400774345E+02  0.00000000000E+00 0. -1.
         11    1    3    3    0    0 -0.11361468537E+02  0.91037132356E+01 -0.51825005207E+01  0.15453765686E+02  0.51100000000E-03 0. -1.
        -11    1    3    3    0    0 -0.49024012869E+01  0.99943246600E+01 -0.95172985778E+01  0.14645785615E+02  0.51100000000E-03 0.  1.
        -12    1    3    3    0    0  0.13726420304E+01  0.17213332699E+02 -0.38302552485E+01  0.17687674354E+02  0.00000000000E+00 0.  1.
</event>
<event>
 7    1  0.2769403E-010  0.4778727E+02  0.7816164E-02  0.1312668E+00
        -11   -1    0    0    0    0  0.00000000000E+00  0.00000000000E+00  0.45593999997E+02  0.45594000000E+02  0.51100000000E-03 0.  1.
         11   -1    0    0    0    0 -0.00000000000E+00 -0.00000000000E+00 -0.45593999997E+02  0.45594000000E+02  0.51100000000E-03 0. -1.
    9900012    2    1    2    0    0  0.13554851119E+02 -0.70094676656E+01  0.40629507506E+02  0.47787268370E+02  0.19999987808E+02 0.  0.
         12    1    1    2    0    0 -0.13554851119E+02  0.70094676656E+01 -0.40629507506E+02  0.43400731630E+02  0.00000000000E+00 0. -1.
         11    1    3    3    0    0  0.15538244944E+02 -0.43771175827E+01  0.24783184842E+02  0.29577059784E+02  0.51100000000E-03 0. -1.
        -11    1    3    3    0    0  0.18835047855E+01 -0.38253438000E+00  0.12439112928E+02  0.12586717346E+02  0.51100000000E-03 0.  1.
        -12    1    3    3    0    0 -0.38668986103E+01 -0.22498157029E+01  0.34072097355E+01  0.56234912413E+01  0.00000000000E+00 0.  1.
</event>
<event>
 7    1  0.2769403E-010  0.4778727E+02  0.7816164E-02  0.1312668E+00
        -11   -1    0    0    0    0  0.00000000000E+00  0.00000000000E+00  0.45593999997E+02  0.45594000000E+02  0.51100000000E-03 0.  1.
         11   -1    0    0    0    0 -0.00000000000E+00 -0.00000000000E+00 -0.45593999997E+02  0.45594000000E+02  0.51100000000E-03 0. -1.
    9900012    2    1    2    0    0  0.21049751169E+02  0.50898264078E+01  0.37611502023E+02  0.47787269112E+02  0.19999991190E+02 0.  0.
         12    1    1    2    0    0 -0.21049751169E+02 -0.50898264078E+01 -0.37611502023E+02  0.43400730888E+02  0.00000000000E+00 0. -1.
         11    1    3    3    0    0  0.38215833767E+01 -0.86263088766E+00  0.48420377341E+00  0.39475416538E+01  0.51100000000E-03 0. -1.
        -11    1    3    3    0    0  0.10556990479E+02  0.56774692954E+01  0.91588959554E+01  0.15085392967E+02  0.51100000000E-03 0.  1.
        -12    1    3    3    0    0  0.66711773132E+01  0.27498800000E+00  0.27968402294E+02  0.28754334491E+02  0.00000000000E+00 0.  1.
</event>
<event>
 7    1  0.3136362E-010  0.4778727E+02  0.7816164E-02  0.1312668E+00
        -11   -1    0    0    0    0  0.00000000000E+00  0.00000000000E+00  0.45593999997E+02  0.45594000000E+02  0.51100000000E-03 0. -1.
         11   -1    0    0    0    0 -0.00000000000E+00 -0.00000000000E+00 -0.45593999997E+02  0.45594000000E+02  0.51100000000E-03 0.  1.
    9900012    2    1    2    0    0  0.57160658662E+01  0.10710622680E+02 -0.41668124642E+02  0.47787268919E+02  0.19999990308E+02 0.  0.
         12    1    1    2    0    0 -0.57160658662E+01 -0.10710622680E+02  0.41668124642E+02  0.43400731081E+02  0.00000000000E+00 0. -1.
         11    1    3    3    0    0  0.28981225156E+01  0.69504679620E+01 -0.20707060910E+01  0.78099899476E+01  0.51100000000E-03 0. -1.
        -11    1    3    3    0    0  0.70145861149E+00  0.24796113365E+01 -0.12244237716E+02  0.12512468744E+02  0.51100000000E-03 0.  1.
         12    1    3    3    0    0  0.21164847391E+01  0.12805433820E+01 -0.27353180836E+02  0.27464810227E+02  0.00000000000E+00 0. -1.
</event>
<event>
 7    1  0.2769403E-010  0.4778722E+02  0.7816164E-02  0.1312668E+00
        -11   -1    0    0    0    0  0.00000000000E+00  0.00000000000E+00  0.45593999997E+02  0.45594000000E+02  0.51100000000E-03 0.  1.
         11   -1    0    0    0    0 -0.00000000000E+00 -0.00000000000E+00 -0.45593999997E+02  0.45594000000E+02  0.51100000000E-03 0. -1.
    9900012    2    1    2    0    0 -0.82178108600E+01 -0.25793171711E+02  0.33923554789E+02  0.47787220148E+02  0.19999767943E+02 0.  0.
         12    1    1    2    0    0  0.82178108600E+01  0.25793171711E+02 -0.33923554789E+02  0.43400779852E+02  0.00000000000E+00 0. -1.
         11    1    3    3    0    0 -0.67195562195E+01 -0.52316592941E+01  0.16593036802E+01  0.86761733339E+01  0.51100000000E-03 0. -1.
        -11    1    3    3    0    0  0.23833752847E+00 -0.82881495104E+01  0.65554669176E+01  0.10569975111E+02  0.51100000000E-03 0.  1.
        -12    1    3    3    0    0 -0.17365921690E+01 -0.12273362906E+02  0.25708784191E+02  0.28541071703E+02  0.00000000000E+00 0.  1.
</event>
<event>
 7    1  0.2769403E-010  0.4778727E+02  0.7816164E-02  0.1312668E+00
        -11   -1    0    0    0    0  0.00000000000E+00  0.00000000000E+00  0.45593999997E+02  0.45594000000E+02  0.51100000000E-03 0.  1.
         11   -1    0    0    0    0 -0.00000000000E+00 -0.00000000000E+00 -0.45593999997E+02  0.45594000000E+02  0.51100000000E-03 0. -1.
    9900012    2    1    2    0    0 -0.15969196585E+02 -0.35509762602E+02  0.19174581936E+02  0.47787273370E+02  0.20000010602E+02 0.  0.
         12    1    1    2    0    0  0.15969196585E+02  0.35509762602E+02 -0.19174581936E+02  0.43400726630E+02  0.00000000000E+00 0. -1.
         11    1    3    3    0    0 -0.40313137309E+01 -0.45053507412E+01  0.99773055771E+01  0.11666031996E+02  0.51100000000E-03 0. -1.
        -11    1    3    3    0    0  0.61943957738E+00 -0.79856597122E+01  0.53188151697E+01  0.96147938875E+01  0.51100000000E-03 0.  1.
         12    1    3    3    0    0 -0.12557322432E+02 -0.23018752149E+02  0.38784611893E+01  0.26506447486E+02  0.00000000000E+00 0. -1.
</event>
<event>
 7    1  0.2769403E-010  0.4778726E+02  0.7816164E-02  0.1312668E+00
        -11   -1    0    0    0    0  0.00000000000E+00  0.00000000000E+00  0.45593999997E+02  0.45594000000E+02  0.51100000000E-03 0.  1.
         11   -1    0    0    0    0 -0.00000000000E+00 -0.00000000000E+00 -0.45593999997E+02  0.45594000000E+02  0.51100000000E-03 0. -1.
    9900012    2    1    2    0    0 -0.13733236673E+01 -0.30885901619E+02  0.30459792964E+02  0.47787263553E+02  0.19999965843E+02 0.  0.
         12    1    1    2    0    0  0.13733236673E+01  0.30885901619E+02 -0.30459792964E+02  0.43400736447E+02  0.00000000000E+00 0. -1.
         11    1    3    3    0    0 -0.84417823287E-01 -0.34425194640E+01  0.87046924754E+01  0.93610756851E+01  0.51100000000E-03 0. -1.
        -11    1    3    3    0    0  0.96315325322E+00 -0.36294945919E+01 -0.23798755701E+01  0.44457511370E+01  0.51100000000E-03 0.  1.
        -12    1    3    3    0    0 -0.22520590973E+01 -0.23813887564E+02  0.24134976059E+02  0.33980436731E+02  0.00000000000E+00 0.  1.
</event>
<event>
 7    1  0.2769403E-010  0.4778727E+02  0.7816164E-02  0.1312668E+00
        -11   -1    0    0    0    0  0.00000000000E+00  0.00000000000E+00  0.45593999997E+02  0.45594000000E+02  0.51100000000E-03 0.  1.
         11   -1    0    0    0    0 -0.00000000000E+00 -0.00000000000E+00 -0.45593999997E+02  0.45594000000E+02  0.51100000000E-03 0. -1.
    9900012    2    1    2    0    0 -0.16159576029E+02 -0.21634303408E+02  0.33977173533E+02  0.47787270713E+02  0.19999998487E+02 0.  0.
         12    1    1    2    0    0  0.16159576029E+02  0.21634303408E+02 -0.33977173533E+02  0.43400729287E+02  0.00000000000E+00 0. -1.
         11    1    3    3    0    0  0.83121836610E+00  0.74993559341E+00  0.26211322302E+01  0.28502038165E+01  0.51100000000E-03 0. -1.
        -11    1    3    3    0    0 -0.63992502850E+00 -0.12784751418E+02  0.16301375987E+02  0.20726655113E+02  0.51100000000E-03 0.  1.
        -12    1    3    3    0    0 -0.16350869367E+02 -0.95994875841E+01  0.15054665316E+02  0.24210411783E+02  0.00000000000E+00 0.  1.
</event>
<event>
 7    1  0.2769403E-010  0.4778730E+02  0.7816164E-02  0.1312668E+00
        -11   -1    0    0    0    0  0.00000000000E+00  0.00000000000E+00  0.45593999997E+02  0.45594000000E+02  0.51100000000E-03 0.  1.
         11   -1    0    0    0    0 -0.00000000000E+00 -0.00000000000E+00 -0.45593999997E+02  0.45594000000E+02  0.51100000000E-03 0. -1.
    9900012    2    1    2    0    0  0.27654581773E+01 -0.42326718822E+02  0.91881440153E+01  0.47787298673E+02  0.20000125971E+02 0.  0.
         12    1    1    2    0    0 -0.27654581773E+01  0.42326718822E+02 -0.91881440153E+01  0.43400701327E+02  0.00000000000E+00 0. -1.
         11    1    3    3    0    0 -0.45229597627E+01 -0.99002184677E+01  0.43806122360E+01  0.11732913302E+02  0.51100000000E-03 0. -1.
        -11    1    3    3    0    0 -0.18243503382E+01 -0.13275964433E+02  0.62717454350E+01  0.14795751986E+02  0.51100000000E-03 0.  1.
         12    1    3    3    0    0  0.91127682783E+01 -0.19150535922E+02 -0.14642136557E+01  0.21258633386E+02  0.00000000000E+00 0. -1.
</event>
<event>
 7    1  0.2769403E-010  0.4778726E+02  0.7816164E-02  0.1312668E+00
        -11   -1    0    0    0    0  0.00000000000E+00  0.00000000000E+00  0.45593999997E+02  0.45594000000E+02  0.51100000000E-03 0. -1.
         11   -1    0    0    0    0 -0.00000000000E+00 -0.00000000000E+00 -0.45593999997E+02  0.45594000000E+02  0.51100000000E-03 0.  1.
    9900012    2    1    2    0    0 -0.35747460316E+02  0.23145476211E+02  0.83683942915E+01  0.47787262551E+02  0.19999961276E+02 0.  0.
         12    1    1    2    0    0  0.35747460316E+02 -0.23145476211E+02 -0.83683942915E+01  0.43400737449E+02  0.00000000000E+00 0. -1.
         11    1    3    3    0    0 -0.10933134677E+02  0.93052112501E+01  0.41870974654E+01  0.14955005039E+02  0.51100000000E-03 0. -1.
        -11    1    3    3    0    0 -0.25515738145E+02  0.91979950880E+01  0.60321247120E+01  0.27785653412E+02  0.51100000000E-03 0.  1.
         12    1    3    3    0    0  0.70141250658E+00  0.46422698728E+01 -0.18508278858E+01  0.50466040997E+01  0.00000000000E+00 0. -1.
</event>
<event>
 7    1  0.2769403E-010  0.4778727E+02  0.7816164E-02  0.1312668E+00
        -11   -1    0    0    0    0  0.00000000000E+00  0.00000000000E+00  0.45593999997E+02  0.45594000000E+02  0.51100000000E-03 0. -1.
         11   -1    0    0    0    0 -0.00000000000E+00 -0.00000000000E+00 -0.45593999997E+02  0.45594000000E+02  0.51100000000E-03 0.  1.
    9900012    2    1    2    0    0  0.38526502420E+02 -0.41724999814E+01 -0.19542825357E+02  0.47787272267E+02  0.20000005575E+02 0.  0.
         12    1    1    2    0    0 -0.38526502420E+02  0.41724999814E+01  0.19542825357E+02  0.43400727733E+02  0.00000000000E+00 0. -1.
         11    1    3    3    0    0  0.19098763374E+02 -0.79940689406E+01 -0.10477977573E+02  0.23204652872E+02  0.51100000000E-03 0. -1.
        -11    1    3    3    0    0  0.13702480263E+02 -0.20179931532E+01 -0.87819126573E+01  0.16399763776E+02  0.51100000000E-03 0.  1.
         12    1    3    3    0    0  0.57252587828E+01  0.58395621124E+01 -0.28293512678E+00  0.81828556189E+01  0.00000000000E+00 0. -1.
</event>
<event>
 7    1  0.2769403E-010  0.4778729E+02  0.7816164E-02  0.1312668E+00
        -11   -1    0    0    0    0  0.00000000000E+00  0.00000000000E+00  0.45593999997E+02  0.45594000000E+02  0.51100000000E-03 0.  1.
         11   -1    0    0    0    0 -0.00000000000E+00 -0.00000000000E+00 -0.45593999997E+02  0.45594000000E+02  0.51100000000E-03 0. -1.
    9900012    2    1    2    0    0 -0.35730537448E+00  0.23662958171E+02  0.36380745955E+02  0.47787286494E+02  0.20000070443E+02 0.  0.
         12    1    1    2    0    0  0.35730537448E+00 -0.23662958171E+02 -0.36380745955E+02  0.43400713506E+02  0.00000000000E+00 0. -1.
         11    1    3    3    0    0 -0.54498443034E+01  0.22288477356E+02  0.29399449727E+02  0.37293493672E+02  0.51100000000E-03 0.  1.
        -11    1    3    3    0    0 -0.87801341436E+00  0.14827725303E+00 -0.35258381729E+00  0.95771045149E+00  0.51100000000E-03 0. -1.
        -12    1    3    3    0    0  0.59705523433E+01  0.12262035620E+01  0.73338800459E+01  0.95360823710E+01  0.00000000000E+00 0.  1.
</event>
<event>
 7    1  0.2769403E-010  0.4778727E+02  0.7816164E-02  0.1312668E+00
        -11   -1    0    0    0    0  0.00000000000E+00  0.00000000000E+00  0.45593999997E+02  0.45594000000E+02  0.51100000000E-03 0.  1.
         11   -1    0    0    0    0 -0.00000000000E+00 -0.00000000000E+00 -0.45593999997E+02  0.45594000000E+02  0.51100000000E-03 0. -1.
    9900012    2    1    2    0    0  0.32620604530E+02 -0.41193440015E+01  0.28329322574E+02  0.47787270140E+02  0.19999995874E+02 0.  0.
         12    1    1    2    0    0 -0.32620604530E+02  0.41193440015E+01 -0.28329322574E+02  0.43400729860E+02  0.00000000000E+00 0. -1.
         11    1    3    3    0    0  0.12518691583E+02 -0.76398649354E+01  0.40302634876E+01  0.15209477283E+02  0.51100000000E-03 0. -1.
        -11    1    3    3    0    0  0.80225200800E+01 -0.25116296951E+00  0.48615431682E+01  0.93839497818E+01  0.51100000000E-03 0.  1.
         12    1    3    3    0    0  0.12079392867E+02  0.37716839034E+01  0.19437515918E+02  0.23193843075E+02  0.00000000000E+00 0. -1.
</event>
<event>
 7    1  0.2769403E-010  0.4778727E+02  0.7816164E-02  0.1312668E+00
        -11   -1    0    0    0    0  0.00000000000E+00  0.00000000000E+00  0.45593999997E+02  0.45594000000E+02  0.51100000000E-03 0. -1.
         11   -1    0    0    0    0 -0.00000000000E+00 -0.00000000000E+00 -0.45593999997E+02  0.45594000000E+02  0.51100000000E-03 0.  1.
    9900012    2    1    2    0    0 -0.89978034742E+01  0.34068866490E+02 -0.25337229639E+02  0.47787270317E+02  0.19999996683E+02 0.  0.
         12    1    1    2    0    0  0.89978034742E+01 -0.34068866490E+02  0.25337229639E+02  0.43400729683E+02  0.00000000000E+00 0. -1.
         11    1    3    3    0    0 -0.10966311061E+02  0.12792090912E+02 -0.64977967178E+01  0.18058763265E+02  0.51100000000E-03 0. -1.
        -11    1    3    3    0    0  0.62560544222E+00  0.18747910504E+02 -0.11881950656E+02  0.22204870685E+02  0.51100000000E-03 0.  1.
        -12    1    3    3    0    0  0.13429021450E+01  0.25288650730E+01 -0.69574822647E+01  0.75236363676E+01  0.00000000000E+00 0.  1.
</event>
<event>
 7    1  0.2769403E-010  0.4778727E+02  0.7816164E-02  0.1312668E+00
        -11   -1    0    0    0    0  0.00000000000E+00  0.00000000000E+00  0.45593999997E+02  0.45594000000E+02  0.51100000000E-03 0.  1.
         11   -1    0    0    0    0 -0.00000000000E+00 -0.00000000000E+00 -0.45593999997E+02  0.45594000000E+02  0.51100000000E-03 0. -1.
    9900012    2    1    2    0    0  0.27847184507E+02 -0.22151353761E+02  0.24849049090E+02  0.47787269602E+02  0.19999993422E+02 0.  0.
         12    1    1    2    0    0 -0.27847184507E+02  0.22151353761E+02 -0.24849049090E+02  0.43400730398E+02  0.00000000000E+00 0. -1.
         11    1    3    3    0    0  0.10920805384E+02 -0.93220827618E+01  0.44665153004E+01  0.15037119952E+02  0.51100000000E-03 0. -1.
        -11    1    3    3    0    0  0.60002779109E+01  0.19122954989E+01  0.16116493516E+01  0.65005863564E+01  0.51100000000E-03 0.  1.
         12    1    3    3    0    0  0.10926101213E+02 -0.14741566498E+02  0.18770884438E+02  0.26249563294E+02  0.00000000000E+00 0. -1.
</event>
<event>
 7    1  0.2769403E-010  0.4778727E+02  0.7816164E-02  0.1312668E+00
        -11   -1    0    0    0    0  0.00000000000E+00  0.00000000000E+00  0.45593999997E+02  0.45594000000E+02  0.51100000000E-03 0.  1.
         11   -1    0    0    0    0 -0.00000000000E+00 -0.00000000000E+00 -0.45593999997E+02  0.45594000000E+02  0.51100000000E-03 0. -1.
    9900012    2    1    2    0    0  0.23099544811E+02  0.27848883635E+02  0.23968180297E+02  0.47787274696E+02  0.20000016647E+02 0.  0.
         12    1    1    2    0    0 -0.23099544811E+02 -0.27848883635E+02 -0.23968180297E+02  0.43400725304E+02  0.00000000000E+00 0. -1.
         11    1    3    3    0    0  0.17634734092E+01  0.55669436689E-02  0.40766530046E+01  0.44417304552E+01  0.51100000000E-03 0. -1.
        -11    1    3    3    0    0  0.15348479668E+02  0.72304029222E+01  0.73941643710E+01  0.18507517974E+02  0.51100000000E-03 0.  1.
         12    1    3    3    0    0  0.59875917335E+01  0.20612913769E+02  0.12497362921E+02  0.24838026267E+02  0.00000000000E+00 0. -1.
</event>
<event>
 7    1  0.2769403E-010  0.4778727E+02  0.7816164E-02  0.1312668E+00
        -11   -1    0    0    0    0  0.00000000000E+00  0.00000000000E+00  0.45593999997E+02  0.45594000000E+02  0.51100000000E-03 0.  1.
         11   -1    0    0    0    0 -0.00000000000E+00 -0.00000000000E+00 -0.45593999997E+02  0.45594000000E+02  0.51100000000E-03 0. -1.
    9900012    2    1    2    0    0 -0.52390903486E+01 -0.42921092260E+02  0.37356520453E+01  0.47787270459E+02  0.19999997333E+02 0.  0.
         12    1    1    2    0    0  0.52390903486E+01  0.42921092260E+02 -0.37356520453E+01  0.43400729541E+02  0.00000000000E+00 0. -1.
         11    1    3    3    0    0 -0.44225123593E+01 -0.43946702189E+01 -0.13702804569E+00  0.62362263307E+01  0.51100000000E-03 0. -1.
        -11    1    3    3    0    0  0.20697001845E+01 -0.11677453085E+02  0.78984690859E+01  0.14248943244E+02  0.51100000000E-03 0.  1.
         12    1    3    3    0    0 -0.28862781738E+01 -0.26848968956E+02 -0.40257889950E+01  0.27302100885E+02  0.00000000000E+00 0. -1.
</event>
<event>
 7    1  0.2769403E-010  0.4778728E+02  0.7816164E-02  0.1312668E+00
        -11   -1    0    0    0    0  0.00000000000E+00  0.00000000000E+00  0.45593999997E+02  0.45594000000E+02  0.51100000000E-03 0.  1.
         11   -1    0    0    0    0 -0.00000000000E+00 -0.00000000000E+00 -0.45593999997E+02  0.45594000000E+02  0.51100000000E-03 0. -1.
    9900012    2    1    2    0    0  0.31510393524E+02  0.13940385319E+02  0.26389078171E+02  0.47787277775E+02  0.20000030689E+02 0.  0.
         12    1    1    2    0    0 -0.31510393524E+02 -0.13940385319E+02 -0.26389078171E+02  0.43400722225E+02  0.00000000000E+00 0. -1.
         11    1    3    3    0    0  0.29919393490E+02  0.66755878438E+01  0.22441973676E+02  0.37991785463E+02  0.51100000000E-03 0.  1.
        -11    1    3    3    0    0 -0.70304326204E+00 -0.12082131793E+00  0.15378018229E+01  0.16951997896E+01  0.51100000000E-03 0. -1.
        -12    1    3    3    0    0  0.22940432960E+01  0.73856187928E+01  0.24093026721E+01  0.81002925233E+01  0.00000000000E+00 0.  1.
</event>
<event>
 7    1  0.2769403E-010  0.4778727E+02  0.7816164E-02  0.1312668E+00
        -11   -1    0    0    0    0  0.00000000000E+00  0.00000000000E+00  0.45593999997E+02  0.45594000000E+02  0.51100000000E-03 0.  1.
         11   -1    0    0    0    0 -0.00000000000E+00 -0.00000000000E+00 -0.45593999997E+02  0.45594000000E+02  0.51100000000E-03 0. -1.
    9900012    2    1    2    0    0  0.24009325570E+02 -0.14640611549E+01  0.36125228485E+02  0.47787270485E+02  0.19999997449E+02 0.  0.
         12    1    1    2    0    0 -0.24009325570E+02  0.14640611549E+01 -0.36125228485E+02  0.43400729515E+02  0.00000000000E+00 0. -1.
         11    1    3    3    0    0  0.20909926916E+02  0.32616403661E+01  0.19199187806E+02  0.28573976870E+02  0.51100000000E-03 0. -1.
        -11    1    3    3    0    0 -0.28621364756E+00 -0.13698292983E+01 -0.22028634263E+00  0.14166428246E+01  0.51100000000E-03 0.  1.
        -12    1    3    3    0    0  0.33856123017E+01 -0.33558722227E+01  0.17146327021E+02  0.17796650790E+02  0.00000000000E+00 0.  1.
</event>
<event>
 7    1  0.2769403E-010  0.4778727E+02  0.7816164E-02  0.1312668E+00
        -11   -1    0    0    0    0  0.00000000000E+00  0.00000000000E+00  0.45593999997E+02  0.45594000000E+02  0.51100000000E-03 0.  1.
         11   -1    0    0    0    0 -0.00000000000E+00 -0.00000000000E+00 -0.45593999997E+02  0.45594000000E+02  0.51100000000E-03 0. -1.
    9900012    2    1    2    0    0 -0.76041545542E+01  0.38632074074E+01  0.42554390062E+02  0.47787266694E+02  0.19999980165E+02 0.  0.
         12    1    1    2    0    0  0.76041545542E+01 -0.38632074074E+01 -0.42554390062E+02  0.43400733306E+02  0.00000000000E+00 0. -1.
         11    1    3    3    0    0  0.49594346401E+01 -0.11669574662E+01  0.11975474475E+02  0.13014214184E+02  0.51100000000E-03 0. -1.
        -11    1    3    3    0    0 -0.69415472336E+01  0.25354931849E+01  0.26201413845E+02  0.27223664181E+02  0.51100000000E-03 0.  1.
        -12    1    3    3    0    0 -0.56220419606E+01  0.24946716887E+01  0.43775017421E+01  0.75493883291E+01  0.00000000000E+00 0.  1.
</event>
<event>
 7    1  0.2769403E-010  0.4778727E+02  0.7816164E-02  0.1312668E+00
        -11   -1    0    0    0    0  0.00000000000E+00  0.00000000000E+00  0.45593999997E+02  0.45594000000E+02  0.51100000000E-03 0.  1.
         11   -1    0    0    0    0 -0.00000000000E+00 -0.00000000000E+00 -0.45593999997E+02  0.45594000000E+02  0.51100000000E-03 0. -1.
    9900012    2    1    2    0    0  0.32814918401E+02  0.59968355688E+01  0.27764050191E+02  0.47787269712E+02  0.19999993925E+02 0.  0.
         12    1    1    2    0    0 -0.32814918401E+02 -0.59968355688E+01 -0.27764050191E+02  0.43400730288E+02  0.00000000000E+00 0. -1.
         11    1    3    3    0    0  0.74231251752E+01 -0.65870422041E+01  0.65708943988E+01  0.11902460495E+02  0.51100000000E-03 0. -1.
        -11    1    3    3    0    0  0.26060539019E+01  0.22903972990E+01  0.50369204625E+01  0.61162083625E+01  0.51100000000E-03 0.  1.
         12    1    3    3    0    0  0.22785739324E+02  0.10293480474E+02  0.16156235330E+02  0.29768600855E+02  0.00000000000E+00 0. -1.
</event>
<event>
 7    1  0.2769403E-010  0.4778727E+02  0.7816164E-02  0.1312668E+00
        -11   -1    0    0    0    0  0.00000000000E+00  0.00000000000E+00  0.45593999997E+02  0.45594000000E+02  0.51100000000E-03 0.  1.
         11   -1    0    0    0    0 -0.00000000000E+00 -0.00000000000E+00 -0.45593999997E+02  0.45594000000E+02  0.51100000000E-03 0. -1.
    9900012    2    1    2    0    0 -0.45937517623E+01 -0.10228924609E+02  0.41927200606E+02  0.47787267235E+02  0.19999982630E+02 0.  0.
         12    1    1    2    0    0  0.45937517623E+01  0.10228924609E+02 -0.41927200606E+02  0.43400732765E+02  0.00000000000E+00 0. -1.
         11    1    3    3    0    0 -0.79366636942E+01  0.20092178584E+01  0.17294441053E+02  0.19134400398E+02  0.51100000000E-03 0. -1.
        -11    1    3    3    0    0  0.17137283028E+01  0.13482694417E+00  0.58875538904E+01  0.61333786834E+01  0.51100000000E-03 0.  1.
         12    1    3    3    0    0  0.16291836291E+01 -0.12372969411E+02  0.18745205663E+02  0.22519488153E+02  0.00000000000E+00 0. -1.
</event>
<event>
 7    1  0.2769403E-010  0.4778726E+02  0.7816164E-02  0.1312668E+00
        -11   -1    0    0    0    0  0.00000000000E+00  0.00000000000E+00  0.45593999997E+02  0.45594000000E+02  0.51100000000E-03 0. -1.
         11   -1    0    0    0    0 -0.00000000000E+00 -0.00000000000E+00 -0.45593999997E+02  0.45594000000E+02  0.51100000000E-03 0.  1.
    9900012    2    1    2    0    0 -0.59353159935E+01  0.41706073509E+02 -0.10440289528E+02  0.47787260503E+02  0.19999951936E+02 0.  0.
         12    1    1    2    0    0  0.59353159935E+01 -0.41706073509E+02  0.10440289528E+02  0.43400739497E+02  0.00000000000E+00 0. -1.
         11    1    3    3    0    0 -0.83833186035E+01  0.22476077112E+02 -0.71066264249E+01  0.25019156911E+02  0.51100000000E-03 0. -1.
        -11    1    3    3    0    0  0.55584699244E+01  0.12503795032E+02 -0.59335176502E+01  0.14914694434E+02  0.51100000000E-03 0.  1.
         12    1    3    3    0    0 -0.31104673144E+01  0.67262013650E+01  0.25998545473E+01  0.78534091568E+01  0.00000000000E+00 0. -1.
</event>
<event>
 7    1  0.2769403E-010  0.4778727E+02  0.7816164E-02  0.1312668E+00
        -11   -1    0    0    0    0  0.00000000000E+00  0.00000000000E+00  0.45593999997E+02  0.45594000000E+02  0.51100000000E-03 0.  1.
         11   -1    0    0    0    0 -0.00000000000E+00 -0.00000000000E+00 -0.45593999997E+02  0.45594000000E+02  0.51100000000E-03 0. -1.
    9900012    2    1    2    0    0  0.14581506835E+02  0.27313564447E+02  0.30413353011E+02  0.47787272060E+02  0.20000004631E+02 0.  0.
         12    1    1    2    0    0 -0.14581506835E+02 -0.27313564447E+02 -0.30413353011E+02  0.43400727940E+02  0.00000000000E+00 0. -1.
         11    1    3    3    0    0  0.24219454547E+01  0.23044107409E+01  0.41820723335E+01  0.53540506079E+01  0.51100000000E-03 0. -1.
        -11    1    3    3    0    0  0.11817333003E+01  0.73129868634E+01  0.18992893829E+02  0.20386424079E+02  0.51100000000E-03 0.  1.
         12    1    3    3    0    0  0.10977828080E+02  0.17696166842E+02  0.72383868483E+01  0.22046797373E+02  0.00000000000E+00 0. -1.
</event>
<event>
 7    1  0.2769403E-010  0.4778727E+02  0.7816164E-02  0.1312668E+00
        -11   -1    0    0    0    0  0.00000000000E+00  0.00000000000E+00  0.45593999997E+02  0.45594000000E+02  0.51100000000E-03 0.  1.
         11   -1    0    0    0    0 -0.00000000000E+00 -0.00000000000E+00 -0.45593999997E+02  0.45594000000E+02  0.51100000000E-03 0. -1.
    9900012    2    1    2    0    0  0.39911748135E+01  0.40998587390E+02  0.13667835985E+02  0.47787269766E+02  0.19999994171E+02 0.  0.
         12    1    1    2    0    0 -0.39911748135E+01 -0.40998587390E+02 -0.13667835985E+02  0.43400730234E+02  0.00000000000E+00 0. -1.
         11    1    3    3    0    0 -0.86893550161E+00  0.23488240952E+01  0.26443053875E+01  0.36420289372E+01  0.51100000000E-03 0. -1.
        -11    1    3    3    0    0  0.97005314631E+01  0.35879941381E+02  0.97185619231E+01  0.38417716620E+02  0.51100000000E-03 0.  1.
        -12    1    3    3    0    0 -0.48404211480E+01  0.27698219136E+01  0.13049686741E+01  0.57275242088E+01  0.00000000000E+00 0.  1.
</event>
<event>
 7    1  0.2769403E-010  0.4778727E+02  0.7816164E-02  0.1312668E+00
        -11   -1    0    0    0    0  0.00000000000E+00  0.00000000000E+00  0.45593999997E+02  0.45594000000E+02  0.51100000000E-03 0.  1.
         11   -1    0    0    0    0 -0.00000000000E+00 -0.00000000000E+00 -0.45593999997E+02  0.45594000000E+02  0.51100000000E-03 0. -1.
    9900012    2    1    2    0    0 -0.17418940869E+02 -0.32840035006E+02  0.22399458115E+02  0.47787272771E+02  0.20000007870E+02 0.  0.
         12    1    1    2    0    0  0.17418940869E+02  0.32840035006E+02 -0.22399458115E+02  0.43400727229E+02  0.00000000000E+00 0. -1.
         11    1    3    3    0    0 -0.29643616269E+01 -0.13492504207E+02  0.61340712513E+01  0.15114957493E+02  0.51100000000E-03 0. -1.
        -11    1    3    3    0    0 -0.28374488400E+01 -0.11766970574E+02  0.14181888695E+02  0.18645071189E+02  0.51100000000E-03 0.  1.
         12    1    3    3    0    0 -0.11617130402E+02 -0.75805602254E+01  0.20834981680E+01  0.14027244089E+02  0.00000000000E+00 0. -1.
</event>
<event>
 7    1  0.2769403E-010  0.4778728E+02  0.7816164E-02  0.1312668E+00
        -11   -1    0    0    0    0  0.00000000000E+00  0.00000000000E+00  0.45593999997E+02  0.45594000000E+02  0.51100000000E-03 0. -1.
         11   -1    0    0    0    0 -0.00000000000E+00 -0.00000000000E+00 -0.45593999997E+02  0.45594000000E+02  0.51100000000E-03 0.  1.
    9900012    2    1    2    0    0 -0.17056491130E+02 -0.39892254871E+02  0.11431301153E+01  0.47787278407E+02  0.20000033568E+02 0.  0.
         12    1    1    2    0    0  0.17056491130E+02  0.39892254871E+02 -0.11431301153E+01  0.43400721593E+02  0.00000000000E+00 0. -1.
         11    1    3    3    0    0  0.16876535377E+01 -0.11188741936E+02  0.26026252447E+01  0.11610761344E+02  0.51100000000E-03 0. -1.
        -11    1    3    3    0    0 -0.96813906328E+01 -0.22062271699E+02  0.25935377483E+01  0.24232201621E+02  0.51100000000E-03 0.  1.
         12    1    3    3    0    0 -0.90627540351E+01 -0.66412412367E+01 -0.40530328776E+01  0.11944315442E+02  0.00000000000E+00 0. -1.
</event>
<event>
 7    1  0.2769403E-010  0.4778727E+02  0.7816164E-02  0.1312668E+00
        -11   -1    0    0    0    0  0.00000000000E+00  0.00000000000E+00  0.45593999997E+02  0.45594000000E+02  0.51100000000E-03 0.  1.
         11   -1    0    0    0    0 -0.00000000000E+00 -0.00000000000E+00 -0.45593999997E+02  0.45594000000E+02  0.51100000000E-03 0. -1.
    9900012    2    1    2    0    0  0.31276752579E+02  0.29566097244E+02  0.55887507551E+01  0.47787268518E+02  0.19999988482E+02 0.  0.
         12    1    1    2    0    0 -0.31276752579E+02 -0.29566097244E+02 -0.55887507551E+01  0.43400731482E+02  0.00000000000E+00 0. -1.
         11    1    3    3    0    0  0.14182258314E+01  0.75446947809E+00  0.19939603647E+01  0.25605598800E+01  0.51100000000E-03 0. -1.
        -11    1    3    3    0    0  0.23099061254E+02  0.23416146647E+02 -0.47204822624E+01  0.33228985956E+02  0.51100000000E-03 0.  1.
        -12    1    3    3    0    0  0.67594654943E+01  0.53954811187E+01  0.83152726528E+01  0.11997722682E+02  0.00000000000E+00 0.  1.
</event>
<event>
 7    1  0.2769403E-010  0.4778727E+02  0.7816164E-02  0.1312668E+00
        -11   -1    0    0    0    0  0.00000000000E+00  0.00000000000E+00  0.45593999997E+02  0.45594000000E+02  0.51100000000E-03 0.  1.
         11   -1    0    0    0    0 -0.00000000000E+00 -0.00000000000E+00 -0.45593999997E+02  0.45594000000E+02  0.51100000000E-03 0. -1.
    9900012    2    1    2    0    0  0.28432066239E+02  0.82170748628E+01  0.31744615102E+02  0.47787270767E+02  0.19999998735E+02 0.  0.
         12    1    1    2    0    0 -0.28432066239E+02 -0.82170748628E+01 -0.31744615102E+02  0.43400729233E+02  0.00000000000E+00 0. -1.
         11    1    3    3    0    0  0.57560368904E+01 -0.27829723343E+01  0.15791364099E+02  0.17036551179E+02  0.51100000000E-03 0.  1.
        -11    1    3    3    0    0  0.10566916510E+02  0.17602164634E+01  0.90676143221E+01  0.14034946251E+02  0.51100000000E-03 0. -1.
        -12    1    3    3    0    0  0.12109112839E+02  0.92398307338E+01  0.68856366813E+01  0.16715773337E+02  0.00000000000E+00 0.  1.
</event>
<event>
 7    1  0.2769403E-010  0.4778727E+02  0.7816164E-02  0.1312668E+00
        -11   -1    0    0    0    0  0.00000000000E+00  0.00000000000E+00  0.45593999997E+02  0.45594000000E+02  0.51100000000E-03 0. -1.
         11   -1    0    0    0    0 -0.00000000000E+00 -0.00000000000E+00 -0.45593999997E+02  0.45594000000E+02  0.51100000000E-03 0.  1.
    9900012    2    1    2    0    0 -0.29002879788E+02 -0.69396710406E+01 -0.31532478582E+02  0.47787271024E+02  0.19999999906E+02 0.  0.
         12    1    1    2    0    0  0.29002879788E+02  0.69396710406E+01  0.31532478582E+02  0.43400728976E+02  0.00000000000E+00 0. -1.
         11    1    3    3    0    0 -0.41690098138E+01 -0.25868827959E+01  0.16579979571E+01  0.51789538436E+01  0.51100000000E-03 0. -1.
        -11    1    3    3    0    0 -0.10118929308E+02 -0.59957988038E+01 -0.12476041516E+02  0.17146251655E+02  0.51100000000E-03 0.  1.
        -12    1    3    3    0    0 -0.14714940666E+02  0.16430105592E+01 -0.20714435022E+02  0.25462065525E+02  0.00000000000E+00 0.  1.
</event>
<event>
 7    1  0.2769403E-010  0.4778728E+02  0.7816164E-02  0.1312668E+00
        -11   -1    0    0    0    0  0.00000000000E+00  0.00000000000E+00  0.45593999997E+02  0.45594000000E+02  0.51100000000E-03 0. -1.
         11   -1    0    0    0    0 -0.00000000000E+00 -0.00000000000E+00 -0.45593999997E+02  0.45594000000E+02  0.51100000000E-03 0.  1.
    9900012    2    1    2    0    0  0.42071409074E+02 -0.27377259173E+01 -0.10301649589E+02  0.47787278935E+02  0.20000035977E+02 0.  0.
         12    1    1    2    0    0 -0.42071409074E+02  0.27377259173E+01  0.10301649589E+02  0.43400721065E+02  0.00000000000E+00 0. -1.
         11    1    3    3    0    0  0.46551765966E+01 -0.31630299663E+01 -0.12266519964E+01  0.57602172784E+01  0.51100000000E-03 0. -1.
        -11    1    3    3    0    0  0.36966183896E+01 -0.56365237805E+01 -0.21393264245E+01  0.70719237593E+01  0.51100000000E-03 0.  1.
         12    1    3    3    0    0  0.33719614088E+02  0.60618278294E+01 -0.69356711681E+01  0.34955137897E+02  0.00000000000E+00 0. -1.
</event>
<event>
 7    1  0.2769403E-010  0.4778727E+02  0.7816164E-02  0.1312668E+00
        -11   -1    0    0    0    0  0.00000000000E+00  0.00000000000E+00  0.45593999997E+02  0.45594000000E+02  0.51100000000E-03 0. -1.
         11   -1    0    0    0    0 -0.00000000000E+00 -0.00000000000E+00 -0.45593999997E+02  0.45594000000E+02  0.51100000000E-03 0.  1.
    9900012    2    1    2    0    0 -0.39587749891E+02  0.17443647190E+02 -0.34860308629E+01  0.47787272127E+02  0.20000004938E+02 0.  0.
         12    1    1    2    0    0  0.39587749891E+02 -0.17443647190E+02  0.34860308629E+01  0.43400727873E+02  0.00000000000E+00 0. -1.
         11    1    3    3    0    0 -0.27224694414E+01 -0.35543191141E+01  0.55728041788E+00  0.45117165192E+01  0.51100000000E-03 0. -1.
        -11    1    3    3    0    0 -0.17111261555E+02  0.13394949394E+02 -0.40722027082E+01  0.22108884559E+02  0.51100000000E-03 0.  1.
        -12    1    3    3    0    0 -0.19754018894E+02  0.76030169104E+01  0.28891427408E-01  0.21166671049E+02  0.00000000000E+00 0.  1.
</event>
<event>
 7    1  0.2953457E-010  0.4778727E+02  0.7816164E-02  0.1312668E+00
        -11   -1    0    0    0    0  0.00000000000E+00  0.00000000000E+00  0.45593999997E+02  0.45594000000E+02  0.51100000000E-03 0.  1.
         11   -1    0    0    0    0 -0.00000000000E+00 -0.00000000000E+00 -0.45593999997E+02  0.45594000000E+02  0.51100000000E-03 0. -1.
    9900012    2    1    2    0    0 -0.41781859857E+01  0.43108861295E+02  0.27914075858E+01  0.47787272856E+02  0.20000008261E+02 0.  0.
         12    1    1    2    0    0  0.41781859857E+01 -0.43108861295E+02 -0.27914075858E+01  0.43400727144E+02  0.00000000000E+00 0. -1.
         11    1    3    3    0    0  0.21809936867E+01  0.19951205027E+02  0.22605281995E+01  0.20196962729E+02  0.51100000000E-03 0. -1.
        -11    1    3    3    0    0 -0.30079391421E+01  0.22840904002E+02  0.32459308783E+01  0.23265654107E+02  0.51100000000E-03 0.  1.
         12    1    3    3    0    0 -0.33512405303E+01  0.31675226672E+00 -0.27150514920E+01  0.43246560204E+01  0.00000000000E+00 0. -1.
</event>
<event>
 7    1  0.2769403E-010  0.4778727E+02  0.7816164E-02  0.1312668E+00
        -11   -1    0    0    0    0  0.00000000000E+00  0.00000000000E+00  0.45593999997E+02  0.45594000000E+02  0.51100000000E-03 0.  1.
         11   -1    0    0    0    0 -0.00000000000E+00 -0.00000000000E+00 -0.45593999997E+02  0.45594000000E+02  0.51100000000E-03 0. -1.
    9900012    2    1    2    0    0  0.31314714001E+02 -0.29212642647E+02  0.70451113935E+01  0.47787269615E+02  0.19999993482E+02 0.  0.
         12    1    1    2    0    0 -0.31314714001E+02  0.29212642647E+02 -0.70451113935E+01  0.43400730385E+02  0.00000000000E+00 0. -1.
         11    1    3    3    0    0  0.12953915130E+02 -0.13886772886E+02  0.70883845571E+01  0.20270460633E+02  0.51100000000E-03 0. -1.
        -11    1    3    3    0    0  0.12932065730E+02 -0.12354490951E+02  0.60022712555E+01  0.18865286406E+02  0.51100000000E-03 0.  1.
         12    1    3    3    0    0  0.54287331418E+01 -0.29713788097E+01 -0.60455444192E+01  0.86515225758E+01  0.00000000000E+00 0. -1.
</event>
<event>
 7    1  0.2769403E-010  0.4778727E+02  0.7816164E-02  0.1312668E+00
        -11   -1    0    0    0    0  0.00000000000E+00  0.00000000000E+00  0.45593999997E+02  0.45594000000E+02  0.51100000000E-03 0. -1.
         11   -1    0    0    0    0 -0.00000000000E+00 -0.00000000000E+00 -0.45593999997E+02  0.45594000000E+02  0.51100000000E-03 0.  1.
    9900012    2    1    2    0    0 -0.76485859238E+00  0.43262379909E+02 -0.33771399252E+01  0.47787267308E+02  0.19999982966E+02 0.  0.
         12    1    1    2    0    0  0.76485859238E+00 -0.43262379909E+02  0.33771399252E+01  0.43400732692E+02  0.00000000000E+00 0. -1.
         11    1    3    3    0    0 -0.73685684685E+01  0.10592176691E+02  0.11409626029E+00  0.12903605176E+02  0.51100000000E-03 0. -1.
        -11    1    3    3    0    0 -0.13301955381E+01  0.11860870538E+02 -0.40571973776E+01  0.12605971637E+02  0.51100000000E-03 0.  1.
        -12    1    3    3    0    0  0.79339054142E+01  0.20809332681E+02  0.56596119206E+00  0.22277690496E+02  0.00000000000E+00 0.  1.
</event>
<event>
 7    1  0.2769403E-010  0.4778727E+02  0.7816164E-02  0.1312668E+00
        -11   -1    0    0    0    0  0.00000000000E+00  0.00000000000E+00  0.45593999997E+02  0.45594000000E+02  0.51100000000E-03 0.  1.
         11   -1    0    0    0    0 -0.00000000000E+00 -0.00000000000E+00 -0.45593999997E+02  0.45594000000E+02  0.51100000000E-03 0. -1.
    9900012    2    1    2    0    0 -0.38409586922E+02  0.19826965927E+02  0.39011157496E+01  0.47787266717E+02  0.19999980271E+02 0.  0.
         12    1    1    2    0    0  0.38409586922E+02 -0.19826965927E+02 -0.39011157496E+01  0.43400733283E+02  0.00000000000E+00 0. -1.
         11    1    3    3    0    0 -0.13667435838E+01  0.13410253960E+01  0.40996194493E+01  0.45247339177E+01  0.51100000000E-03 0. -1.
        -11    1    3    3    0    0  0.93532345954E-01 -0.45741906315E+00  0.14679177364E+01  0.15403776294E+01  0.51100000000E-03 0.  1.
        -12    1    3    3    0    0 -0.37136375684E+02  0.18943359594E+02 -0.16664214360E+01  0.41722155170E+02  0.00000000000E+00 0.  1.
</event>
<event>
 7    1  0.2769403E-010  0.4778727E+02  0.7816164E-02  0.1312668E+00
        -11   -1    0    0    0    0  0.00000000000E+00  0.00000000000E+00  0.45593999997E+02  0.45594000000E+02  0.51100000000E-03 0.  1.
         11   -1    0    0    0    0 -0.00000000000E+00 -0.00000000000E+00 -0.45593999997E+02  0.45594000000E+02  0.51100000000E-03 0. -1.
    9900012    2    1    2    0    0  0.15513772625E+02 -0.29951707613E+01  0.40422460534E+02  0.47787268387E+02  0.19999987882E+02 0.  0.
         12    1    1    2    0    0 -0.15513772625E+02  0.29951707613E+01 -0.40422460534E+02  0.43400731613E+02  0.00000000000E+00 0. -1.
         11    1    3    3    0    0 -0.57666725205E+00 -0.39946352548E+01  0.39145776788E+01  0.56225950061E+01  0.51100000000E-03 0. -1.
        -11    1    3    3    0    0 -0.26255921936E+00  0.36850796386E+01  0.12185293416E+02  0.12733032836E+02  0.51100000000E-03 0.  1.
         12    1    3    3    0    0  0.16352999097E+02 -0.26856151450E+01  0.24322589439E+02  0.29431640545E+02  0.00000000000E+00 0. -1.
</event>
<event>
 7    1  0.2769403E-010  0.4778727E+02  0.7816164E-02  0.1312668E+00
        -11   -1    0    0    0    0  0.00000000000E+00  0.00000000000E+00  0.45593999997E+02  0.45594000000E+02  0.51100000000E-03 0.  1.
         11   -1    0    0    0    0 -0.00000000000E+00 -0.00000000000E+00 -0.45593999997E+02  0.45594000000E+02  0.51100000000E-03 0. -1.
    9900012    2    1    2    0    0  0.10947259381E+02 -0.21707843391E+02  0.35952054895E+02  0.47787271852E+02  0.20000003680E+02 0.  0.
         12    1    1    2    0    0 -0.10947259381E+02  0.21707843391E+02 -0.35952054895E+02  0.43400728148E+02  0.00000000000E+00 0. -1.
         11    1    3    3    0    0  0.21602196579E+01  0.15029139696E+01  0.40824957149E+01  0.48571669617E+01  0.51100000000E-03 0. -1.
        -11    1    3    3    0    0 -0.11018604960E+00  0.18764907506E+01  0.87220294869E+00  0.20722202459E+01  0.51100000000E-03 0.  1.
        -12    1    3    3    0    0  0.88972257727E+01 -0.25087248111E+02  0.30997356231E+02  0.40857884644E+02  0.00000000000E+00 0.  1.
</event>
<event>
 7    1  0.2769403E-010  0.4778727E+02  0.7816164E-02  0.1312668E+00
        -11   -1    0    0    0    0  0.00000000000E+00  0.00000000000E+00  0.45593999997E+02  0.45594000000E+02  0.51100000000E-03 0. -1.
         11   -1    0    0    0    0 -0.00000000000E+00 -0.00000000000E+00 -0.45593999997E+02  0.45594000000E+02  0.51100000000E-03 0.  1.
    9900012    2    1    2    0    0  0.12500545514E+02 -0.12046082030E+02 -0.39777523326E+02  0.47787273136E+02  0.20000009535E+02 0.  0.
         12    1    1    2    0    0 -0.12500545514E+02  0.12046082030E+02  0.39777523326E+02  0.43400726864E+02  0.00000000000E+00 0. -1.
         11    1    3    3    0    0  0.51024606741E+01  0.22898660814E+01 -0.25395641743E+02  0.26004176807E+02  0.51100000000E-03 0. -1.
        -11    1    3    3    0    0  0.49397024281E+01 -0.66093673490E+01 -0.71403504878E+01  0.10911874366E+02  0.51100000000E-03 0.  1.
         12    1    3    3    0    0  0.24583824114E+01 -0.77265807626E+01 -0.72415310953E+01  0.10871221963E+02  0.00000000000E+00 0. -1.
</event>
<event>
 7    1  0.2769403E-010  0.4778728E+02  0.7816164E-02  0.1312668E+00
        -11   -1    0    0    0    0  0.00000000000E+00  0.00000000000E+00  0.45593999997E+02  0.45594000000E+02  0.51100000000E-03 0.  1.
         11   -1    0    0    0    0 -0.00000000000E+00 -0.00000000000E+00 -0.45593999997E+02  0.45594000000E+02  0.51100000000E-03 0. -1.
    9900012    2    1    2    0    0 -0.14739111347E+02  0.26774546839E+02  0.30814029706E+02  0.47787283549E+02  0.20000057013E+02 0.  0.
         12    1    1    2    0    0  0.14739111347E+02 -0.26774546839E+02 -0.30814029706E+02  0.43400716451E+02  0.00000000000E+00 0. -1.
         11    1    3    3    0    0 -0.89004052050E+01  0.41469031262E+01  0.45148862987E+01  0.10807322374E+02  0.51100000000E-03 0. -1.
        -11    1    3    3    0    0 -0.36394417338E+01  0.34502360699E+01  0.92743875475E+00  0.50999811742E+01  0.51100000000E-03 0.  1.
        -12    1    3    3    0    0 -0.21992644083E+01  0.19177407643E+02  0.25371704653E+02  0.31879980000E+02  0.00000000000E+00 0.  1.
</event>
<event>
 7    1  0.2769403E-010  0.4778732E+02  0.7816164E-02  0.1312668E+00
        -11   -1    0    0    0    0  0.00000000000E+00  0.00000000000E+00  0.45593999997E+02  0.45594000000E+02  0.51100000000E-03 0.  1.
         11   -1    0    0    0    0 -0.00000000000E+00 -0.00000000000E+00 -0.45593999997E+02  0.45594000000E+02  0.51100000000E-03 0. -1.
    9900012    2    1    2    0    0  0.21245083803E+01  0.14976562554E+02  0.40679330086E+02  0.47787321917E+02  0.20000231949E+02 0.  0.
         12    1    1    2    0    0 -0.21245083803E+01 -0.14976562554E+02 -0.40679330086E+02  0.43400678083E+02  0.00000000000E+00 0. -1.
         11    1    3    3    0    0  0.10049334569E+02  0.91916622146E+01  0.23903004016E+02  0.27510532179E+02  0.51100000000E-03 0. -1.
        -11    1    3    3    0    0 -0.18714084087E+01  0.35314365754E+01  0.27994924541E+01  0.48795872755E+01  0.51100000000E-03 0.  1.
         12    1    3    3    0    0 -0.60534177795E+01  0.22534637641E+01  0.13976833616E+02  0.15397202463E+02  0.00000000000E+00 0. -1.
</event>
<event>
 7    1  0.2769403E-010  0.4778726E+02  0.7816164E-02  0.1312668E+00
        -11   -1    0    0    0    0  0.00000000000E+00  0.00000000000E+00  0.45593999997E+02  0.45594000000E+02  0.51100000000E-03 0.  1.
         11   -1    0    0    0    0 -0.00000000000E+00 -0.00000000000E+00 -0.45593999997E+02  0.45594000000E+02  0.51100000000E-03 0. -1.
    9900012    2    1    2    0    0  0.84877683120E+01 -0.38116692653E+02  0.18939369092E+02  0.47787260706E+02  0.19999952862E+02 0.  0.
         12    1    1    2    0    0 -0.84877683120E+01  0.38116692653E+02 -0.18939369092E+02  0.43400739294E+02  0.00000000000E+00 0. -1.
         11    1    3    3    0    0  0.26593990853E+01 -0.23227217829E+01 -0.12599799754E+01  0.37489985030E+01  0.51100000000E-03 0. -1.
        -11    1    3    3    0    0  0.70519182633E+00 -0.49081165730E+01  0.99128230785E+01  0.11083815474E+02  0.51100000000E-03 0.  1.
        -12    1    3    3    0    0  0.51231774003E+01 -0.30885854297E+02  0.10286525989E+02  0.32954446729E+02  0.00000000000E+00 0.  1.
</event>
<event>
 7    1  0.2769403E-010  0.4778727E+02  0.7816164E-02  0.1312668E+00
        -11   -1    0    0    0    0  0.00000000000E+00  0.00000000000E+00  0.45593999997E+02  0.45594000000E+02  0.51100000000E-03 0. -1.
         11   -1    0    0    0    0 -0.00000000000E+00 -0.00000000000E+00 -0.45593999997E+02  0.45594000000E+02  0.51100000000E-03 0.  1.
    9900012    2    1    2    0    0  0.36035447930E+02  0.24104081026E+02 -0.20156478711E+01  0.47787273440E+02  0.20000010922E+02 0.  0.
         12    1    1    2    0    0 -0.36035447930E+02 -0.24104081026E+02  0.20156478711E+01  0.43400726560E+02  0.00000000000E+00 0. -1.
         11    1    3    3    0    0  0.61586665866E+01  0.98920513664E+01 -0.51626489214E+01  0.12744991114E+02  0.51100000000E-03 0. -1.
        -11    1    3    3    0    0  0.17939472563E+02  0.14324669583E+02  0.17642186207E+01  0.23024623821E+02  0.51100000000E-03 0.  1.
        -12    1    3    3    0    0  0.11937308781E+02 -0.11263992432E+00  0.13827824297E+01  0.12017658504E+02  0.00000000000E+00 0.  1.
</event>
<event>
 7    1  0.2769403E-010  0.4778727E+02  0.7816164E-02  0.1312668E+00
        -11   -1    0    0    0    0  0.00000000000E+00  0.00000000000E+00  0.45593999997E+02  0.45594000000E+02  0.51100000000E-03 0.  1.
         11   -1    0    0    0    0 -0.00000000000E+00 -0.00000000000E+00 -0.45593999997E+02  0.45594000000E+02  0.51100000000E-03 0. -1.
    9900012    2    1    2    0    0 -0.36575217485E+02 -0.16192185752E+02  0.16843091920E+02  0.47787272369E+02  0.20000006040E+02 0.  0.
         12    1    1    2    0    0  0.36575217485E+02  0.16192185752E+02 -0.16843091920E+02  0.43400727631E+02  0.00000000000E+00 0. -1.
         11    1    3    3    0    0 -0.23022387548E+02 -0.11885689369E+02  0.11625637966E+02  0.28398158366E+02  0.51100000000E-03 0. -1.
        -11    1    3    3    0    0 -0.15734916424E+02 -0.35077499715E+01  0.34924307173E+01  0.16495119803E+02  0.51100000000E-03 0.  1.
         12    1    3    3    0    0  0.21820864873E+01 -0.79874641127E+00  0.17250232363E+01  0.28939942007E+01  0.00000000000E+00 0. -1.
</event>
<event>
 7    1  0.2769403E-010  0.4778727E+02  0.7816164E-02  0.1312668E+00
        -11   -1    0    0    0    0  0.00000000000E+00  0.00000000000E+00  0.45593999997E+02  0.45594000000E+02  0.51100000000E-03 0. -1.
         11   -1    0    0    0    0 -0.00000000000E+00 -0.00000000000E+00 -0.45593999997E+02  0.45594000000E+02  0.51100000000E-03 0.  1.
    9900012    2    1    2    0    0 -0.69370623670E+01 -0.29604931677E+02  0.30968513714E+02  0.47787266648E+02  0.19999979954E+02 0.  0.
         12    1    1    2    0    0  0.69370623670E+01  0.29604931677E+02 -0.30968513714E+02  0.43400733352E+02  0.00000000000E+00 0. -1.
         11    1    3    3    0    0 -0.70147667895E+01 -0.16276074029E+02  0.85757066492E+01  0.19689090474E+02  0.51100000000E-03 0. -1.
        -11    1    3    3    0    0 -0.50502662454E+01 -0.81873468309E+01  0.11302181954E+02  0.14841736908E+02  0.51100000000E-03 0.  1.
        -12    1    3    3    0    0  0.51279706679E+01 -0.51415108171E+01  0.11090625110E+02  0.13256439265E+02  0.00000000000E+00 0.  1.
</event>
<event>
 7    1  0.2769403E-010  0.4778728E+02  0.7816164E-02  0.1312668E+00
        -11   -1    0    0    0    0  0.00000000000E+00  0.00000000000E+00  0.45593999997E+02  0.45594000000E+02  0.51100000000E-03 0. -1.
         11   -1    0    0    0    0 -0.00000000000E+00 -0.00000000000E+00 -0.45593999997E+02  0.45594000000E+02  0.51100000000E-03 0.  1.
    9900012    2    1    2    0    0 -0.76756010580E+01 -0.91787899510E+01 -0.41718788910E+02  0.47787281288E+02  0.20000046706E+02 0.  0.
         12    1    1    2    0    0  0.76756010580E+01  0.91787899510E+01  0.41718788910E+02  0.43400718712E+02  0.00000000000E+00 0. -1.
         11    1    3    3    0    0 -0.76329887034E+01 -0.24333090752E+01 -0.23002945869E+02  0.24358140908E+02  0.51100000000E-03 0. -1.
        -11    1    3    3    0    0 -0.43483247939E+01 -0.69267405018E+01 -0.16856184721E+02  0.18735491082E+02  0.51100000000E-03 0.  1.
         12    1    3    3    0    0  0.43057124393E+01  0.18125962599E+00 -0.18596583208E+01  0.46936492979E+01  0.00000000000E+00 0. -1.
</event>
<event>
 7    1  0.2769403E-010  0.4778728E+02  0.7816164E-02  0.1312668E+00
        -11   -1    0    0    0    0  0.00000000000E+00  0.00000000000E+00  0.45593999997E+02  0.45594000000E+02  0.51100000000E-03 0. -1.
         11   -1    0    0    0    0 -0.00000000000E+00 -0.00000000000E+00 -0.45593999997E+02  0.45594000000E+02  0.51100000000E-03 0.  1.
    9900012    2    1    2    0    0  0.38069397751E+02  0.16601592430E+02 -0.12598846356E+02  0.47787275976E+02  0.20000022484E+02 0.  0.
         12    1    1    2    0    0 -0.38069397751E+02 -0.16601592430E+02  0.12598846356E+02  0.43400724024E+02  0.00000000000E+00 0. -1.
         11    1    3    3    0    0  0.80407397656E+01 -0.73263448163E+00  0.26385210686E+01  0.84942358663E+01  0.51100000000E-03 0. -1.
        -11    1    3    3    0    0  0.12623428759E+02  0.24056611049E+01 -0.26005097404E+01  0.13111094926E+02  0.51100000000E-03 0.  1.
        -12    1    3    3    0    0  0.17405229227E+02  0.14928565806E+02 -0.12636857684E+02  0.26181945184E+02  0.00000000000E+00 0.  1.
</event>
<event>
 7    1  0.2769403E-010  0.4778727E+02  0.7816164E-02  0.1312668E+00
        -11   -1    0    0    0    0  0.00000000000E+00  0.00000000000E+00  0.45593999997E+02  0.45594000000E+02  0.51100000000E-03 0.  1.
         11   -1    0    0    0    0 -0.00000000000E+00 -0.00000000000E+00 -0.45593999997E+02  0.45594000000E+02  0.51100000000E-03 0. -1.
    9900012    2    1    2    0    0  0.29003077396E+02 -0.50411520387E+01  0.31890928248E+02  0.47787274006E+02  0.20000013501E+02 0.  0.
         12    1    1    2    0    0 -0.29003077396E+02  0.50411520387E+01 -0.31890928248E+02  0.43400725994E+02  0.00000000000E+00 0. -1.
         11    1    3    3    0    0  0.10723596368E+00  0.40590715742E+00  0.19163771027E+01  0.19618260965E+01  0.51100000000E-03 0. -1.
        -11    1    3    3    0    0  0.82223423640E+01  0.65265992556E+01  0.65893115089E+01  0.12394451913E+02  0.51100000000E-03 0.  1.
         12    1    3    3    0    0  0.20673499068E+02 -0.11973658452E+02  0.23385239637E+02  0.33430995996E+02  0.00000000000E+00 0. -1.
</event>
<event>
 7    1  0.2769403E-010  0.4778730E+02  0.7816164E-02  0.1312668E+00
        -11   -1    0    0    0    0  0.00000000000E+00  0.00000000000E+00  0.45593999997E+02  0.45594000000E+02  0.51100000000E-03 0.  1.
         11   -1    0    0    0    0 -0.00000000000E+00 -0.00000000000E+00 -0.45593999997E+02  0.45594000000E+02  0.51100000000E-03 0. -1.
    9900012    2    1    2    0    0  0.27820050777E+02 -0.28022509940E+02  0.18011240190E+02  0.47787296529E+02  0.20000116195E+02 0.  0.
         12    1    1    2    0    0 -0.27820050777E+02  0.28022509940E+02 -0.18011240190E+02  0.43400703471E+02  0.00000000000E+00 0. -1.
         11    1    3    3    0    0  0.23939314665E+01 -0.32985144550E+01 -0.16068275814E+01  0.43809816952E+01  0.51100000000E-03 0. -1.
        -11    1    3    3    0    0  0.75261888256E+01 -0.18098016456E+02  0.10828352527E+02  0.22392742945E+02  0.51100000000E-03 0.  1.
         12    1    3    3    0    0  0.17899930485E+02 -0.66259790286E+01  0.87897152439E+01  0.21013571889E+02  0.00000000000E+00 0. -1.
</event>
<event>
 7    1  0.2769403E-010  0.4778727E+02  0.7816164E-02  0.1312668E+00
        -11   -1    0    0    0    0  0.00000000000E+00  0.00000000000E+00  0.45593999997E+02  0.45594000000E+02  0.51100000000E-03 0.  1.
         11   -1    0    0    0    0 -0.00000000000E+00 -0.00000000000E+00 -0.45593999997E+02  0.45594000000E+02  0.51100000000E-03 0. -1.
    9900012    2    1    2    0    0  0.63486478801E+01 -0.24903019126E+02  0.34973669012E+02  0.47787271715E+02  0.20000003055E+02 0.  0.
         12    1    1    2    0    0 -0.63486478801E+01  0.24903019126E+02 -0.34973669012E+02  0.43400728285E+02  0.00000000000E+00 0. -1.
         11    1    3    3    0    0  0.73869707359E+01 -0.10758877849E+02  0.21344094853E+02  0.25017817143E+02  0.51100000000E-03 0. -1.
        -11    1    3    3    0    0 -0.78967427674E+00 -0.12568442463E+02  0.15718550597E+02  0.20141056689E+02  0.51100000000E-03 0.  1.
         12    1    3    3    0    0 -0.24864857907E+00 -0.15756988145E+01 -0.20889764384E+01  0.26283978827E+01  0.00000000000E+00 0. -1.
</event>
<event>
 7    1  0.2769403E-010  0.4778727E+02  0.7816164E-02  0.1312668E+00
        -11   -1    0    0    0    0  0.00000000000E+00  0.00000000000E+00  0.45593999997E+02  0.45594000000E+02  0.51100000000E-03 0.  1.
         11   -1    0    0    0    0 -0.00000000000E+00 -0.00000000000E+00 -0.45593999997E+02  0.45594000000E+02  0.51100000000E-03 0. -1.
    9900012    2    1    2    0    0  0.25297690244E+02 -0.18401431517E+02  0.30083844568E+02  0.47787268237E+02  0.19999987200E+02 0.  0.
         12    1    1    2    0    0 -0.25297690244E+02  0.18401431517E+02 -0.30083844568E+02  0.43400731763E+02  0.00000000000E+00 0. -1.
         11    1    3    3    0    0  0.21885698332E+02 -0.16197724793E+02  0.17824414459E+02  0.32543199459E+02  0.51100000000E-03 0. -1.
        -11    1    3    3    0    0  0.40869527912E+01 -0.45344373208E+01  0.10818663501E+02  0.12422068473E+02  0.51100000000E-03 0.  1.
         12    1    3    3    0    0 -0.67496087993E+00  0.23307305964E+01  0.14407666080E+01  0.28220003050E+01  0.00000000000E+00 0. -1.
</event>
<event>
 7    1  0.2769403E-010  0.4778727E+02  0.7816164E-02  0.1312668E+00
        -11   -1    0    0    0    0  0.00000000000E+00  0.00000000000E+00  0.45593999997E+02  0.45594000000E+02  0.51100000000E-03 0.  1.
         11   -1    0    0    0    0 -0.00000000000E+00 -0.00000000000E+00 -0.45593999997E+02  0.45594000000E+02  0.51100000000E-03 0. -1.
    9900012    2    1    2    0    0  0.13137002454E+02  0.18473436526E+02  0.37010468822E+02  0.47787268520E+02  0.19999988490E+02 0.  0.
         12    1    1    2    0    0 -0.13137002454E+02 -0.18473436526E+02 -0.37010468822E+02  0.43400731480E+02  0.00000000000E+00 0. -1.
         11    1    3    3    0    0 -0.38121335099E+01  0.14409945547E+01  0.66213632000E+01  0.77750419993E+01  0.51100000000E-03 0. -1.
        -11    1    3    3    0    0  0.73829689556E+00  0.65649425166E+00 -0.77415287107E+00  0.12551414013E+01  0.51100000000E-03 0.  1.
        -12    1    3    3    0    0  0.16210839068E+02  0.16375947719E+02  0.31163258494E+02  0.38757085119E+02  0.00000000000E+00 0.  1.
</event>
<event>
 7    1  0.2769403E-010  0.4778727E+02  0.7816164E-02  0.1312668E+00
        -11   -1    0    0    0    0  0.00000000000E+00  0.00000000000E+00  0.45593999997E+02  0.45594000000E+02  0.51100000000E-03 0. -1.
         11   -1    0    0    0    0 -0.00000000000E+00 -0.00000000000E+00 -0.45593999997E+02  0.45594000000E+02  0.51100000000E-03 0.  1.
    9900012    2    1    2    0    0  0.11028749372E+02  0.38057132162E+02  0.17710015355E+02  0.47787271146E+02  0.20000000465E+02 0.  0.
         12    1    1    2    0    0 -0.11028749372E+02 -0.38057132162E+02 -0.17710015355E+02  0.43400728854E+02  0.00000000000E+00 0. -1.
         11    1    3    3    0    0  0.15888830823E+01 -0.40704685303E-02 -0.13847282255E+01  0.21076144187E+01  0.51100000000E-03 0. -1.
        -11    1    3    3    0    0  0.62135071205E+01  0.24567525528E+02  0.48615205891E+01  0.25803204530E+02  0.51100000000E-03 0.  1.
         12    1    3    3    0    0  0.32263591695E+01  0.13493677103E+02  0.14233222991E+02  0.19876452198E+02  0.00000000000E+00 0. -1.
</event>
<event>
 7    1  0.2769403E-010  0.4778727E+02  0.7816164E-02  0.1312668E+00
        -11   -1    0    0    0    0  0.00000000000E+00  0.00000000000E+00  0.45593999997E+02  0.45594000000E+02  0.51100000000E-03 0.  1.
         11   -1    0    0    0    0 -0.00000000000E+00 -0.00000000000E+00 -0.45593999997E+02  0.45594000000E+02  0.51100000000E-03 0. -1.
    9900012    2    1    2    0    0 -0.12905888233E+02 -0.33735515495E+02  0.24061923396E+02  0.47787272882E+02  0.20000008379E+02 0.  0.
         12    1    1    2    0    0  0.12905888233E+02  0.33735515495E+02 -0.24061923396E+02  0.43400727118E+02  0.00000000000E+00 0. -1.
         11    1    3    3    0    0  0.80485129552E+00 -0.12946193004E+02  0.36021884923E+01  0.13462074918E+02  0.51100000000E-03 0. -1.
        -11    1    3    3    0    0 -0.20403264139E+01 -0.12645443327E+02  0.63945811600E+01  0.14316453377E+02  0.51100000000E-03 0.  1.
         12    1    3    3    0    0 -0.11670413115E+02 -0.81438791637E+01  0.14065153744E+02  0.20008744587E+02  0.00000000000E+00 0. -1.
</event>
<event>
 7    1  0.2769403E-010  0.4778727E+02  0.7816164E-02  0.1312668E+00
        -11   -1    0    0    0    0  0.00000000000E+00  0.00000000000E+00  0.45593999997E+02  0.45594000000E+02  0.51100000000E-03 0.  1.
         11   -1    0    0    0    0 -0.00000000000E+00 -0.00000000000E+00 -0.45593999997E+02  0.45594000000E+02  0.51100000000E-03 0. -1.
    9900012    2    1    2    0    0  0.32842077059E+02 -0.16512008625E+02  0.23073249058E+02  0.47787271014E+02  0.19999999862E+02 0.  0.
         12    1    1    2    0    0 -0.32842077059E+02  0.16512008625E+02 -0.23073249058E+02  0.43400728986E+02  0.00000000000E+00 0. -1.
         11    1    3    3    0    0  0.50042601185E+01  0.96827224211E-01 -0.38885777902E+00  0.50202794223E+01  0.51100000000E-03 0. -1.
        -11    1    3    3    0    0  0.27146527636E+02 -0.98855442944E+01  0.20271924009E+02  0.35293184215E+02  0.51100000000E-03 0.  1.
        -12    1    3    3    0    0  0.69128930435E+00 -0.67232915550E+01  0.31901828282E+01  0.74738073773E+01  0.00000000000E+00 0.  1.
</event>
<event>
 7    1  0.2769403E-010  0.4778721E+02  0.7816164E-02  0.1312668E+00
        -11   -1    0    0    0    0  0.00000000000E+00  0.00000000000E+00  0.45593999997E+02  0.45594000000E+02  0.51100000000E-03 0.  1.
         11   -1    0    0    0    0 -0.00000000000E+00 -0.00000000000E+00 -0.45593999997E+02  0.45594000000E+02  0.51100000000E-03 0. -1.
    9900012    2    1    2    0    0  0.15839239995E+02 -0.34005293937E+02  0.21826296671E+02  0.47787207776E+02  0.19999711530E+02 0.  0.
         12    1    1    2    0    0 -0.15839239995E+02  0.34005293937E+02 -0.21826296671E+02  0.43400792224E+02  0.00000000000E+00 0. -1.
         11    1    3    3    0    0  0.97220648975E+01 -0.16341568516E+02  0.14832761293E+02  0.24115891343E+02  0.51100000000E-03 0.  1.
        -11    1    3    3    0    0  0.97914864591E+01 -0.14916995855E+02  0.43102151366E+01  0.18356686172E+02  0.51100000000E-03 0. -1.
         12    1    3    3    0    0 -0.36743113618E+01 -0.27467295655E+01  0.26833202406E+01  0.53146302603E+01  0.00000000000E+00 0. -1.
</event>
<event>
 7    1  0.2769403E-010  0.4778728E+02  0.7816164E-02  0.1312668E+00
        -11   -1    0    0    0    0  0.00000000000E+00  0.00000000000E+00  0.45593999997E+02  0.45594000000E+02  0.51100000000E-03 0.  1.
         11   -1    0    0    0    0 -0.00000000000E+00 -0.00000000000E+00 -0.45593999997E+02  0.45594000000E+02  0.51100000000E-03 0. -1.
    9900012    2    1    2    0    0 -0.28278166760E+02  0.38384147589E+01  0.32699155176E+02  0.47787275439E+02  0.20000020038E+02 0.  0.
         12    1    1    2    0    0  0.28278166760E+02 -0.38384147589E+01 -0.32699155176E+02  0.43400724561E+02  0.00000000000E+00 0. -1.
         11    1    3    3    0    0 -0.42205102738E+01  0.35064108082E+01  0.74431459827E+01  0.92470560779E+01  0.51100000000E-03 0. -1.
        -11    1    3    3    0    0 -0.22291724330E+02 -0.33402870686E+01  0.25986701547E+02  0.34400394604E+02  0.51100000000E-03 0.  1.
         12    1    3    3    0    0 -0.17659321559E+01  0.36722910194E+01 -0.73069235387E+00  0.41398247579E+01  0.00000000000E+00 0. -1.
</event>
<event>
 7    1  0.2769403E-010  0.4778727E+02  0.7816164E-02  0.1312668E+00
        -11   -1    0    0    0    0  0.00000000000E+00  0.00000000000E+00  0.45593999997E+02  0.45594000000E+02  0.51100000000E-03 0. -1.
         11   -1    0    0    0    0 -0.00000000000E+00 -0.00000000000E+00 -0.45593999997E+02  0.45594000000E+02  0.51100000000E-03 0.  1.
    9900012    2    1    2    0    0 -0.31697752177E+02  0.28425215491E+02 -0.84191846267E+01  0.47787273756E+02  0.20000012362E+02 0.  0.
         12    1    1    2    0    0  0.31697752177E+02 -0.28425215491E+02  0.84191846267E+01  0.43400726244E+02  0.00000000000E+00 0. -1.
         11    1    3    3    0    0 -0.13247021193E+02  0.12930329067E+02 -0.68154753687E+01  0.19726319602E+02  0.51100000000E-03 0.  1.
        -11    1    3    3    0    0 -0.19230932984E+02  0.12778946378E+02  0.23416246092E+01  0.23208047312E+02  0.51100000000E-03 0. -1.
         12    1    3    3    0    0  0.78020200038E+00  0.27159400453E+01 -0.39453338672E+01  0.48529068417E+01  0.00000000000E+00 0. -1.
</event>
<event>
 7    1  0.2769403E-010  0.4778727E+02  0.7816164E-02  0.1312668E+00
        -11   -1    0    0    0    0  0.00000000000E+00  0.00000000000E+00  0.45593999997E+02  0.45594000000E+02  0.51100000000E-03 0.  1.
         11   -1    0    0    0    0 -0.00000000000E+00 -0.00000000000E+00 -0.45593999997E+02  0.45594000000E+02  0.51100000000E-03 0. -1.
    9900012    2    1    2    0    0  0.32012645928E+02  0.31638717725E+01  0.29134237142E+02  0.47787270078E+02  0.19999995594E+02 0.  0.
         12    1    1    2    0    0 -0.32012645928E+02 -0.31638717725E+01 -0.29134237142E+02  0.43400729922E+02  0.00000000000E+00 0. -1.
         11    1    3    3    0    0  0.86496967655E+01 -0.15216629994E+01  0.20372296162E+02  0.22184750699E+02  0.51100000000E-03 0. -1.
        -11    1    3    3    0    0  0.31295452059E+01  0.72806246071E+00  0.31174006068E-01  0.32132693977E+01  0.51100000000E-03 0.  1.
        -12    1    3    3    0    0  0.20233403956E+02  0.39574723112E+01  0.87307669741E+01  0.22389249981E+02  0.00000000000E+00 0.  1.
</event>
<event>
 7    1  0.2769403E-010  0.4778727E+02  0.7816164E-02  0.1312668E+00
        -11   -1    0    0    0    0  0.00000000000E+00  0.00000000000E+00  0.45593999997E+02  0.45594000000E+02  0.51100000000E-03 0. -1.
         11   -1    0    0    0    0 -0.00000000000E+00 -0.00000000000E+00 -0.45593999997E+02  0.45594000000E+02  0.51100000000E-03 0.  1.
    9900012    2    1    2    0    0  0.10231530031E+02 -0.40741750258E+02 -0.10910943731E+02  0.47787272887E+02  0.20000008402E+02 0.  0.
         12    1    1    2    0    0 -0.10231530031E+02  0.40741750258E+02  0.10910943731E+02  0.43400727113E+02  0.00000000000E+00 0. -1.
         11    1    3    3    0    0  0.57520883321E+01 -0.10352823497E+02  0.15405565809E+01  0.11943231949E+02  0.51100000000E-03 0. -1.
        -11    1    3    3    0    0  0.18702932258E+01 -0.16926118297E+02  0.42282694805E+00  0.17034384645E+02  0.51100000000E-03 0.  1.
        -12    1    3    3    0    0  0.26091484727E+01 -0.13462808464E+02 -0.12874327260E+02  0.18809656293E+02  0.00000000000E+00 0.  1.
</event>
<event>
 7    1  0.2769403E-010  0.4778727E+02  0.7816164E-02  0.1312668E+00
        -11   -1    0    0    0    0  0.00000000000E+00  0.00000000000E+00  0.45593999997E+02  0.45594000000E+02  0.51100000000E-03 0. -1.
         11   -1    0    0    0    0 -0.00000000000E+00 -0.00000000000E+00 -0.45593999997E+02  0.45594000000E+02  0.51100000000E-03 0.  1.
    9900012    2    1    2    0    0  0.42299216278E+02 -0.71763928763E+01 -0.65497248363E+01  0.47787271805E+02  0.20000003466E+02 0.  0.
         12    1    1    2    0    0 -0.42299216278E+02  0.71763928763E+01  0.65497248363E+01  0.43400728195E+02  0.00000000000E+00 0. -1.
         11    1    3    3    0    0  0.48486905005E+01  0.85307162921E+00  0.17022818068E+01  0.52091548629E+01  0.51100000000E-03 0. -1.
        -11    1    3    3    0    0 -0.29536895643E+00  0.22852407916E+01  0.75541826868E+00  0.24249175899E+01  0.51100000000E-03 0.  1.
         12    1    3    3    0    0  0.37745894734E+02 -0.10314705297E+02 -0.90074249118E+01  0.40153199352E+02  0.00000000000E+00 0. -1.
</event>
<event>
 7    1  0.2769403E-010  0.4778726E+02  0.7816164E-02  0.1312668E+00
        -11   -1    0    0    0    0  0.00000000000E+00  0.00000000000E+00  0.45593999997E+02  0.45594000000E+02  0.51100000000E-03 0. -1.
         11   -1    0    0    0    0 -0.00000000000E+00 -0.00000000000E+00 -0.45593999997E+02  0.45594000000E+02  0.51100000000E-03 0.  1.
    9900012    2    1    2    0    0 -0.20949247823E+02 -0.32873990839E+02 -0.19080193942E+02  0.47787262000E+02  0.19999958764E+02 0.  0.
         12    1    1    2    0    0  0.20949247823E+02  0.32873990839E+02  0.19080193942E+02  0.43400738000E+02  0.00000000000E+00 0. -1.
         11    1    3    3    0    0  0.87628483023E+00 -0.66630012268E+01 -0.51388813141E+01  0.84599977467E+01  0.51100000000E-03 0. -1.
        -11    1    3    3    0    0 -0.20536286249E+01 -0.12601527582E+02 -0.50580806254E+01  0.13733173989E+02  0.51100000000E-03 0.  1.
        -12    1    3    3    0    0 -0.19771904029E+02 -0.13609462030E+02 -0.88832320022E+01  0.25594090265E+02  0.00000000000E+00 0.  1.
</event>
<event>
 7    1  0.2769403E-010  0.4778727E+02  0.7816164E-02  0.1312668E+00
        -11   -1    0    0    0    0  0.00000000000E+00  0.00000000000E+00  0.45593999997E+02  0.45594000000E+02  0.51100000000E-03 0. -1.
         11   -1    0    0    0    0 -0.00000000000E+00 -0.00000000000E+00 -0.45593999997E+02  0.45594000000E+02  0.51100000000E-03 0.  1.
    9900012    2    1    2    0    0 -0.26735489625E+02  0.15971308953E+02 -0.30228362404E+02  0.47787274099E+02  0.20000013926E+02 0.  0.
         12    1    1    2    0    0  0.26735489625E+02 -0.15971308953E+02  0.30228362404E+02  0.43400725901E+02  0.00000000000E+00 0. -1.
         11    1    3    3    0    0  0.19175228568E+00  0.39853714836E+01 -0.35672842575E+01  0.53521464887E+01  0.51100000000E-03 0. -1.
        -11    1    3    3    0    0 -0.16658693135E+02  0.12456657716E+02 -0.24112000518E+02  0.31844449244E+02  0.51100000000E-03 0.  1.
        -12    1    3    3    0    0 -0.10268548775E+02 -0.47072024667E+00 -0.25490776281E+01  0.10590678366E+02  0.00000000000E+00 0.  1.
</event>
<event>
 7    1  0.2769403E-010  0.4778727E+02  0.7816164E-02  0.1312668E+00
        -11   -1    0    0    0    0  0.00000000000E+00  0.00000000000E+00  0.45593999997E+02  0.45594000000E+02  0.51100000000E-03 0. -1.
         11   -1    0    0    0    0 -0.00000000000E+00 -0.00000000000E+00 -0.45593999997E+02  0.45594000000E+02  0.51100000000E-03 0.  1.
    9900012    2    1    2    0    0  0.33761367493E+01  0.28544279427E+02 -0.32518445907E+02  0.47787268306E+02  0.19999987516E+02 0.  0.
         12    1    1    2    0    0 -0.33761367493E+01 -0.28544279427E+02  0.32518445907E+02  0.43400731694E+02  0.00000000000E+00 0. -1.
         11    1    3    3    0    0  0.36130163752E+01  0.54940463068E+01 -0.15086577407E+02  0.16457316011E+02  0.51100000000E-03 0.  1.
        -11    1    3    3    0    0 -0.40883983355E+01  0.98684740818E+01 -0.13156664761E+02  0.16946964612E+02  0.51100000000E-03 0. -1.
        -12    1    3    3    0    0  0.38515187096E+01  0.13181759038E+02 -0.42752037387E+01  0.14382987684E+02  0.00000000000E+00 0.  1.
</event>
<event>
 7    1  0.2769403E-010  0.4778727E+02  0.7816164E-02  0.1312668E+00
        -11   -1    0    0    0    0  0.00000000000E+00  0.00000000000E+00  0.45593999997E+02  0.45594000000E+02  0.51100000000E-03 0.  1.
         11   -1    0    0    0    0 -0.00000000000E+00 -0.00000000000E+00 -0.45593999997E+02  0.45594000000E+02  0.51100000000E-03 0. -1.
    9900012    2    1    2    0    0 -0.21010793834E+02 -0.30945035883E+02  0.22013047750E+02  0.47787274492E+02  0.20000015720E+02 0.  0.
         12    1    1    2    0    0  0.21010793834E+02  0.30945035883E+02 -0.22013047750E+02  0.43400725508E+02  0.00000000000E+00 0. -1.
         11    1    3    3    0    0  0.67440288254E-01 -0.86655161427E+01  0.56897611129E+01  0.10366730439E+02  0.51100000000E-03 0.  1.
        -11    1    3    3    0    0  0.16577874019E+01 -0.36835041367E+01  0.53759318200E+00  0.40749807957E+01  0.51100000000E-03 0. -1.
        -12    1    3    3    0    0 -0.22736021524E+02 -0.18596015604E+02  0.15785693455E+02  0.33345563257E+02  0.00000000000E+00 0.  1.
</event>
<event>
 7    1  0.2769403E-010  0.4778727E+02  0.7816164E-02  0.1312668E+00
        -11   -1    0    0    0    0  0.00000000000E+00  0.00000000000E+00  0.45593999997E+02  0.45594000000E+02  0.51100000000E-03 0.  1.
         11   -1    0    0    0    0 -0.00000000000E+00 -0.00000000000E+00 -0.45593999997E+02  0.45594000000E+02  0.51100000000E-03 0. -1.
    9900012    2    1    2    0    0 -0.39588492816E+01  0.36164863444E+01  0.43068223287E+02  0.47787270533E+02  0.19999997670E+02 0.  0.
         12    1    1    2    0    0  0.39588492816E+01 -0.36164863444E+01 -0.43068223287E+02  0.43400729467E+02  0.00000000000E+00 0. -1.
         11    1    3    3    0    0 -0.29737330588E+01  0.80566437338E+00  0.70958303036E+01  0.77358251885E+01  0.51100000000E-03 0. -1.
        -11    1    3    3    0    0  0.42418774147E+01  0.87340463703E+01  0.19971572619E+02  0.22206773812E+02  0.51100000000E-03 0.  1.
        -12    1    3    3    0    0 -0.52269936375E+01 -0.59232243993E+01  0.16000820365E+02  0.17844671533E+02  0.00000000000E+00 0.  1.
</event>
<event>
 7    1  0.2769403E-010  0.4778727E+02  0.7816164E-02  0.1312668E+00
        -11   -1    0    0    0    0  0.00000000000E+00  0.00000000000E+00  0.45593999997E+02  0.45594000000E+02  0.51100000000E-03 0. -1.
         11   -1    0    0    0    0 -0.00000000000E+00 -0.00000000000E+00 -0.45593999997E+02  0.45594000000E+02  0.51100000000E-03 0.  1.
    9900012    2    1    2    0    0 -0.10379883257E+02  0.71630773944E+01 -0.41527958479E+02  0.47787274319E+02  0.20000014930E+02 0.  0.
         12    1    1    2    0    0  0.10379883257E+02 -0.71630773944E+01  0.41527958479E+02  0.43400725681E+02  0.00000000000E+00 0. -1.
         11    1    3    3    0    0 -0.73989585930E+01  0.65716613125E+01 -0.79664197791E+01  0.12704139681E+02  0.51100000000E-03 0. -1.
        -11    1    3    3    0    0 -0.61480201464E+01 -0.11663092524E+01 -0.16627500095E+02  0.17766040320E+02  0.51100000000E-03 0.  1.
        -12    1    3    3    0    0  0.31670954825E+01  0.17577253343E+01 -0.16934038605E+02  0.17317094318E+02  0.00000000000E+00 0.  1.
</event>
<event>
 7    1  0.2769403E-010  0.4778726E+02  0.7816164E-02  0.1312668E+00
        -11   -1    0    0    0    0  0.00000000000E+00  0.00000000000E+00  0.45593999997E+02  0.45594000000E+02  0.51100000000E-03 0. -1.
         11   -1    0    0    0    0 -0.00000000000E+00 -0.00000000000E+00 -0.45593999997E+02  0.45594000000E+02  0.51100000000E-03 0.  1.
    9900012    2    1    2    0    0  0.18581099992E+02 -0.15277026963E+02 -0.36124494796E+02  0.47787263209E+02  0.19999964275E+02 0.  0.
         12    1    1    2    0    0 -0.18581099992E+02  0.15277026963E+02  0.36124494796E+02  0.43400736791E+02  0.00000000000E+00 0. -1.
         11    1    3    3    0    0  0.10974369770E+02 -0.15253412293E+01 -0.12593440503E+02  0.16773735472E+02  0.51100000000E-03 0. -1.
        -11    1    3    3    0    0 -0.43762808635E+00  0.22487857188E+01 -0.25203101696E+01  0.34059534881E+01  0.51100000000E-03 0.  1.
        -12    1    3    3    0    0  0.80443583083E+01 -0.16000471453E+02 -0.21010744123E+02  0.27607574249E+02  0.00000000000E+00 0.  1.
</event>
<event>
 7    1  0.2769403E-010  0.4778727E+02  0.7816164E-02  0.1312668E+00
        -11   -1    0    0    0    0  0.00000000000E+00  0.00000000000E+00  0.45593999997E+02  0.45594000000E+02  0.51100000000E-03 0.  1.
         11   -1    0    0    0    0 -0.00000000000E+00 -0.00000000000E+00 -0.45593999997E+02  0.45594000000E+02  0.51100000000E-03 0. -1.
    9900012    2    1    2    0    0 -0.18850717753E+01 -0.36377728666E+02  0.23595141426E+02  0.47787270313E+02  0.19999996663E+02 0.  0.
         12    1    1    2    0    0  0.18850717753E+01  0.36377728666E+02 -0.23595141426E+02  0.43400729687E+02  0.00000000000E+00 0. -1.
         11    1    3    3    0    0  0.11526086482E+00 -0.11919822806E+02  0.27418624235E+01  0.12231650363E+02  0.51100000000E-03 0. -1.
        -11    1    3    3    0    0 -0.41203922189E+01 -0.18918055129E+02  0.71779921581E+01  0.20649310244E+02  0.51100000000E-03 0.  1.
        -12    1    3    3    0    0  0.21200595787E+01 -0.55398507313E+01  0.13675286845E+02  0.14906309705E+02  0.00000000000E+00 0.  1.
</event>
<event>
 7    1  0.2769403E-010  0.4778727E+02  0.7816164E-02  0.1312668E+00
        -11   -1    0    0    0    0  0.00000000000E+00  0.00000000000E+00  0.45593999997E+02  0.45594000000E+02  0.51100000000E-03 0.  1.
         11   -1    0    0    0    0 -0.00000000000E+00 -0.00000000000E+00 -0.45593999997E+02  0.45594000000E+02  0.51100000000E-03 0. -1.
    9900012    2    1    2    0    0  0.28216452860E+02  0.67454508594E+01  0.32279312667E+02  0.47787270219E+02  0.19999996235E+02 0.  0.
         12    1    1    2    0    0 -0.28216452860E+02 -0.67454508594E+01 -0.32279312667E+02  0.43400729781E+02  0.00000000000E+00 0. -1.
         11    1    3    3    0    0  0.37533925426E+01 -0.37000640246E+01  0.12612512014E+01  0.54193342966E+01  0.51100000000E-03 0. -1.
        -11    1    3    3    0    0  0.12544498988E+01 -0.16923929410E+01  0.51126846648E+01  0.55296820124E+01  0.51100000000E-03 0.  1.
        -12    1    3    3    0    0  0.23208610419E+02  0.12137907825E+02  0.25905376801E+02  0.36838253910E+02  0.00000000000E+00 0.  1.
</event>
<event>
 7    1  0.2769403E-010  0.4778730E+02  0.7816164E-02  0.1312668E+00
        -11   -1    0    0    0    0  0.00000000000E+00  0.00000000000E+00  0.45593999997E+02  0.45594000000E+02  0.51100000000E-03 0.  1.
         11   -1    0    0    0    0 -0.00000000000E+00 -0.00000000000E+00 -0.45593999997E+02  0.45594000000E+02  0.51100000000E-03 0. -1.
    9900012    2    1    2    0    0 -0.27476667573E+02  0.63204464685E+01  0.32995538220E+02  0.47787299004E+02  0.20000127480E+02 0.  0.
         12    1    1    2    0    0  0.27476667573E+02 -0.63204464685E+01 -0.32995538220E+02  0.43400700996E+02  0.00000000000E+00 0. -1.
         11    1    3    3    0    0 -0.10648351489E+02  0.10113336453E+02  0.89509830720E+01  0.17198461032E+02  0.51100000000E-03 0.  1.
        -11    1    3    3    0    0 -0.88285833742E+01  0.19024320664E+01  0.10332509888E+02  0.13723115281E+02  0.51100000000E-03 0. -1.
         12    1    3    3    0    0 -0.79997327094E+01 -0.56953220509E+01  0.13712045260E+02  0.16865722691E+02  0.00000000000E+00 0. -1.
</event>
<event>
 7    1  0.2769403E-010  0.4778727E+02  0.7816164E-02  0.1312668E+00
        -11   -1    0    0    0    0  0.00000000000E+00  0.00000000000E+00  0.45593999997E+02  0.45594000000E+02  0.51100000000E-03 0. -1.
         11   -1    0    0    0    0 -0.00000000000E+00 -0.00000000000E+00 -0.45593999997E+02  0.45594000000E+02  0.51100000000E-03 0.  1.
    9900012    2    1    2    0    0  0.33092444424E+02 -0.27147100488E+02  0.71797214669E+01  0.47787270246E+02  0.19999996360E+02 0.  0.
         12    1    1    2    0    0 -0.33092444424E+02  0.27147100488E+02 -0.71797214669E+01  0.43400729754E+02  0.00000000000E+00 0. -1.
         11    1    3    3    0    0  0.49805772336E-01 -0.13299353148E+01  0.44693307173E+01  0.46632741586E+01  0.51100000000E-03 0. -1.
        -11    1    3    3    0    0  0.12083664799E+02 -0.49561991101E+01  0.35718773248E+01  0.13540205777E+02  0.51100000000E-03 0.  1.
        -12    1    3    3    0    0  0.20958973853E+02 -0.20860966063E+02 -0.86148657521E+00  0.29583790311E+02  0.00000000000E+00 0.  1.
</event>
<event>
 7    1  0.2769403E-010  0.4778726E+02  0.7816164E-02  0.1312668E+00
        -11   -1    0    0    0    0  0.00000000000E+00  0.00000000000E+00  0.45593999997E+02  0.45594000000E+02  0.51100000000E-03 0.  1.
         11   -1    0    0    0    0 -0.00000000000E+00 -0.00000000000E+00 -0.45593999997E+02  0.45594000000E+02  0.51100000000E-03 0. -1.
    9900012    2    1    2    0    0 -0.24334339821E+02  0.10440698049E+02  0.34386854806E+02  0.47787262060E+02  0.19999959038E+02 0.  0.
         12    1    1    2    0    0  0.24334339821E+02 -0.10440698049E+02 -0.34386854806E+02  0.43400737940E+02  0.00000000000E+00 0. -1.
         11    1    3    3    0    0  0.52528049523E+00  0.23013993532E+01  0.73163425017E+00  0.24713655170E+01  0.51100000000E-03 0. -1.
        -11    1    3    3    0    0 -0.12890242658E+02  0.11554399954E+02  0.15091766265E+02  0.22965711906E+02  0.51100000000E-03 0.  1.
        -12    1    3    3    0    0 -0.11969377658E+02 -0.34151012589E+01  0.18563454291E+02  0.22350184638E+02  0.00000000000E+00 0.  1.
</event>
<event>
 7    1  0.2769403E-010  0.4778727E+02  0.7816164E-02  0.1312668E+00
        -11   -1    0    0    0    0  0.00000000000E+00  0.00000000000E+00  0.45593999997E+02  0.45594000000E+02  0.51100000000E-03 0.  1.
         11   -1    0    0    0    0 -0.00000000000E+00 -0.00000000000E+00 -0.45593999997E+02  0.45594000000E+02  0.51100000000E-03 0. -1.
    9900012    2    1    2    0    0  0.35320704453E+02  0.24694682684E+02  0.51228482098E+01  0.47787273166E+02  0.20000009675E+02 0.  0.
         12    1    1    2    0    0 -0.35320704453E+02 -0.24694682684E+02 -0.51228482098E+01  0.43400726834E+02  0.00000000000E+00 0. -1.
         11    1    3    3    0    0  0.73943177297E+01  0.24237792882E+01 -0.17443677214E+01  0.79745507544E+01  0.51100000000E-03 0. -1.
        -11    1    3    3    0    0  0.25658416644E+02  0.14230687080E+02  0.98384299012E+01  0.30946106421E+02  0.51100000000E-03 0.  1.
         12    1    3    3    0    0  0.22679700798E+01  0.80402163156E+01 -0.29712139700E+01  0.88666159915E+01  0.00000000000E+00 0. -1.
</event>
<event>
 7    1  0.2842094E-010  0.4778727E+02  0.7816164E-02  0.1312668E+00
        -11   -1    0    0    0    0  0.00000000000E+00  0.00000000000E+00  0.45593999997E+02  0.45594000000E+02  0.51100000000E-03 0. -1.
         11   -1    0    0    0    0 -0.00000000000E+00 -0.00000000000E+00 -0.45593999997E+02  0.45594000000E+02  0.51100000000E-03 0.  1.
    9900012    2    1    2    0    0 -0.26909539004E+02 -0.44403300351E+00 -0.34048539331E+02  0.47787268609E+02  0.19999988897E+02 0.  0.
         12    1    1    2    0    0  0.26909539004E+02  0.44403300351E+00  0.34048539331E+02  0.43400731391E+02  0.00000000000E+00 0. -1.
         11    1    3    3    0    0 -0.79979279637E+01  0.10888721922E+00 -0.32193681687E+01  0.86222409967E+01  0.51100000000E-03 0. -1.
        -11    1    3    3    0    0 -0.21317160771E+02 -0.15802060512E+01 -0.28738435229E+02  0.35816421571E+02  0.51100000000E-03 0.  1.
        -12    1    3    3    0    0  0.24055497306E+01  0.10272858284E+01 -0.20907359331E+01  0.33486060416E+01  0.00000000000E+00 0.  1.
</event>
<event>
 7    1  0.2769403E-010  0.4778727E+02  0.7816164E-02  0.1312668E+00
        -11   -1    0    0    0    0  0.00000000000E+00  0.00000000000E+00  0.45593999997E+02  0.45594000000E+02  0.51100000000E-03 0.  1.
         11   -1    0    0    0    0 -0.00000000000E+00 -0.00000000000E+00 -0.45593999997E+02  0.45594000000E+02  0.51100000000E-03 0. -1.
    9900012    2    1    2    0    0  0.76988256057E+01 -0.26609445280E+02  0.33410911595E+02  0.47787268354E+02  0.19999987733E+02 0.  0.
         12    1    1    2    0    0 -0.76988256057E+01  0.26609445280E+02 -0.33410911595E+02  0.43400731646E+02  0.00000000000E+00 0. -1.
         11    1    3    3    0    0 -0.26482917838E+01 -0.52635430847E+01 -0.64687773536E+00  0.59276290575E+01  0.51100000000E-03 0. -1.
        -11    1    3    3    0    0  0.14340534847E+00 -0.47833877445E+01  0.83064179761E+01  0.95863414952E+01  0.51100000000E-03 0.  1.
        -12    1    3    3    0    0  0.10203712041E+02 -0.16562514451E+02  0.25751371354E+02  0.32273297801E+02  0.00000000000E+00 0.  1.
</event>
<event>
 7    1  0.2769403E-010  0.4778727E+02  0.7816164E-02  0.1312668E+00
        -11   -1    0    0    0    0  0.00000000000E+00  0.00000000000E+00  0.45593999997E+02  0.45594000000E+02  0.51100000000E-03 0. -1.
         11   -1    0    0    0    0 -0.00000000000E+00 -0.00000000000E+00 -0.45593999997E+02  0.45594000000E+02  0.51100000000E-03 0.  1.
    9900012    2    1    2    0    0 -0.11749482939E+02 -0.32341473449E+02 -0.26449990845E+02  0.47787271091E+02  0.20000000211E+02 0.  0.
         12    1    1    2    0    0  0.11749482939E+02  0.32341473449E+02  0.26449990845E+02  0.43400728909E+02  0.00000000000E+00 0. -1.
         11    1    3    3    0    0  0.15937808884E+01 -0.23278330020E+02 -0.14368374385E+02  0.27402024903E+02  0.51100000000E-03 0. -1.
        -11    1    3    3    0    0 -0.65610857583E+01 -0.41720813331E+01 -0.39482461639E+01  0.87202498249E+01  0.51100000000E-03 0.  1.
        -12    1    3    3    0    0 -0.67821780690E+01 -0.48910620959E+01 -0.81333702955E+01  0.11664996363E+02  0.00000000000E+00 0.  1.
</event>
<event>
 7    1  0.2769403E-010  0.4778727E+02  0.7816164E-02  0.1312668E+00
        -11   -1    0    0    0    0  0.00000000000E+00  0.00000000000E+00  0.45593999997E+02  0.45594000000E+02  0.51100000000E-03 0.  1.
         11   -1    0    0    0    0 -0.00000000000E+00 -0.00000000000E+00 -0.45593999997E+02  0.45594000000E+02  0.51100000000E-03 0. -1.
    9900012    2    1    2    0    0 -0.14084500482E+02 -0.30269275550E+02  0.27731226550E+02  0.47787272793E+02  0.20000007973E+02 0.  0.
         12    1    1    2    0    0  0.14084500482E+02  0.30269275550E+02 -0.27731226550E+02  0.43400727207E+02  0.00000000000E+00 0. -1.
         11    1    3    3    0    0 -0.87094475924E+00  0.62911931825E+00 -0.33471880073E+00  0.11253323184E+01  0.51100000000E-03 0. -1.
        -11    1    3    3    0    0  0.10877743014E+01 -0.15623659781E+02  0.16516962754E+02  0.22761635635E+02  0.51100000000E-03 0.  1.
        -12    1    3    3    0    0 -0.14301330024E+02 -0.15274735087E+02  0.11548982597E+02  0.23900304840E+02  0.00000000000E+00 0.  1.
</event>
<event>
 7    1  0.2769403E-010  0.4778727E+02  0.7816164E-02  0.1312668E+00
        -11   -1    0    0    0    0  0.00000000000E+00  0.00000000000E+00  0.45593999997E+02  0.45594000000E+02  0.51100000000E-03 0.  1.
         11   -1    0    0    0    0 -0.00000000000E+00 -0.00000000000E+00 -0.45593999997E+02  0.45594000000E+02  0.51100000000E-03 0. -1.
    9900012    2    1    2    0    0  0.14910298888E+02  0.15316791008E+02  0.37771709451E+02  0.47787272649E+02  0.20000007315E+02 0.  0.
         12    1    1    2    0    0 -0.14910298888E+02 -0.15316791008E+02 -0.37771709451E+02  0.43400727351E+02  0.00000000000E+00 0. -1.
         11    1    3    3    0    0 -0.22123428439E+01 -0.84200320398E+00  0.47942988040E+01  0.53468431375E+01  0.51100000000E-03 0. -1.
        -11    1    3    3    0    0  0.58682769347E+01  0.77275410413E+01  0.23657601794E+02  0.25570171835E+02  0.51100000000E-03 0.  1.
        -12    1    3    3    0    0  0.11254364797E+02  0.84312531708E+01  0.93198088530E+01  0.16870257677E+02  0.00000000000E+00 0.  1.
</event>
<event>
 7    1  0.2769403E-010  0.4778727E+02  0.7816164E-02  0.1312668E+00
        -11   -1    0    0    0    0  0.00000000000E+00  0.00000000000E+00  0.45593999997E+02  0.45594000000E+02  0.51100000000E-03 0. -1.
         11   -1    0    0    0    0 -0.00000000000E+00 -0.00000000000E+00 -0.45593999997E+02  0.45594000000E+02  0.51100000000E-03 0.  1.
    9900012    2    1    2    0    0 -0.77865452292E+01 -0.89040116835E+01 -0.41757772189E+02  0.47787271332E+02  0.20000001313E+02 0.  0.
         12    1    1    2    0    0  0.77865452292E+01  0.89040116835E+01  0.41757772189E+02  0.43400728668E+02  0.00000000000E+00 0. -1.
         11    1    3    3    0    0  0.84615526934E+00  0.38861027831E+01 -0.59029373465E+01  0.71177554860E+01  0.51100000000E-03 0. -1.
        -11    1    3    3    0    0  0.12894006579E+01  0.12475873163E+01 -0.19124937684E+01  0.26223388117E+01  0.51100000000E-03 0.  1.
        -12    1    3    3    0    0 -0.99221011563E+01 -0.14037701783E+02 -0.33942341074E+02  0.38047177035E+02  0.00000000000E+00 0.  1.
</event>
<event>
 7    1  0.2769403E-010  0.4778727E+02  0.7816164E-02  0.1312668E+00
        -11   -1    0    0    0    0  0.00000000000E+00  0.00000000000E+00  0.45593999997E+02  0.45594000000E+02  0.51100000000E-03 0. -1.
         11   -1    0    0    0    0 -0.00000000000E+00 -0.00000000000E+00 -0.45593999997E+02  0.45594000000E+02  0.51100000000E-03 0.  1.
    9900012    2    1    2    0    0 -0.24153620353E+02  0.25266228176E+02  0.25726323090E+02  0.47787270028E+02  0.19999995367E+02 0.  0.
         12    1    1    2    0    0  0.24153620353E+02 -0.25266228176E+02 -0.25726323090E+02  0.43400729972E+02  0.00000000000E+00 0. -1.
         11    1    3    3    0    0 -0.33228689377E+01  0.25114341095E+01 -0.83990813101E+00  0.42490240283E+01  0.51100000000E-03 0. -1.
        -11    1    3    3    0    0  0.18118621680E+00  0.51043636171E+01 -0.32405960988E+00  0.51178483050E+01  0.51100000000E-03 0.  1.
         12    1    3    3    0    0 -0.21011937632E+02  0.17650430449E+02  0.26890290831E+02  0.38420397695E+02  0.00000000000E+00 0. -1.
</event>
<event>
 7    1  0.2769403E-010  0.4778727E+02  0.7816164E-02  0.1312668E+00
        -11   -1    0    0    0    0  0.00000000000E+00  0.00000000000E+00  0.45593999997E+02  0.45594000000E+02  0.51100000000E-03 0. -1.
         11   -1    0    0    0    0 -0.00000000000E+00 -0.00000000000E+00 -0.45593999997E+02  0.45594000000E+02  0.51100000000E-03 0.  1.
    9900012    2    1    2    0    0  0.39307223221E+02 -0.93688331943E+01 -0.15836362399E+02  0.47787271817E+02  0.20000003523E+02 0.  0.
         12    1    1    2    0    0 -0.39307223221E+02  0.93688331943E+01  0.15836362399E+02  0.43400728183E+02  0.00000000000E+00 0. -1.
         11    1    3    3    0    0  0.64191718206E+00 -0.20789037275E+01  0.30409593820E+01  0.37391620186E+01  0.51100000000E-03 0. -1.
        -11    1    3    3    0    0  0.13594161730E+02 -0.37985960716E+01 -0.39322332425E+01  0.14652406758E+02  0.51100000000E-03 0.  1.
         12    1    3    3    0    0  0.25071144308E+02 -0.34913333952E+01 -0.14945088539E+02  0.29395703040E+02  0.00000000000E+00 0. -1.
</event>
<event>
 7    1  0.2769403E-010  0.4778727E+02  0.7816164E-02  0.1312668E+00
        -11   -1    0    0    0    0  0.00000000000E+00  0.00000000000E+00  0.45593999997E+02  0.45594000000E+02  0.51100000000E-03 0. -1.
         11   -1    0    0    0    0 -0.00000000000E+00 -0.00000000000E+00 -0.45593999997E+02  0.45594000000E+02  0.51100000000E-03 0.  1.
    9900012    2    1    2    0    0  0.37822904510E+01 -0.41468473073E+02 -0.12234526282E+02  0.47787267133E+02  0.19999982167E+02 0.  0.
         12    1    1    2    0    0 -0.37822904510E+01  0.41468473073E+02  0.12234526282E+02  0.43400732867E+02  0.00000000000E+00 0. -1.
         11    1    3    3    0    0  0.21941885178E+00 -0.25606360257E+02 -0.48696537147E+01  0.26066211036E+02  0.51100000000E-03 0. -1.
        -11    1    3    3    0    0  0.21174263120E+01 -0.14750324914E+02 -0.81690405152E+00  0.14923904039E+02  0.51100000000E-03 0.  1.
         12    1    3    3    0    0  0.14454452872E+01 -0.11117879016E+01 -0.65479685159E+01  0.67971520582E+01  0.00000000000E+00 0. -1.
</event>
<event>
 7    1  0.2769403E-010  0.4778727E+02  0.7816164E-02  0.1312668E+00
        -11   -1    0    0    0    0  0.00000000000E+00  0.00000000000E+00  0.45593999997E+02  0.45594000000E+02  0.51100000000E-03 0.  1.
         11   -1    0    0    0    0 -0.00000000000E+00 -0.00000000000E+00 -0.45593999997E+02  0.45594000000E+02  0.51100000000E-03 0. -1.
    9900012    2    1    2    0    0 -0.14044885375E+01 -0.31662017598E+02  0.29650758010E+02  0.47787269626E+02  0.19999993531E+02 0.  0.
         12    1    1    2    0    0  0.14044885375E+01  0.31662017598E+02 -0.29650758010E+02  0.43400730374E+02  0.00000000000E+00 0. -1.
         11    1    3    3    0    0  0.10185724764E+00 -0.14178659857E+01  0.83012020621E+01  0.84220350741E+01  0.51100000000E-03 0. -1.
        -11    1    3    3    0    0 -0.70484334778E+01 -0.11175202171E+02  0.82877007783E+01  0.15596523411E+02  0.51100000000E-03 0.  1.
         12    1    3    3    0    0  0.55420876926E+01 -0.19068949442E+02  0.13061855170E+02  0.23768711141E+02  0.00000000000E+00 0. -1.
</event>
<event>
 7    1  0.2769403E-010  0.4778727E+02  0.7816164E-02  0.1312668E+00
        -11   -1    0    0    0    0  0.00000000000E+00  0.00000000000E+00  0.45593999997E+02  0.45594000000E+02  0.51100000000E-03 0. -1.
         11   -1    0    0    0    0 -0.00000000000E+00 -0.00000000000E+00 -0.45593999997E+02  0.45594000000E+02  0.51100000000E-03 0.  1.
    9900012    2    1    2    0    0  0.40907094237E+02  0.14394200547E+02 -0.17435706478E+01  0.47787269512E+02  0.19999993013E+02 0.  0.
         12    1    1    2    0    0 -0.40907094237E+02 -0.14394200547E+02  0.17435706478E+01  0.43400730488E+02  0.00000000000E+00 0. -1.
         11    1    3    3    0    0  0.24245019794E+01  0.65452229075E+00 -0.25762988359E+01  0.35977667003E+01  0.51100000000E-03 0. -1.
        -11    1    3    3    0    0  0.35857190834E+02  0.12715631226E+02 -0.43472297987E+01  0.38292607892E+02  0.51100000000E-03 0.  1.
         12    1    3    3    0    0  0.26254014239E+01  0.10240470301E+01  0.51799579867E+01  0.58968949202E+01  0.00000000000E+00 0. -1.
</event>
<event>
 7    1  0.2769403E-010  0.4778727E+02  0.7816164E-02  0.1312668E+00
        -11   -1    0    0    0    0  0.00000000000E+00  0.00000000000E+00  0.45593999997E+02  0.45594000000E+02  0.51100000000E-03 0. -1.
         11   -1    0    0    0    0 -0.00000000000E+00 -0.00000000000E+00 -0.45593999997E+02  0.45594000000E+02  0.51100000000E-03 0.  1.
    9900012    2    1    2    0    0  0.24740795095E+02  0.27051000674E+02 -0.23232729064E+02  0.47787270983E+02  0.19999999722E+02 0.  0.
         12    1    1    2    0    0 -0.24740795095E+02 -0.27051000674E+02  0.23232729064E+02  0.43400729017E+02  0.00000000000E+00 0. -1.
         11    1    3    3    0    0  0.12442308221E+02  0.93859956873E+01 -0.17206572765E+02  0.23215815633E+02  0.51100000000E-03 0. -1.
        -11    1    3    3    0    0  0.11437431203E+02  0.15460328273E+02 -0.86072556008E+01  0.21069443089E+02  0.51100000000E-03 0.  1.
         12    1    3    3    0    0  0.86105567084E+00  0.22046767137E+01  0.25810993015E+01  0.35020122622E+01  0.00000000000E+00 0. -1.
</event>
<event>
 7    1  0.2769403E-010  0.4778727E+02  0.7816164E-02  0.1312668E+00
        -11   -1    0    0    0    0  0.00000000000E+00  0.00000000000E+00  0.45593999997E+02  0.45594000000E+02  0.51100000000E-03 0.  1.
         11   -1    0    0    0    0 -0.00000000000E+00 -0.00000000000E+00 -0.45593999997E+02  0.45594000000E+02  0.51100000000E-03 0. -1.
    9900012    2    1    2    0    0 -0.26413517108E+02  0.26172507060E+02  0.22381892610E+02  0.47787272718E+02  0.20000007632E+02 0.  0.
         12    1    1    2    0    0  0.26413517108E+02 -0.26172507060E+02 -0.22381892610E+02  0.43400727282E+02  0.00000000000E+00 0. -1.
         11    1    3    3    0    0 -0.11024067778E+01 -0.21878296452E+01  0.31329158878E+00  0.24698281602E+01  0.51100000000E-03 0. -1.
        -11    1    3    3    0    0 -0.11851656878E+02  0.62820946186E+01  0.49063638504E+01  0.14282818001E+02  0.51100000000E-03 0.  1.
        -12    1    3    3    0    0 -0.13459453451E+02  0.22078242086E+02  0.17162237171E+02  0.31034626557E+02  0.00000000000E+00 0.  1.
</event>
<event>
 7    1  0.2769403E-010  0.4778727E+02  0.7816164E-02  0.1312668E+00
        -11   -1    0    0    0    0  0.00000000000E+00  0.00000000000E+00  0.45593999997E+02  0.45594000000E+02  0.51100000000E-03 0.  1.
         11   -1    0    0    0    0 -0.00000000000E+00 -0.00000000000E+00 -0.45593999997E+02  0.45594000000E+02  0.51100000000E-03 0. -1.
    9900012    2    1    2    0    0 -0.14374816730E+02 -0.40948805516E+02 -0.42793533817E+00  0.47787272381E+02  0.20000006094E+02 0.  0.
         12    1    1    2    0    0  0.14374816730E+02  0.40948805516E+02  0.42793533817E+00  0.43400727619E+02  0.00000000000E+00 0. -1.
         11    1    3    3    0    0 -0.13990123475E+01 -0.55262199697E+01  0.32941881944E+01  0.65839212346E+01  0.51100000000E-03 0. -1.
        -11    1    3    3    0    0  0.23420490901E+01 -0.15579412312E+02  0.59957722041E+00  0.15765873747E+02  0.51100000000E-03 0.  1.
         12    1    3    3    0    0 -0.15317853473E+02 -0.19843173235E+02 -0.43217007530E+01  0.25437477399E+02  0.00000000000E+00 0. -1.
</event>
<event>
 7    1  0.2769403E-010  0.4778727E+02  0.7816164E-02  0.1312668E+00
        -11   -1    0    0    0    0  0.00000000000E+00  0.00000000000E+00  0.45593999997E+02  0.45594000000E+02  0.51100000000E-03 0.  1.
         11   -1    0    0    0    0 -0.00000000000E+00 -0.00000000000E+00 -0.45593999997E+02  0.45594000000E+02  0.51100000000E-03 0. -1.
    9900012    2    1    2    0    0  0.37055990536E+02 -0.40852903547E-01  0.22593699589E+02  0.47787269998E+02  0.19999995228E+02 0.  0.
         12    1    1    2    0    0 -0.37055990536E+02  0.40852903547E-01 -0.22593699589E+02  0.43400730002E+02  0.00000000000E+00 0. -1.
         11    1    3    3    0    0  0.12248461699E+02 -0.50241821475E+01  0.31161705730E+01  0.13600652173E+02  0.51100000000E-03 0. -1.
        -11    1    3    3    0    0  0.18887594039E+02  0.44202776480E+01  0.74687338515E+01  0.20786102296E+02  0.51100000000E-03 0.  1.
         12    1    3    3    0    0  0.59199347991E+01  0.56305159595E+00  0.12008795165E+02  0.13400515529E+02  0.00000000000E+00 0. -1.
</event>
<event>
 7    1  0.2769403E-010  0.4778727E+02  0.7816164E-02  0.1312668E+00
        -11   -1    0    0    0    0  0.00000000000E+00  0.00000000000E+00  0.45593999997E+02  0.45594000000E+02  0.51100000000E-03 0.  1.
         11   -1    0    0    0    0 -0.00000000000E+00 -0.00000000000E+00 -0.45593999997E+02  0.45594000000E+02  0.51100000000E-03 0. -1.
    9900012    2    1    2    0    0 -0.33066763938E+02  0.23711036088E+02  0.15099645048E+02  0.47787269704E+02  0.19999993887E+02 0.  0.
         12    1    1    2    0    0  0.33066763938E+02 -0.23711036088E+02 -0.15099645048E+02  0.43400730296E+02  0.00000000000E+00 0. -1.
         11    1    3    3    0    0  0.10275456810E+01  0.14810174383E+01  0.35938357756E+01  0.40205619784E+01  0.51100000000E-03 0. -1.
        -11    1    3    3    0    0 -0.50685813696E+01  0.54874988353E+01  0.64692539532E+01  0.98820244657E+01  0.51100000000E-03 0.  1.
         12    1    3    3    0    0 -0.29025728249E+02  0.16742519814E+02  0.50365553190E+01  0.33884683260E+02  0.00000000000E+00 0. -1.
</event>
<event>
 7    1  0.2769403E-010  0.4778727E+02  0.7816164E-02  0.1312668E+00
        -11   -1    0    0    0    0  0.00000000000E+00  0.00000000000E+00  0.45593999997E+02  0.45594000000E+02  0.51100000000E-03 0. -1.
         11   -1    0    0    0    0 -0.00000000000E+00 -0.00000000000E+00 -0.45593999997E+02  0.45594000000E+02  0.51100000000E-03 0.  1.
    9900012    2    1    2    0    0 -0.37835470207E+02  0.14080967878E+02 -0.15931942115E+02  0.47787271415E+02  0.20000001688E+02 0.  0.
         12    1    1    2    0    0  0.37835470207E+02 -0.14080967878E+02  0.15931942115E+02  0.43400728585E+02  0.00000000000E+00 0. -1.
         11    1    3    3    0    0 -0.17599703043E+02  0.12783562765E+02 -0.53334388722E+01  0.22396754110E+02  0.51100000000E-03 0.  1.
        -11    1    3    3    0    0 -0.39435085095E+01  0.92790210048E+00  0.22537311174E+01  0.46358996843E+01  0.51100000000E-03 0. -1.
        -12    1    3    3    0    0 -0.16292258654E+02  0.36950301254E+00 -0.12852234360E+02  0.20754617621E+02  0.00000000000E+00 0.  1.
</event>
<event>
 7    1  0.2769403E-010  0.4778728E+02  0.7816164E-02  0.1312668E+00
        -11   -1    0    0    0    0  0.00000000000E+00  0.00000000000E+00  0.45593999997E+02  0.45594000000E+02  0.51100000000E-03 0. -1.
         11   -1    0    0    0    0 -0.00000000000E+00 -0.00000000000E+00 -0.45593999997E+02  0.45594000000E+02  0.51100000000E-03 0.  1.
    9900012    2    1    2    0    0 -0.14524588554E+02 -0.40895672245E+02 -0.45070221945E+00  0.47787276348E+02  0.20000024179E+02 0.  0.
         12    1    1    2    0    0  0.14524588554E+02  0.40895672245E+02  0.45070221945E+00  0.43400723652E+02  0.00000000000E+00 0. -1.
         11    1    3    3    0    0 -0.80824241904E-01 -0.32207174682E+01 -0.33719761633E+01  0.46636656264E+01  0.51100000000E-03 0. -1.
        -11    1    3    3    0    0 -0.89933370230E+01 -0.35297016354E+02 -0.16234078144E+00  0.36425071436E+02  0.51100000000E-03 0.  1.
         12    1    3    3    0    0 -0.54504272896E+01 -0.23779384228E+01  0.30836147253E+01  0.66985392852E+01  0.00000000000E+00 0. -1.
</event>
<event>
 7    1  0.2769403E-010  0.4778727E+02  0.7816164E-02  0.1312668E+00
        -11   -1    0    0    0    0  0.00000000000E+00  0.00000000000E+00  0.45593999997E+02  0.45594000000E+02  0.51100000000E-03 0.  1.
         11   -1    0    0    0    0 -0.00000000000E+00 -0.00000000000E+00 -0.45593999997E+02  0.45594000000E+02  0.51100000000E-03 0. -1.
    9900012    2    1    2    0    0 -0.29052563607E+02 -0.17265707572E+01  0.32196129178E+02  0.47787271518E+02  0.20000002161E+02 0.  0.
         12    1    1    2    0    0  0.29052563607E+02  0.17265707572E+01 -0.32196129178E+02  0.43400728482E+02  0.00000000000E+00 0. -1.
         11    1    3    3    0    0  0.14165288407E+01 -0.32779039541E+01  0.34868995623E+01  0.49909595378E+01  0.51100000000E-03 0. -1.
        -11    1    3    3    0    0 -0.54079044229E+01  0.21791283434E+01  0.97694804225E+01  0.11377028547E+02  0.51100000000E-03 0.  1.
        -12    1    3    3    0    0 -0.25061188025E+02 -0.62779514651E+00  0.18939749193E+02  0.31419283433E+02  0.00000000000E+00 0.  1.
</event>
<event>
 7    1  0.2769403E-010  0.4778727E+02  0.7816164E-02  0.1312668E+00
        -11   -1    0    0    0    0  0.00000000000E+00  0.00000000000E+00  0.45593999997E+02  0.45594000000E+02  0.51100000000E-03 0.  1.
         11   -1    0    0    0    0 -0.00000000000E+00 -0.00000000000E+00 -0.45593999997E+02  0.45594000000E+02  0.51100000000E-03 0. -1.
    9900012    2    1    2    0    0 -0.34041401117E+02  0.22173541641E+02  0.15268927439E+02  0.47787273231E+02  0.20000009970E+02 0.  0.
         12    1    1    2    0    0  0.34041401117E+02 -0.22173541641E+02 -0.15268927439E+02  0.43400726769E+02  0.00000000000E+00 0. -1.
         11    1    3    3    0    0 -0.13802695084E+02  0.11978159671E+02  0.28171583191E+01  0.18491270425E+02  0.51100000000E-03 0. -1.
        -11    1    3    3    0    0 -0.97004167216E+01  0.93990776339E+01  0.74939996880E+00  0.13527835951E+02  0.51100000000E-03 0.  1.
         12    1    3    3    0    0 -0.10538289311E+02  0.79630433661E+00  0.11702369152E+02  0.15768166855E+02  0.00000000000E+00 0. -1.
</event>
<event>
 7    1  0.2769403E-010  0.4778727E+02  0.7816164E-02  0.1312668E+00
        -11   -1    0    0    0    0  0.00000000000E+00  0.00000000000E+00  0.45593999997E+02  0.45594000000E+02  0.51100000000E-03 0.  1.
         11   -1    0    0    0    0 -0.00000000000E+00 -0.00000000000E+00 -0.45593999997E+02  0.45594000000E+02  0.51100000000E-03 0. -1.
    9900012    2    1    2    0    0  0.10642499696E+02 -0.35147448274E+02  0.23130443187E+02  0.47787270490E+02  0.19999997472E+02 0.  0.
         12    1    1    2    0    0 -0.10642499696E+02  0.35147448274E+02 -0.23130443187E+02  0.43400729510E+02  0.00000000000E+00 0. -1.
         11    1    3    3    0    0  0.15794849073E+02 -0.23196743211E+02  0.14170952530E+02  0.31438543998E+02  0.51100000000E-03 0. -1.
        -11    1    3    3    0    0  0.67618228583E+00 -0.23324490808E+01  0.15603842139E+01  0.28865793518E+01  0.51100000000E-03 0.  1.
        -12    1    3    3    0    0 -0.58285316621E+01 -0.96182559821E+01  0.73991064428E+01  0.13462147140E+02  0.00000000000E+00 0.  1.
</event>
<event>
 7    1  0.2769403E-010  0.4778727E+02  0.7816164E-02  0.1312668E+00
        -11   -1    0    0    0    0  0.00000000000E+00  0.00000000000E+00  0.45593999997E+02  0.45594000000E+02  0.51100000000E-03 0.  1.
         11   -1    0    0    0    0 -0.00000000000E+00 -0.00000000000E+00 -0.45593999997E+02  0.45594000000E+02  0.51100000000E-03 0. -1.
    9900012    2    1    2    0    0 -0.75289476580E+01 -0.39925436869E+01  0.42555821761E+02  0.47787269318E+02  0.19999992131E+02 0.  0.
         12    1    1    2    0    0  0.75289476580E+01  0.39925436869E+01 -0.42555821761E+02  0.43400730682E+02  0.00000000000E+00 0. -1.
         11    1    3    3    0    0 -0.14529919600E+01 -0.46544399728E+00  0.79887169125E-02  0.15257417315E+01  0.51100000000E-03 0. -1.
        -11    1    3    3    0    0  0.52201036436E+01 -0.39526262331E+01  0.11697205793E+02  0.13405124386E+02  0.51100000000E-03 0.  1.
         12    1    3    3    0    0 -0.11296059342E+02  0.42552654349E+00  0.30850627252E+02  0.32856403201E+02  0.00000000000E+00 0. -1.
</event>
<event>
 7    1  0.2769403E-010  0.4778727E+02  0.7816164E-02  0.1312668E+00
        -11   -1    0    0    0    0  0.00000000000E+00  0.00000000000E+00  0.45593999997E+02  0.45594000000E+02  0.51100000000E-03 0.  1.
         11   -1    0    0    0    0 -0.00000000000E+00 -0.00000000000E+00 -0.45593999997E+02  0.45594000000E+02  0.51100000000E-03 0. -1.
    9900012    2    1    2    0    0  0.54923356951E+01 -0.33016511578E+02  0.27629106789E+02  0.47787270396E+02  0.19999997045E+02 0.  0.
         12    1    1    2    0    0 -0.54923356951E+01  0.33016511578E+02 -0.27629106789E+02  0.43400729604E+02  0.00000000000E+00 0. -1.
         11    1    3    3    0    0  0.53989068189E+00 -0.28525915166E+01  0.47278037525E+01  0.55480527118E+01  0.51100000000E-03 0. -1.
        -11    1    3    3    0    0 -0.48918064405E+01 -0.10868195332E+02  0.15051781707E+02  0.19199051352E+02  0.51100000000E-03 0.  1.
         12    1    3    3    0    0  0.98442514536E+01 -0.19295724729E+02  0.78495213301E+01  0.23040166332E+02  0.00000000000E+00 0. -1.
</event>
<event>
 7    1  0.2769403E-010  0.4778726E+02  0.7816164E-02  0.1312668E+00
        -11   -1    0    0    0    0  0.00000000000E+00  0.00000000000E+00  0.45593999997E+02  0.45594000000E+02  0.51100000000E-03 0.  1.
         11   -1    0    0    0    0 -0.00000000000E+00 -0.00000000000E+00 -0.45593999997E+02  0.45594000000E+02  0.51100000000E-03 0. -1.
    9900012    2    1    2    0    0  0.58409281813E+01 -0.13840134724E+02  0.40718032197E+02  0.47787263633E+02  0.19999966209E+02 0.  0.
         12    1    1    2    0    0 -0.58409281813E+01  0.13840134724E+02 -0.40718032197E+02  0.43400736367E+02  0.00000000000E+00 0. -1.
         11    1    3    3    0    0  0.67187865302E+01 -0.22881844687E+01  0.16140551421E+02  0.17632222805E+02  0.51100000000E-03 0. -1.
        -11    1    3    3    0    0  0.76010577713E+00  0.11791990686E+01 -0.87187546397E+00  0.16517985112E+01  0.51100000000E-03 0.  1.
        -12    1    3    3    0    0 -0.16379641261E+01 -0.12731149324E+02  0.25449356240E+02  0.28503242317E+02  0.00000000000E+00 0.  1.
</event>
<event>
 7    1  0.2769403E-010  0.4778727E+02  0.7816164E-02  0.1312668E+00
        -11   -1    0    0    0    0  0.00000000000E+00  0.00000000000E+00  0.45593999997E+02  0.45594000000E+02  0.51100000000E-03 0.  1.
         11   -1    0    0    0    0 -0.00000000000E+00 -0.00000000000E+00 -0.45593999997E+02  0.45594000000E+02  0.51100000000E-03 0. -1.
    9900012    2    1    2    0    0 -0.17829434205E+02 -0.11764880045E+02  0.37779914401E+02  0.47787273524E+02  0.20000011304E+02 0.  0.
         12    1    1    2    0    0  0.17829434205E+02  0.11764880045E+02 -0.37779914401E+02  0.43400726476E+02  0.00000000000E+00 0. -1.
         11    1    3    3    0    0 -0.10831210930E+02  0.10935242860E+01  0.89568608310E+01  0.14097385636E+02  0.51100000000E-03 0. -1.
        -11    1    3    3    0    0 -0.84527529912E+01 -0.59274266218E+01  0.16012866932E+02  0.19052436252E+02  0.51100000000E-03 0.  1.
        -12    1    3    3    0    0  0.14545297156E+01 -0.69309777089E+01  0.12810186638E+02  0.14637451636E+02  0.00000000000E+00 0.  1.
</event>
<event>
 7    1  0.2769403E-010  0.4778730E+02  0.7816164E-02  0.1312668E+00
        -11   -1    0    0    0    0  0.00000000000E+00  0.00000000000E+00  0.45593999997E+02  0.45594000000E+02  0.51100000000E-03 0. -1.
         11   -1    0    0    0    0 -0.00000000000E+00 -0.00000000000E+00 -0.45593999997E+02  0.45594000000E+02  0.51100000000E-03 0.  1.
    9900012    2    1    2    0    0 -0.34608722442E+01 -0.40590614426E+02 -0.14968146318E+02  0.47787297006E+02  0.20000118370E+02 0.  0.
         12    1    1    2    0    0  0.34608722442E+01  0.40590614426E+02  0.14968146318E+02  0.43400702994E+02  0.00000000000E+00 0. -1.
         11    1    3    3    0    0  0.12982522081E+00 -0.25976384362E+02 -0.83358534595E+01  0.27281419543E+02  0.51100000000E-03 0. -1.
        -11    1    3    3    0    0 -0.13812411869E+01 -0.16464172549E+02 -0.56601672327E+01  0.17464658551E+02  0.51100000000E-03 0.  1.
         12    1    3    3    0    0 -0.22094562781E+01  0.18499424850E+01 -0.97212562625E+00  0.30412189128E+01  0.00000000000E+00 0. -1.
</event>
<event>
 7    1  0.6054952E-010  0.4778727E+02  0.7816164E-02  0.1312668E+00
        -11   -1    0    0    0    0  0.00000000000E+00  0.00000000000E+00  0.45593999997E+02  0.45594000000E+02  0.51100000000E-03 0. -1.
         11   -1    0    0    0    0 -0.00000000000E+00 -0.00000000000E+00 -0.45593999997E+02  0.45594000000E+02  0.51100000000E-03 0.  1.
    9900012    2    1    2    0    0 -0.46876907740E+01 -0.11524945454E+02 -0.41579137115E+02  0.47787268950E+02  0.19999990449E+02 0.  0.
         12    1    1    2    0    0  0.46876907740E+01  0.11524945454E+02  0.41579137115E+02  0.43400731050E+02  0.00000000000E+00 0. -1.
         11    1    3    3    0    0 -0.14612229658E+01  0.31319457841E+01 -0.21087364274E+01  0.40485832747E+01  0.51100000000E-03 0. -1.
        -11    1    3    3    0    0 -0.62137955187E+01 -0.38132826708E+01 -0.19506122823E+02  0.20824053576E+02  0.51100000000E-03 0.  1.
         12    1    3    3    0    0  0.29873277106E+01 -0.10843608567E+02 -0.19964277864E+02  0.22914632099E+02  0.00000000000E+00 0. -1.
</event>
<event>
 7    1  0.2769403E-010  0.4778727E+02  0.7816164E-02  0.1312668E+00
        -11   -1    0    0    0    0  0.00000000000E+00  0.00000000000E+00  0.45593999997E+02  0.45594000000E+02  0.51100000000E-03 0. -1.
         11   -1    0    0    0    0 -0.00000000000E+00 -0.00000000000E+00 -0.45593999997E+02  0.45594000000E+02  0.51100000000E-03 0.  1.
    9900012    2    1    2    0    0 -0.94599621180E+01 -0.23209364915E+02 -0.35432445694E+02  0.47787266010E+02  0.19999977045E+02 0.  0.
         12    1    1    2    0    0  0.94599621180E+01  0.23209364915E+02  0.35432445694E+02  0.43400733990E+02  0.00000000000E+00 0. -1.
         11    1    3    3    0    0 -0.13890070777E+01 -0.19125107317E+01 -0.43780694066E+01  0.49753924419E+01  0.51100000000E-03 0. -1.
        -11    1    3    3    0    0 -0.13995525592E+02 -0.17438648113E+02 -0.22623320842E+02  0.31808738277E+02  0.51100000000E-03 0.  1.
         12    1    3    3    0    0  0.59245705516E+01 -0.38582060705E+01 -0.84310554455E+01  0.11003135291E+02  0.00000000000E+00 0. -1.
</event>
<event>
 7    1  0.2769403E-010  0.4778726E+02  0.7816164E-02  0.1312668E+00
        -11   -1    0    0    0    0  0.00000000000E+00  0.00000000000E+00  0.45593999997E+02  0.45594000000E+02  0.51100000000E-03 0. -1.
         11   -1    0    0    0    0 -0.00000000000E+00 -0.00000000000E+00 -0.45593999997E+02  0.45594000000E+02  0.51100000000E-03 0.  1.
    9900012    2    1    2    0    0 -0.23797392881E+02  0.20456877833E+02 -0.29980395410E+02  0.47787264205E+02  0.19999968815E+02 0.  0.
         12    1    1    2    0    0  0.23797392881E+02 -0.20456877833E+02  0.29980395410E+02  0.43400735795E+02  0.00000000000E+00 0. -1.
         11    1    3    3    0    0 -0.15203319847E+01  0.81852718446E+01 -0.58429685759E+01  0.10171055331E+02  0.51100000000E-03 0. -1.
        -11    1    3    3    0    0 -0.18387152200E+01  0.76836721488E+01 -0.63642108489E+01  0.10145090997E+02  0.51100000000E-03 0.  1.
        -12    1    3    3    0    0 -0.20438345677E+02  0.45879338393E+01 -0.17773215985E+02  0.27471117876E+02  0.00000000000E+00 0.  1.
</event>
<event>
 7    1  0.2769403E-010  0.4778727E+02  0.7816164E-02  0.1312668E+00
        -11   -1    0    0    0    0  0.00000000000E+00  0.00000000000E+00  0.45593999997E+02  0.45594000000E+02  0.51100000000E-03 0. -1.
         11   -1    0    0    0    0 -0.00000000000E+00 -0.00000000000E+00 -0.45593999997E+02  0.45594000000E+02  0.51100000000E-03 0.  1.
    9900012    2    1    2    0    0 -0.36851269469E+02  0.22911791698E+02 -0.81052661573E+00  0.47787271737E+02  0.20000003160E+02 0.  0.
         12    1    1    2    0    0  0.36851269469E+02 -0.22911791698E+02  0.81052661573E+00  0.43400728263E+02  0.00000000000E+00 0. -1.
         11    1    3    3    0    0 -0.43409603293E+01  0.58098465943E+01  0.62115733846E+01  0.95489213110E+01  0.51100000000E-03 0. -1.
        -11    1    3    3    0    0 -0.82427268156E+01  0.59008786861E+01  0.13574894970E+01  0.10227692439E+02  0.51100000000E-03 0.  1.
        -12    1    3    3    0    0 -0.24267582324E+02  0.11201066418E+02 -0.83795894973E+01  0.28010657988E+02  0.00000000000E+00 0.  1.
</event>
<event>
 7    1  0.2769403E-010  0.4778728E+02  0.7816164E-02  0.1312668E+00
        -11   -1    0    0    0    0  0.00000000000E+00  0.00000000000E+00  0.45593999997E+02  0.45594000000E+02  0.51100000000E-03 0. -1.
         11   -1    0    0    0    0 -0.00000000000E+00 -0.00000000000E+00 -0.45593999997E+02  0.45594000000E+02  0.51100000000E-03 0.  1.
    9900012    2    1    2    0    0  0.25472102286E+02 -0.26208537478E+02 -0.23407409259E+02  0.47787282957E+02  0.20000054314E+02 0.  0.
         12    1    1    2    0    0 -0.25472102286E+02  0.26208537478E+02  0.23407409259E+02  0.43400717043E+02  0.00000000000E+00 0. -1.
         11    1    3    3    0    0  0.35110806278E+01 -0.27429868808E+01 -0.10675565553E+01  0.45816308737E+01  0.51100000000E-03 0. -1.
        -11    1    3    3    0    0  0.20650204529E+02 -0.23360331452E+02 -0.25179221645E+02  0.40076542210E+02  0.51100000000E-03 0.  1.
         12    1    3    3    0    0  0.13108171291E+01 -0.10521914548E+00  0.28393689409E+01  0.31291098729E+01  0.00000000000E+00 0. -1.
</event>
<event>
 7    1  0.2769403E-010  0.4778727E+02  0.7816164E-02  0.1312668E+00
        -11   -1    0    0    0    0  0.00000000000E+00  0.00000000000E+00  0.45593999997E+02  0.45594000000E+02  0.51100000000E-03 0. -1.
         11   -1    0    0    0    0 -0.00000000000E+00 -0.00000000000E+00 -0.45593999997E+02  0.45594000000E+02  0.51100000000E-03 0.  1.
    9900012    2    1    2    0    0 -0.38476832892E+02 -0.20002896176E+02  0.17437409420E+01  0.47787272387E+02  0.20000006122E+02 0.  0.
         12    1    1    2    0    0  0.38476832892E+02  0.20002896176E+02 -0.17437409420E+01  0.43400727613E+02  0.00000000000E+00 0. -1.
         11    1    3    3    0    0 -0.24104417237E+02 -0.10034142241E+02 -0.45007255635E+01  0.26494593254E+02  0.51100000000E-03 0. -1.
        -11    1    3    3    0    0 -0.15070005460E+02 -0.98696346849E+01  0.33619831223E+01  0.18325329033E+02  0.51100000000E-03 0.  1.
         12    1    3    3    0    0  0.69758980522E+00 -0.99119250759E-01  0.28824833832E+01  0.29673501002E+01  0.00000000000E+00 0. -1.
</event>
<event>
 7    1  0.2769403E-010  0.4778727E+02  0.7816164E-02  0.1312668E+00
        -11   -1    0    0    0    0  0.00000000000E+00  0.00000000000E+00  0.45593999997E+02  0.45594000000E+02  0.51100000000E-03 0. -1.
         11   -1    0    0    0    0 -0.00000000000E+00 -0.00000000000E+00 -0.45593999997E+02  0.45594000000E+02  0.51100000000E-03 0.  1.
    9900012    2    1    2    0    0 -0.41450992667E+02  0.90222098246E+01 -0.91672582927E+01  0.47787266276E+02  0.19999978257E+02 0.  0.
         12    1    1    2    0    0  0.41450992667E+02 -0.90222098246E+01  0.91672582927E+01  0.43400733724E+02  0.00000000000E+00 0. -1.
         11    1    3    3    0    0 -0.71500695977E+01 -0.19183947887E+00  0.19696868095E+01  0.74188923719E+01  0.51100000000E-03 0. -1.
        -11    1    3    3    0    0 -0.13420704304E+02 -0.13556795799E+01  0.18308649031E+01  0.13612686645E+02  0.51100000000E-03 0.  1.
        -12    1    3    3    0    0 -0.20880218765E+02  0.10569728883E+02 -0.12967810005E+02  0.26755687259E+02  0.00000000000E+00 0.  1.
</event>
<event>
 7    1  0.2769403E-010  0.4778727E+02  0.7816164E-02  0.1312668E+00
        -11   -1    0    0    0    0  0.00000000000E+00  0.00000000000E+00  0.45593999997E+02  0.45594000000E+02  0.51100000000E-03 0.  1.
         11   -1    0    0    0    0 -0.00000000000E+00 -0.00000000000E+00 -0.45593999997E+02  0.45594000000E+02  0.51100000000E-03 0. -1.
    9900012    2    1    2    0    0 -0.24774014788E+02 -0.19388887569E+02  0.29898868100E+02  0.47787273238E+02  0.20000010000E+02 0.  0.
         12    1    1    2    0    0  0.24774014788E+02  0.19388887569E+02 -0.29898868100E+02  0.43400726762E+02  0.00000000000E+00 0. -1.
         11    1    3    3    0    0 -0.27499601562E+01 -0.71302477426E+01  0.62804762087E+01  0.98917690733E+01  0.51100000000E-03 0. -1.
        -11    1    3    3    0    0 -0.28771077120E+01 -0.49075018931E+01  0.14257777825E+02  0.15350750873E+02  0.51100000000E-03 0.  1.
         12    1    3    3    0    0 -0.19146946919E+02 -0.73511379332E+01  0.93606140662E+01  0.22544753291E+02  0.00000000000E+00 0. -1.
</event>
<event>
 7    1  0.2769403E-010  0.4778727E+02  0.7816164E-02  0.1312668E+00
        -11   -1    0    0    0    0  0.00000000000E+00  0.00000000000E+00  0.45593999997E+02  0.45594000000E+02  0.51100000000E-03 0. -1.
         11   -1    0    0    0    0 -0.00000000000E+00 -0.00000000000E+00 -0.45593999997E+02  0.45594000000E+02  0.51100000000E-03 0.  1.
    9900012    2    1    2    0    0  0.26742051150E+02  0.12109351851E+02 -0.31966379083E+02  0.47787273121E+02  0.20000009468E+02 0.  0.
         12    1    1    2    0    0 -0.26742051150E+02 -0.12109351851E+02  0.31966379083E+02  0.43400726879E+02  0.00000000000E+00 0. -1.
         11    1    3    3    0    0  0.11883574978E+02  0.55652943943E+01 -0.55001154246E+01  0.14228250978E+02  0.51100000000E-03 0. -1.
        -11    1    3    3    0    0 -0.13876963883E+01  0.36951713795E+01 -0.34465979145E+01  0.52401364711E+01  0.51100000000E-03 0.  1.
        -12    1    3    3    0    0  0.16246172561E+02  0.28488860767E+01 -0.23019665744E+02  0.28318885672E+02  0.00000000000E+00 0.  1.
</event>
<event>
 7    1  0.2769403E-010  0.4778727E+02  0.7816164E-02  0.1312668E+00
        -11   -1    0    0    0    0  0.00000000000E+00  0.00000000000E+00  0.45593999997E+02  0.45594000000E+02  0.51100000000E-03 0.  1.
         11   -1    0    0    0    0 -0.00000000000E+00 -0.00000000000E+00 -0.45593999997E+02  0.45594000000E+02  0.51100000000E-03 0. -1.
    9900012    2    1    2    0    0  0.40537417085E+02 -0.65345468030E+01 -0.14058474529E+02  0.47787271989E+02  0.20000004307E+02 0.  0.
         12    1    1    2    0    0 -0.40537417085E+02  0.65345468030E+01  0.14058474529E+02  0.43400728011E+02  0.00000000000E+00 0. -1.
         11    1    3    3    0    0  0.10011654583E+02  0.36502889582E+01  0.14513993632E+01  0.10754738366E+02  0.51100000000E-03 0. -1.
        -11    1    3    3    0    0  0.61253372992E+01 -0.34788184379E+01  0.54289208962E+00  0.70651728100E+01  0.51100000000E-03 0.  1.
        -12    1    3    3    0    0  0.24400425203E+02 -0.67060173233E+01 -0.16052765981E+02  0.29967360813E+02  0.00000000000E+00 0.  1.
</event>
<event>
 7    1  0.2769403E-010  0.4778727E+02  0.7816164E-02  0.1312668E+00
        -11   -1    0    0    0    0  0.00000000000E+00  0.00000000000E+00  0.45593999997E+02  0.45594000000E+02  0.51100000000E-03 0.  1.
         11   -1    0    0    0    0 -0.00000000000E+00 -0.00000000000E+00 -0.45593999997E+02  0.45594000000E+02  0.51100000000E-03 0. -1.
    9900012    2    1    2    0    0  0.24206632177E+02 -0.20179685309E+02  0.29840281795E+02  0.47787272378E+02  0.20000006080E+02 0.  0.
         12    1    1    2    0    0 -0.24206632177E+02  0.20179685309E+02 -0.29840281795E+02  0.43400727622E+02  0.00000000000E+00 0. -1.
         11    1    3    3    0    0 -0.56126006299E+00 -0.13623474647E+01  0.39616581002E+00  0.15257624595E+01  0.51100000000E-03 0. -1.
        -11    1    3    3    0    0  0.14816216365E+02 -0.14268377741E+01  0.79423754355E+01  0.16871202127E+02  0.51100000000E-03 0.  1.
        -12    1    3    3    0    0  0.99516758754E+01 -0.17390500070E+02  0.21501740549E+02  0.29390307791E+02  0.00000000000E+00 0.  1.
</event>
<event>
 7    1  0.2769403E-010  0.4778727E+02  0.7816164E-02  0.1312668E+00
        -11   -1    0    0    0    0  0.00000000000E+00  0.00000000000E+00  0.45593999997E+02  0.45594000000E+02  0.51100000000E-03 0.  1.
         11   -1    0    0    0    0 -0.00000000000E+00 -0.00000000000E+00 -0.45593999997E+02  0.45594000000E+02  0.51100000000E-03 0. -1.
    9900012    2    1    2    0    0 -0.37933994024E+02 -0.20578476144E+02 -0.46002150512E+01  0.47787267730E+02  0.19999984889E+02 0.  0.
         12    1    1    2    0    0  0.37933994024E+02  0.20578476144E+02  0.46002150512E+01  0.43400732270E+02  0.00000000000E+00 0. -1.
         11    1    3    3    0    0 -0.52686375967E+01  0.16031927701E+01  0.45639891523E+01  0.71525356641E+01  0.51100000000E-03 0. -1.
        -11    1    3    3    0    0 -0.47798701795E+01 -0.25142339728E+01 -0.20554544917E+01  0.57787044250E+01  0.51100000000E-03 0.  1.
         12    1    3    3    0    0 -0.27885486248E+02 -0.19667434941E+02 -0.71087497118E+01  0.34856027641E+02  0.00000000000E+00 0. -1.
</event>
<event>
 7    1  0.2769403E-010  0.4778727E+02  0.7816164E-02  0.1312668E+00
        -11   -1    0    0    0    0  0.00000000000E+00  0.00000000000E+00  0.45593999997E+02  0.45594000000E+02  0.51100000000E-03 0. -1.
         11   -1    0    0    0    0 -0.00000000000E+00 -0.00000000000E+00 -0.45593999997E+02  0.45594000000E+02  0.51100000000E-03 0.  1.
    9900012    2    1    2    0    0  0.30479296688E+02  0.38312444120E-01 -0.30897156358E+02  0.47787271142E+02  0.20000000443E+02 0.  0.
         12    1    1    2    0    0 -0.30479296688E+02 -0.38312444120E-01  0.30897156358E+02  0.43400728858E+02  0.00000000000E+00 0. -1.
         11    1    3    3    0    0  0.10872468787E+02  0.32184903470E+01 -0.15052477076E+02  0.18845326318E+02  0.51100000000E-03 0. -1.
        -11    1    3    3    0    0  0.11634199986E+02  0.48132345443E+01 -0.59319211126E+01  0.13917956906E+02  0.51100000000E-03 0.  1.
         12    1    3    3    0    0  0.79726279144E+01 -0.79934124472E+01 -0.99127581693E+01  0.15023987917E+02  0.00000000000E+00 0. -1.
</event>
<event>
 7    1  0.2769403E-010  0.4778726E+02  0.7816164E-02  0.1312668E+00
        -11   -1    0    0    0    0  0.00000000000E+00  0.00000000000E+00  0.45593999997E+02  0.45594000000E+02  0.51100000000E-03 0.  1.
         11   -1    0    0    0    0 -0.00000000000E+00 -0.00000000000E+00 -0.45593999997E+02  0.45594000000E+02  0.51100000000E-03 0. -1.
    9900012    2    1    2    0    0 -0.18692397156E+02  0.23574589279E+02  0.31280301726E+02  0.47787259831E+02  0.19999948875E+02 0.  0.
         12    1    1    2    0    0  0.18692397156E+02 -0.23574589279E+02 -0.31280301726E+02  0.43400740169E+02  0.00000000000E+00 0. -1.
         11    1    3    3    0    0  0.12809524426E+01 -0.56983923889E+00  0.14601996091E+01  0.20242873013E+01  0.51100000000E-03 0. -1.
        -11    1    3    3    0    0 -0.21462397351E+02  0.17598310492E+02  0.26042491965E+02  0.38059774306E+02  0.51100000000E-03 0.  1.
         12    1    3    3    0    0  0.14890477523E+01  0.65461180255E+01  0.37776101518E+01  0.77031982236E+01  0.00000000000E+00 0. -1.
</event>
<event>
 7    1  0.2769403E-010  0.4778729E+02  0.7816164E-02  0.1312668E+00
        -11   -1    0    0    0    0  0.00000000000E+00  0.00000000000E+00  0.45593999997E+02  0.45594000000E+02  0.51100000000E-03 0.  1.
         11   -1    0    0    0    0 -0.00000000000E+00 -0.00000000000E+00 -0.45593999997E+02  0.45594000000E+02  0.51100000000E-03 0. -1.
    9900012    2    1    2    0    0 -0.21988440692E+02 -0.36610711866E+02  0.77321277602E+01  0.47787290938E+02  0.20000090704E+02 0.  0.
         12    1    1    2    0    0  0.21988440692E+02  0.36610711866E+02 -0.77321277602E+01  0.43400709062E+02  0.00000000000E+00 0. -1.
         11    1    3    3    0    0 -0.30062969560E+01 -0.61287677754E+01 -0.42629513975E+01  0.80481283980E+01  0.51100000000E-03 0. -1.
        -11    1    3    3    0    0  0.49980445694E+00  0.83841275044E+00  0.89205637752E-01  0.98015220360E+00  0.51100000000E-03 0.  1.
        -12    1    3    3    0    0 -0.19481948192E+02 -0.31320356841E+02  0.11905873520E+02  0.38759010337E+02  0.00000000000E+00 0.  1.
</event>
<event>
 7    1  0.2769403E-010  0.4778727E+02  0.7816164E-02  0.1312668E+00
        -11   -1    0    0    0    0  0.00000000000E+00  0.00000000000E+00  0.45593999997E+02  0.45594000000E+02  0.51100000000E-03 0.  1.
         11   -1    0    0    0    0 -0.00000000000E+00 -0.00000000000E+00 -0.45593999997E+02  0.45594000000E+02  0.51100000000E-03 0. -1.
    9900012    2    1    2    0    0 -0.21044448073E+02  0.37392586747E+02 -0.65229564953E+01  0.47787270746E+02  0.19999998641E+02 0.  0.
         12    1    1    2    0    0  0.21044448073E+02 -0.37392586747E+02  0.65229564953E+01  0.43400729254E+02  0.00000000000E+00 0. -1.
         11    1    3    3    0    0 -0.65022417447E+01  0.73206685552E+01  0.41658450357E+01  0.10640751897E+02  0.51100000000E-03 0. -1.
        -11    1    3    3    0    0 -0.55925090342E+01  0.10860203795E+02  0.20973158114E+01  0.12394309890E+02  0.51100000000E-03 0.  1.
         12    1    3    3    0    0 -0.89496972944E+01  0.19211714396E+02 -0.12786117342E+02  0.24752208960E+02  0.00000000000E+00 0. -1.
</event>
<event>
 7    1  0.2769403E-010  0.4778727E+02  0.7816164E-02  0.1312668E+00
        -11   -1    0    0    0    0  0.00000000000E+00  0.00000000000E+00  0.45593999997E+02  0.45594000000E+02  0.51100000000E-03 0. -1.
         11   -1    0    0    0    0 -0.00000000000E+00 -0.00000000000E+00 -0.45593999997E+02  0.45594000000E+02  0.51100000000E-03 0.  1.
    9900012    2    1    2    0    0  0.20046223809E+02  0.20927478744E+02 -0.32308089869E+02  0.47787272741E+02  0.20000007737E+02 0.  0.
         12    1    1    2    0    0 -0.20046223809E+02 -0.20927478744E+02  0.32308089869E+02  0.43400727259E+02  0.00000000000E+00 0. -1.
         11    1    3    3    0    0  0.10517044934E+02  0.12337833293E+02 -0.54245533796E+01  0.17095500699E+02  0.51100000000E-03 0. -1.
        -11    1    3    3    0    0  0.20195955560E+01  0.38336495216E+01 -0.31754103224E+01  0.53720448472E+01  0.51100000000E-03 0.  1.
        -12    1    3    3    0    0  0.75095833192E+01  0.47559959295E+01 -0.23708126167E+02  0.25319727196E+02  0.00000000000E+00 0.  1.
</event>
<event>
 7    1  0.2769403E-010  0.4778727E+02  0.7816164E-02  0.1312668E+00
        -11   -1    0    0    0    0  0.00000000000E+00  0.00000000000E+00  0.45593999997E+02  0.45594000000E+02  0.51100000000E-03 0. -1.
         11   -1    0    0    0    0 -0.00000000000E+00 -0.00000000000E+00 -0.45593999997E+02  0.45594000000E+02  0.51100000000E-03 0.  1.
    9900012    2    1    2    0    0  0.25582995102E+02 -0.27108211073E+02 -0.22232378005E+02  0.47787269848E+02  0.19999994545E+02 0.  0.
         12    1    1    2    0    0 -0.25582995102E+02  0.27108211073E+02  0.22232378005E+02  0.43400730152E+02  0.00000000000E+00 0. -1.
         11    1    3    3    0    0  0.10661681113E+02 -0.54493000037E+01 -0.19781623341E+01  0.12135874141E+02  0.51100000000E-03 0.  1.
        -11    1    3    3    0    0  0.10606917812E+02 -0.54048330074E+01 -0.12054373243E+02  0.16941866481E+02  0.51100000000E-03 0. -1.
         12    1    3    3    0    0  0.43143961764E+01 -0.16254078062E+02 -0.81998424278E+01  0.18709529226E+02  0.00000000000E+00 0. -1.
</event>
<event>
 7    1  0.2769403E-010  0.4778727E+02  0.7816164E-02  0.1312668E+00
        -11   -1    0    0    0    0  0.00000000000E+00  0.00000000000E+00  0.45593999997E+02  0.45594000000E+02  0.51100000000E-03 0. -1.
         11   -1    0    0    0    0 -0.00000000000E+00 -0.00000000000E+00 -0.45593999997E+02  0.45594000000E+02  0.51100000000E-03 0.  1.
    9900012    2    1    2    0    0  0.46610830038E+01 -0.39907890165E+02 -0.16409080759E+02  0.47787270473E+02  0.19999997393E+02 0.  0.
         12    1    1    2    0    0 -0.46610830038E+01  0.39907890165E+02  0.16409080759E+02  0.43400729527E+02  0.00000000000E+00 0. -1.
         11    1    3    3    0    0 -0.17124870306E+01 -0.10258502486E+02 -0.69122376337E+00  0.10423400387E+02  0.51100000000E-03 0. -1.
        -11    1    3    3    0    0 -0.26572974416E+01 -0.20910667483E+02 -0.76191104408E+01  0.22413569293E+02  0.51100000000E-03 0.  1.
        -12    1    3    3    0    0  0.90308674761E+01 -0.87387201955E+01 -0.80987465544E+01  0.14950300792E+02  0.00000000000E+00 0.  1.
</event>
<event>
 7    1  0.2769403E-010  0.4778727E+02  0.7816164E-02  0.1312668E+00
        -11   -1    0    0    0    0  0.00000000000E+00  0.00000000000E+00  0.45593999997E+02  0.45594000000E+02  0.51100000000E-03 0. -1.
         11   -1    0    0    0    0 -0.00000000000E+00 -0.00000000000E+00 -0.45593999997E+02  0.45594000000E+02  0.51100000000E-03 0.  1.
    9900012    2    1    2    0    0  0.34699578305E+02  0.25827684660E+02  0.35345663660E+01  0.47787272024E+02  0.20000004465E+02 0.  0.
         12    1    1    2    0    0 -0.34699578305E+02 -0.25827684660E+02 -0.35345663660E+01  0.43400727976E+02  0.00000000000E+00 0. -1.
         11    1    3    3    0    0 -0.93017478056E+00 -0.56079378061E-02  0.27459447992E+01  0.28992188039E+01  0.51100000000E-03 0. -1.
        -11    1    3    3    0    0  0.60267267084E+01  0.72397367740E+01  0.29285058529E+01  0.98646525618E+01  0.51100000000E-03 0.  1.
        -12    1    3    3    0    0  0.29603026378E+02  0.18593555824E+02 -0.21398842861E+01  0.35023400658E+02  0.00000000000E+00 0.  1.
</event>
<event>
 7    1  0.2769403E-010  0.4778727E+02  0.7816164E-02  0.1312668E+00
        -11   -1    0    0    0    0  0.00000000000E+00  0.00000000000E+00  0.45593999997E+02  0.45594000000E+02  0.51100000000E-03 0. -1.
         11   -1    0    0    0    0 -0.00000000000E+00 -0.00000000000E+00 -0.45593999997E+02  0.45594000000E+02  0.51100000000E-03 0.  1.
    9900012    2    1    2    0    0 -0.18911980895E+02 -0.17349873605E+02 -0.34999177811E+02  0.47787267484E+02  0.19999983767E+02 0.  0.
         12    1    1    2    0    0  0.18911980895E+02  0.17349873605E+02  0.34999177811E+02  0.43400732516E+02  0.00000000000E+00 0. -1.
         11    1    3    3    0    0 -0.56208316632E+01 -0.82779435352E+01 -0.69220998702E+01  0.12166904480E+02  0.51100000000E-03 0. -1.
        -11    1    3    3    0    0  0.14760503273E+01 -0.68237988201E+01 -0.91079461408E+01  0.11475959135E+02  0.51100000000E-03 0.  1.
        -12    1    3    3    0    0 -0.14767199559E+02 -0.22481312493E+01 -0.18969131800E+02  0.24144403869E+02  0.00000000000E+00 0.  1.
</event>
<event>
 7    1  0.2769403E-010  0.4778727E+02  0.7816164E-02  0.1312668E+00
        -11   -1    0    0    0    0  0.00000000000E+00  0.00000000000E+00  0.45593999997E+02  0.45594000000E+02  0.51100000000E-03 0.  1.
         11   -1    0    0    0    0 -0.00000000000E+00 -0.00000000000E+00 -0.45593999997E+02  0.45594000000E+02  0.51100000000E-03 0. -1.
    9900012    2    1    2    0    0 -0.11483635458E+02 -0.27317813816E+02  0.31709408841E+02  0.47787269084E+02  0.19999991061E+02 0.  0.
         12    1    1    2    0    0  0.11483635458E+02  0.27317813816E+02 -0.31709408841E+02  0.43400730916E+02  0.00000000000E+00 0. -1.
         11    1    3    3    0    0  0.88340489789E+00 -0.46619834074E+00  0.76605727440E+00  0.12588046375E+01  0.51100000000E-03 0. -1.
        -11    1    3    3    0    0 -0.10405325968E+02 -0.34216084173E+01  0.71658417426E+01  0.13089213147E+02  0.51100000000E-03 0.  1.
         12    1    3    3    0    0 -0.19617143879E+01 -0.23430007058E+02  0.23777509824E+02  0.33439251300E+02  0.00000000000E+00 0. -1.
</event>
<event>
 7    1  0.2769403E-010  0.4778727E+02  0.7816164E-02  0.1312668E+00
        -11   -1    0    0    0    0  0.00000000000E+00  0.00000000000E+00  0.45593999997E+02  0.45594000000E+02  0.51100000000E-03 0.  1.
         11   -1    0    0    0    0 -0.00000000000E+00 -0.00000000000E+00 -0.45593999997E+02  0.45594000000E+02  0.51100000000E-03 0. -1.
    9900012    2    1    2    0    0 -0.79419199553E+01 -0.18849586927E+02  0.38278485552E+02  0.47787268716E+02  0.19999989382E+02 0.  0.
         12    1    1    2    0    0  0.79419199553E+01  0.18849586927E+02 -0.38278485552E+02  0.43400731284E+02  0.00000000000E+00 0. -1.
         11    1    3    3    0    0 -0.39712218691E+01 -0.98166553345E+01  0.15656820025E+02  0.18901675551E+02  0.51100000000E-03 0. -1.
        -11    1    3    3    0    0  0.42958580843E+01 -0.83120174086E+01  0.93088127453E+01  0.13198409945E+02  0.51100000000E-03 0.  1.
         12    1    3    3    0    0 -0.82665561704E+01 -0.72091418349E+00  0.13312852782E+02  0.15687183220E+02  0.00000000000E+00 0. -1.
</event>
<event>
 7    1  0.2769403E-010  0.4778727E+02  0.7816164E-02  0.1312668E+00
        -11   -1    0    0    0    0  0.00000000000E+00  0.00000000000E+00  0.45593999997E+02  0.45594000000E+02  0.51100000000E-03 0.  1.
         11   -1    0    0    0    0 -0.00000000000E+00 -0.00000000000E+00 -0.45593999997E+02  0.45594000000E+02  0.51100000000E-03 0. -1.
    9900012    2    1    2    0    0  0.15812526476E+02  0.34824148695E+02 -0.20515022901E+02  0.47787268548E+02  0.19999988619E+02 0.  0.
         12    1    1    2    0    0 -0.15812526476E+02 -0.34824148695E+02  0.20515022901E+02  0.43400731452E+02  0.00000000000E+00 0. -1.
         11    1    3    3    0    0  0.68981310093E+01  0.12283100500E+02 -0.82981270712E+01  0.16349852674E+02  0.51100000000E-03 0. -1.
        -11    1    3    3    0    0  0.10799606547E+02  0.19854142371E+02 -0.15006709729E+02  0.27129684996E+02  0.51100000000E-03 0.  1.
         12    1    3    3    0    0 -0.18852110796E+01  0.26869058244E+01  0.27898138991E+01  0.43077308778E+01  0.00000000000E+00 0. -1.
</event>
<event>
 7    1  0.2769403E-010  0.4778727E+02  0.7816164E-02  0.1312668E+00
        -11   -1    0    0    0    0  0.00000000000E+00  0.00000000000E+00  0.45593999997E+02  0.45594000000E+02  0.51100000000E-03 0. -1.
         11   -1    0    0    0    0 -0.00000000000E+00 -0.00000000000E+00 -0.45593999997E+02  0.45594000000E+02  0.51100000000E-03 0.  1.
    9900012    2    1    2    0    0  0.27246930360E+02 -0.33483399688E+02 -0.44821893164E+01  0.47787270862E+02  0.19999999166E+02 0.  0.
         12    1    1    2    0    0 -0.27246930360E+02  0.33483399688E+02  0.44821893164E+01  0.43400729138E+02  0.00000000000E+00 0. -1.
         11    1    3    3    0    0  0.37883811257E+00  0.38566802375E+00  0.24281493500E+01  0.24876027953E+01  0.51100000000E-03 0. -1.
        -11    1    3    3    0    0  0.75188523985E+01 -0.44442615408E+01 -0.49252935706E+01  0.10027119180E+02  0.51100000000E-03 0.  1.
         12    1    3    3    0    0  0.19349239849E+02 -0.29424806171E+02 -0.19850450958E+01  0.35272548886E+02  0.00000000000E+00 0. -1.
</event>
<event>
 7    1  0.2769403E-010  0.4778727E+02  0.7816164E-02  0.1312668E+00
        -11   -1    0    0    0    0  0.00000000000E+00  0.00000000000E+00  0.45593999997E+02  0.45594000000E+02  0.51100000000E-03 0.  1.
         11   -1    0    0    0    0 -0.00000000000E+00 -0.00000000000E+00 -0.45593999997E+02  0.45594000000E+02  0.51100000000E-03 0. -1.
    9900012    2    1    2    0    0 -0.19004749208E+02 -0.34780030688E+02  0.17685932946E+02  0.47787271304E+02  0.20000001186E+02 0.  0.
         12    1    1    2    0    0  0.19004749208E+02  0.34780030688E+02 -0.17685932946E+02  0.43400728696E+02  0.00000000000E+00 0. -1.
         11    1    3    3    0    0 -0.22898359190E+01 -0.67165207603E+01  0.30041717106E+00  0.71024819885E+01  0.51100000000E-03 0. -1.
        -11    1    3    3    0    0 -0.11903131498E+02 -0.49112429844E+01  0.84720611537E+01  0.15413651987E+02  0.51100000000E-03 0.  1.
        -12    1    3    3    0    0 -0.48117817906E+01 -0.23152266944E+02  0.89134546214E+01  0.25271137329E+02  0.00000000000E+00 0.  1.
</event>
<event>
 7    1  0.2769403E-010  0.4778727E+02  0.7816164E-02  0.1312668E+00
        -11   -1    0    0    0    0  0.00000000000E+00  0.00000000000E+00  0.45593999997E+02  0.45594000000E+02  0.51100000000E-03 0.  1.
         11   -1    0    0    0    0 -0.00000000000E+00 -0.00000000000E+00 -0.45593999997E+02  0.45594000000E+02  0.51100000000E-03 0. -1.
    9900012    2    1    2    0    0 -0.28339925806E+02 -0.32466233774E+02 -0.51395942947E+01  0.47787272360E+02  0.20000006000E+02 0.  0.
         12    1    1    2    0    0  0.28339925806E+02  0.32466233774E+02  0.51395942947E+01  0.43400727640E+02  0.00000000000E+00 0. -1.
         11    1    3    3    0    0 -0.69004448771E+01 -0.15610681123E+02  0.43819400970E+01  0.17621319584E+02  0.51100000000E-03 0. -1.
        -11    1    3    3    0    0 -0.14240266792E+01 -0.12317810152E+01  0.15759944498E+01  0.24553808706E+01  0.51100000000E-03 0.  1.
        -12    1    3    3    0    0 -0.20015454249E+02 -0.15623771636E+02 -0.11097528841E+02  0.27710571905E+02  0.00000000000E+00 0.  1.
</event>
<event>
 7    1  0.2769403E-010  0.4778727E+02  0.7816164E-02  0.1312668E+00
        -11   -1    0    0    0    0  0.00000000000E+00  0.00000000000E+00  0.45593999997E+02  0.45594000000E+02  0.51100000000E-03 0. -1.
         11   -1    0    0    0    0 -0.00000000000E+00 -0.00000000000E+00 -0.45593999997E+02  0.45594000000E+02  0.51100000000E-03 0.  1.
    9900012    2    1    2    0    0 -0.35109592872E+02  0.27269532498E+01 -0.25367365979E+02  0.47787273711E+02  0.20000012158E+02 0.  0.
         12    1    1    2    0    0  0.35109592872E+02 -0.27269532498E+01  0.25367365979E+02  0.43400726289E+02  0.00000000000E+00 0. -1.
         11    1    3    3    0    0 -0.60992148208E+01  0.34131126550E+01 -0.81209589926E+01  0.10714463806E+02  0.51100000000E-03 0. -1.
        -11    1    3    3    0    0 -0.22124489340E+02  0.54744389958E+01 -0.15771149910E+02  0.27716271044E+02  0.51100000000E-03 0.  1.
         12    1    3    3    0    0 -0.68858887118E+01 -0.61605984010E+01 -0.14752570766E+01  0.93565388607E+01  0.00000000000E+00 0. -1.
</event>
<event>
 7    1  0.2769403E-010  0.4778727E+02  0.7816164E-02  0.1312668E+00
        -11   -1    0    0    0    0  0.00000000000E+00  0.00000000000E+00  0.45593999997E+02  0.45594000000E+02  0.51100000000E-03 0. -1.
         11   -1    0    0    0    0 -0.00000000000E+00 -0.00000000000E+00 -0.45593999997E+02  0.45594000000E+02  0.51100000000E-03 0.  1.
    9900012    2    1    2    0    0 -0.37951670476E+02  0.17500061060E+02 -0.11706482948E+02  0.47787272218E+02  0.20000005349E+02 0.  0.
         12    1    1    2    0    0  0.37951670476E+02 -0.17500061060E+02  0.11706482948E+02  0.43400727782E+02  0.00000000000E+00 0. -1.
         11    1    3    3    0    0 -0.11049347077E+02  0.89870364649E+01 -0.12521701555E+01  0.14297651052E+02  0.51100000000E-03 0. -1.
        -11    1    3    3    0    0 -0.13794388582E+02  0.11960667157E+02 -0.57170824440E+01  0.19131851638E+02  0.51100000000E-03 0.  1.
         12    1    3    3    0    0 -0.13107934818E+02 -0.34476425621E+01 -0.47372303490E+01  0.14357769527E+02  0.00000000000E+00 0. -1.
</event>
<event>
 7    1  0.2769403E-010  0.4778725E+02  0.7816164E-02  0.1312668E+00
        -11   -1    0    0    0    0  0.00000000000E+00  0.00000000000E+00  0.45593999997E+02  0.45594000000E+02  0.51100000000E-03 0.  1.
         11   -1    0    0    0    0 -0.00000000000E+00 -0.00000000000E+00 -0.45593999997E+02  0.45594000000E+02  0.51100000000E-03 0. -1.
    9900012    2    1    2    0    0  0.19366947225E+02  0.35578129888E+02  0.15580204080E+02  0.47787254265E+02  0.19999923496E+02 0.  0.
         12    1    1    2    0    0 -0.19366947225E+02 -0.35578129888E+02 -0.15580204080E+02  0.43400745735E+02  0.00000000000E+00 0. -1.
         11    1    3    3    0    0  0.16038927667E+02  0.21794853836E+02  0.86780679864E+01  0.28417806367E+02  0.51100000000E-03 0. -1.
        -11    1    3    3    0    0  0.58100130055E+01  0.69060221313E+01  0.78950902096E+01  0.11990906658E+02  0.51100000000E-03 0.  1.
         12    1    3    3    0    0 -0.24819934470E+01  0.68772539208E+01 -0.99295411627E+00  0.73785412406E+01  0.00000000000E+00 0. -1.
</event>
<event>
 7    1  0.2769403E-010  0.4778727E+02  0.7816164E-02  0.1312668E+00
        -11   -1    0    0    0    0  0.00000000000E+00  0.00000000000E+00  0.45593999997E+02  0.45594000000E+02  0.51100000000E-03 0.  1.
         11   -1    0    0    0    0 -0.00000000000E+00 -0.00000000000E+00 -0.45593999997E+02  0.45594000000E+02  0.51100000000E-03 0. -1.
    9900012    2    1    2    0    0  0.39861819283E+01  0.37884954594E+02  0.20795766242E+02  0.47787270460E+02  0.19999997336E+02 0.  0.
         12    1    1    2    0    0 -0.39861819283E+01 -0.37884954594E+02 -0.20795766242E+02  0.43400729540E+02  0.00000000000E+00 0. -1.
         11    1    3    3    0    0  0.11983968646E+01  0.29535448357E+01  0.63892989691E+01  0.71402187445E+01  0.51100000000E-03 0. -1.
        -11    1    3    3    0    0 -0.48080643251E+01  0.74614390809E+01  0.38713387790E+00  0.88848426329E+01  0.51100000000E-03 0.  1.
        -12    1    3    3    0    0  0.75958493887E+01  0.27469970678E+02  0.14019333395E+02  0.31762209083E+02  0.00000000000E+00 0.  1.
</event>
<event>
 7    1  0.2769403E-010  0.4778727E+02  0.7816164E-02  0.1312668E+00
        -11   -1    0    0    0    0  0.00000000000E+00  0.00000000000E+00  0.45593999997E+02  0.45594000000E+02  0.51100000000E-03 0.  1.
         11   -1    0    0    0    0 -0.00000000000E+00 -0.00000000000E+00 -0.45593999997E+02  0.45594000000E+02  0.51100000000E-03 0. -1.
    9900012    2    1    2    0    0 -0.20498656304E+02  0.37133834704E+02  0.91927411427E+01  0.47787273280E+02  0.20000010194E+02 0.  0.
         12    1    1    2    0    0  0.20498656304E+02 -0.37133834704E+02 -0.91927411427E+01  0.43400726720E+02  0.00000000000E+00 0. -1.
         11    1    3    3    0    0 -0.12460263220E+02  0.12501189910E+02  0.54670551633E+01  0.18477732574E+02  0.51100000000E-03 0. -1.
        -11    1    3    3    0    0 -0.11383649986E+02  0.21938678021E+02  0.24966871622E+01  0.24842031466E+02  0.51100000000E-03 0.  1.
         12    1    3    3    0    0  0.33452569021E+01  0.26939667731E+01  0.12289988172E+01  0.44675092399E+01  0.00000000000E+00 0. -1.
</event>
<event>
 7    1  0.2769403E-010  0.4778727E+02  0.7816164E-02  0.1312668E+00
        -11   -1    0    0    0    0  0.00000000000E+00  0.00000000000E+00  0.45593999997E+02  0.45594000000E+02  0.51100000000E-03 0.  1.
         11   -1    0    0    0    0 -0.00000000000E+00 -0.00000000000E+00 -0.45593999997E+02  0.45594000000E+02  0.51100000000E-03 0. -1.
    9900012    2    1    2    0    0 -0.41614357153E+02  0.46241004882E+01  0.11423067038E+02  0.47787268588E+02  0.19999988799E+02 0.  0.
         12    1    1    2    0    0  0.41614357153E+02 -0.46241004882E+01 -0.11423067038E+02  0.43400731412E+02  0.00000000000E+00 0. -1.
         11    1    3    3    0    0 -0.12350641217E+02 -0.60529526928E+01 -0.15990077125E+01  0.13846783045E+02  0.51100000000E-03 0. -1.
        -11    1    3    3    0    0 -0.61206092063E+01  0.21474847335E+01  0.42843476823E+01  0.77736209749E+01  0.51100000000E-03 0.  1.
         12    1    3    3    0    0 -0.23143106729E+02  0.85295684475E+01  0.87377270679E+01  0.26166864568E+02  0.00000000000E+00 0. -1.
</event>
<event>
 7    1  0.2769403E-010  0.4778727E+02  0.7816164E-02  0.1312668E+00
        -11   -1    0    0    0    0  0.00000000000E+00  0.00000000000E+00  0.45593999997E+02  0.45594000000E+02  0.51100000000E-03 0.  1.
         11   -1    0    0    0    0 -0.00000000000E+00 -0.00000000000E+00 -0.45593999997E+02  0.45594000000E+02  0.51100000000E-03 0. -1.
    9900012    2    1    2    0    0  0.20505475723E+02 -0.12189472336E+02  0.36256936979E+02  0.47787271325E+02  0.20000001279E+02 0.  0.
         12    1    1    2    0    0 -0.20505475723E+02  0.12189472336E+02 -0.36256936979E+02  0.43400728675E+02  0.00000000000E+00 0. -1.
         11    1    3    3    0    0 -0.39518785381E+00 -0.88244796066E+00 -0.42233038409E+00  0.10551071308E+01  0.51100000000E-03 0. -1.
        -11    1    3    3    0    0  0.70875092142E+01 -0.11138089285E+02  0.95685038834E+01  0.16304787230E+02  0.51100000000E-03 0.  1.
         12    1    3    3    0    0  0.13813154362E+02 -0.16893509075E+00  0.27110763479E+02  0.30427376964E+02  0.00000000000E+00 0. -1.
</event>
<event>
 7    1  0.2769403E-010  0.4778727E+02  0.7816164E-02  0.1312668E+00
        -11   -1    0    0    0    0  0.00000000000E+00  0.00000000000E+00  0.45593999997E+02  0.45594000000E+02  0.51100000000E-03 0.  1.
         11   -1    0    0    0    0 -0.00000000000E+00 -0.00000000000E+00 -0.45593999997E+02  0.45594000000E+02  0.51100000000E-03 0. -1.
    9900012    2    1    2    0    0  0.40991495581E+02 -0.28512133401E+01 -0.13971086949E+02  0.47787269614E+02  0.19999993478E+02 0.  0.
         12    1    1    2    0    0 -0.40991495581E+02  0.28512133401E+01  0.13971086949E+02  0.43400730386E+02  0.00000000000E+00 0. -1.
         11    1    3    3    0    0  0.13103070024E+02  0.43512350857E+01 -0.21973613302E+00  0.13808402335E+02  0.51100000000E-03 0. -1.
        -11    1    3    3    0    0  0.92945990004E+01 -0.26420986396E+01  0.11325406270E+01  0.97289724192E+01  0.51100000000E-03 0.  1.
         12    1    3    3    0    0  0.18593826557E+02 -0.45603497863E+01 -0.14883891443E+02  0.24249894860E+02  0.00000000000E+00 0. -1.
</event>
<event>
 7    1  0.2769403E-010  0.4778727E+02  0.7816164E-02  0.1312668E+00
        -11   -1    0    0    0    0  0.00000000000E+00  0.00000000000E+00  0.45593999997E+02  0.45594000000E+02  0.51100000000E-03 0. -1.
         11   -1    0    0    0    0 -0.00000000000E+00 -0.00000000000E+00 -0.45593999997E+02  0.45594000000E+02  0.51100000000E-03 0.  1.
    9900012    2    1    2    0    0 -0.38142047148E+02 -0.79228926214E+01  0.19132055862E+02  0.47787267867E+02  0.19999985514E+02 0.  0.
         12    1    1    2    0    0  0.38142047148E+02  0.79228926214E+01 -0.19132055862E+02  0.43400732133E+02  0.00000000000E+00 0. -1.
         11    1    3    3    0    0 -0.24411645448E+01  0.29126589570E+01  0.56620127360E+01  0.68191828703E+01  0.51100000000E-03 0. -1.
        -11    1    3    3    0    0 -0.12552500449E+01 -0.95250581236E+00  0.33957437398E+01  0.37435271877E+01  0.51100000000E-03 0.  1.
        -12    1    3    3    0    0 -0.34445632559E+02 -0.98830457660E+01  0.10074299386E+02  0.37224557809E+02  0.00000000000E+00 0.  1.
</event>
<event>
 7    1  0.2769403E-010  0.4778727E+02  0.7816164E-02  0.1312668E+00
        -11   -1    0    0    0    0  0.00000000000E+00  0.00000000000E+00  0.45593999997E+02  0.45594000000E+02  0.51100000000E-03 0.  1.
         11   -1    0    0    0    0 -0.00000000000E+00 -0.00000000000E+00 -0.45593999997E+02  0.45594000000E+02  0.51100000000E-03 0. -1.
    9900012    2    1    2    0    0 -0.34328469254E+02  0.25745980235E+02  0.65057014033E+01  0.47787269012E+02  0.19999990732E+02 0.  0.
         12    1    1    2    0    0  0.34328469254E+02 -0.25745980235E+02 -0.65057014033E+01  0.43400730988E+02  0.00000000000E+00 0. -1.
         11    1    3    3    0    0 -0.11858729514E+02  0.19538521018E+01  0.25713183703E+01  0.12290593238E+02  0.51100000000E-03 0. -1.
        -11    1    3    3    0    0 -0.15747711183E+02  0.20647775900E+02  0.78203592671E+01  0.27119717485E+02  0.51100000000E-03 0.  1.
         12    1    3    3    0    0 -0.67220285571E+01  0.31443522328E+01 -0.38859762342E+01  0.83769582892E+01  0.00000000000E+00 0. -1.
</event>
<event>
 7    1  0.2769403E-010  0.4778727E+02  0.7816164E-02  0.1312668E+00
        -11   -1    0    0    0    0  0.00000000000E+00  0.00000000000E+00  0.45593999997E+02  0.45594000000E+02  0.51100000000E-03 0. -1.
         11   -1    0    0    0    0 -0.00000000000E+00 -0.00000000000E+00 -0.45593999997E+02  0.45594000000E+02  0.51100000000E-03 0.  1.
    9900012    2    1    2    0    0 -0.31307108126E+02  0.98319436979E+01 -0.28404605557E+02  0.47787265525E+02  0.19999974837E+02 0.  0.
         12    1    1    2    0    0  0.31307108126E+02 -0.98319436979E+01  0.28404605557E+02  0.43400734475E+02  0.00000000000E+00 0. -1.
         11    1    3    3    0    0 -0.24661624162E+01 -0.10285356203E+01 -0.35907128901E+01  0.44758308620E+01  0.51100000000E-03 0. -1.
        -11    1    3    3    0    0 -0.29196981278E+02  0.49951596775E+01 -0.20843117374E+02  0.36219482024E+02  0.51100000000E-03 0.  1.
        -12    1    3    3    0    0  0.35603556852E+00  0.58653196407E+01 -0.39707752929E+01  0.70919526394E+01  0.00000000000E+00 0.  1.
</event>
<event>
 7    1  0.2769403E-010  0.4778728E+02  0.7816164E-02  0.1312668E+00
        -11   -1    0    0    0    0  0.00000000000E+00  0.00000000000E+00  0.45593999997E+02  0.45594000000E+02  0.51100000000E-03 0.  1.
         11   -1    0    0    0    0 -0.00000000000E+00 -0.00000000000E+00 -0.45593999997E+02  0.45594000000E+02  0.51100000000E-03 0. -1.
    9900012    2    1    2    0    0 -0.13573991990E+02  0.26501347986E+02  0.31576058829E+02  0.47787283477E+02  0.20000056684E+02 0.  0.
         12    1    1    2    0    0  0.13573991990E+02 -0.26501347986E+02 -0.31576058829E+02  0.43400716523E+02  0.00000000000E+00 0. -1.
         11    1    3    3    0    0 -0.12697503787E+01 -0.31679547622E+00  0.73659825520E+00  0.15017332149E+01  0.51100000000E-03 0. -1.
        -11    1    3    3    0    0 -0.66297387131E+01  0.26026595087E+02  0.30361983344E+02  0.40536244524E+02  0.51100000000E-03 0.  1.
        -12    1    3    3    0    0 -0.56745028979E+01  0.79154837526E+00  0.47747722894E+00  0.57493057383E+01  0.00000000000E+00 0.  1.
</event>
<event>
 7    1  0.2769403E-010  0.4778726E+02  0.7816164E-02  0.1312668E+00
        -11   -1    0    0    0    0  0.00000000000E+00  0.00000000000E+00  0.45593999997E+02  0.45594000000E+02  0.51100000000E-03 0.  1.
         11   -1    0    0    0    0 -0.00000000000E+00 -0.00000000000E+00 -0.45593999997E+02  0.45594000000E+02  0.51100000000E-03 0. -1.
    9900012    2    1    2    0    0 -0.27808565577E+02 -0.15253679813E+00  0.33320931401E+02  0.47787262030E+02  0.19999958900E+02 0.  0.
         12    1    1    2    0    0  0.27808565577E+02  0.15253679813E+00 -0.33320931401E+02  0.43400737970E+02  0.00000000000E+00 0. -1.
         11    1    3    3    0    0 -0.11369562902E+02 -0.12857788118E+01  0.10776645609E+02  0.15718024003E+02  0.51100000000E-03 0. -1.
        -11    1    3    3    0    0 -0.15895578212E+02 -0.12196283465E+01  0.24314603734E+02  0.29075021152E+02  0.51100000000E-03 0.  1.
         12    1    3    3    0    0 -0.54342446349E+00  0.23528703602E+01 -0.17703179418E+01  0.29942168750E+01  0.00000000000E+00 0. -1.
</event>
<event>
 7    1  0.2769403E-010  0.4778727E+02  0.7816164E-02  0.1312668E+00
        -11   -1    0    0    0    0  0.00000000000E+00  0.00000000000E+00  0.45593999997E+02  0.45594000000E+02  0.51100000000E-03 0.  1.
         11   -1    0    0    0    0 -0.00000000000E+00 -0.00000000000E+00 -0.45593999997E+02  0.45594000000E+02  0.51100000000E-03 0. -1.
    9900012    2    1    2    0    0  0.17757370701E+02 -0.18196608330E+02  0.35173603021E+02  0.47787272836E+02  0.20000008166E+02 0.  0.
         12    1    1    2    0    0 -0.17757370701E+02  0.18196608330E+02 -0.35173603021E+02  0.43400727164E+02  0.00000000000E+00 0. -1.
         11    1    3    3    0    0  0.58341633680E+01  0.63365387275E+00  0.30952444507E+01  0.66347206351E+01  0.51100000000E-03 0.  1.
        -11    1    3    3    0    0  0.12237948078E+02 -0.20216279531E+02  0.27010541624E+02  0.35889200190E+02  0.51100000000E-03 0. -1.
         12    1    3    3    0    0 -0.31474074529E+00  0.13860173290E+01  0.50678169470E+01  0.52633520100E+01  0.00000000000E+00 0. -1.
</event>
<event>
 7    1  0.2769403E-010  0.4778727E+02  0.7816164E-02  0.1312668E+00
        -11   -1    0    0    0    0  0.00000000000E+00  0.00000000000E+00  0.45593999997E+02  0.45594000000E+02  0.51100000000E-03 0.  1.
         11   -1    0    0    0    0 -0.00000000000E+00 -0.00000000000E+00 -0.45593999997E+02  0.45594000000E+02  0.51100000000E-03 0. -1.
    9900012    2    1    2    0    0 -0.20193484665E+01  0.37110221510E+02 -0.22413760014E+02  0.47787274813E+02  0.20000017183E+02 0.  0.
         12    1    1    2    0    0  0.20193484665E+01 -0.37110221510E+02  0.22413760014E+02  0.43400725187E+02  0.00000000000E+00 0. -1.
         11    1    3    3    0    0 -0.34492124940E+01  0.16243778775E+02 -0.12831821293E+02  0.20986020434E+02  0.51100000000E-03 0. -1.
        -11    1    3    3    0    0 -0.56936964577E+01  0.12316330193E+02 -0.30855984181E+01  0.13915138758E+02  0.51100000000E-03 0.  1.
        -12    1    3    3    0    0  0.71235604852E+01  0.85501125416E+01 -0.64963403034E+01  0.12886115621E+02  0.00000000000E+00 0.  1.
</event>
<event>
 7    1  0.2769403E-010  0.4778727E+02  0.7816164E-02  0.1312668E+00
        -11   -1    0    0    0    0  0.00000000000E+00  0.00000000000E+00  0.45593999997E+02  0.45594000000E+02  0.51100000000E-03 0.  1.
         11   -1    0    0    0    0 -0.00000000000E+00 -0.00000000000E+00 -0.45593999997E+02  0.45594000000E+02  0.51100000000E-03 0. -1.
    9900012    2    1    2    0    0  0.25186031645E+01 -0.42751791563E+02 -0.70401847781E+01  0.47787271372E+02  0.20000001492E+02 0.  0.
         12    1    1    2    0    0 -0.25186031645E+01  0.42751791563E+02  0.70401847781E+01  0.43400728628E+02  0.00000000000E+00 0. -1.
         11    1    3    3    0    0 -0.15838272156E+01 -0.27526918916E+02 -0.69356154900E+01  0.28431365358E+02  0.51100000000E-03 0. -1.
        -11    1    3    3    0    0  0.68766231106E+01 -0.13537999035E+02  0.22432254384E+01  0.15349183167E+02  0.51100000000E-03 0.  1.
         12    1    3    3    0    0 -0.27741927305E+01 -0.16868736129E+01 -0.23477947265E+01  0.40067228467E+01  0.00000000000E+00 0. -1.
</event>
<event>
 7    1  0.2769403E-010  0.4778727E+02  0.7816164E-02  0.1312668E+00
        -11   -1    0    0    0    0  0.00000000000E+00  0.00000000000E+00  0.45593999997E+02  0.45594000000E+02  0.51100000000E-03 0. -1.
         11   -1    0    0    0    0 -0.00000000000E+00 -0.00000000000E+00 -0.45593999997E+02  0.45594000000E+02  0.51100000000E-03 0.  1.
    9900012    2    1    2    0    0  0.40256484108E+02  0.28451150448E+01 -0.15966962126E+02  0.47787273371E+02  0.20000010609E+02 0.  0.
         12    1    1    2    0    0 -0.40256484108E+02 -0.28451150448E+01  0.15966962126E+02  0.43400726629E+02  0.00000000000E+00 0. -1.
         11    1    3    3    0    0  0.18515933572E+02  0.38118922321E+01 -0.87530832684E+01  0.20832349493E+02  0.51100000000E-03 0.  1.
        -11    1    3    3    0    0  0.93172421885E+01 -0.22170645123E+01 -0.10329164273E+02  0.14086092854E+02  0.51100000000E-03 0. -1.
         12    1    3    3    0    0  0.12423308348E+02  0.12502873251E+01  0.31152854160E+01  0.12868831024E+02  0.00000000000E+00 0. -1.
</event>
<event>
 7    1  0.2769403E-010  0.4778727E+02  0.7816164E-02  0.1312668E+00
        -11   -1    0    0    0    0  0.00000000000E+00  0.00000000000E+00  0.45593999997E+02  0.45594000000E+02  0.51100000000E-03 0. -1.
         11   -1    0    0    0    0 -0.00000000000E+00 -0.00000000000E+00 -0.45593999997E+02  0.45594000000E+02  0.51100000000E-03 0.  1.
    9900012    2    1    2    0    0  0.35903613183E+02  0.14888953584E+02 -0.19309920129E+02  0.47787269663E+02  0.19999993701E+02 0.  0.
         12    1    1    2    0    0 -0.35903613183E+02 -0.14888953584E+02  0.19309920129E+02  0.43400730337E+02  0.00000000000E+00 0. -1.
         11    1    3    3    0    0  0.24023962801E+02  0.86323741855E+01 -0.13022635062E+02  0.28657594054E+02  0.51100000000E-03 0. -1.
        -11    1    3    3    0    0  0.80229425982E+01  0.33987499088E+01 -0.98508400221E+01  0.13151355758E+02  0.51100000000E-03 0.  1.
         12    1    3    3    0    0  0.38567077840E+01  0.28578294898E+01  0.35635549551E+01  0.59783198510E+01  0.00000000000E+00 0. -1.
</event>
<event>
 7    1  0.2769403E-010  0.4778727E+02  0.7816164E-02  0.1312668E+00
        -11   -1    0    0    0    0  0.00000000000E+00  0.00000000000E+00  0.45593999997E+02  0.45594000000E+02  0.51100000000E-03 0.  1.
         11   -1    0    0    0    0 -0.00000000000E+00 -0.00000000000E+00 -0.45593999997E+02  0.45594000000E+02  0.51100000000E-03 0. -1.
    9900012    2    1    2    0    0  0.94561028200E+01 -0.39552529540E+02  0.15159246779E+02  0.47787271476E+02  0.20000001966E+02 0.  0.
         12    1    1    2    0    0 -0.94561028200E+01  0.39552529540E+02 -0.15159246779E+02  0.43400728524E+02  0.00000000000E+00 0. -1.
         11    1    3    3    0    0  0.10462113864E+01 -0.48099895793E+00  0.36501270032E+01  0.38274463632E+01  0.51100000000E-03 0. -1.
        -11    1    3    3    0    0  0.40608201824E+01 -0.12471851643E+02  0.10811673813E+02  0.16997930311E+02  0.51100000000E-03 0.  1.
         12    1    3    3    0    0  0.43490712512E+01 -0.26599678939E+02  0.69744596283E+00  0.26961894801E+02  0.00000000000E+00 0. -1.
</event>
<event>
 7    1  0.2769403E-010  0.4778727E+02  0.7816164E-02  0.1312668E+00
        -11   -1    0    0    0    0  0.00000000000E+00  0.00000000000E+00  0.45593999997E+02  0.45594000000E+02  0.51100000000E-03 0.  1.
         11   -1    0    0    0    0 -0.00000000000E+00 -0.00000000000E+00 -0.45593999997E+02  0.45594000000E+02  0.51100000000E-03 0. -1.
    9900012    2    1    2    0    0 -0.33153712632E+02 -0.85256775092E+01  0.26678965393E+02  0.47787273822E+02  0.20000012666E+02 0.  0.
         12    1    1    2    0    0  0.33153712632E+02  0.85256775092E+01 -0.26678965393E+02  0.43400726178E+02  0.00000000000E+00 0. -1.
         11    1    3    3    0    0 -0.76195727531E+01 -0.45786810358E+01  0.54773015115E+00  0.89063021253E+01  0.51100000000E-03 0. -1.
        -11    1    3    3    0    0 -0.64428934910E+01 -0.69305272351E+01  0.89227922261E+01  0.13006125698E+02  0.51100000000E-03 0.  1.
         12    1    3    3    0    0 -0.19091246388E+02  0.29835307616E+01  0.17208443016E+02  0.25874845999E+02  0.00000000000E+00 0. -1.
</event>
<event>
 7    1  0.2769403E-010  0.4778727E+02  0.7816164E-02  0.1312668E+00
        -11   -1    0    0    0    0  0.00000000000E+00  0.00000000000E+00  0.45593999997E+02  0.45594000000E+02  0.51100000000E-03 0.  1.
         11   -1    0    0    0    0 -0.00000000000E+00 -0.00000000000E+00 -0.45593999997E+02  0.45594000000E+02  0.51100000000E-03 0. -1.
    9900012    2    1    2    0    0  0.15994487886E+02 -0.11475097135E+02  0.38679731030E+02  0.47787273168E+02  0.20000009684E+02 0.  0.
         12    1    1    2    0    0 -0.15994487886E+02  0.11475097135E+02 -0.38679731030E+02  0.43400726832E+02  0.00000000000E+00 0. -1.
         11    1    3    3    0    0  0.36411334122E+00 -0.61798430830E+01  0.30739203407E+01  0.69117310117E+01  0.51100000000E-03 0. -1.
        -11    1    3    3    0    0  0.40721863262E+01 -0.26305262226E+01  0.20113983404E+01  0.52486277471E+01  0.51100000000E-03 0.  1.
        -12    1    3    3    0    0  0.11558188219E+02 -0.26647278289E+01  0.33594412349E+02  0.35626914410E+02  0.00000000000E+00 0.  1.
</event>
<event>
 7    1  0.2769403E-010  0.4778725E+02  0.7816164E-02  0.1312668E+00
        -11   -1    0    0    0    0  0.00000000000E+00  0.00000000000E+00  0.45593999997E+02  0.45594000000E+02  0.51100000000E-03 0. -1.
         11   -1    0    0    0    0 -0.00000000000E+00 -0.00000000000E+00 -0.45593999997E+02  0.45594000000E+02  0.51100000000E-03 0.  1.
    9900012    2    1    2    0    0  0.39683180553E+01  0.18265052550E+02 -0.39169694998E+02  0.47787254625E+02  0.19999925137E+02 0.  0.
         12    1    1    2    0    0 -0.39683180553E+01 -0.18265052550E+02  0.39169694998E+02  0.43400745375E+02  0.00000000000E+00 0. -1.
         11    1    3    3    0    0  0.10666001718E+02  0.79662463642E+01 -0.22545473939E+02  0.26182495473E+02  0.51100000000E-03 0. -1.
        -11    1    3    3    0    0 -0.65708328546E-01  0.26099646838E+01 -0.67330705598E+00  0.26962151042E+01  0.51100000000E-03 0.  1.
        -12    1    3    3    0    0 -0.66319753342E+01  0.76888415016E+01 -0.15950914004E+02  0.18908544048E+02  0.00000000000E+00 0.  1.
</event>
<event>
 7    1  0.2769403E-010  0.4778727E+02  0.7816164E-02  0.1312668E+00
        -11   -1    0    0    0    0  0.00000000000E+00  0.00000000000E+00  0.45593999997E+02  0.45594000000E+02  0.51100000000E-03 0.  1.
         11   -1    0    0    0    0 -0.00000000000E+00 -0.00000000000E+00 -0.45593999997E+02  0.45594000000E+02  0.51100000000E-03 0. -1.
    9900012    2    1    2    0    0  0.17192171690E+02 -0.80939833445E+01  0.39019738669E+02  0.47787270288E+02  0.19999996549E+02 0.  0.
         12    1    1    2    0    0 -0.17192171690E+02  0.80939833445E+01 -0.39019738669E+02  0.43400729712E+02  0.00000000000E+00 0. -1.
         11    1    3    3    0    0 -0.19827031466E+01  0.39557851742E+00  0.30391493397E+01  0.36502086380E+01  0.51100000000E-03 0. -1.
        -11    1    3    3    0    0  0.82558543583E+01  0.26582877273E+01  0.20008889622E+02  0.21807826325E+02  0.51100000000E-03 0.  1.
         12    1    3    3    0    0  0.10919020478E+02 -0.11147849589E+02  0.15971699707E+02  0.22329235325E+02  0.00000000000E+00 0. -1.
</event>
<event>
 7    1  0.2880580E-010  0.4778727E+02  0.7816164E-02  0.1312668E+00
        -11   -1    0    0    0    0  0.00000000000E+00  0.00000000000E+00  0.45593999997E+02  0.45594000000E+02  0.51100000000E-03 0.  1.
         11   -1    0    0    0    0 -0.00000000000E+00 -0.00000000000E+00 -0.45593999997E+02  0.45594000000E+02  0.51100000000E-03 0. -1.
    9900012    2    1    2    0    0 -0.43086702241E+02  0.41022749936E+01 -0.32141566813E+01  0.47787269899E+02  0.19999994779E+02 0.  0.
         12    1    1    2    0    0  0.43086702241E+02 -0.41022749936E+01  0.32141566813E+01  0.43400730101E+02  0.00000000000E+00 0. -1.
         11    1    3    3    0    0 -0.87657916036E+01 -0.43070795505E+01 -0.63475295846E+00  0.97873872035E+01  0.51100000000E-03 0. -1.
        -11    1    3    3    0    0 -0.30415301355E+02  0.35490569418E+01  0.13125971551E+01  0.30649784228E+02  0.51100000000E-03 0.  1.
         12    1    3    3    0    0 -0.39056092825E+01  0.48602976023E+01 -0.38920008779E+01  0.73500984677E+01  0.00000000000E+00 0. -1.
</event>
<event>
 7    1  0.2769403E-010  0.4778727E+02  0.7816164E-02  0.1312668E+00
        -11   -1    0    0    0    0  0.00000000000E+00  0.00000000000E+00  0.45593999997E+02  0.45594000000E+02  0.51100000000E-03 0. -1.
         11   -1    0    0    0    0 -0.00000000000E+00 -0.00000000000E+00 -0.45593999997E+02  0.45594000000E+02  0.51100000000E-03 0.  1.
    9900012    2    1    2    0    0 -0.40311289067E+02  0.79150906349E+01 -0.13999093519E+02  0.47787270681E+02  0.19999998345E+02 0.  0.
         12    1    1    2    0    0  0.40311289067E+02 -0.79150906349E+01  0.13999093519E+02  0.43400729319E+02  0.00000000000E+00 0. -1.
         11    1    3    3    0    0 -0.11418269346E+02  0.56132550716E+00  0.26948418067E+01  0.11745387767E+02  0.51100000000E-03 0. -1.
        -11    1    3    3    0    0 -0.11563709895E+02  0.80160081412E+01 -0.42535095519E+01  0.14699255656E+02  0.51100000000E-03 0.  1.
        -12    1    3    3    0    0 -0.17329309827E+02 -0.66224301348E+00 -0.12440425774E+02  0.21342627259E+02  0.00000000000E+00 0.  1.
</event>
<event>
 7    1  0.2769403E-010  0.4778727E+02  0.7816164E-02  0.1312668E+00
        -11   -1    0    0    0    0  0.00000000000E+00  0.00000000000E+00  0.45593999997E+02  0.45594000000E+02  0.51100000000E-03 0.  1.
         11   -1    0    0    0    0 -0.00000000000E+00 -0.00000000000E+00 -0.45593999997E+02  0.45594000000E+02  0.51100000000E-03 0. -1.
    9900012    2    1    2    0    0 -0.41566584745E+02  0.43915162924E+01  0.11685761312E+02  0.47787269590E+02  0.19999993369E+02 0.  0.
         12    1    1    2    0    0  0.41566584745E+02 -0.43915162924E+01 -0.11685761312E+02  0.43400730410E+02  0.00000000000E+00 0. -1.
         11    1    3    3    0    0 -0.61177734860E+01  0.17182417774E+01 -0.28938891681E+01  0.69824137668E+01  0.51100000000E-03 0. -1.
        -11    1    3    3    0    0 -0.28992790660E+02 -0.27507354734E+01  0.14106326649E+02  0.32359494861E+02  0.51100000000E-03 0.  1.
         12    1    3    3    0    0 -0.64560205990E+01  0.54240099884E+01  0.47332383084E+00  0.84453609619E+01  0.00000000000E+00 0. -1.
</event>
<event>
 7    1  0.2769403E-010  0.4778727E+02  0.7816164E-02  0.1312668E+00
        -11   -1    0    0    0    0  0.00000000000E+00  0.00000000000E+00  0.45593999997E+02  0.45594000000E+02  0.51100000000E-03 0.  1.
         11   -1    0    0    0    0 -0.00000000000E+00 -0.00000000000E+00 -0.45593999997E+02  0.45594000000E+02  0.51100000000E-03 0. -1.
    9900012    2    1    2    0    0 -0.21285675673E+02  0.27225272271E+02  0.26255049681E+02  0.47787273361E+02  0.20000010561E+02 0.  0.
         12    1    1    2    0    0  0.21285675673E+02 -0.27225272271E+02 -0.26255049681E+02  0.43400726639E+02  0.00000000000E+00 0. -1.
         11    1    3    3    0    0 -0.63846552729E+00 -0.19264514051E+01  0.34648923522E+01  0.40155114891E+01  0.51100000000E-03 0. -1.
        -11    1    3    3    0    0 -0.68663131554E+00  0.77666633178E+01  0.72513540894E+01  0.10647753662E+02  0.51100000000E-03 0.  1.
        -12    1    3    3    0    0 -0.19960578830E+02  0.21385060358E+02  0.15538803240E+02  0.33124008210E+02  0.00000000000E+00 0.  1.
</event>
<event>
 7    1  0.2769403E-010  0.4778727E+02  0.7816164E-02  0.1312668E+00
        -11   -1    0    0    0    0  0.00000000000E+00  0.00000000000E+00  0.45593999997E+02  0.45594000000E+02  0.51100000000E-03 0.  1.
         11   -1    0    0    0    0 -0.00000000000E+00 -0.00000000000E+00 -0.45593999997E+02  0.45594000000E+02  0.51100000000E-03 0. -1.
    9900012    2    1    2    0    0  0.25797854107E+02  0.34871776983E+02 -0.14328694891E+01  0.47787271648E+02  0.20000002753E+02 0.  0.
         12    1    1    2    0    0 -0.25797854107E+02 -0.34871776983E+02  0.14328694891E+01  0.43400728352E+02  0.00000000000E+00 0. -1.
         11    1    3    3    0    0  0.83108556155E+01  0.73429227857E+01 -0.29600111095E+01  0.11478262156E+02  0.51100000000E-03 0. -1.
        -11    1    3    3    0    0  0.73714568104E+01  0.17146391657E+02 -0.64704919716E+01  0.19753591800E+02  0.51100000000E-03 0.  1.
        -12    1    3    3    0    0  0.10115541681E+02  0.10382462540E+02  0.79976335919E+01  0.16555417692E+02  0.00000000000E+00 0.  1.
</event>
<event>
 7    1  0.2769403E-010  0.4778727E+02  0.7816164E-02  0.1312668E+00
        -11   -1    0    0    0    0  0.00000000000E+00  0.00000000000E+00  0.45593999997E+02  0.45594000000E+02  0.51100000000E-03 0. -1.
         11   -1    0    0    0    0 -0.00000000000E+00 -0.00000000000E+00 -0.45593999997E+02  0.45594000000E+02  0.51100000000E-03 0.  1.
    9900012    2    1    2    0    0  0.14728012203E+02 -0.23605216151E+02 -0.33309198957E+02  0.47787270650E+02  0.19999998201E+02 0.  0.
         12    1    1    2    0    0 -0.14728012203E+02  0.23605216151E+02  0.33309198957E+02  0.43400729350E+02  0.00000000000E+00 0. -1.
         11    1    3    3    0    0 -0.23217109072E+01 -0.33301154198E+01 -0.95120491345E+01  0.10342102748E+02  0.51100000000E-03 0. -1.
        -11    1    3    3    0    0  0.74648396727E+01 -0.37457460343E+01 -0.22567305267E+01  0.86514321141E+01  0.51100000000E-03 0.  1.
        -12    1    3    3    0    0  0.95848834374E+01 -0.16529354697E+02 -0.21540419296E+02  0.28793735788E+02  0.00000000000E+00 0.  1.
</event>
<event>
 7    1  0.2769403E-010  0.4778727E+02  0.7816164E-02  0.1312668E+00
        -11   -1    0    0    0    0  0.00000000000E+00  0.00000000000E+00  0.45593999997E+02  0.45594000000E+02  0.51100000000E-03 0.  1.
         11   -1    0    0    0    0 -0.00000000000E+00 -0.00000000000E+00 -0.45593999997E+02  0.45594000000E+02  0.51100000000E-03 0. -1.
    9900012    2    1    2    0    0 -0.54268452138E+01 -0.27951923799E+02  0.32754582837E+02  0.47787269709E+02  0.19999993910E+02 0.  0.
         12    1    1    2    0    0  0.54268452138E+01  0.27951923799E+02 -0.32754582837E+02  0.43400730291E+02  0.00000000000E+00 0. -1.
         11    1    3    3    0    0  0.17503534151E+01 -0.13916363282E+02  0.97576886160E+01  0.17086292502E+02  0.51100000000E-03 0. -1.
        -11    1    3    3    0    0 -0.72090056434E+01 -0.14501639649E+02  0.13199472770E+02  0.20892424382E+02  0.51100000000E-03 0.  1.
         12    1    3    3    0    0  0.31807014510E-01  0.46607913213E+00  0.97974214508E+01  0.98085528254E+01  0.00000000000E+00 0. -1.
</event>
<event>
 7    1  0.2769403E-010  0.4778727E+02  0.7816164E-02  0.1312668E+00
        -11   -1    0    0    0    0  0.00000000000E+00  0.00000000000E+00  0.45593999997E+02  0.45594000000E+02  0.51100000000E-03 0.  1.
         11   -1    0    0    0    0 -0.00000000000E+00 -0.00000000000E+00 -0.45593999997E+02  0.45594000000E+02  0.51100000000E-03 0. -1.
    9900012    2    1    2    0    0  0.22542248191E+01  0.41509771810E+01  0.43142916795E+02  0.47787269468E+02  0.19999992814E+02 0.  0.
         12    1    1    2    0    0 -0.22542248191E+01 -0.41509771810E+01 -0.43142916795E+02  0.43400730532E+02  0.00000000000E+00 0. -1.
         11    1    3    3    0    0 -0.13279491128E+01 -0.11647633154E+01 -0.10242616086E+01  0.20418703512E+01  0.51100000000E-03 0. -1.
        -11    1    3    3    0    0 -0.26122932017E+00  0.50340572481E+01  0.85878000832E+01  0.99579256708E+01  0.51100000000E-03 0.  1.
        -12    1    3    3    0    0  0.38434032520E+01  0.28168324824E+00  0.35579378320E+02  0.35787473446E+02  0.00000000000E+00 0.  1.
</event>
<event>
 7    1  0.2769403E-010  0.4778728E+02  0.7816164E-02  0.1312668E+00
        -11   -1    0    0    0    0  0.00000000000E+00  0.00000000000E+00  0.45593999997E+02  0.45594000000E+02  0.51100000000E-03 0.  1.
         11   -1    0    0    0    0 -0.00000000000E+00 -0.00000000000E+00 -0.45593999997E+02  0.45594000000E+02  0.51100000000E-03 0. -1.
    9900012    2    1    2    0    0 -0.36276620311E+02 -0.68429578967E+01  0.22821122185E+02  0.47787275678E+02  0.20000021124E+02 0.  0.
         12    1    1    2    0    0  0.36276620311E+02  0.68429578967E+01 -0.22821122185E+02  0.43400724322E+02  0.00000000000E+00 0. -1.
         11    1    3    3    0    0 -0.20211721952E+02 -0.42772077925E+01  0.11900250407E+02  0.23841647821E+02  0.51100000000E-03 0. -1.
        -11    1    3    3    0    0 -0.17262711498E+02 -0.42927226957E+01  0.63032280783E+01  0.18872184846E+02  0.51100000000E-03 0.  1.
        -12    1    3    3    0    0  0.11978131398E+01  0.17269725915E+01  0.46176436991E+01  0.50734430106E+01  0.00000000000E+00 0.  1.
</event>
<event>
 7    1  0.2769403E-010  0.4778727E+02  0.7816164E-02  0.1312668E+00
        -11   -1    0    0    0    0  0.00000000000E+00  0.00000000000E+00  0.45593999997E+02  0.45594000000E+02  0.51100000000E-03 0.  1.
         11   -1    0    0    0    0 -0.00000000000E+00 -0.00000000000E+00 -0.45593999997E+02  0.45594000000E+02  0.51100000000E-03 0. -1.
    9900012    2    1    2    0    0 -0.41749543771E+02 -0.50667854692E+01  0.10720376679E+02  0.47787271939E+02  0.20000004080E+02 0.  0.
         12    1    1    2    0    0  0.41749543771E+02  0.50667854692E+01 -0.10720376679E+02  0.43400728061E+02  0.00000000000E+00 0. -1.
         11    1    3    3    0    0 -0.41659286043E+01  0.34079227911E+01 -0.83649120275E+00  0.54468905514E+01  0.51100000000E-03 0. -1.
        -11    1    3    3    0    0 -0.42800211370E+01 -0.15053062239E+01  0.65219814841E+01  0.79448581171E+01  0.51100000000E-03 0.  1.
        -12    1    3    3    0    0 -0.33303594030E+02 -0.69694020364E+01  0.50348863974E+01  0.34395523271E+02  0.00000000000E+00 0.  1.
</event>
<event>
 7    1  0.2769403E-010  0.4778728E+02  0.7816164E-02  0.1312668E+00
        -11   -1    0    0    0    0  0.00000000000E+00  0.00000000000E+00  0.45593999997E+02  0.45594000000E+02  0.51100000000E-03 0.  1.
         11   -1    0    0    0    0 -0.00000000000E+00 -0.00000000000E+00 -0.45593999997E+02  0.45594000000E+02  0.51100000000E-03 0. -1.
    9900012    2    1    2    0    0 -0.93827527678E-01 -0.22228799280E+02  0.37275922184E+02  0.47787277705E+02  0.20000030370E+02 0.  0.
         12    1    1    2    0    0  0.93827527678E-01  0.22228799280E+02 -0.37275922184E+02  0.43400722295E+02  0.00000000000E+00 0. -1.
         11    1    3    3    0    0  0.19384954286E+01  0.81340152684E+00  0.82106984613E-01  0.21038365879E+01  0.51100000000E-03 0. -1.
        -11    1    3    3    0    0 -0.67642999299E+01 -0.71693966658E+01  0.11944809879E+02  0.15486590503E+02  0.51100000000E-03 0.  1.
        -12    1    3    3    0    0  0.47319769736E+01 -0.15872804141E+02  0.25249005320E+02  0.30196850614E+02  0.00000000000E+00 0.  1.
</event>
<event>
 7    1  0.2769403E-010  0.4778727E+02  0.7816164E-02  0.1312668E+00
        -11   -1    0    0    0    0  0.00000000000E+00  0.00000000000E+00  0.45593999997E+02  0.45594000000E+02  0.51100000000E-03 0. -1.
         11   -1    0    0    0    0 -0.00000000000E+00 -0.00000000000E+00 -0.45593999997E+02  0.45594000000E+02  0.51100000000E-03 0.  1.
    9900012    2    1    2    0    0 -0.19361212453E+02  0.36865152108E+02 -0.12236303125E+02  0.47787273027E+02  0.20000009041E+02 0.  0.
         12    1    1    2    0    0  0.19361212453E+02 -0.36865152108E+02  0.12236303125E+02  0.43400726973E+02  0.00000000000E+00 0. -1.
         11    1    3    3    0    0 -0.50388129970E+01  0.10523074078E+02 -0.29506693820E+00  0.11670980645E+02  0.51100000000E-03 0. -1.
        -11    1    3    3    0    0 -0.14824147906E+02  0.19702836126E+02 -0.28114626195E+01  0.24816555661E+02  0.51100000000E-03 0.  1.
         12    1    3    3    0    0  0.50174845070E+00  0.66392419038E+01 -0.91297735675E+01  0.11299736721E+02  0.00000000000E+00 0. -1.
</event>
<event>
 7    1  0.2769403E-010  0.4778726E+02  0.7816164E-02  0.1312668E+00
        -11   -1    0    0    0    0  0.00000000000E+00  0.00000000000E+00  0.45593999997E+02  0.45594000000E+02  0.51100000000E-03 0.  1.
         11   -1    0    0    0    0 -0.00000000000E+00 -0.00000000000E+00 -0.45593999997E+02  0.45594000000E+02  0.51100000000E-03 0. -1.
    9900012    2    1    2    0    0 -0.37788938602E+02 -0.96619599088E+01  0.19033305319E+02  0.47787261973E+02  0.19999958641E+02 0.  0.
         12    1    1    2    0    0  0.37788938602E+02  0.96619599088E+01 -0.19033305319E+02  0.43400738027E+02  0.00000000000E+00 0. -1.
         11    1    3    3    0    0 -0.10606036480E+02  0.17384797479E+00  0.33054277589E+01  0.11110539405E+02  0.51100000000E-03 0.  1.
        -11    1    3    3    0    0 -0.20771807777E+02 -0.14388518942E+02  0.11839740347E+02  0.27904783235E+02  0.51100000000E-03 0. -1.
         12    1    3    3    0    0 -0.64110943443E+01  0.45527110585E+01  0.38881372123E+01  0.87719393327E+01  0.00000000000E+00 0. -1.
</event>
<event>
 7    1  0.2769403E-010  0.4778726E+02  0.7816164E-02  0.1312668E+00
        -11   -1    0    0    0    0  0.00000000000E+00  0.00000000000E+00  0.45593999997E+02  0.45594000000E+02  0.51100000000E-03 0. -1.
         11   -1    0    0    0    0 -0.00000000000E+00 -0.00000000000E+00 -0.45593999997E+02  0.45594000000E+02  0.51100000000E-03 0.  1.
    9900012    2    1    2    0    0 -0.15642890228E+01  0.18808381924E+02 -0.39082244457E+02  0.47787261958E+02  0.19999958572E+02 0.  0.
         12    1    1    2    0    0  0.15642890228E+01 -0.18808381924E+02  0.39082244457E+02  0.43400738042E+02  0.00000000000E+00 0. -1.
         11    1    3    3    0    0 -0.66867368667E+01  0.63543297994E+01 -0.15036414020E+02  0.17640399768E+02  0.51100000000E-03 0. -1.
        -11    1    3    3    0    0  0.49756276023E+00  0.13417747720E+02 -0.16981275104E+02  0.21648261524E+02  0.51100000000E-03 0.  1.
        -12    1    3    3    0    0  0.46248850837E+01 -0.96369559513E+00 -0.70645553330E+01  0.84986006666E+01  0.00000000000E+00 0.  1.
</event>
<event>
 7    1  0.2769403E-010  0.4778727E+02  0.7816164E-02  0.1312668E+00
        -11   -1    0    0    0    0  0.00000000000E+00  0.00000000000E+00  0.45593999997E+02  0.45594000000E+02  0.51100000000E-03 0.  1.
         11   -1    0    0    0    0 -0.00000000000E+00 -0.00000000000E+00 -0.45593999997E+02  0.45594000000E+02  0.51100000000E-03 0. -1.
    9900012    2    1    2    0    0 -0.18808515912E+02  0.11095909732E+02  0.37506585903E+02  0.47787268788E+02  0.19999989712E+02 0.  0.
         12    1    1    2    0    0  0.18808515912E+02 -0.11095909732E+02 -0.37506585903E+02  0.43400731212E+02  0.00000000000E+00 0. -1.
         11    1    3    3    0    0 -0.18749988134E+02  0.73295350397E+01  0.23397738265E+02  0.30866459063E+02  0.51100000000E-03 0. -1.
        -11    1    3    3    0    0 -0.26910165193E+01  0.46716072613E+01  0.12708273971E+02  0.13804554028E+02  0.51100000000E-03 0.  1.
        -12    1    3    3    0    0  0.26324887406E+01 -0.90523256894E+00  0.14005736674E+01  0.31162556973E+01  0.00000000000E+00 0.  1.
</event>
<event>
 7    1  0.2769403E-010  0.4778727E+02  0.7816164E-02  0.1312668E+00
        -11   -1    0    0    0    0  0.00000000000E+00  0.00000000000E+00  0.45593999997E+02  0.45594000000E+02  0.51100000000E-03 0. -1.
         11   -1    0    0    0    0 -0.00000000000E+00 -0.00000000000E+00 -0.45593999997E+02  0.45594000000E+02  0.51100000000E-03 0.  1.
    9900012    2    1    2    0    0 -0.23659481380E+02  0.19341085344E+02 -0.30818415224E+02  0.47787270071E+02  0.19999995563E+02 0.  0.
         12    1    1    2    0    0  0.23659481380E+02 -0.19341085344E+02  0.30818415224E+02  0.43400729929E+02  0.00000000000E+00 0. -1.
         11    1    3    3    0    0  0.61050728849E-01  0.17470404013E+01 -0.15520600062E+01  0.23376842985E+01  0.51100000000E-03 0. -1.
        -11    1    3    3    0    0 -0.10007677764E+01 -0.32810804077E+01 -0.55890007623E+01  0.65577400502E+01  0.51100000000E-03 0.  1.
        -12    1    3    3    0    0 -0.22719764332E+02  0.20875125350E+02 -0.23677354455E+02  0.38891845723E+02  0.00000000000E+00 0.  1.
</event>
<event>
 7    1  0.2769403E-010  0.4778726E+02  0.7816164E-02  0.1312668E+00
        -11   -1    0    0    0    0  0.00000000000E+00  0.00000000000E+00  0.45593999997E+02  0.45594000000E+02  0.51100000000E-03 0.  1.
         11   -1    0    0    0    0 -0.00000000000E+00 -0.00000000000E+00 -0.45593999997E+02  0.45594000000E+02  0.51100000000E-03 0. -1.
    9900012    2    1    2    0    0  0.92194753830E+01 -0.19030569244E+02  0.37900694228E+02  0.47787263658E+02  0.19999966322E+02 0.  0.
         12    1    1    2    0    0 -0.92194753830E+01  0.19030569244E+02 -0.37900694228E+02  0.43400736342E+02  0.00000000000E+00 0. -1.
         11    1    3    3    0    0 -0.49311475108E+00  0.56653030014E+00 -0.10778534127E+01  0.13137301774E+01  0.51100000000E-03 0. -1.
        -11    1    3    3    0    0  0.82315884404E+01 -0.44152808918E+01  0.97405009884E+01  0.13495596073E+02  0.51100000000E-03 0.  1.
        -12    1    3    3    0    0  0.14810016937E+01 -0.15181818652E+02  0.29238046652E+02  0.32977937407E+02  0.00000000000E+00 0.  1.
</event>
<event>
 7    1  0.2769403E-010  0.4778727E+02  0.7816164E-02  0.1312668E+00
        -11   -1    0    0    0    0  0.00000000000E+00  0.00000000000E+00  0.45593999997E+02  0.45594000000E+02  0.51100000000E-03 0.  1.
         11   -1    0    0    0    0 -0.00000000000E+00 -0.00000000000E+00 -0.45593999997E+02  0.45594000000E+02  0.51100000000E-03 0. -1.
    9900012    2    1    2    0    0 -0.43231127401E+02 -0.19275631261E-01 -0.38330903200E+01  0.47787270406E+02  0.19999997088E+02 0.  0.
         12    1    1    2    0    0  0.43231127401E+02  0.19275631261E-01  0.38330903200E+01  0.43400729594E+02  0.00000000000E+00 0. -1.
         11    1    3    3    0    0 -0.12039020783E+02  0.32556426345E+01 -0.22467801745E+01  0.12672223632E+02  0.51100000000E-03 0. -1.
        -11    1    3    3    0    0 -0.32457286046E+02 -0.17374725642E+01 -0.30460725268E+01  0.32646175680E+02  0.51100000000E-03 0.  1.
         12    1    3    3    0    0  0.12651794278E+01 -0.15374457015E+01  0.14597623813E+01  0.24688710941E+01  0.00000000000E+00 0. -1.
</event>
<event>
 7    1  0.2769403E-010  0.4778727E+02  0.7816164E-02  0.1312668E+00
        -11   -1    0    0    0    0  0.00000000000E+00  0.00000000000E+00  0.45593999997E+02  0.45594000000E+02  0.51100000000E-03 0.  1.
         11   -1    0    0    0    0 -0.00000000000E+00 -0.00000000000E+00 -0.45593999997E+02  0.45594000000E+02  0.51100000000E-03 0. -1.
    9900012    2    1    2    0    0  0.26904133710E+02 -0.27518894325E+02  0.20062430735E+02  0.47787273249E+02  0.20000010049E+02 0.  0.
         12    1    1    2    0    0 -0.26904133710E+02  0.27518894325E+02 -0.20062430735E+02  0.43400726751E+02  0.00000000000E+00 0. -1.
         11    1    3    3    0    0  0.58889414619E+01 -0.66973154604E+01  0.81300252912E+01  0.12067766049E+02  0.51100000000E-03 0. -1.
        -11    1    3    3    0    0  0.14034622194E+02 -0.14935415118E+02  0.15724788040E+02  0.25832270594E+02  0.51100000000E-03 0.  1.
         12    1    3    3    0    0  0.69805700547E+01 -0.58861637458E+01 -0.37923825964E+01  0.98872366053E+01  0.00000000000E+00 0. -1.
</event>
<event>
 7    1  0.2769403E-010  0.4778727E+02  0.7816164E-02  0.1312668E+00
        -11   -1    0    0    0    0  0.00000000000E+00  0.00000000000E+00  0.45593999997E+02  0.45594000000E+02  0.51100000000E-03 0. -1.
         11   -1    0    0    0    0 -0.00000000000E+00 -0.00000000000E+00 -0.45593999997E+02  0.45594000000E+02  0.51100000000E-03 0.  1.
    9900012    2    1    2    0    0 -0.36115997898E+02  0.21424578947E+02 -0.10965643372E+02  0.47787271644E+02  0.20000002735E+02 0.  0.
         12    1    1    2    0    0  0.36115997898E+02 -0.21424578947E+02  0.10965643372E+02  0.43400728356E+02  0.00000000000E+00 0. -1.
         11    1    3    3    0    0  0.11085203898E+01 -0.14406967867E+01 -0.24886002432E+00  0.18347632705E+01  0.51100000000E-03 0. -1.
        -11    1    3    3    0    0 -0.12433750467E+02  0.41032920515E+01 -0.63679253373E+01  0.14559726292E+02  0.51100000000E-03 0.  1.
         12    1    3    3    0    0 -0.24790767820E+02  0.18761983683E+02 -0.43488580107E+01  0.31392782082E+02  0.00000000000E+00 0. -1.
</event>
<event>
 7    1  0.2769403E-010  0.4778728E+02  0.7816164E-02  0.1312668E+00
        -11   -1    0    0    0    0  0.00000000000E+00  0.00000000000E+00  0.45593999997E+02  0.45594000000E+02  0.51100000000E-03 0.  1.
         11   -1    0    0    0    0 -0.00000000000E+00 -0.00000000000E+00 -0.45593999997E+02  0.45594000000E+02  0.51100000000E-03 0. -1.
    9900012    2    1    2    0    0 -0.20974382396E+02  0.13968036433E+02  0.35335422118E+02  0.47787276332E+02  0.20000024106E+02 0.  0.
         12    1    1    2    0    0  0.20974382396E+02 -0.13968036433E+02 -0.35335422118E+02  0.43400723668E+02  0.00000000000E+00 0. -1.
         11    1    3    3    0    0 -0.10951440255E+02  0.66588459534E+01  0.78394645160E+01  0.15024362790E+02  0.51100000000E-03 0. -1.
        -11    1    3    3    0    0 -0.11859555918E+02  0.90357133537E+01  0.20667804063E+02  0.25484334549E+02  0.51100000000E-03 0.  1.
         12    1    3    3    0    0  0.18366137764E+01 -0.17265228741E+01  0.68281535389E+01  0.72785789924E+01  0.00000000000E+00 0. -1.
</event>
<event>
 7    1  0.2769403E-010  0.4778727E+02  0.7816164E-02  0.1312668E+00
        -11   -1    0    0    0    0  0.00000000000E+00  0.00000000000E+00  0.45593999997E+02  0.45594000000E+02  0.51100000000E-03 0.  1.
         11   -1    0    0    0    0 -0.00000000000E+00 -0.00000000000E+00 -0.45593999997E+02  0.45594000000E+02  0.51100000000E-03 0. -1.
    9900012    2    1    2    0    0  0.15927561529E+01 -0.30890287146E+02 -0.30444647704E+02  0.47787270906E+02  0.19999999367E+02 0.  0.
         12    1    1    2    0    0 -0.15927561529E+01  0.30890287146E+02  0.30444647704E+02  0.43400729094E+02  0.00000000000E+00 0. -1.
         11    1    3    3    0    0 -0.16005414595E+01 -0.78837628290E+01 -0.67185191308E+01  0.10481123455E+02  0.51100000000E-03 0. -1.
        -11    1    3    3    0    0 -0.24019461884E+01 -0.18260849802E+02 -0.82549042517E+01  0.20183444341E+02  0.51100000000E-03 0.  1.
         12    1    3    3    0    0  0.55952438009E+01 -0.47456745149E+01 -0.15471224321E+02  0.17122703110E+02  0.00000000000E+00 0. -1.
</event>
<event>
 7    1  0.2769403E-010  0.4778727E+02  0.7816164E-02  0.1312668E+00
        -11   -1    0    0    0    0  0.00000000000E+00  0.00000000000E+00  0.45593999997E+02  0.45594000000E+02  0.51100000000E-03 0. -1.
         11   -1    0    0    0    0 -0.00000000000E+00 -0.00000000000E+00 -0.45593999997E+02  0.45594000000E+02  0.51100000000E-03 0.  1.
    9900012    2    1    2    0    0 -0.14367867711E+02 -0.25678406519E+02 -0.31903088473E+02  0.47787271458E+02  0.20000001884E+02 0.  0.
         12    1    1    2    0    0  0.14367867711E+02  0.25678406519E+02  0.31903088473E+02  0.43400728542E+02  0.00000000000E+00 0. -1.
         11    1    3    3    0    0 -0.13058793425E+02 -0.67421643142E+01 -0.84376248487E+01  0.16946456228E+02  0.51100000000E-03 0.  1.
        -11    1    3    3    0    0  0.16284114100E+01 -0.19685318849E+01 -0.16230547607E+01  0.30267389249E+01  0.51100000000E-03 0. -1.
        -12    1    3    3    0    0 -0.29374856963E+01 -0.16967710320E+02 -0.21842408863E+02  0.27814076304E+02  0.00000000000E+00 0.  1.
</event>
<event>
 7    1  0.2769403E-010  0.4778726E+02  0.7816164E-02  0.1312668E+00
        -11   -1    0    0    0    0  0.00000000000E+00  0.00000000000E+00  0.45593999997E+02  0.45594000000E+02  0.51100000000E-03 0.  1.
         11   -1    0    0    0    0 -0.00000000000E+00 -0.00000000000E+00 -0.45593999997E+02  0.45594000000E+02  0.51100000000E-03 0. -1.
    9900012    2    1    2    0    0  0.83473733443E+00  0.41385485238E+01  0.43194901052E+02  0.47787264439E+02  0.19999969885E+02 0.  0.
         12    1    1    2    0    0 -0.83473733443E+00 -0.41385485238E+01 -0.43194901052E+02  0.43400735561E+02  0.00000000000E+00 0. -1.
         11    1    3    3    0    0  0.77473449389E+01 -0.14943105615E+01  0.24532918261E+02  0.25770494685E+02  0.51100000000E-03 0. -1.
        -11    1    3    3    0    0  0.61440498082E+00  0.24939560172E+01  0.90691492489E+01  0.94258569083E+01  0.51100000000E-03 0.  1.
         12    1    3    3    0    0 -0.75270125853E+01  0.31389030681E+01  0.95928335425E+01  0.12590912846E+02  0.00000000000E+00 0. -1.
</event>
<event>
 7    1  0.2769403E-010  0.4778727E+02  0.7816164E-02  0.1312668E+00
        -11   -1    0    0    0    0  0.00000000000E+00  0.00000000000E+00  0.45593999997E+02  0.45594000000E+02  0.51100000000E-03 0. -1.
         11   -1    0    0    0    0 -0.00000000000E+00 -0.00000000000E+00 -0.45593999997E+02  0.45594000000E+02  0.51100000000E-03 0.  1.
    9900012    2    1    2    0    0 -0.38543496599E+02 -0.17234707670E+02 -0.10049230028E+02  0.47787270713E+02  0.19999998487E+02 0.  0.
         12    1    1    2    0    0  0.38543496599E+02  0.17234707670E+02  0.10049230028E+02  0.43400729287E+02  0.00000000000E+00 0. -1.
         11    1    3    3    0    0 -0.11360558934E+02 -0.20965001292E+01 -0.76008294934E+01  0.13828601568E+02  0.51100000000E-03 0. -1.
        -11    1    3    3    0    0 -0.13962038776E+02 -0.90576028106E+01 -0.78953153211E+01  0.18420496729E+02  0.51100000000E-03 0.  1.
         12    1    3    3    0    0 -0.13220898889E+02 -0.60806047307E+01  0.54469147870E+01  0.15538172416E+02  0.00000000000E+00 0. -1.
</event>
<event>
 7    1  0.2769403E-010  0.4778726E+02  0.7816164E-02  0.1312668E+00
        -11   -1    0    0    0    0  0.00000000000E+00  0.00000000000E+00  0.45593999997E+02  0.45594000000E+02  0.51100000000E-03 0. -1.
         11   -1    0    0    0    0 -0.00000000000E+00 -0.00000000000E+00 -0.45593999997E+02  0.45594000000E+02  0.51100000000E-03 0.  1.
    9900012    2    1    2    0    0 -0.16145349710E+02 -0.39682161720E+02 -0.69482588119E+01  0.47787256037E+02  0.19999931575E+02 0.  0.
         12    1    1    2    0    0  0.16145349710E+02  0.39682161720E+02  0.69482588119E+01  0.43400743963E+02  0.00000000000E+00 0. -1.
         11    1    3    3    0    0 -0.11260801419E+02 -0.16546079299E+02 -0.69762108592E+01  0.21195421840E+02  0.51100000000E-03 0. -1.
        -11    1    3    3    0    0  0.56743989863E+00 -0.53182587496E+01 -0.49686768503E+01  0.73002475348E+01  0.51100000000E-03 0.  1.
        -12    1    3    3    0    0 -0.54519881896E+01 -0.17817823671E+02  0.49966288975E+01  0.19291586662E+02  0.00000000000E+00 0.  1.
</event>
<event>
 7    1  0.3016804E-010  0.4778727E+02  0.7816164E-02  0.1312668E+00
        -11   -1    0    0    0    0  0.00000000000E+00  0.00000000000E+00  0.45593999997E+02  0.45594000000E+02  0.51100000000E-03 0. -1.
         11   -1    0    0    0    0 -0.00000000000E+00 -0.00000000000E+00 -0.45593999997E+02  0.45594000000E+02  0.51100000000E-03 0.  1.
    9900012    2    1    2    0    0 -0.85843138826E+01 -0.31648484181E+02 -0.28430725230E+02  0.47787272668E+02  0.20000007403E+02 0.  0.
         12    1    1    2    0    0  0.85843138826E+01  0.31648484181E+02  0.28430725230E+02  0.43400727332E+02  0.00000000000E+00 0. -1.
         11    1    3    3    0    0 -0.23031819412E+01 -0.16227098953E+02 -0.16890371959E+02  0.23535251277E+02  0.51100000000E-03 0.  1.
        -11    1    3    3    0    0 -0.69707200452E+01 -0.90015858166E+01 -0.13351029938E+02  0.17546210014E+02  0.51100000000E-03 0. -1.
         12    1    3    3    0    0  0.68958810375E+00 -0.64197994117E+01  0.18106766672E+01  0.67058113777E+01  0.00000000000E+00 0. -1.
</event>
<event>
 7    1  0.2769403E-010  0.4778726E+02  0.7816164E-02  0.1312668E+00
        -11   -1    0    0    0    0  0.00000000000E+00  0.00000000000E+00  0.45593999997E+02  0.45594000000E+02  0.51100000000E-03 0.  1.
         11   -1    0    0    0    0 -0.00000000000E+00 -0.00000000000E+00 -0.45593999997E+02  0.45594000000E+02  0.51100000000E-03 0. -1.
    9900012    2    1    2    0    0  0.43334044917E+02  0.32786543524E+00  0.23827572302E+01  0.47787257188E+02  0.19999936822E+02 0.  0.
         12    1    1    2    0    0 -0.43334044917E+02 -0.32786543524E+00 -0.23827572302E+01  0.43400742812E+02  0.00000000000E+00 0. -1.
         11    1    3    3    0    0  0.12325857416E+01 -0.27312736862E+01 -0.41046214331E+00  0.30245004533E+01  0.51100000000E-03 0. -1.
        -11    1    3    3    0    0  0.38757618607E+00  0.13681091635E+01 -0.23010460815E+01  0.27049494105E+01  0.51100000000E-03 0.  1.
        -12    1    3    3    0    0  0.41713882989E+02  0.16910299580E+01  0.50942654550E+01  0.42057807324E+02  0.00000000000E+00 0.  1.
</event>
<event>
 7    1  0.2769403E-010  0.4778727E+02  0.7816164E-02  0.1312668E+00
        -11   -1    0    0    0    0  0.00000000000E+00  0.00000000000E+00  0.45593999997E+02  0.45594000000E+02  0.51100000000E-03 0.  1.
         11   -1    0    0    0    0 -0.00000000000E+00 -0.00000000000E+00 -0.45593999997E+02  0.45594000000E+02  0.51100000000E-03 0. -1.
    9900012    2    1    2    0    0  0.20222550299E+02 -0.29654018359E+02  0.24398993677E+02  0.47787271459E+02  0.20000001890E+02 0.  0.
         12    1    1    2    0    0 -0.20222550299E+02  0.29654018359E+02 -0.24398993677E+02  0.43400728541E+02  0.00000000000E+00 0. -1.
         11    1    3    3    0    0 -0.58016579537E+00 -0.18850264350E+01 -0.59061081123E+00  0.20588196624E+01  0.51100000000E-03 0. -1.
        -11    1    3    3    0    0  0.12612152420E+02 -0.60268127321E+01  0.14802915939E+02  0.20359645894E+02  0.51100000000E-03 0.  1.
        -12    1    3    3    0    0  0.81905636742E+01 -0.21742179192E+02  0.10186688549E+02  0.25368805903E+02  0.00000000000E+00 0.  1.
</event>
<event>
 7    1  0.2769403E-010  0.4778727E+02  0.7816164E-02  0.1312668E+00
        -11   -1    0    0    0    0  0.00000000000E+00  0.00000000000E+00  0.45593999997E+02  0.45594000000E+02  0.51100000000E-03 0.  1.
         11   -1    0    0    0    0 -0.00000000000E+00 -0.00000000000E+00 -0.45593999997E+02  0.45594000000E+02  0.51100000000E-03 0. -1.
    9900012    2    1    2    0    0  0.46340830642E+01 -0.24509651294E+02  0.35516552727E+02  0.47787271319E+02  0.20000001252E+02 0.  0.
         12    1    1    2    0    0 -0.46340830642E+01  0.24509651294E+02 -0.35516552727E+02  0.43400728681E+02  0.00000000000E+00 0. -1.
         11    1    3    3    0    0 -0.19681015315E+01 -0.20638754061E+00  0.95599517411E+01  0.97626173237E+01  0.51100000000E-03 0. -1.
        -11    1    3    3    0    0 -0.31284966931E+01 -0.31771079065E+01  0.32336429443E+01  0.55079899383E+01  0.51100000000E-03 0.  1.
        -12    1    3    3    0    0  0.97306812888E+01 -0.21126155847E+02  0.22722958042E+02  0.32516664057E+02  0.00000000000E+00 0.  1.
</event>
<event>
 7    1  0.2769403E-010  0.4778727E+02  0.7816164E-02  0.1312668E+00
        -11   -1    0    0    0    0  0.00000000000E+00  0.00000000000E+00  0.45593999997E+02  0.45594000000E+02  0.51100000000E-03 0.  1.
         11   -1    0    0    0    0 -0.00000000000E+00 -0.00000000000E+00 -0.45593999997E+02  0.45594000000E+02  0.51100000000E-03 0. -1.
    9900012    2    1    2    0    0  0.41732534638E+02 -0.95700054452E+01  0.71016704524E+01  0.47787272186E+02  0.20000005205E+02 0.  0.
         12    1    1    2    0    0 -0.41732534638E+02  0.95700054452E+01 -0.71016704524E+01  0.43400727814E+02  0.00000000000E+00 0. -1.
         11    1    3    3    0    0  0.62999936273E+01  0.19541477080E+01 -0.88851782030E+00  0.66556800664E+01  0.51100000000E-03 0. -1.
        -11    1    3    3    0    0  0.28342500262E+02 -0.19442768652E+01  0.62292636929E+01  0.29084037891E+02  0.51100000000E-03 0.  1.
         12    1    3    3    0    0  0.70900407490E+01 -0.95798762880E+01  0.17609245799E+01  0.12047554229E+02  0.00000000000E+00 0. -1.
</event>
<event>
 7    1  0.2769403E-010  0.4778724E+02  0.7816164E-02  0.1312668E+00
        -11   -1    0    0    0    0  0.00000000000E+00  0.00000000000E+00  0.45593999997E+02  0.45594000000E+02  0.51100000000E-03 0.  1.
         11   -1    0    0    0    0 -0.00000000000E+00 -0.00000000000E+00 -0.45593999997E+02  0.45594000000E+02  0.51100000000E-03 0. -1.
    9900012    2    1    2    0    0 -0.31620633583E+02  0.29427217897E+02 -0.42189997332E+01  0.47787244475E+02  0.19999878860E+02 0.  0.
         12    1    1    2    0    0  0.31620633583E+02 -0.29427217897E+02  0.42189997332E+01  0.43400755525E+02  0.00000000000E+00 0. -1.
         11    1    3    3    0    0 -0.90742827470E+01  0.64573625680E+01  0.38903569143E+00  0.11144123462E+02  0.51100000000E-03 0. -1.
        -11    1    3    3    0    0 -0.17957860984E+02  0.24792369785E+02 -0.66051368641E+01  0.31317314762E+02  0.51100000000E-03 0.  1.
         12    1    3    3    0    0 -0.45884898525E+01 -0.18225144554E+01  0.19971014394E+01  0.53258062512E+01  0.00000000000E+00 0. -1.
</event>
<event>
 7    1  0.2769403E-010  0.4778727E+02  0.7816164E-02  0.1312668E+00
        -11   -1    0    0    0    0  0.00000000000E+00  0.00000000000E+00  0.45593999997E+02  0.45594000000E+02  0.51100000000E-03 0.  1.
         11   -1    0    0    0    0 -0.00000000000E+00 -0.00000000000E+00 -0.45593999997E+02  0.45594000000E+02  0.51100000000E-03 0. -1.
    9900012    2    1    2    0    0  0.31291679326E+02  0.88457802390E+01  0.28743807100E+02  0.47787268789E+02  0.19999989716E+02 0.  0.
         12    1    1    2    0    0 -0.31291679326E+02 -0.88457802390E+01 -0.28743807100E+02  0.43400731211E+02  0.00000000000E+00 0. -1.
         11    1    3    3    0    0  0.74271168292E+01  0.11189617319E+01  0.17651111823E+02  0.19182697636E+02  0.51100000000E-03 0.  1.
        -11    1    3    3    0    0  0.88493397297E+01  0.50898337876E+01  0.86224798426E+00  0.10245032625E+02  0.51100000000E-03 0. -1.
        -12    1    3    3    0    0  0.15015222767E+02  0.26369847195E+01  0.10230447293E+02  0.18359538528E+02  0.00000000000E+00 0.  1.
</event>
<event>
 7    1  0.2769403E-010  0.4778727E+02  0.7816164E-02  0.1312668E+00
        -11   -1    0    0    0    0  0.00000000000E+00  0.00000000000E+00  0.45593999997E+02  0.45594000000E+02  0.51100000000E-03 0. -1.
         11   -1    0    0    0    0 -0.00000000000E+00 -0.00000000000E+00 -0.45593999997E+02  0.45594000000E+02  0.51100000000E-03 0.  1.
    9900012    2    1    2    0    0  0.37484632650E+02 -0.10773769134E+00 -0.21874962313E+02  0.47787271107E+02  0.20000000284E+02 0.  0.
         12    1    1    2    0    0 -0.37484632650E+02  0.10773769134E+00  0.21874962313E+02  0.43400728893E+02  0.00000000000E+00 0. -1.
         11    1    3    3    0    0  0.82345802018E+01  0.12299500112E+01  0.19282454542E+01  0.85462985510E+01  0.51100000000E-03 0. -1.
        -11    1    3    3    0    0  0.14121548939E+02 -0.47090246825E+01 -0.72283791803E+01  0.16548187929E+02  0.51100000000E-03 0.  1.
         12    1    3    3    0    0  0.15128503509E+02  0.33713369800E+01 -0.16574828586E+02  0.22692784627E+02  0.00000000000E+00 0. -1.
</event>
<event>
 7    1  0.2769403E-010  0.4778727E+02  0.7816164E-02  0.1312668E+00
        -11   -1    0    0    0    0  0.00000000000E+00  0.00000000000E+00  0.45593999997E+02  0.45594000000E+02  0.51100000000E-03 0. -1.
         11   -1    0    0    0    0 -0.00000000000E+00 -0.00000000000E+00 -0.45593999997E+02  0.45594000000E+02  0.51100000000E-03 0.  1.
    9900012    2    1    2    0    0  0.39404443517E+02 -0.12762075767E+02 -0.12963125051E+02  0.47787270077E+02  0.19999995590E+02 0.  0.
         12    1    1    2    0    0 -0.39404443517E+02  0.12762075767E+02  0.12963125051E+02  0.43400729923E+02  0.00000000000E+00 0. -1.
         11    1    3    3    0    0  0.31094823449E+01 -0.31776864692E+01  0.11287180923E+01  0.45870008221E+01  0.51100000000E-03 0. -1.
        -11    1    3    3    0    0  0.10472970592E+02  0.88931831911E+00 -0.10917562635E+02  0.15154773975E+02  0.51100000000E-03 0.  1.
        -12    1    3    3    0    0  0.25821990579E+02 -0.10473707617E+02 -0.31742805082E+01  0.28045495280E+02  0.00000000000E+00 0.  1.
</event>
<event>
 7    1  0.2769403E-010  0.4778727E+02  0.7816164E-02  0.1312668E+00
        -11   -1    0    0    0    0  0.00000000000E+00  0.00000000000E+00  0.45593999997E+02  0.45594000000E+02  0.51100000000E-03 0.  1.
         11   -1    0    0    0    0 -0.00000000000E+00 -0.00000000000E+00 -0.45593999997E+02  0.45594000000E+02  0.51100000000E-03 0. -1.
    9900012    2    1    2    0    0 -0.38633933168E+02  0.11998496766E+02  0.15718723511E+02  0.47787274367E+02  0.20000015150E+02 0.  0.
         12    1    1    2    0    0  0.38633933168E+02 -0.11998496766E+02 -0.15718723511E+02  0.43400725633E+02  0.00000000000E+00 0. -1.
         11    1    3    3    0    0 -0.17207474832E+02  0.91333357128E+01  0.96618039015E+01  0.21745470016E+02  0.51100000000E-03 0. -1.
        -11    1    3    3    0    0 -0.11752069277E+02  0.34008440491E+01  0.97790365376E+01  0.15662261280E+02  0.51100000000E-03 0.  1.
         12    1    3    3    0    0 -0.96743890585E+01 -0.53568299635E+00 -0.37221169284E+01  0.10379543071E+02  0.00000000000E+00 0. -1.
</event>
<event>
 7    1  0.2769403E-010  0.4778726E+02  0.7816164E-02  0.1312668E+00
        -11   -1    0    0    0    0  0.00000000000E+00  0.00000000000E+00  0.45593999997E+02  0.45594000000E+02  0.51100000000E-03 0.  1.
         11   -1    0    0    0    0 -0.00000000000E+00 -0.00000000000E+00 -0.45593999997E+02  0.45594000000E+02  0.51100000000E-03 0. -1.
    9900012    2    1    2    0    0 -0.40702882404E+02  0.29557945106E+01  0.14770327844E+02  0.47787263349E+02  0.19999964913E+02 0.  0.
         12    1    1    2    0    0  0.40702882404E+02 -0.29557945106E+01 -0.14770327844E+02  0.43400736651E+02  0.00000000000E+00 0. -1.
         11    1    3    3    0    0 -0.29167860945E+02  0.50548315492E+01  0.57174495145E+01  0.30149704200E+02  0.51100000000E-03 0. -1.
        -11    1    3    3    0    0 -0.98647217538E+01 -0.38914176595E+01  0.28686078658E+01  0.10985662385E+02  0.51100000000E-03 0.  1.
        -12    1    3    3    0    0 -0.16702997055E+01  0.17923806210E+01  0.61842704641E+01  0.66518967648E+01  0.00000000000E+00 0.  1.
</event>
<event>
 7    1  0.2769403E-010  0.4778727E+02  0.7816164E-02  0.1312668E+00
        -11   -1    0    0    0    0  0.00000000000E+00  0.00000000000E+00  0.45593999997E+02  0.45594000000E+02  0.51100000000E-03 0.  1.
         11   -1    0    0    0    0 -0.00000000000E+00 -0.00000000000E+00 -0.45593999997E+02  0.45594000000E+02  0.51100000000E-03 0. -1.
    9900012    2    1    2    0    0 -0.33695637134E+02 -0.18725609439E+02  0.19939386757E+02  0.47787267806E+02  0.19999985236E+02 0.  0.
         12    1    1    2    0    0  0.33695637134E+02  0.18725609439E+02 -0.19939386757E+02  0.43400732194E+02  0.00000000000E+00 0. -1.
         11    1    3    3    0    0 -0.65158574623E+01  0.30572447985E+01  0.42839122244E+01  0.83758610563E+01  0.51100000000E-03 0. -1.
        -11    1    3    3    0    0 -0.82202765968E+01 -0.43695419466E+01  0.53150600102E-01  0.93096009258E+01  0.51100000000E-03 0.  1.
        -12    1    3    3    0    0 -0.18959503075E+02 -0.17413312291E+02  0.15602323933E+02  0.30101805824E+02  0.00000000000E+00 0.  1.
</event>
<event>
 7    1  0.2938098E-010  0.4778733E+02  0.7816164E-02  0.1312667E+00
        -11   -1    0    0    0    0  0.00000000000E+00  0.00000000000E+00  0.45593999997E+02  0.45594000000E+02  0.51100000000E-03 0. -1.
         11   -1    0    0    0    0 -0.00000000000E+00 -0.00000000000E+00 -0.45593999997E+02  0.45594000000E+02  0.51100000000E-03 0.  1.
    9900012    2    1    2    0    0  0.29168917987E+02  0.31290061072E+02 -0.73296890448E+01  0.47787331343E+02  0.20000274924E+02 0.  0.
         12    1    1    2    0    0 -0.29168917987E+02 -0.31290061072E+02  0.73296890448E+01  0.43400668657E+02  0.00000000000E+00 0. -1.
         11    1    3    3    0    0  0.12818799147E+02  0.21462039310E+02 -0.13910166247E+01  0.25037485305E+02  0.51100000000E-03 0. -1.
        -11    1    3    3    0    0  0.14839707553E+02  0.12014699013E+02 -0.41303113123E+01  0.19535336813E+02  0.51100000000E-03 0.  1.
         12    1    3    3    0    0  0.15104112873E+01 -0.21866772512E+01 -0.18083611079E+01  0.32145092245E+01  0.00000000000E+00 0. -1.
</event>
<event>
 7    1  0.2769403E-010  0.4778727E+02  0.7816164E-02  0.1312668E+00
        -11   -1    0    0    0    0  0.00000000000E+00  0.00000000000E+00  0.45593999997E+02  0.45594000000E+02  0.51100000000E-03 0.  1.
         11   -1    0    0    0    0 -0.00000000000E+00 -0.00000000000E+00 -0.45593999997E+02  0.45594000000E+02  0.51100000000E-03 0. -1.
    9900012    2    1    2    0    0  0.23513148695E+02  0.27858901094E+02  0.23550733568E+02  0.47787267480E+02  0.19999983749E+02 0.  0.
         12    1    1    2    0    0 -0.23513148695E+02 -0.27858901094E+02 -0.23550733568E+02  0.43400732520E+02  0.00000000000E+00 0. -1.
         11    1    3    3    0    0  0.24185171663E+02  0.29804037014E+02  0.20158485913E+02  0.43353981423E+02  0.51100000000E-03 0. -1.
        -11    1    3    3    0    0  0.52889175454E+00 -0.73616360085E+00  0.40205582824E+00  0.99162114005E+00  0.51100000000E-03 0.  1.
         12    1    3    3    0    0 -0.12009147227E+01 -0.12089723193E+01  0.29901918268E+01  0.34416649170E+01  0.00000000000E+00 0. -1.
</event>
<event>
 7    1  0.2769403E-010  0.4778727E+02  0.7816164E-02  0.1312668E+00
        -11   -1    0    0    0    0  0.00000000000E+00  0.00000000000E+00  0.45593999997E+02  0.45594000000E+02  0.51100000000E-03 0.  1.
         11   -1    0    0    0    0 -0.00000000000E+00 -0.00000000000E+00 -0.45593999997E+02  0.45594000000E+02  0.51100000000E-03 0. -1.
    9900012    2    1    2    0    0 -0.29086789335E+02  0.31825402110E+02  0.49724723084E+01  0.47787274037E+02  0.20000013645E+02 0.  0.
         12    1    1    2    0    0  0.29086789335E+02 -0.31825402110E+02 -0.49724723084E+01  0.43400725963E+02  0.00000000000E+00 0. -1.
         11    1    3    3    0    0 -0.57452639581E+01  0.38196630234E+01  0.18004977103E+01  0.71301946556E+01  0.51100000000E-03 0.  1.
        -11    1    3    3    0    0 -0.17599394473E+02  0.75976897481E+01  0.33276516791E+01  0.19456023265E+02  0.51100000000E-03 0. -1.
         12    1    3    3    0    0 -0.57421309031E+01  0.20408049338E+02 -0.15567708099E+00  0.21201056116E+02  0.00000000000E+00 0. -1.
</event>
<event>
 7    1  0.2769403E-010  0.4778727E+02  0.7816164E-02  0.1312668E+00
        -11   -1    0    0    0    0  0.00000000000E+00  0.00000000000E+00  0.45593999997E+02  0.45594000000E+02  0.51100000000E-03 0.  1.
         11   -1    0    0    0    0 -0.00000000000E+00 -0.00000000000E+00 -0.45593999997E+02  0.45594000000E+02  0.51100000000E-03 0. -1.
    9900012    2    1    2    0    0 -0.20196594720E+02  0.19917497223E+02  0.32848348072E+02  0.47787272990E+02  0.20000008870E+02 0.  0.
         12    1    1    2    0    0  0.20196594720E+02 -0.19917497223E+02 -0.32848348072E+02  0.43400727010E+02  0.00000000000E+00 0. -1.
         11    1    3    3    0    0 -0.74870080710E+01  0.19505470130E+01  0.64106502324E+00  0.77634327543E+01  0.51100000000E-03 0. -1.
        -11    1    3    3    0    0 -0.91225983550E+01  0.55268297998E+01  0.12346567749E+02  0.16315801660E+02  0.51100000000E-03 0.  1.
        -12    1    3    3    0    0 -0.35869882945E+01  0.12440120411E+02  0.19860715300E+02  0.23708038575E+02  0.00000000000E+00 0.  1.
</event>
<event>
 7    1  0.2769403E-010  0.4778728E+02  0.7816164E-02  0.1312668E+00
        -11   -1    0    0    0    0  0.00000000000E+00  0.00000000000E+00  0.45593999997E+02  0.45594000000E+02  0.51100000000E-03 0.  1.
         11   -1    0    0    0    0 -0.00000000000E+00 -0.00000000000E+00 -0.45593999997E+02  0.45594000000E+02  0.51100000000E-03 0. -1.
    9900012    2    1    2    0    0  0.77666099377E+01  0.40534803532E+02  0.13425047695E+02  0.47787280733E+02  0.20000044174E+02 0.  0.
         12    1    1    2    0    0 -0.77666099377E+01 -0.40534803532E+02 -0.13425047695E+02  0.43400719267E+02  0.00000000000E+00 0. -1.
         11    1    3    3    0    0  0.71782424953E+01  0.27874993577E+02  0.10814422519E+02  0.30748888873E+02  0.51100000000E-03 0.  1.
        -11    1    3    3    0    0 -0.17692358391E+01  0.90021254934E+01  0.64664565698E+01  0.11224238045E+02  0.51100000000E-03 0. -1.
         12    1    3    3    0    0  0.23576032815E+01  0.36576844615E+01 -0.38558313937E+01  0.58141538154E+01  0.00000000000E+00 0. -1.
</event>
<event>
 7    1  0.2769403E-010  0.4778727E+02  0.7816164E-02  0.1312668E+00
        -11   -1    0    0    0    0  0.00000000000E+00  0.00000000000E+00  0.45593999997E+02  0.45594000000E+02  0.51100000000E-03 0.  1.
         11   -1    0    0    0    0 -0.00000000000E+00 -0.00000000000E+00 -0.45593999997E+02  0.45594000000E+02  0.51100000000E-03 0. -1.
    9900012    2    1    2    0    0  0.35071411383E+02 -0.19708904440E+02 -0.16284310937E+02  0.47787267364E+02  0.19999983219E+02 0.  0.
         12    1    1    2    0    0 -0.35071411383E+02  0.19708904440E+02  0.16284310937E+02  0.43400732636E+02  0.00000000000E+00 0. -1.
         11    1    3    3    0    0  0.10382766795E+02 -0.13115070876E+02 -0.22481064968E+01  0.16877823126E+02  0.51100000000E-03 0. -1.
        -11    1    3    3    0    0  0.19770747430E+00  0.16741996781E+01 -0.98636759906E+00  0.19531907508E+01  0.51100000000E-03 0.  1.
        -12    1    3    3    0    0  0.24490937114E+02 -0.82680332429E+01 -0.13049836841E+02  0.28956253487E+02  0.00000000000E+00 0.  1.
</event>
<event>
 7    1  0.2769403E-010  0.4778727E+02  0.7816164E-02  0.1312668E+00
        -11   -1    0    0    0    0  0.00000000000E+00  0.00000000000E+00  0.45593999997E+02  0.45594000000E+02  0.51100000000E-03 0. -1.
         11   -1    0    0    0    0 -0.00000000000E+00 -0.00000000000E+00 -0.45593999997E+02  0.45594000000E+02  0.51100000000E-03 0.  1.
    9900012    2    1    2    0    0  0.11673159626E+02 -0.40698769512E+02 -0.95378702987E+01  0.47787268839E+02  0.19999989944E+02 0.  0.
         12    1    1    2    0    0 -0.11673159626E+02  0.40698769512E+02  0.95378702987E+01  0.43400731161E+02  0.00000000000E+00 0. -1.
         11    1    3    3    0    0  0.70042489263E+01 -0.20589559553E+02  0.38850542981E+01  0.22092603124E+02  0.51100000000E-03 0. -1.
        -11    1    3    3    0    0  0.50217352759E+01 -0.64530659556E+01 -0.40271965455E+01  0.91147242243E+01  0.51100000000E-03 0.  1.
         12    1    3    3    0    0 -0.35282457636E+00 -0.13656144004E+02 -0.93957280513E+01  0.16579941491E+02  0.00000000000E+00 0. -1.
</event>
<event>
 7    1  0.2769403E-010  0.4778727E+02  0.7816164E-02  0.1312668E+00
        -11   -1    0    0    0    0  0.00000000000E+00  0.00000000000E+00  0.45593999997E+02  0.45594000000E+02  0.51100000000E-03 0.  1.
         11   -1    0    0    0    0 -0.00000000000E+00 -0.00000000000E+00 -0.45593999997E+02  0.45594000000E+02  0.51100000000E-03 0. -1.
    9900012    2    1    2    0    0 -0.43039999928E+02 -0.44809003226E+01  0.33321684803E+01  0.47787269496E+02  0.19999992941E+02 0.  0.
         12    1    1    2    0    0  0.43039999928E+02  0.44809003226E+01 -0.33321684803E+01  0.43400730504E+02  0.00000000000E+00 0. -1.
         11    1    3    3    0    0 -0.33093158794E+01 -0.10659375036E+01  0.42319203618E+00  0.35024114709E+01  0.51100000000E-03 0. -1.
        -11    1    3    3    0    0 -0.41000438873E+02 -0.57181170074E+00  0.20541464206E+01  0.41055845798E+02  0.51100000000E-03 0.  1.
         12    1    3    3    0    0  0.12697548246E+01 -0.28431511182E+01  0.85483002352E+00  0.32290122274E+01  0.00000000000E+00 0. -1.
</event>
<event>
 7    1  0.2769403E-010  0.4778727E+02  0.7816164E-02  0.1312668E+00
        -11   -1    0    0    0    0  0.00000000000E+00  0.00000000000E+00  0.45593999997E+02  0.45594000000E+02  0.51100000000E-03 0. -1.
         11   -1    0    0    0    0 -0.00000000000E+00 -0.00000000000E+00 -0.45593999997E+02  0.45594000000E+02  0.51100000000E-03 0.  1.
    9900012    2    1    2    0    0  0.41494480320E+02  0.12515320098E+02  0.22799424821E+01  0.47787271067E+02  0.20000000103E+02 0.  0.
         12    1    1    2    0    0 -0.41494480320E+02 -0.12515320098E+02 -0.22799424821E+01  0.43400728933E+02  0.00000000000E+00 0. -1.
         11    1    3    3    0    0  0.19256467811E+02  0.95919860396E+01  0.31253150614E+01  0.21739028111E+02  0.51100000000E-03 0.  1.
        -11    1    3    3    0    0  0.15693329387E+02 -0.65231099335E+00  0.50962848820E+01  0.16512971167E+02  0.51100000000E-03 0. -1.
        -12    1    3    3    0    0  0.65446831220E+01  0.35756450517E+01 -0.59416574613E+01  0.95352717890E+01  0.00000000000E+00 0.  1.
</event>
<event>
 7    1  0.2769403E-010  0.4778727E+02  0.7816164E-02  0.1312668E+00
        -11   -1    0    0    0    0  0.00000000000E+00  0.00000000000E+00  0.45593999997E+02  0.45594000000E+02  0.51100000000E-03 0. -1.
         11   -1    0    0    0    0 -0.00000000000E+00 -0.00000000000E+00 -0.45593999997E+02  0.45594000000E+02  0.51100000000E-03 0.  1.
    9900012    2    1    2    0    0 -0.41572291628E+01  0.39559177458E+02 -0.17361231915E+02  0.47787269026E+02  0.19999990797E+02 0.  0.
         12    1    1    2    0    0  0.41572291628E+01 -0.39559177458E+02  0.17361231915E+02  0.43400730974E+02  0.00000000000E+00 0. -1.
         11    1    3    3    0    0  0.46691989541E-01 -0.16417007036E+01 -0.28417313975E+00  0.16667681232E+01  0.51100000000E-03 0. -1.
        -11    1    3    3    0    0 -0.57403071624E+01  0.96530378912E+01 -0.51959294488E+01  0.12374568677E+02  0.51100000000E-03 0.  1.
         12    1    3    3    0    0  0.15363860101E+01  0.31547840271E+02 -0.11881129326E+02  0.33745932226E+02  0.00000000000E+00 0. -1.
</event>
<event>
 7    1  0.2769403E-010  0.4778727E+02  0.7816164E-02  0.1312668E+00
        -11   -1    0    0    0    0  0.00000000000E+00  0.00000000000E+00  0.45593999997E+02  0.45594000000E+02  0.51100000000E-03 0. -1.
         11   -1    0    0    0    0 -0.00000000000E+00 -0.00000000000E+00 -0.45593999997E+02  0.45594000000E+02  0.51100000000E-03 0.  1.
    9900012    2    1    2    0    0  0.12481292855E+02  0.39780192929E+02 -0.12057246676E+02  0.47787267077E+02  0.19999981912E+02 0.  0.
         12    1    1    2    0    0 -0.12481292855E+02 -0.39780192929E+02  0.12057246676E+02  0.43400732923E+02  0.00000000000E+00 0. -1.
         11    1    3    3    0    0  0.45673565701E+01  0.48410338655E+01  0.15662058609E+01  0.68373500704E+01  0.51100000000E-03 0. -1.
        -11    1    3    3    0    0  0.10432490092E+02  0.15692175348E+02 -0.39134371404E+01  0.19245680221E+02  0.51100000000E-03 0.  1.
        -12    1    3    3    0    0 -0.25185538068E+01  0.19246983716E+02 -0.97100153962E+01  0.21704236786E+02  0.00000000000E+00 0.  1.
</event>
<event>
 7    1  0.2769403E-010  0.4778727E+02  0.7816164E-02  0.1312668E+00
        -11   -1    0    0    0    0  0.00000000000E+00  0.00000000000E+00  0.45593999997E+02  0.45594000000E+02  0.51100000000E-03 0.  1.
         11   -1    0    0    0    0 -0.00000000000E+00 -0.00000000000E+00 -0.45593999997E+02  0.45594000000E+02  0.51100000000E-03 0. -1.
    9900012    2    1    2    0    0 -0.60780904126E+01  0.34112216964E+02  0.26134971466E+02  0.47787271172E+02  0.20000000583E+02 0.  0.
         12    1    1    2    0    0  0.60780904126E+01 -0.34112216964E+02 -0.26134971466E+02  0.43400728828E+02  0.00000000000E+00 0. -1.
         11    1    3    3    0    0 -0.10548210390E+02  0.18694009455E+02  0.10338824505E+02  0.23824819503E+02  0.51100000000E-03 0. -1.
        -11    1    3    3    0    0  0.15090969964E+01  0.59600520517E+01  0.11138591550E+01  0.62482218816E+01  0.51100000000E-03 0.  1.
        -12    1    3    3    0    0  0.29610229812E+01  0.94581554565E+01  0.14682287806E+02  0.17714229787E+02  0.00000000000E+00 0.  1.
</event>
<event>
 7    1  0.2769403E-010  0.4778727E+02  0.7816164E-02  0.1312668E+00
        -11   -1    0    0    0    0  0.00000000000E+00  0.00000000000E+00  0.45593999997E+02  0.45594000000E+02  0.51100000000E-03 0. -1.
         11   -1    0    0    0    0 -0.00000000000E+00 -0.00000000000E+00 -0.45593999997E+02  0.45594000000E+02  0.51100000000E-03 0.  1.
    9900012    2    1    2    0    0 -0.31748257625E+02 -0.84195633672E+01 -0.28368689398E+02  0.47787269042E+02  0.19999990870E+02 0.  0.
         12    1    1    2    0    0  0.31748257625E+02  0.84195633672E+01  0.28368689398E+02  0.43400730958E+02  0.00000000000E+00 0. -1.
         11    1    3    3    0    0  0.25580807640E+00  0.40459273815E+00  0.18159547770E+01  0.18779843101E+01  0.51100000000E-03 0. -1.
        -11    1    3    3    0    0 -0.11911108328E+02  0.10032311950E+01 -0.78523801744E+01  0.14301777830E+02  0.51100000000E-03 0.  1.
        -12    1    3    3    0    0 -0.20092957374E+02 -0.98273873004E+01 -0.22332264000E+02  0.31607506902E+02  0.00000000000E+00 0.  1.
</event>
<event>
 7    1  0.2769403E-010  0.4778727E+02  0.7816164E-02  0.1312668E+00
        -11   -1    0    0    0    0  0.00000000000E+00  0.00000000000E+00  0.45593999997E+02  0.45594000000E+02  0.51100000000E-03 0. -1.
         11   -1    0    0    0    0 -0.00000000000E+00 -0.00000000000E+00 -0.45593999997E+02  0.45594000000E+02  0.51100000000E-03 0.  1.
    9900012    2    1    2    0    0  0.20289773024E+02  0.93814959099E+01 -0.37201296085E+02  0.47787265153E+02  0.19999973138E+02 0.  0.
         12    1    1    2    0    0 -0.20289773024E+02 -0.93814959099E+01  0.37201296085E+02  0.43400734847E+02  0.00000000000E+00 0. -1.
         11    1    3    3    0    0  0.75074683128E+00 -0.33543136656E+01 -0.53647516875E+01  0.63714677980E+01  0.51100000000E-03 0. -1.
        -11    1    3    3    0    0  0.11469037374E+01  0.52753726787E+01 -0.12898212180E+02  0.13982446953E+02  0.51100000000E-03 0.  1.
         12    1    3    3    0    0  0.18392122456E+02  0.74604368968E+01 -0.18938332217E+02  0.27433350402E+02  0.00000000000E+00 0. -1.
</event>
<event>
 7    1  0.2769403E-010  0.4778726E+02  0.7816164E-02  0.1312668E+00
        -11   -1    0    0    0    0  0.00000000000E+00  0.00000000000E+00  0.45593999997E+02  0.45594000000E+02  0.51100000000E-03 0. -1.
         11   -1    0    0    0    0 -0.00000000000E+00 -0.00000000000E+00 -0.45593999997E+02  0.45594000000E+02  0.51100000000E-03 0.  1.
    9900012    2    1    2    0    0 -0.35172690793E+02  0.24147143159E+02  0.79637560906E+01  0.47787261395E+02  0.19999956006E+02 0.  0.
         12    1    1    2    0    0  0.35172690793E+02 -0.24147143159E+02 -0.79637560906E+01  0.43400738605E+02  0.00000000000E+00 0. -1.
         11    1    3    3    0    0 -0.15285984986E+01  0.71510021988E+01  0.54068486913E+01  0.90943641256E+01  0.51100000000E-03 0. -1.
        -11    1    3    3    0    0 -0.37568578468E+01 -0.28664060357E+00  0.17615569495E+01  0.41592339275E+01  0.51100000000E-03 0.  1.
        -12    1    3    3    0    0 -0.29887234447E+02  0.17282781564E+02  0.79535044985E+00  0.34533663342E+02  0.00000000000E+00 0.  1.
</event>
<event>
 7    1  0.2769403E-010  0.4778727E+02  0.7816164E-02  0.1312668E+00
        -11   -1    0    0    0    0  0.00000000000E+00  0.00000000000E+00  0.45593999997E+02  0.45594000000E+02  0.51100000000E-03 0. -1.
         11   -1    0    0    0    0 -0.00000000000E+00 -0.00000000000E+00 -0.45593999997E+02  0.45594000000E+02  0.51100000000E-03 0.  1.
    9900012    2    1    2    0    0  0.33310787130E+02  0.26877293505E+02 -0.71851042175E+01  0.47787272264E+02  0.20000005559E+02 0.  0.
         12    1    1    2    0    0 -0.33310787130E+02 -0.26877293505E+02  0.71851042175E+01  0.43400727736E+02  0.00000000000E+00 0. -1.
         11    1    3    3    0    0  0.11335068982E+02  0.47011368905E+01 -0.39142942466E+01  0.12880457158E+02  0.51100000000E-03 0. -1.
        -11    1    3    3    0    0  0.22648014680E+02  0.22934070787E+02 -0.52752653546E+01  0.32660872564E+02  0.51100000000E-03 0.  1.
         12    1    3    3    0    0 -0.67229653075E+00 -0.75791417244E+00  0.20044553837E+01  0.22459425423E+01  0.00000000000E+00 0. -1.
</event>
<event>
 7    1  0.2769403E-010  0.4778728E+02  0.7816164E-02  0.1312668E+00
        -11   -1    0    0    0    0  0.00000000000E+00  0.00000000000E+00  0.45593999997E+02  0.45594000000E+02  0.51100000000E-03 0.  1.
         11   -1    0    0    0    0 -0.00000000000E+00 -0.00000000000E+00 -0.45593999997E+02  0.45594000000E+02  0.51100000000E-03 0. -1.
    9900012    2    1    2    0    0  0.12236246422E+02  0.27474214420E+02  0.31290006622E+02  0.47787277668E+02  0.20000030201E+02 0.  0.
         12    1    1    2    0    0 -0.12236246422E+02 -0.27474214420E+02 -0.31290006622E+02  0.43400722332E+02  0.00000000000E+00 0. -1.
         11    1    3    3    0    0  0.10697771109E+01 -0.15708979676E+01  0.17648292729E+01  0.25936009938E+01  0.51100000000E-03 0. -1.
        -11    1    3    3    0    0  0.11146459836E+02  0.10833980877E+02  0.17311913532E+02  0.23266307376E+02  0.51100000000E-03 0.  1.
         12    1    3    3    0    0  0.20009474947E-01  0.18211131510E+02  0.12213263817E+02  0.21927369298E+02  0.00000000000E+00 0. -1.
</event>
<event>
 7    1  0.2769403E-010  0.4778727E+02  0.7816164E-02  0.1312668E+00
        -11   -1    0    0    0    0  0.00000000000E+00  0.00000000000E+00  0.45593999997E+02  0.45594000000E+02  0.51100000000E-03 0.  1.
         11   -1    0    0    0    0 -0.00000000000E+00 -0.00000000000E+00 -0.45593999997E+02  0.45594000000E+02  0.51100000000E-03 0. -1.
    9900012    2    1    2    0    0 -0.13027676111E+02 -0.19128623463E+02  0.36715098649E+02  0.47787273632E+02  0.20000011799E+02 0.  0.
         12    1    1    2    0    0  0.13027676111E+02  0.19128623463E+02 -0.36715098649E+02  0.43400726368E+02  0.00000000000E+00 0. -1.
         11    1    3    3    0    0 -0.72112367045E+01 -0.62174172801E+01  0.17746756912E+02  0.20139652271E+02  0.51100000000E-03 0.  1.
        -11    1    3    3    0    0 -0.59123758346E+01 -0.31154613118E+00  0.11671386663E+02  0.13087188999E+02  0.51100000000E-03 0. -1.
         12    1    3    3    0    0  0.95936428316E-01 -0.12599660052E+02  0.72969550738E+01  0.14560432362E+02  0.00000000000E+00 0. -1.
</event>
<event>
 7    1  0.2769403E-010  0.4778729E+02  0.7816164E-02  0.1312668E+00
        -11   -1    0    0    0    0  0.00000000000E+00  0.00000000000E+00  0.45593999997E+02  0.45594000000E+02  0.51100000000E-03 0.  1.
         11   -1    0    0    0    0 -0.00000000000E+00 -0.00000000000E+00 -0.45593999997E+02  0.45594000000E+02  0.51100000000E-03 0. -1.
    9900012    2    1    2    0    0 -0.41886388250E+01  0.12373535056E+02  0.41388075922E+02  0.47787286947E+02  0.20000072505E+02 0.  0.
         12    1    1    2    0    0  0.41886388250E+01 -0.12373535056E+02 -0.41388075922E+02  0.43400713053E+02  0.00000000000E+00 0. -1.
         11    1    3    3    0    0 -0.12249944274E+00 -0.35175363187E+01  0.13253715574E+02  0.13713097558E+02  0.51100000000E-03 0. -1.
        -11    1    3    3    0    0 -0.14730887476E+01  0.60609115388E+01  0.20307849253E+02  0.21244137560E+02  0.51100000000E-03 0.  1.
        -12    1    3    3    0    0 -0.25930506346E+01  0.98301598358E+01  0.78265110957E+01  0.12830051829E+02  0.00000000000E+00 0.  1.
</event>
<event>
 7    1  0.2769403E-010  0.4778727E+02  0.7816164E-02  0.1312668E+00
        -11   -1    0    0    0    0  0.00000000000E+00  0.00000000000E+00  0.45593999997E+02  0.45594000000E+02  0.51100000000E-03 0. -1.
         11   -1    0    0    0    0 -0.00000000000E+00 -0.00000000000E+00 -0.45593999997E+02  0.45594000000E+02  0.51100000000E-03 0.  1.
    9900012    2    1    2    0    0  0.20535695987E+02 -0.53780444548E+01 -0.37854791603E+02  0.47787269371E+02  0.19999992368E+02 0.  0.
         12    1    1    2    0    0 -0.20535695987E+02  0.53780444548E+01  0.37854791603E+02  0.43400730629E+02  0.00000000000E+00 0. -1.
         11    1    3    3    0    0  0.34643425980E+01 -0.36426440115E+01 -0.19604630790E+02  0.20238875307E+02  0.51100000000E-03 0. -1.
        -11    1    3    3    0    0  0.40355351780E+01  0.15839400276E+01 -0.11915566356E+02  0.12679713405E+02  0.51100000000E-03 0.  1.
         12    1    3    3    0    0  0.13035818211E+02 -0.33193404709E+01 -0.63345944579E+01  0.14868680659E+02  0.00000000000E+00 0. -1.
</event>
<event>
 7    1  0.2769403E-010  0.4778727E+02  0.7816164E-02  0.1312668E+00
        -11   -1    0    0    0    0  0.00000000000E+00  0.00000000000E+00  0.45593999997E+02  0.45594000000E+02  0.51100000000E-03 0.  1.
         11   -1    0    0    0    0 -0.00000000000E+00 -0.00000000000E+00 -0.45593999997E+02  0.45594000000E+02  0.51100000000E-03 0. -1.
    9900012    2    1    2    0    0 -0.13588568947E+02  0.24181492368E+02  0.33380078986E+02  0.47787268989E+02  0.19999990628E+02 0.  0.
         12    1    1    2    0    0  0.13588568947E+02 -0.24181492368E+02 -0.33380078986E+02  0.43400731011E+02  0.00000000000E+00 0. -1.
         11    1    3    3    0    0  0.20714348766E+01  0.84626677741E+00  0.77758835919E+01  0.80914384260E+01  0.51100000000E-03 0. -1.
        -11    1    3    3    0    0 -0.76395356020E+00  0.10859594436E+02  0.98522343412E+01  0.14682674761E+02  0.51100000000E-03 0.  1.
        -12    1    3    3    0    0 -0.14896050264E+02  0.12475631155E+02  0.15751961053E+02  0.25013155802E+02  0.00000000000E+00 0.  1.
</event>
<event>
 7    1  0.2769403E-010  0.4778727E+02  0.7816164E-02  0.1312668E+00
        -11   -1    0    0    0    0  0.00000000000E+00  0.00000000000E+00  0.45593999997E+02  0.45594000000E+02  0.51100000000E-03 0. -1.
         11   -1    0    0    0    0 -0.00000000000E+00 -0.00000000000E+00 -0.45593999997E+02  0.45594000000E+02  0.51100000000E-03 0.  1.
    9900012    2    1    2    0    0  0.33909961340E+02 -0.11099975014E+02 -0.24708872888E+02  0.47787270481E+02  0.19999997429E+02 0.  0.
         12    1    1    2    0    0 -0.33909961340E+02  0.11099975014E+02  0.24708872888E+02  0.43400729519E+02  0.00000000000E+00 0. -1.
         11    1    3    3    0    0  0.28519648975E+01  0.24914987971E-01 -0.11043206070E+02  0.11405556764E+02  0.51100000000E-03 0. -1.
        -11    1    3    3    0    0  0.27653364926E+02 -0.10990446080E+02 -0.10037913137E+02  0.31404748004E+02  0.51100000000E-03 0.  1.
        -12    1    3    3    0    0  0.34046315164E+01 -0.13444392216E+00 -0.36277536814E+01  0.49769657126E+01  0.00000000000E+00 0.  1.
</event>
<event>
 7    1  0.2769403E-010  0.4778728E+02  0.7816164E-02  0.1312668E+00
        -11   -1    0    0    0    0  0.00000000000E+00  0.00000000000E+00  0.45593999997E+02  0.45594000000E+02  0.51100000000E-03 0.  1.
         11   -1    0    0    0    0 -0.00000000000E+00 -0.00000000000E+00 -0.45593999997E+02  0.45594000000E+02  0.51100000000E-03 0. -1.
    9900012    2    1    2    0    0 -0.10135324660E+02  0.41644474386E+02 -0.68290273564E+01  0.47787278030E+02  0.20000031852E+02 0.  0.
         12    1    1    2    0    0  0.10135324660E+02 -0.41644474386E+02  0.68290273564E+01  0.43400721970E+02  0.00000000000E+00 0. -1.
         11    1    3    3    0    0 -0.91346629239E+01  0.14135402187E+02 -0.49312267294E+01  0.17537635503E+02  0.51100000000E-03 0.  1.
        -11    1    3    3    0    0  0.67170387184E+00  0.98718829058E+01 -0.66320036074E+01  0.11911705600E+02  0.51100000000E-03 0. -1.
        -12    1    3    3    0    0 -0.16723656082E+01  0.17637189293E+02  0.47342029805E+01  0.18337936927E+02  0.00000000000E+00 0.  1.
</event>
<event>
 7    1  0.2769403E-010  0.4778727E+02  0.7816164E-02  0.1312668E+00
        -11   -1    0    0    0    0  0.00000000000E+00  0.00000000000E+00  0.45593999997E+02  0.45594000000E+02  0.51100000000E-03 0.  1.
         11   -1    0    0    0    0 -0.00000000000E+00 -0.00000000000E+00 -0.45593999997E+02  0.45594000000E+02  0.51100000000E-03 0. -1.
    9900012    2    1    2    0    0  0.15146393619E+02  0.79631173376E+01  0.39884820137E+02  0.47787270113E+02  0.19999995751E+02 0.  0.
         12    1    1    2    0    0 -0.15146393619E+02 -0.79631173376E+01 -0.39884820137E+02  0.43400729887E+02  0.00000000000E+00 0. -1.
         11    1    3    3    0    0  0.45503579177E+01 -0.49732732349E+01  0.78894147623E+01  0.10376997128E+02  0.51100000000E-03 0. -1.
        -11    1    3    3    0    0  0.75095972179E+01  0.35489328896E+01  0.83245925419E+01  0.11759584018E+02  0.51100000000E-03 0.  1.
         12    1    3    3    0    0  0.30864384832E+01  0.93874576829E+01  0.23670812833E+02  0.25650688966E+02  0.00000000000E+00 0. -1.
</event>
<event>
 7    1  0.2769403E-010  0.4778727E+02  0.7816164E-02  0.1312668E+00
        -11   -1    0    0    0    0  0.00000000000E+00  0.00000000000E+00  0.45593999997E+02  0.45594000000E+02  0.51100000000E-03 0.  1.
         11   -1    0    0    0    0 -0.00000000000E+00 -0.00000000000E+00 -0.45593999997E+02  0.45594000000E+02  0.51100000000E-03 0. -1.
    9900012    2    1    2    0    0 -0.16678957173E+02  0.10743660072E+02  0.38600646082E+02  0.47787265880E+02  0.19999976455E+02 0.  0.
         12    1    1    2    0    0  0.16678957173E+02 -0.10743660072E+02 -0.38600646082E+02  0.43400734120E+02  0.00000000000E+00 0. -1.
         11    1    3    3    0    0 -0.72964756622E+01 -0.68608908252E+00  0.99460651007E+01  0.12354492566E+02  0.51100000000E-03 0. -1.
        -11    1    3    3    0    0 -0.64310227626E+01  0.43446393388E+01  0.26274743039E+02  0.27397008355E+02  0.51100000000E-03 0.  1.
         12    1    3    3    0    0 -0.29514587484E+01  0.70851098160E+01  0.23798379423E+01  0.80357649592E+01  0.00000000000E+00 0. -1.
</event>
<event>
 7    1  0.2769403E-010  0.4778729E+02  0.7816164E-02  0.1312668E+00
        -11   -1    0    0    0    0  0.00000000000E+00  0.00000000000E+00  0.45593999997E+02  0.45594000000E+02  0.51100000000E-03 0.  1.
         11   -1    0    0    0    0 -0.00000000000E+00 -0.00000000000E+00 -0.45593999997E+02  0.45594000000E+02  0.51100000000E-03 0. -1.
    9900012    2    1    2    0    0  0.25535037767E+02 -0.33199540370E+02  0.11374264946E+02  0.47787291047E+02  0.20000091200E+02 0.  0.
         12    1    1    2    0    0 -0.25535037767E+02  0.33199540370E+02 -0.11374264946E+02  0.43400708953E+02  0.00000000000E+00 0. -1.
         11    1    3    3    0    0  0.18902695898E+02 -0.20525789358E+02  0.66182065155E+01  0.28677876468E+02  0.51100000000E-03 0. -1.
        -11    1    3    3    0    0  0.41151401989E+01 -0.12479692264E+02 -0.63549983759E+00  0.13156023646E+02  0.51100000000E-03 0.  1.
         12    1    3    3    0    0  0.25172016704E+01 -0.19405874794E+00  0.53915582682E+01  0.59533909334E+01  0.00000000000E+00 0. -1.
</event>
<event>
 7    1  0.2769403E-010  0.4778727E+02  0.7816164E-02  0.1312668E+00
        -11   -1    0    0    0    0  0.00000000000E+00  0.00000000000E+00  0.45593999997E+02  0.45594000000E+02  0.51100000000E-03 0.  1.
         11   -1    0    0    0    0 -0.00000000000E+00 -0.00000000000E+00 -0.45593999997E+02  0.45594000000E+02  0.51100000000E-03 0. -1.
    9900012    2    1    2    0    0  0.87901173281E+01  0.37231030042E+02  0.20498975602E+02  0.47787265428E+02  0.19999974395E+02 0.  0.
         12    1    1    2    0    0 -0.87901173281E+01 -0.37231030042E+02 -0.20498975602E+02  0.43400734572E+02  0.00000000000E+00 0. -1.
         11    1    3    3    0    0  0.22725643921E+01  0.94303693641E+01  0.20623592994E+00  0.97025228049E+01  0.51100000000E-03 0. -1.
        -11    1    3    3    0    0  0.47494190671E+01  0.26081564731E+02  0.11402239669E+02  0.28858552805E+02  0.51100000000E-03 0.  1.
        -12    1    3    3    0    0  0.17681338689E+01  0.17190959466E+01  0.88905000033E+01  0.92261898181E+01  0.00000000000E+00 0.  1.
</event>
<event>
 7    1  0.2784283E-010  0.4778727E+02  0.7816164E-02  0.1312668E+00
        -11   -1    0    0    0    0  0.00000000000E+00  0.00000000000E+00  0.45593999997E+02  0.45594000000E+02  0.51100000000E-03 0. -1.
         11   -1    0    0    0    0 -0.00000000000E+00 -0.00000000000E+00 -0.45593999997E+02  0.45594000000E+02  0.51100000000E-03 0.  1.
    9900012    2    1    2    0    0  0.92472481266E+01  0.35451608322E+02 -0.23265756798E+02  0.47787267633E+02  0.19999984448E+02 0.  0.
         12    1    1    2    0    0 -0.92472481266E+01 -0.35451608322E+02  0.23265756798E+02  0.43400732367E+02  0.00000000000E+00 0. -1.
         11    1    3    3    0    0 -0.18059386262E+01  0.55484365368E+01  0.10672882040E+01  0.59317507278E+01  0.51100000000E-03 0. -1.
        -11    1    3    3    0    0  0.64195742684E+01  0.19825617765E+02 -0.84594241498E+01  0.22490618283E+02  0.51100000000E-03 0.  1.
         12    1    3    3    0    0  0.46336124844E+01  0.10077554020E+02 -0.15873620852E+02  0.19364898622E+02  0.00000000000E+00 0. -1.
</event>
<event>
 7    1  0.2769403E-010  0.4778727E+02  0.7816164E-02  0.1312668E+00
        -11   -1    0    0    0    0  0.00000000000E+00  0.00000000000E+00  0.45593999997E+02  0.45594000000E+02  0.51100000000E-03 0.  1.
         11   -1    0    0    0    0 -0.00000000000E+00 -0.00000000000E+00 -0.45593999997E+02  0.45594000000E+02  0.51100000000E-03 0. -1.
    9900012    2    1    2    0    0  0.12599519707E+02  0.22476705476E+02  0.34923814697E+02  0.47787273983E+02  0.20000013396E+02 0.  0.
         12    1    1    2    0    0 -0.12599519707E+02 -0.22476705476E+02 -0.34923814697E+02  0.43400726017E+02  0.00000000000E+00 0. -1.
         11    1    3    3    0    0  0.10710925694E+01  0.41021504515E+01  0.30190864213E+01  0.52047824833E+01  0.51100000000E-03 0. -1.
        -11    1    3    3    0    0  0.10388639814E+02  0.62499016210E+01  0.51224809802E+01  0.13161493803E+02  0.51100000000E-03 0.  1.
         12    1    3    3    0    0  0.11397873231E+01  0.12124653403E+02  0.26782247295E+02  0.29420997697E+02  0.00000000000E+00 0. -1.
</event>
<event>
 7    1  0.2769403E-010  0.4778727E+02  0.7816164E-02  0.1312668E+00
        -11   -1    0    0    0    0  0.00000000000E+00  0.00000000000E+00  0.45593999997E+02  0.45594000000E+02  0.51100000000E-03 0. -1.
         11   -1    0    0    0    0 -0.00000000000E+00 -0.00000000000E+00 -0.45593999997E+02  0.45594000000E+02  0.51100000000E-03 0.  1.
    9900012    2    1    2    0    0  0.37595879609E+02  0.21642665539E+02 -0.13297973908E+01  0.47787268482E+02  0.19999988318E+02 0.  0.
         12    1    1    2    0    0 -0.37595879609E+02 -0.21642665539E+02  0.13297973908E+01  0.43400731518E+02  0.00000000000E+00 0. -1.
         11    1    3    3    0    0  0.14081209164E+02  0.80120409870E+01 -0.38167734270E+01  0.16644549016E+02  0.51100000000E-03 0. -1.
        -11    1    3    3    0    0  0.28211765543E+01 -0.48213692312E+00 -0.43240321824E+01  0.51854361185E+01  0.51100000000E-03 0.  1.
         12    1    3    3    0    0  0.20693493890E+02  0.14112761475E+02  0.68110082187E+01  0.25957283348E+02  0.00000000000E+00 0. -1.
</event>
<event>
 7    1  0.2769403E-010  0.4778727E+02  0.7816164E-02  0.1312668E+00
        -11   -1    0    0    0    0  0.00000000000E+00  0.00000000000E+00  0.45593999997E+02  0.45594000000E+02  0.51100000000E-03 0.  1.
         11   -1    0    0    0    0 -0.00000000000E+00 -0.00000000000E+00 -0.45593999997E+02  0.45594000000E+02  0.51100000000E-03 0. -1.
    9900012    2    1    2    0    0 -0.52320825752E+01  0.41390592261E+02  0.11961070138E+02  0.47787274031E+02  0.20000013618E+02 0.  0.
         12    1    1    2    0    0  0.52320825752E+01 -0.41390592261E+02 -0.11961070138E+02  0.43400725969E+02  0.00000000000E+00 0. -1.
         11    1    3    3    0    0 -0.79260013071E+01  0.11517359125E+02 -0.18146154199E+01  0.14098364703E+02  0.51100000000E-03 0. -1.
        -11    1    3    3    0    0 -0.21208962869E+01  0.92576817340E+01  0.53727392376E+01  0.10911883399E+02  0.51100000000E-03 0.  1.
         12    1    3    3    0    0  0.48148150188E+01  0.20615551402E+02  0.84029463203E+01  0.22777025928E+02  0.00000000000E+00 0. -1.
</event>
<event>
 7    1  0.2769403E-010  0.4778727E+02  0.7816164E-02  0.1312668E+00
        -11   -1    0    0    0    0  0.00000000000E+00  0.00000000000E+00  0.45593999997E+02  0.45594000000E+02  0.51100000000E-03 0.  1.
         11   -1    0    0    0    0 -0.00000000000E+00 -0.00000000000E+00 -0.45593999997E+02  0.45594000000E+02  0.51100000000E-03 0. -1.
    9900012    2    1    2    0    0  0.41338353118E+01 -0.24688057678E+02  0.35454679893E+02  0.47787272902E+02  0.20000008469E+02 0.  0.
         12    1    1    2    0    0 -0.41338353118E+01  0.24688057678E+02 -0.35454679893E+02  0.43400727098E+02  0.00000000000E+00 0. -1.
         11    1    3    3    0    0 -0.34399961707E+01 -0.14130756109E+02  0.25790007828E+02  0.29608045290E+02  0.51100000000E-03 0.  1.
        -11    1    3    3    0    0  0.19414287404E+00 -0.14895651057E+01  0.56057159060E+01  0.58034943559E+01  0.51100000000E-03 0. -1.
        -12    1    3    3    0    0  0.73796886084E+01 -0.90677364634E+01  0.40589561597E+01  0.12375733256E+02  0.00000000000E+00 0.  1.
</event>
<event>
 7    1  0.2769403E-010  0.4778727E+02  0.7816164E-02  0.1312668E+00
        -11   -1    0    0    0    0  0.00000000000E+00  0.00000000000E+00  0.45593999997E+02  0.45594000000E+02  0.51100000000E-03 0. -1.
         11   -1    0    0    0    0 -0.00000000000E+00 -0.00000000000E+00 -0.45593999997E+02  0.45594000000E+02  0.51100000000E-03 0.  1.
    9900012    2    1    2    0    0  0.33921662210E+02 -0.26927870941E+02  0.27989262688E+01  0.47787269721E+02  0.19999993966E+02 0.  0.
         12    1    1    2    0    0 -0.33921662210E+02  0.26927870941E+02 -0.27989262688E+01  0.43400730279E+02  0.00000000000E+00 0. -1.
         11    1    3    3    0    0  0.15767203151E+02 -0.12506851045E+02  0.49565522321E+01  0.20726635727E+02  0.51100000000E-03 0. -1.
        -11    1    3    3    0    0  0.10273299094E+02 -0.13436825035E+02  0.35467482508E+01  0.17282024324E+02  0.51100000000E-03 0.  1.
        -12    1    3    3    0    0  0.78811599645E+01 -0.98419486097E+00 -0.57043742141E+01  0.97786096703E+01  0.00000000000E+00 0.  1.
</event>
<event>
 7    1  0.2769403E-010  0.4778727E+02  0.7816164E-02  0.1312668E+00
        -11   -1    0    0    0    0  0.00000000000E+00  0.00000000000E+00  0.45593999997E+02  0.45594000000E+02  0.51100000000E-03 0.  1.
         11   -1    0    0    0    0 -0.00000000000E+00 -0.00000000000E+00 -0.45593999997E+02  0.45594000000E+02  0.51100000000E-03 0. -1.
    9900012    2    1    2    0    0  0.29214607572E+00 -0.26900341682E+02  0.34057444628E+02  0.47787271129E+02  0.20000000386E+02 0.  0.
         12    1    1    2    0    0 -0.29214607572E+00  0.26900341682E+02 -0.34057444628E+02  0.43400728871E+02  0.00000000000E+00 0. -1.
         11    1    3    3    0    0 -0.60796292489E+00 -0.12770452765E+02  0.47031617979E+01  0.13622547996E+02  0.51100000000E-03 0. -1.
        -11    1    3    3    0    0  0.49145896817E+01 -0.33188319586E+01  0.10702364467E+02  0.12235540149E+02  0.51100000000E-03 0.  1.
        -12    1    3    3    0    0 -0.40144806811E+01 -0.10811056958E+02  0.18651918364E+02  0.21929182984E+02  0.00000000000E+00 0.  1.
</event>
<event>
 7    1  0.2769403E-010  0.4778726E+02  0.7816164E-02  0.1312668E+00
        -11   -1    0    0    0    0  0.00000000000E+00  0.00000000000E+00  0.45593999997E+02  0.45594000000E+02  0.51100000000E-03 0. -1.
         11   -1    0    0    0    0 -0.00000000000E+00 -0.00000000000E+00 -0.45593999997E+02  0.45594000000E+02  0.51100000000E-03 0.  1.
    9900012    2    1    2    0    0  0.11956002200E+02 -0.20575346290E+02  0.36295089759E+02  0.47787258023E+02  0.19999940630E+02 0.  0.
         12    1    1    2    0    0 -0.11956002200E+02  0.20575346290E+02 -0.36295089759E+02  0.43400741977E+02  0.00000000000E+00 0. -1.
         11    1    3    3    0    0  0.80115686512E+01 -0.68185305679E+01  0.18713889604E+02  0.21468284881E+02  0.51100000000E-03 0. -1.
        -11    1    3    3    0    0  0.48502945026E+01 -0.12295760052E+02  0.19616929223E+02  0.23654491845E+02  0.51100000000E-03 0.  1.
         12    1    3    3    0    0 -0.90586095401E+00 -0.14610556701E+01 -0.20357290689E+01  0.26644812968E+01  0.00000000000E+00 0. -1.
</event>
<event>
 7    1  0.2769403E-010  0.4778728E+02  0.7816164E-02  0.1312668E+00
        -11   -1    0    0    0    0  0.00000000000E+00  0.00000000000E+00  0.45593999997E+02  0.45594000000E+02  0.51100000000E-03 0.  1.
         11   -1    0    0    0    0 -0.00000000000E+00 -0.00000000000E+00 -0.45593999997E+02  0.45594000000E+02  0.51100000000E-03 0. -1.
    9900012    2    1    2    0    0  0.10099107119E+02 -0.10435747407E+02  0.40898974250E+02  0.47787275544E+02  0.20000020517E+02 0.  0.
         12    1    1    2    0    0 -0.10099107119E+02  0.10435747407E+02 -0.40898974250E+02  0.43400724456E+02  0.00000000000E+00 0. -1.
         11    1    3    3    0    0  0.24030936130E+01  0.23788922857E+01  0.99145720641E+01  0.10475338987E+02  0.51100000000E-03 0. -1.
        -11    1    3    3    0    0  0.11587084297E+02 -0.70721425032E+01  0.23248409791E+02  0.26921446472E+02  0.51100000000E-03 0.  1.
        -12    1    3    3    0    0 -0.38910707907E+01 -0.57424971896E+01  0.77359923956E+01  0.10390490085E+02  0.00000000000E+00 0.  1.
</event>
<event>
 7    1  0.2769403E-010  0.4778729E+02  0.7816164E-02  0.1312668E+00
        -11   -1    0    0    0    0  0.00000000000E+00  0.00000000000E+00  0.45593999997E+02  0.45594000000E+02  0.51100000000E-03 0.  1.
         11   -1    0    0    0    0 -0.00000000000E+00 -0.00000000000E+00 -0.45593999997E+02  0.45594000000E+02  0.51100000000E-03 0. -1.
    9900012    2    1    2    0    0 -0.33460275380E+02 -0.16449573657E+02  0.22213585895E+02  0.47787286869E+02  0.20000072150E+02 0.  0.
         12    1    1    2    0    0  0.33460275380E+02  0.16449573657E+02 -0.22213585895E+02  0.43400713131E+02  0.00000000000E+00 0. -1.
         11    1    3    3    0    0 -0.41149074692E+01 -0.37681611297E+01 -0.25204393188E+01  0.61224273291E+01  0.51100000000E-03 0. -1.
        -11    1    3    3    0    0 -0.27769678519E+01  0.15222983371E+01  0.10281233641E+01  0.33295616213E+01  0.51100000000E-03 0.  1.
        -12    1    3    3    0    0 -0.26568400059E+02 -0.14203710864E+02  0.23705901850E+02  0.38335297919E+02  0.00000000000E+00 0.  1.
</event>
<event>
 7    1  0.2769403E-010  0.4778727E+02  0.7816164E-02  0.1312668E+00
        -11   -1    0    0    0    0  0.00000000000E+00  0.00000000000E+00  0.45593999997E+02  0.45594000000E+02  0.51100000000E-03 0.  1.
         11   -1    0    0    0    0 -0.00000000000E+00 -0.00000000000E+00 -0.45593999997E+02  0.45594000000E+02  0.51100000000E-03 0. -1.
    9900012    2    1    2    0    0 -0.68794904766E+01  0.31146806435E+02  0.29430808227E+02  0.47787269439E+02  0.19999992681E+02 0.  0.
         12    1    1    2    0    0  0.68794904766E+01 -0.31146806435E+02 -0.29430808227E+02  0.43400730561E+02  0.00000000000E+00 0. -1.
         11    1    3    3    0    0  0.83943952788E+00  0.26560193251E+01  0.52114235944E+01  0.59091482904E+01  0.51100000000E-03 0. -1.
        -11    1    3    3    0    0 -0.74843068362E+01  0.14456771799E+02  0.22449896116E+02  0.27731046420E+02  0.51100000000E-03 0.  1.
         12    1    3    3    0    0 -0.23462316829E+00  0.14034015310E+02  0.17694885166E+01  0.14147074728E+02  0.00000000000E+00 0. -1.
</event>
<event>
 7    1  0.2769403E-010  0.4778726E+02  0.7816164E-02  0.1312668E+00
        -11   -1    0    0    0    0  0.00000000000E+00  0.00000000000E+00  0.45593999997E+02  0.45594000000E+02  0.51100000000E-03 0.  1.
         11   -1    0    0    0    0 -0.00000000000E+00 -0.00000000000E+00 -0.45593999997E+02  0.45594000000E+02  0.51100000000E-03 0. -1.
    9900012    2    1    2    0    0 -0.31790372294E+02 -0.70118958286E+01  0.28702431856E+02  0.47787262124E+02  0.19999959328E+02 0.  0.
         12    1    1    2    0    0  0.31790372294E+02  0.70118958286E+01 -0.28702431856E+02  0.43400737876E+02  0.00000000000E+00 0. -1.
         11    1    3    3    0    0 -0.39287296927E+01  0.40807836687E+01  0.24697248644E+01  0.61795836038E+01  0.51100000000E-03 0. -1.
        -11    1    3    3    0    0 -0.11548833241E+02  0.15117663749E+01  0.10392186206E+02  0.15609565055E+02  0.51100000000E-03 0.  1.
        -12    1    3    3    0    0 -0.16312809361E+02 -0.12604445872E+02  0.15840520786E+02  0.25998113465E+02  0.00000000000E+00 0.  1.
</event>
<event>
 7    1  0.2769403E-010  0.4778727E+02  0.7816164E-02  0.1312668E+00
        -11   -1    0    0    0    0  0.00000000000E+00  0.00000000000E+00  0.45593999997E+02  0.45594000000E+02  0.51100000000E-03 0. -1.
         11   -1    0    0    0    0 -0.00000000000E+00 -0.00000000000E+00 -0.45593999997E+02  0.45594000000E+02  0.51100000000E-03 0.  1.
    9900012    2    1    2    0    0  0.41932461681E+02 -0.26574289548E+01  0.10873355452E+02  0.47787272701E+02  0.20000007553E+02 0.  0.
         12    1    1    2    0    0 -0.41932461681E+02  0.26574289548E+01 -0.10873355452E+02  0.43400727299E+02  0.00000000000E+00 0. -1.
         11    1    3    3    0    0  0.22374948127E+02  0.10773365507E+01  0.43803248937E+01  0.22825122215E+02  0.51100000000E-03 0. -1.
        -11    1    3    3    0    0  0.16772524711E+02 -0.24462572567E+00 -0.36542123190E+00  0.16778288347E+02  0.51100000000E-03 0.  1.
         12    1    3    3    0    0  0.27849888434E+01 -0.34901397799E+01  0.68584517902E+01  0.81838621383E+01  0.00000000000E+00 0. -1.
</event>
<event>
 7    1  0.2769403E-010  0.4778727E+02  0.7816164E-02  0.1312668E+00
        -11   -1    0    0    0    0  0.00000000000E+00  0.00000000000E+00  0.45593999997E+02  0.45594000000E+02  0.51100000000E-03 0.  1.
         11   -1    0    0    0    0 -0.00000000000E+00 -0.00000000000E+00 -0.45593999997E+02  0.45594000000E+02  0.51100000000E-03 0. -1.
    9900012    2    1    2    0    0  0.30093764135E+02 -0.30589173703E+02  0.65031409170E+01  0.47787273861E+02  0.20000012840E+02 0.  0.
         12    1    1    2    0    0 -0.30093764135E+02  0.30589173703E+02 -0.65031409170E+01  0.43400726139E+02  0.00000000000E+00 0. -1.
         11    1    3    3    0    0  0.63934214604E+01 -0.51917372917E+01  0.45464657504E+01  0.94074611430E+01  0.51100000000E-03 0. -1.
        -11    1    3    3    0    0  0.22680072156E+02 -0.18207526647E+02  0.65158820249E+01  0.29805308562E+02  0.51100000000E-03 0.  1.
         12    1    3    3    0    0  0.10202705182E+01 -0.71899097639E+01 -0.45592068583E+01  0.85745041560E+01  0.00000000000E+00 0. -1.
</event>
<event>
 7    1  0.2769403E-010  0.4778727E+02  0.7816164E-02  0.1312668E+00
        -11   -1    0    0    0    0  0.00000000000E+00  0.00000000000E+00  0.45593999997E+02  0.45594000000E+02  0.51100000000E-03 0. -1.
         11   -1    0    0    0    0 -0.00000000000E+00 -0.00000000000E+00 -0.45593999997E+02  0.45594000000E+02  0.51100000000E-03 0.  1.
    9900012    2    1    2    0    0 -0.42487356170E+02  0.64799535073E+01  0.60380296207E+01  0.47787273814E+02  0.20000012629E+02 0.  0.
         12    1    1    2    0    0  0.42487356170E+02 -0.64799535073E+01 -0.60380296207E+01  0.43400726186E+02  0.00000000000E+00 0. -1.
         11    1    3    3    0    0 -0.21793214731E+02  0.23724493986E+01  0.52201542349E+01  0.22534922564E+02  0.51100000000E-03 0. -1.
        -11    1    3    3    0    0 -0.20696199588E+02  0.63398047425E+01 -0.19076225849E+01  0.21729354012E+02  0.51100000000E-03 0.  1.
         12    1    3    3    0    0  0.20581501989E-02 -0.22323006337E+01  0.27254979706E+01  0.35229972386E+01  0.00000000000E+00 0. -1.
</event>
<event>
 7    1  0.2769403E-010  0.4778727E+02  0.7816164E-02  0.1312668E+00
        -11   -1    0    0    0    0  0.00000000000E+00  0.00000000000E+00  0.45593999997E+02  0.45594000000E+02  0.51100000000E-03 0. -1.
         11   -1    0    0    0    0 -0.00000000000E+00 -0.00000000000E+00 -0.45593999997E+02  0.45594000000E+02  0.51100000000E-03 0.  1.
    9900012    2    1    2    0    0  0.59059415073E+01  0.19293739693E+02 -0.38425183711E+02  0.47787270978E+02  0.19999999696E+02 0.  0.
         12    1    1    2    0    0 -0.59059415073E+01 -0.19293739693E+02  0.38425183711E+02  0.43400729022E+02  0.00000000000E+00 0. -1.
         11    1    3    3    0    0  0.34857599220E+00 -0.16359633011E+01 -0.89686226857E+01  0.91232710299E+01  0.51100000000E-03 0. -1.
        -11    1    3    3    0    0 -0.19303267321E+00  0.48043183799E+01 -0.25624474932E+00  0.48150180001E+01  0.51100000000E-03 0.  1.
        -12    1    3    3    0    0  0.57503981883E+01  0.16125384614E+02 -0.29200316276E+02  0.33848981948E+02  0.00000000000E+00 0.  1.
</event>
<event>
 7    1  0.2769403E-010  0.4778727E+02  0.7816164E-02  0.1312668E+00
        -11   -1    0    0    0    0  0.00000000000E+00  0.00000000000E+00  0.45593999997E+02  0.45594000000E+02  0.51100000000E-03 0.  1.
         11   -1    0    0    0    0 -0.00000000000E+00 -0.00000000000E+00 -0.45593999997E+02  0.45594000000E+02  0.51100000000E-03 0. -1.
    9900012    2    1    2    0    0 -0.16761260670E+02 -0.24237052666E+02  0.31862965739E+02  0.47787272278E+02  0.20000005623E+02 0.  0.
         12    1    1    2    0    0  0.16761260670E+02  0.24237052666E+02 -0.31862965739E+02  0.43400727722E+02  0.00000000000E+00 0. -1.
         11    1    3    3    0    0 -0.29515589770E+01 -0.50973657187E+01 -0.53436529611E+00  0.59144217127E+01  0.51100000000E-03 0. -1.
        -11    1    3    3    0    0  0.99262551185E+00 -0.61119833520E+01  0.42681836373E+01  0.75205742949E+01  0.51100000000E-03 0.  1.
        -12    1    3    3    0    0 -0.14802327205E+02 -0.13027703595E+02  0.28129147397E+02  0.34352276270E+02  0.00000000000E+00 0.  1.
</event>
<event>
 7    1  0.2769403E-010  0.4778727E+02  0.7816164E-02  0.1312668E+00
        -11   -1    0    0    0    0  0.00000000000E+00  0.00000000000E+00  0.45593999997E+02  0.45594000000E+02  0.51100000000E-03 0.  1.
         11   -1    0    0    0    0 -0.00000000000E+00 -0.00000000000E+00 -0.45593999997E+02  0.45594000000E+02  0.51100000000E-03 0. -1.
    9900012    2    1    2    0    0  0.39260100521E+02  0.15440064740E+02  0.10191768979E+02  0.47787271354E+02  0.20000001409E+02 0.  0.
         12    1    1    2    0    0 -0.39260100521E+02 -0.15440064740E+02 -0.10191768979E+02  0.43400728646E+02  0.00000000000E+00 0. -1.
         11    1    3    3    0    0  0.16745457070E+01 -0.34485958440E+00 -0.14370244404E+01  0.22333989705E+01  0.51100000000E-03 0. -1.
        -11    1    3    3    0    0  0.87762863227E+01  0.11019160546E+02 -0.95280180916E-01  0.14087376595E+02  0.51100000000E-03 0.  1.
         12    1    3    3    0    0  0.28809268491E+02  0.47657637790E+01  0.11724073601E+02  0.31466495788E+02  0.00000000000E+00 0. -1.
</event>
<event>
 7    1  0.2769403E-010  0.4778732E+02  0.7816164E-02  0.1312668E+00
        -11   -1    0    0    0    0  0.00000000000E+00  0.00000000000E+00  0.45593999997E+02  0.45594000000E+02  0.51100000000E-03 0. -1.
         11   -1    0    0    0    0 -0.00000000000E+00 -0.00000000000E+00 -0.45593999997E+02  0.45594000000E+02  0.51100000000E-03 0.  1.
    9900012    2    1    2    0    0 -0.13121903116E+01  0.15956112373E+02 -0.40339797140E+02  0.47787324905E+02  0.20000245568E+02 0.  0.
         12    1    1    2    0    0  0.13121903116E+01 -0.15956112373E+02  0.40339797140E+02  0.43400675095E+02  0.00000000000E+00 0. -1.
         11    1    3    3    0    0 -0.20599167699E+01  0.16331932602E+01 -0.46376173134E+01  0.53308603368E+01  0.51100000000E-03 0. -1.
        -11    1    3    3    0    0  0.60538782657E+01  0.48560352135E+01 -0.28237483299E+02  0.29284569032E+02  0.51100000000E-03 0.  1.
        -12    1    3    3    0    0 -0.53061518074E+01  0.94668838992E+01 -0.74646965269E+01  0.13171895536E+02  0.00000000000E+00 0.  1.
</event>
<event>
 7    1  0.2769403E-010  0.4778727E+02  0.7816164E-02  0.1312668E+00
        -11   -1    0    0    0    0  0.00000000000E+00  0.00000000000E+00  0.45593999997E+02  0.45594000000E+02  0.51100000000E-03 0.  1.
         11   -1    0    0    0    0 -0.00000000000E+00 -0.00000000000E+00 -0.45593999997E+02  0.45594000000E+02  0.51100000000E-03 0. -1.
    9900012    2    1    2    0    0 -0.15858304818E+02  0.40170014289E+02 -0.43020137511E+01  0.47787271873E+02  0.20000003778E+02 0.  0.
         12    1    1    2    0    0  0.15858304818E+02 -0.40170014289E+02  0.43020137511E+01  0.43400728127E+02  0.00000000000E+00 0. -1.
         11    1    3    3    0    0  0.13719248598E+01  0.11956745554E+02  0.34974561359E+01  0.12533081893E+02  0.51100000000E-03 0. -1.
        -11    1    3    3    0    0 -0.85214830213E+01  0.14208623429E+02  0.93109359902E+00  0.16594203451E+02  0.51100000000E-03 0.  1.
         12    1    3    3    0    0 -0.87087466560E+01  0.14004645305E+02 -0.87305634861E+01  0.18659986528E+02  0.00000000000E+00 0. -1.
</event>
<event>
 7    1  0.2769403E-010  0.4778733E+02  0.7816164E-02  0.1312668E+00
        -11   -1    0    0    0    0  0.00000000000E+00  0.00000000000E+00  0.45593999997E+02  0.45594000000E+02  0.51100000000E-03 0.  1.
         11   -1    0    0    0    0 -0.00000000000E+00 -0.00000000000E+00 -0.45593999997E+02  0.45594000000E+02  0.51100000000E-03 0. -1.
    9900012    2    1    2    0    0 -0.35412757697E+02 -0.19323373080E+02 -0.16005074834E+02  0.47787325174E+02  0.20000246799E+02 0.  0.
         12    1    1    2    0    0  0.35412757697E+02  0.19323373080E+02  0.16005074834E+02  0.43400674826E+02  0.00000000000E+00 0. -1.
         11    1    3    3    0    0 -0.61279541467E+01 -0.82512744302E+01 -0.18915736841E+00  0.10279646517E+02  0.51100000000E-03 0. -1.
        -11    1    3    3    0    0 -0.74471630661E+01 -0.52401934031E+01  0.12421248370E+01  0.91903612011E+01  0.51100000000E-03 0.  1.
         12    1    3    3    0    0 -0.21837640484E+02 -0.58319052465E+01 -0.17058042303E+02  0.28317317456E+02  0.00000000000E+00 0. -1.
</event>
<event>
 7    1  0.2769403E-010  0.4778727E+02  0.7816164E-02  0.1312668E+00
        -11   -1    0    0    0    0  0.00000000000E+00  0.00000000000E+00  0.45593999997E+02  0.45594000000E+02  0.51100000000E-03 0.  1.
         11   -1    0    0    0    0 -0.00000000000E+00 -0.00000000000E+00 -0.45593999997E+02  0.45594000000E+02  0.51100000000E-03 0. -1.
    9900012    2    1    2    0    0  0.30201296858E+02  0.31073069194E+02 -0.24431949302E+01  0.47787272328E+02  0.20000005851E+02 0.  0.
         12    1    1    2    0    0 -0.30201296858E+02 -0.31073069194E+02  0.24431949302E+01  0.43400727672E+02  0.00000000000E+00 0. -1.
         11    1    3    3    0    0  0.18678303137E+01  0.80380763066E+01 -0.58591636450E+01  0.10120734147E+02  0.51100000000E-03 0. -1.
        -11    1    3    3    0    0  0.10086194285E+02  0.12002606623E+02 -0.16064124804E+01  0.15759899816E+02  0.51100000000E-03 0.  1.
        -12    1    3    3    0    0  0.18247272259E+02  0.11032386265E+02  0.50223811952E+01  0.21906638365E+02  0.00000000000E+00 0.  1.
</event>
<event>
 7    1  0.2769403E-010  0.4778727E+02  0.7816164E-02  0.1312668E+00
        -11   -1    0    0    0    0  0.00000000000E+00  0.00000000000E+00  0.45593999997E+02  0.45594000000E+02  0.51100000000E-03 0.  1.
         11   -1    0    0    0    0 -0.00000000000E+00 -0.00000000000E+00 -0.45593999997E+02  0.45594000000E+02  0.51100000000E-03 0. -1.
    9900012    2    1    2    0    0 -0.20419538668E+02 -0.37336579184E+02 -0.85232513718E+01  0.47787268226E+02  0.19999987149E+02 0.  0.
         12    1    1    2    0    0  0.20419538668E+02  0.37336579184E+02  0.85232513718E+01  0.43400731774E+02  0.00000000000E+00 0. -1.
         11    1    3    3    0    0 -0.74415110635E+00 -0.36590246444E+01 -0.28478515975E+01  0.46960069421E+01  0.51100000000E-03 0. -1.
        -11    1    3    3    0    0 -0.65871823430E+01 -0.23585354850E+02 -0.92588506572E+01  0.26179882551E+02  0.51100000000E-03 0.  1.
         12    1    3    3    0    0 -0.13088205218E+02 -0.10092199690E+02  0.35834508830E+01  0.16911378733E+02  0.00000000000E+00 0. -1.
</event>
<event>
 7    1  0.2769403E-010  0.4778727E+02  0.7816164E-02  0.1312668E+00
        -11   -1    0    0    0    0  0.00000000000E+00  0.00000000000E+00  0.45593999997E+02  0.45594000000E+02  0.51100000000E-03 0.  1.
         11   -1    0    0    0    0 -0.00000000000E+00 -0.00000000000E+00 -0.45593999997E+02  0.45594000000E+02  0.51100000000E-03 0. -1.
    9900012    2    1    2    0    0 -0.98122941741E+01  0.35815944047E+02  0.22462428172E+02  0.47787266777E+02  0.19999980543E+02 0.  0.
         12    1    1    2    0    0  0.98122941741E+01 -0.35815944047E+02 -0.22462428172E+02  0.43400733223E+02  0.00000000000E+00 0. -1.
         11    1    3    3    0    0 -0.77970719504E+01  0.43471330451E+01  0.29664902953E+01  0.94070166177E+01  0.51100000000E-03 0.  1.
        -11    1    3    3    0    0 -0.36976757996E+01  0.59683586742E+01  0.16564140398E+01  0.72137243720E+01  0.51100000000E-03 0. -1.
        -12    1    3    3    0    0  0.16824535759E+01  0.25500452327E+02  0.17839523837E+02  0.31166525787E+02  0.00000000000E+00 0.  1.
</event>
<event>
 7    1  0.2769403E-010  0.4778723E+02  0.7816164E-02  0.1312668E+00
        -11   -1    0    0    0    0  0.00000000000E+00  0.00000000000E+00  0.45593999997E+02  0.45594000000E+02  0.51100000000E-03 0.  1.
         11   -1    0    0    0    0 -0.00000000000E+00 -0.00000000000E+00 -0.45593999997E+02  0.45594000000E+02  0.51100000000E-03 0. -1.
    9900012    2    1    2    0    0 -0.22898338559E+01  0.35626964075E+02  0.24680002007E+02  0.47787234945E+02  0.19999835407E+02 0.  0.
         12    1    1    2    0    0  0.22898338559E+01 -0.35626964075E+02 -0.24680002007E+02  0.43400765055E+02  0.00000000000E+00 0. -1.
         11    1    3    3    0    0 -0.99703740169E+00  0.37722436050E+01 -0.14662302007E+01  0.41681814570E+01  0.51100000000E-03 0. -1.
        -11    1    3    3    0    0  0.63853772494E+01  0.13367290651E+02  0.12602117287E+02  0.19449186675E+02  0.51100000000E-03 0.  1.
         12    1    3    3    0    0 -0.76781737035E+01  0.18487429819E+02  0.13544114921E+02  0.24169866812E+02  0.00000000000E+00 0. -1.
</event>
<event>
 7    1  0.2769403E-010  0.4778727E+02  0.7816164E-02  0.1312668E+00
        -11   -1    0    0    0    0  0.00000000000E+00  0.00000000000E+00  0.45593999997E+02  0.45594000000E+02  0.51100000000E-03 0. -1.
         11   -1    0    0    0    0 -0.00000000000E+00 -0.00000000000E+00 -0.45593999997E+02  0.45594000000E+02  0.51100000000E-03 0.  1.
    9900012    2    1    2    0    0  0.14101923951E+02  0.27279715262E+01 -0.40955067183E+02  0.47787267106E+02  0.19999982042E+02 0.  0.
         12    1    1    2    0    0 -0.14101923951E+02 -0.27279715262E+01  0.40955067183E+02  0.43400732894E+02  0.00000000000E+00 0. -1.
         11    1    3    3    0    0 -0.53379455378E+00 -0.20688799962E+01 -0.26362615812E+01  0.33933871647E+01  0.51100000000E-03 0. -1.
        -11    1    3    3    0    0  0.16950168380E+02 -0.14116161855E+00 -0.29602814810E+02  0.34112384549E+02  0.51100000000E-03 0.  1.
         12    1    3    3    0    0 -0.23144498748E+01  0.49380131409E+01 -0.87159907919E+01  0.10281495392E+02  0.00000000000E+00 0. -1.
</event>
<event>
 7    1  0.2769403E-010  0.4778728E+02  0.7816164E-02  0.1312668E+00
        -11   -1    0    0    0    0  0.00000000000E+00  0.00000000000E+00  0.45593999997E+02  0.45594000000E+02  0.51100000000E-03 0.  1.
         11   -1    0    0    0    0 -0.00000000000E+00 -0.00000000000E+00 -0.45593999997E+02  0.45594000000E+02  0.51100000000E-03 0. -1.
    9900012    2    1    2    0    0  0.36799289503E+02  0.79865111055E+01  0.21578930941E+02  0.47787281940E+02  0.20000049678E+02 0.  0.
         12    1    1    2    0    0 -0.36799289503E+02 -0.79865111055E+01 -0.21578930941E+02  0.43400718060E+02  0.00000000000E+00 0. -1.
         11    1    3    3    0    0  0.12245764396E+02 -0.12475601946E+01  0.91474424740E+01  0.15335933495E+02  0.51100000000E-03 0. -1.
        -11    1    3    3    0    0  0.73676831836E+01  0.10367939639E+02  0.60402265448E+01  0.14080527860E+02  0.51100000000E-03 0.  1.
        -12    1    3    3    0    0  0.17185841923E+02 -0.11338683388E+01  0.63912619223E+01  0.18370820585E+02  0.00000000000E+00 0.  1.
</event>
<event>
 7    1  0.2769403E-010  0.4778726E+02  0.7816164E-02  0.1312668E+00
        -11   -1    0    0    0    0  0.00000000000E+00  0.00000000000E+00  0.45593999997E+02  0.45594000000E+02  0.51100000000E-03 0.  1.
         11   -1    0    0    0    0 -0.00000000000E+00 -0.00000000000E+00 -0.45593999997E+02  0.45594000000E+02  0.51100000000E-03 0. -1.
    9900012    2    1    2    0    0  0.30722583631E+01  0.36864928908E+02  0.22697183824E+02  0.47787263735E+02  0.19999966672E+02 0.  0.
         12    1    1    2    0    0 -0.30722583631E+01 -0.36864928908E+02 -0.22697183824E+02  0.43400736265E+02  0.00000000000E+00 0. -1.
         11    1    3    3    0    0  0.29402525879E+01  0.14699243234E+02  0.53698572406E+01  0.15923197041E+02  0.51100000000E-03 0. -1.
        -11    1    3    3    0    0  0.73280922399E+01  0.12278388719E+02  0.11331439885E+02  0.18244486716E+02  0.51100000000E-03 0.  1.
        -12    1    3    3    0    0 -0.71960864647E+01  0.98872969547E+01  0.59958866984E+01  0.13619579978E+02  0.00000000000E+00 0.  1.
</event>
<event>
 7    1  0.2769403E-010  0.4778726E+02  0.7816164E-02  0.1312668E+00
        -11   -1    0    0    0    0  0.00000000000E+00  0.00000000000E+00  0.45593999997E+02  0.45594000000E+02  0.51100000000E-03 0.  1.
         11   -1    0    0    0    0 -0.00000000000E+00 -0.00000000000E+00 -0.45593999997E+02  0.45594000000E+02  0.51100000000E-03 0. -1.
    9900012    2    1    2    0    0  0.28552671922E+02 -0.33359627472E+01  0.32515231207E+02  0.47787262889E+02  0.19999962815E+02 0.  0.
         12    1    1    2    0    0 -0.28552671922E+02  0.33359627472E+01 -0.32515231207E+02  0.43400737111E+02  0.00000000000E+00 0. -1.
         11    1    3    3    0    0  0.98109962494E-01  0.29378132593E+01  0.65437482176E+01  0.71736332013E+01  0.51100000000E-03 0. -1.
        -11    1    3    3    0    0  0.60246406564E+01 -0.60029945212E+01  0.97090898769E+01  0.12907310516E+02  0.51100000000E-03 0.  1.
        -12    1    3    3    0    0  0.22429921303E+02 -0.27078148531E+00  0.16262393113E+02  0.27706319171E+02  0.00000000000E+00 0.  1.
</event>
<event>
 7    1  0.2769403E-010  0.4778727E+02  0.7816164E-02  0.1312668E+00
        -11   -1    0    0    0    0  0.00000000000E+00  0.00000000000E+00  0.45593999997E+02  0.45594000000E+02  0.51100000000E-03 0.  1.
         11   -1    0    0    0    0 -0.00000000000E+00 -0.00000000000E+00 -0.45593999997E+02  0.45594000000E+02  0.51100000000E-03 0. -1.
    9900012    2    1    2    0    0 -0.38897133976E+02 -0.13125735108E+02 -0.14083728899E+02  0.47787269899E+02  0.19999994776E+02 0.  0.
         12    1    1    2    0    0  0.38897133976E+02  0.13125735108E+02  0.14083728899E+02  0.43400730101E+02  0.00000000000E+00 0. -1.
         11    1    3    3    0    0 -0.10924874121E+02  0.31209921136E+01 -0.61695385916E+01  0.12928908424E+02  0.51100000000E-03 0. -1.
        -11    1    3    3    0    0 -0.14606685522E+02 -0.26450496283E+01 -0.26871878885E+01  0.15085507233E+02  0.51100000000E-03 0.  1.
        -12    1    3    3    0    0 -0.13365574332E+02 -0.13601677593E+02 -0.52270024190E+01  0.19772854241E+02  0.00000000000E+00 0.  1.
</event>
<event>
 7    1  0.2769403E-010  0.4778727E+02  0.7816164E-02  0.1312668E+00
        -11   -1    0    0    0    0  0.00000000000E+00  0.00000000000E+00  0.45593999997E+02  0.45594000000E+02  0.51100000000E-03 0. -1.
         11   -1    0    0    0    0 -0.00000000000E+00 -0.00000000000E+00 -0.45593999997E+02  0.45594000000E+02  0.51100000000E-03 0.  1.
    9900012    2    1    2    0    0  0.30853093227E+02 -0.14049706853E+02 -0.27098258014E+02  0.47787271761E+02  0.20000003265E+02 0.  0.
         12    1    1    2    0    0 -0.30853093227E+02  0.14049706853E+02  0.27098258014E+02  0.43400728239E+02  0.00000000000E+00 0. -1.
         11    1    3    3    0    0  0.96858648502E+01 -0.11375639582E+02 -0.60230706283E+01  0.16108958186E+02  0.51100000000E-03 0. -1.
        -11    1    3    3    0    0  0.76099067041E+01 -0.54112373133E+01 -0.11700195338E+02  0.14969527064E+02  0.51100000000E-03 0.  1.
         12    1    3    3    0    0  0.13557321673E+02  0.27371700419E+01 -0.93749920477E+01  0.16708786511E+02  0.00000000000E+00 0. -1.
</event>
<event>
 7    1  0.2769403E-010  0.4778727E+02  0.7816164E-02  0.1312668E+00
        -11   -1    0    0    0    0  0.00000000000E+00  0.00000000000E+00  0.45593999997E+02  0.45594000000E+02  0.51100000000E-03 0.  1.
         11   -1    0    0    0    0 -0.00000000000E+00 -0.00000000000E+00 -0.45593999997E+02  0.45594000000E+02  0.51100000000E-03 0. -1.
    9900012    2    1    2    0    0  0.39755321849E+02 -0.38610125990E+01  0.16977349234E+02  0.47787269354E+02  0.19999992291E+02 0.  0.
         12    1    1    2    0    0 -0.39755321849E+02  0.38610125990E+01 -0.16977349234E+02  0.43400730646E+02  0.00000000000E+00 0. -1.
         11    1    3    3    0    0  0.87814888539E+01  0.20908408082E+01 -0.14825444251E+01  0.91479013992E+01  0.51100000000E-03 0. -1.
        -11    1    3    3    0    0  0.54608997821E+01  0.22861164172E+01  0.77898532317E+01  0.97841488304E+01  0.51100000000E-03 0.  1.
         12    1    3    3    0    0  0.25512933213E+02 -0.82379698244E+01  0.10670040428E+02  0.28855219124E+02  0.00000000000E+00 0. -1.
</event>
<event>
 7    1  0.2769403E-010  0.4778727E+02  0.7816164E-02  0.1312668E+00
        -11   -1    0    0    0    0  0.00000000000E+00  0.00000000000E+00  0.45593999997E+02  0.45594000000E+02  0.51100000000E-03 0.  1.
         11   -1    0    0    0    0 -0.00000000000E+00 -0.00000000000E+00 -0.45593999997E+02  0.45594000000E+02  0.51100000000E-03 0. -1.
    9900012    2    1    2    0    0 -0.86191732468E+01 -0.37719957988E+02  0.19660569043E+02  0.47787270131E+02  0.19999995834E+02 0.  0.
         12    1    1    2    0    0  0.86191732468E+01  0.37719957988E+02 -0.19660569043E+02  0.43400729869E+02  0.00000000000E+00 0. -1.
         11    1    3    3    0    0 -0.27771716673E+01 -0.11656226461E+02  0.36614484792E-02  0.11982500217E+02  0.51100000000E-03 0. -1.
        -11    1    3    3    0    0 -0.23565883328E+01 -0.25534551510E+02  0.14211469297E+02  0.29317787932E+02  0.51100000000E-03 0.  1.
         12    1    3    3    0    0 -0.34854132467E+01 -0.52918001797E+00  0.54454382971E+01  0.64869819824E+01  0.00000000000E+00 0. -1.
</event>
<event>
 7    1  0.2769403E-010  0.4778727E+02  0.7816164E-02  0.1312668E+00
        -11   -1    0    0    0    0  0.00000000000E+00  0.00000000000E+00  0.45593999997E+02  0.45594000000E+02  0.51100000000E-03 0. -1.
         11   -1    0    0    0    0 -0.00000000000E+00 -0.00000000000E+00 -0.45593999997E+02  0.45594000000E+02  0.51100000000E-03 0.  1.
    9900012    2    1    2    0    0  0.16610160250E+02  0.17465858504E+02 -0.36092516187E+02  0.47787270034E+02  0.19999995395E+02 0.  0.
         12    1    1    2    0    0 -0.16610160250E+02 -0.17465858504E+02  0.36092516187E+02  0.43400729966E+02  0.00000000000E+00 0. -1.
         11    1    3    3    0    0 -0.25831105824E+01  0.61035483193E+01 -0.53294583488E+01  0.85046392586E+01  0.51100000000E-03 0. -1.
        -11    1    3    3    0    0  0.94893265067E+01  0.10883833430E+02 -0.15448652372E+02  0.21146300103E+02  0.51100000000E-03 0.  1.
         12    1    3    3    0    0  0.97039443259E+01  0.47847675540E+00 -0.15314405466E+02  0.18136330672E+02  0.00000000000E+00 0. -1.
</event>
<event>
 7    1  0.2769403E-010  0.4778727E+02  0.7816164E-02  0.1312668E+00
        -11   -1    0    0    0    0  0.00000000000E+00  0.00000000000E+00  0.45593999997E+02  0.45594000000E+02  0.51100000000E-03 0.  1.
         11   -1    0    0    0    0 -0.00000000000E+00 -0.00000000000E+00 -0.45593999997E+02  0.45594000000E+02  0.51100000000E-03 0. -1.
    9900012    2    1    2    0    0 -0.13802116806E+02 -0.20958748478E+02  0.35409830870E+02  0.47787266270E+02  0.19999978231E+02 0.  0.
         12    1    1    2    0    0  0.13802116806E+02  0.20958748478E+02 -0.35409830870E+02  0.43400733730E+02  0.00000000000E+00 0. -1.
         11    1    3    3    0    0 -0.11925510051E+02 -0.23431026381E+01  0.10180301311E+02  0.15853909770E+02  0.51100000000E-03 0. -1.
        -11    1    3    3    0    0  0.11047929413E+01 -0.19655141383E+01  0.12196249906E+01  0.25634544369E+01  0.51100000000E-03 0.  1.
         12    1    3    3    0    0 -0.29813996960E+01 -0.16650131701E+02  0.24009904568E+02  0.29369902063E+02  0.00000000000E+00 0. -1.
</event>
<event>
 7    1  0.2769403E-010  0.4778728E+02  0.7816164E-02  0.1312668E+00
        -11   -1    0    0    0    0  0.00000000000E+00  0.00000000000E+00  0.45593999997E+02  0.45594000000E+02  0.51100000000E-03 0.  1.
         11   -1    0    0    0    0 -0.00000000000E+00 -0.00000000000E+00 -0.45593999997E+02  0.45594000000E+02  0.51100000000E-03 0. -1.
    9900012    2    1    2    0    0 -0.26776021079E+02 -0.74227569827E+01  0.33340219457E+02  0.47787275818E+02  0.20000021766E+02 0.  0.
         12    1    1    2    0    0  0.26776021079E+02  0.74227569827E+01 -0.33340219457E+02  0.43400724182E+02  0.00000000000E+00 0. -1.
         11    1    3    3    0    0 -0.43747039547E+01  0.63397831357E+01  0.73740894020E+01  0.10663399067E+02  0.51100000000E-03 0. -1.
        -11    1    3    3    0    0 -0.39991324534E+01 -0.41536954301E+01  0.53184925911E+01  0.78442724206E+01  0.51100000000E-03 0.  1.
         12    1    3    3    0    0 -0.18402184671E+02 -0.96088446883E+01  0.20647637464E+02  0.29279604330E+02  0.00000000000E+00 0. -1.
</event>
<event>
 7    1  0.2769403E-010  0.4778728E+02  0.7816164E-02  0.1312668E+00
        -11   -1    0    0    0    0  0.00000000000E+00  0.00000000000E+00  0.45593999997E+02  0.45594000000E+02  0.51100000000E-03 0. -1.
         11   -1    0    0    0    0 -0.00000000000E+00 -0.00000000000E+00 -0.45593999997E+02  0.45594000000E+02  0.51100000000E-03 0.  1.
    9900012    2    1    2    0    0 -0.39011224603E+02  0.38867620695E+01 -0.18618275658E+02  0.47787277046E+02  0.20000027364E+02 0.  0.
         12    1    1    2    0    0  0.39011224603E+02 -0.38867620695E+01  0.18618275658E+02  0.43400722954E+02  0.00000000000E+00 0. -1.
         11    1    3    3    0    0 -0.30158997310E+01  0.23978803734E+01 -0.82510325080E-01  0.38538668487E+01  0.51100000000E-03 0. -1.
        -11    1    3    3    0    0 -0.21764539884E+02 -0.74274396159E+01 -0.11699314507E+02  0.25801860704E+02  0.51100000000E-03 0.  1.
        -12    1    3    3    0    0 -0.14230784988E+02  0.89163213120E+01 -0.68364508259E+01  0.18131549493E+02  0.00000000000E+00 0.  1.
</event>
<event>
 7    1  0.2769403E-010  0.4778727E+02  0.7816164E-02  0.1312668E+00
        -11   -1    0    0    0    0  0.00000000000E+00  0.00000000000E+00  0.45593999997E+02  0.45594000000E+02  0.51100000000E-03 0. -1.
         11   -1    0    0    0    0 -0.00000000000E+00 -0.00000000000E+00 -0.45593999997E+02  0.45594000000E+02  0.51100000000E-03 0.  1.
    9900012    2    1    2    0    0  0.37937456387E+02  0.19201912653E+02 -0.86982189857E+01  0.47787273506E+02  0.20000011223E+02 0.  0.
         12    1    1    2    0    0 -0.37937456387E+02 -0.19201912653E+02  0.86982189857E+01  0.43400726494E+02  0.00000000000E+00 0. -1.
         11    1    3    3    0    0  0.50110489353E+01  0.55308342337E+01 -0.61931621464E+01  0.96982470780E+01  0.51100000000E-03 0. -1.
        -11    1    3    3    0    0  0.10969139986E+02  0.10914608413E+02  0.16869230496E+01  0.15565873521E+02  0.51100000000E-03 0.  1.
        -12    1    3    3    0    0  0.21957267466E+02  0.27564700065E+01 -0.41919798889E+01  0.22523152907E+02  0.00000000000E+00 0.  1.
</event>
<event>
 7    1  0.2769403E-010  0.4778727E+02  0.7816164E-02  0.1312668E+00
        -11   -1    0    0    0    0  0.00000000000E+00  0.00000000000E+00  0.45593999997E+02  0.45594000000E+02  0.51100000000E-03 0.  1.
         11   -1    0    0    0    0 -0.00000000000E+00 -0.00000000000E+00 -0.45593999997E+02  0.45594000000E+02  0.51100000000E-03 0. -1.
    9900012    2    1    2    0    0 -0.16448955936E+02 -0.12649798690E+01  0.40142933210E+02  0.47787269451E+02  0.19999992737E+02 0.  0.
         12    1    1    2    0    0  0.16448955936E+02  0.12649798690E+01 -0.40142933210E+02  0.43400730549E+02  0.00000000000E+00 0. -1.
         11    1    3    3    0    0 -0.32608909574E+01  0.42021254342E+01  0.45715380491E+01  0.70135745805E+01  0.51100000000E-03 0. -1.
        -11    1    3    3    0    0 -0.70011082829E+01  0.28047155524E+01  0.66219062435E+01  0.10036512795E+02  0.51100000000E-03 0.  1.
        -12    1    3    3    0    0 -0.61869566958E+01 -0.82718208556E+01  0.28949488917E+02  0.30737182076E+02  0.00000000000E+00 0.  1.
</event>
<event>
 7    1  0.2769403E-010  0.4778727E+02  0.7816164E-02  0.1312668E+00
        -11   -1    0    0    0    0  0.00000000000E+00  0.00000000000E+00  0.45593999997E+02  0.45594000000E+02  0.51100000000E-03 0. -1.
         11   -1    0    0    0    0 -0.00000000000E+00 -0.00000000000E+00 -0.45593999997E+02  0.45594000000E+02  0.51100000000E-03 0.  1.
    9900012    2    1    2    0    0 -0.25963945329E+02  0.31858277544E+02 -0.13948008303E+02  0.47787271426E+02  0.20000001739E+02 0.  0.
         12    1    1    2    0    0  0.25963945329E+02 -0.31858277544E+02  0.13948008303E+02  0.43400728574E+02  0.00000000000E+00 0. -1.
         11    1    3    3    0    0 -0.13970259787E+02  0.18004048420E+02 -0.79898753258E+01  0.24148540867E+02  0.51100000000E-03 0. -1.
        -11    1    3    3    0    0 -0.13867113143E+02  0.84957603475E+01 -0.72682572281E+01  0.17812982181E+02  0.51100000000E-03 0.  1.
         12    1    3    3    0    0  0.18734276005E+01  0.53584687770E+01  0.13101242505E+01  0.58257483777E+01  0.00000000000E+00 0. -1.
</event>
<event>
 7    1  0.2769403E-010  0.4778727E+02  0.7816164E-02  0.1312668E+00
        -11   -1    0    0    0    0  0.00000000000E+00  0.00000000000E+00  0.45593999997E+02  0.45594000000E+02  0.51100000000E-03 0.  1.
         11   -1    0    0    0    0 -0.00000000000E+00 -0.00000000000E+00 -0.45593999997E+02  0.45594000000E+02  0.51100000000E-03 0. -1.
    9900012    2    1    2    0    0  0.41918418927E+02  0.80142338643E+01  0.78893105407E+01  0.47787274077E+02  0.20000013828E+02 0.  0.
         12    1    1    2    0    0 -0.41918418927E+02 -0.80142338643E+01 -0.78893105407E+01  0.43400725923E+02  0.00000000000E+00 0. -1.
         11    1    3    3    0    0  0.20881827053E+02  0.11357003211E+02  0.35686896193E+01  0.24036800304E+02  0.51100000000E-03 0. -1.
        -11    1    3    3    0    0  0.10751060208E+02  0.27978005230E+01  0.29500678587E+00  0.11113055954E+02  0.51100000000E-03 0.  1.
        -12    1    3    3    0    0  0.10285531667E+02 -0.61405698693E+01  0.40256141355E+01  0.12637417820E+02  0.00000000000E+00 0.  1.
</event>
<event>
 7    1  0.2769403E-010  0.4778727E+02  0.7816164E-02  0.1312668E+00
        -11   -1    0    0    0    0  0.00000000000E+00  0.00000000000E+00  0.45593999997E+02  0.45594000000E+02  0.51100000000E-03 0.  1.
         11   -1    0    0    0    0 -0.00000000000E+00 -0.00000000000E+00 -0.45593999997E+02  0.45594000000E+02  0.51100000000E-03 0. -1.
    9900012    2    1    2    0    0  0.32565517395E+02 -0.26224874484E+02  0.11634704530E+02  0.47787270577E+02  0.19999997870E+02 0.  0.
         12    1    1    2    0    0 -0.32565517395E+02  0.26224874484E+02 -0.11634704530E+02  0.43400729423E+02  0.00000000000E+00 0. -1.
         11    1    3    3    0    0  0.15263964065E+02 -0.15071053723E+02 -0.86302034732E+00  0.21467884471E+02  0.51100000000E-03 0. -1.
        -11    1    3    3    0    0  0.66105037136E+01 -0.89844297950E+01  0.23056574470E+01  0.11390118288E+02  0.51100000000E-03 0.  1.
         12    1    3    3    0    0  0.10691049617E+02 -0.21693909658E+01  0.10192067431E+02  0.14929267818E+02  0.00000000000E+00 0. -1.
</event>
<event>
 7    1  0.2769403E-010  0.4778726E+02  0.7816164E-02  0.1312668E+00
        -11   -1    0    0    0    0  0.00000000000E+00  0.00000000000E+00  0.45593999997E+02  0.45594000000E+02  0.51100000000E-03 0.  1.
         11   -1    0    0    0    0 -0.00000000000E+00 -0.00000000000E+00 -0.45593999997E+02  0.45594000000E+02  0.51100000000E-03 0. -1.
    9900012    2    1    2    0    0  0.12046964529E+02  0.14091018911E+02  0.39242044670E+02  0.47787259935E+02  0.19999949346E+02 0.  0.
         12    1    1    2    0    0 -0.12046964529E+02 -0.14091018911E+02 -0.39242044670E+02  0.43400740065E+02  0.00000000000E+00 0. -1.
         11    1    3    3    0    0  0.18069092209E+01  0.32979613124E+01  0.11115950658E+01  0.39213662928E+01  0.51100000000E-03 0. -1.
        -11    1    3    3    0    0  0.91034562556E+00  0.57533298719E+01  0.19175733124E+01  0.61324237821E+01  0.51100000000E-03 0.  1.
         12    1    3    3    0    0  0.93297096825E+01  0.50397277266E+01  0.36212876292E+02  0.37733469860E+02  0.00000000000E+00 0. -1.
</event>
<event>
 7    1  0.2769403E-010  0.4778725E+02  0.7816164E-02  0.1312668E+00
        -11   -1    0    0    0    0  0.00000000000E+00  0.00000000000E+00  0.45593999997E+02  0.45594000000E+02  0.51100000000E-03 0.  1.
         11   -1    0    0    0    0 -0.00000000000E+00 -0.00000000000E+00 -0.45593999997E+02  0.45594000000E+02  0.51100000000E-03 0. -1.
    9900012    2    1    2    0    0  0.17744014724E+02  0.20180837599E+02  0.34080912609E+02  0.47787252668E+02  0.19999916213E+02 0.  0.
         12    1    1    2    0    0 -0.17744014724E+02 -0.20180837599E+02 -0.34080912609E+02  0.43400747332E+02  0.00000000000E+00 0. -1.
         11    1    3    3    0    0 -0.96509100905E+00 -0.17867532039E+01  0.46738782171E+01  0.50959813105E+01  0.51100000000E-03 0. -1.
        -11    1    3    3    0    0  0.30979062321E+01  0.87031551862E+01  0.15109281095E+02  0.17709667097E+02  0.51100000000E-03 0.  1.
        -12    1    3    3    0    0  0.15611199501E+02  0.13264435616E+02  0.14297753298E+02  0.24981604261E+02  0.00000000000E+00 0.  1.
</event>
<event>
 7    1  0.2769403E-010  0.4778727E+02  0.7816164E-02  0.1312668E+00
        -11   -1    0    0    0    0  0.00000000000E+00  0.00000000000E+00  0.45593999997E+02  0.45594000000E+02  0.51100000000E-03 0.  1.
         11   -1    0    0    0    0 -0.00000000000E+00 -0.00000000000E+00 -0.45593999997E+02  0.45594000000E+02  0.51100000000E-03 0. -1.
    9900012    2    1    2    0    0 -0.17665799028E+02  0.22522747136E+02  0.32623130778E+02  0.47787271255E+02  0.20000000961E+02 0.  0.
         12    1    1    2    0    0  0.17665799028E+02 -0.22522747136E+02 -0.32623130778E+02  0.43400728745E+02  0.00000000000E+00 0. -1.
         11    1    3    3    0    0 -0.83310942472E+01  0.41761264634E+01  0.18544194475E+02  0.20754139649E+02  0.51100000000E-03 0. -1.
        -11    1    3    3    0    0 -0.28912657864E+01 -0.63424058920E+00  0.25657617763E+01  0.39172455535E+01  0.51100000000E-03 0.  1.
        -12    1    3    3    0    0 -0.64434389943E+01  0.18980861262E+02  0.11513174526E+02  0.23115886052E+02  0.00000000000E+00 0.  1.
</event>
<event>
 7    1  0.2769403E-010  0.4778728E+02  0.7816164E-02  0.1312668E+00
        -11   -1    0    0    0    0  0.00000000000E+00  0.00000000000E+00  0.45593999997E+02  0.45594000000E+02  0.51100000000E-03 0.  1.
         11   -1    0    0    0    0 -0.00000000000E+00 -0.00000000000E+00 -0.45593999997E+02  0.45594000000E+02  0.51100000000E-03 0. -1.
    9900012    2    1    2    0    0 -0.53862476256E+01 -0.42408654192E+02 -0.74911347243E+01  0.47787277503E+02  0.20000029445E+02 0.  0.
         12    1    1    2    0    0  0.53862476256E+01  0.42408654192E+02  0.74911347243E+01  0.43400722497E+02  0.00000000000E+00 0. -1.
         11    1    3    3    0    0 -0.48361019978E+00 -0.65213963956E+00  0.23139211896E+01  0.24522227606E+01  0.51100000000E-03 0. -1.
        -11    1    3    3    0    0 -0.79794986800E+01 -0.15999254612E+02 -0.71638235153E+01  0.19260553339E+02  0.51100000000E-03 0.  1.
         12    1    3    3    0    0  0.30768612542E+01 -0.25757259941E+02 -0.26412323987E+01  0.26074501403E+02  0.00000000000E+00 0. -1.
</event>
<event>
 7    1  0.2769403E-010  0.4778727E+02  0.7816164E-02  0.1312668E+00
        -11   -1    0    0    0    0  0.00000000000E+00  0.00000000000E+00  0.45593999997E+02  0.45594000000E+02  0.51100000000E-03 0.  1.
         11   -1    0    0    0    0 -0.00000000000E+00 -0.00000000000E+00 -0.45593999997E+02  0.45594000000E+02  0.51100000000E-03 0. -1.
    9900012    2    1    2    0    0  0.28580375715E+02 -0.12901080032E+02  0.30005789640E+02  0.47787272426E+02  0.20000006301E+02 0.  0.
         12    1    1    2    0    0 -0.28580375715E+02  0.12901080032E+02 -0.30005789640E+02  0.43400727574E+02  0.00000000000E+00 0. -1.
         11    1    3    3    0    0  0.98020920731E+01  0.95152535749E+00  0.57194436059E+01  0.11388522509E+02  0.51100000000E-03 0. -1.
        -11    1    3    3    0    0  0.19828784450E+02 -0.95388811699E+01  0.16757687152E+02  0.27658471138E+02  0.51100000000E-03 0.  1.
        -12    1    3    3    0    0 -0.10505008079E+01 -0.43137242192E+01  0.75286588818E+01  0.87402787796E+01  0.00000000000E+00 0.  1.
</event>
<event>
 7    1  0.2769403E-010  0.4778727E+02  0.7816164E-02  0.1312668E+00
        -11   -1    0    0    0    0  0.00000000000E+00  0.00000000000E+00  0.45593999997E+02  0.45594000000E+02  0.51100000000E-03 0.  1.
         11   -1    0    0    0    0 -0.00000000000E+00 -0.00000000000E+00 -0.45593999997E+02  0.45594000000E+02  0.51100000000E-03 0. -1.
    9900012    2    1    2    0    0 -0.14988919125E+02  0.37751850547E+02  0.15289002486E+02  0.47787268287E+02  0.19999987426E+02 0.  0.
         12    1    1    2    0    0  0.14988919125E+02 -0.37751850547E+02 -0.15289002486E+02  0.43400731713E+02  0.00000000000E+00 0. -1.
         11    1    3    3    0    0 -0.12851192162E+02  0.21366680987E+02  0.15811846729E+02  0.29524611659E+02  0.51100000000E-03 0.  1.
        -11    1    3    3    0    0 -0.47125514768E+01  0.10916132017E+02  0.12699995597E+01  0.11957549029E+02  0.51100000000E-03 0. -1.
         12    1    3    3    0    0  0.25748245140E+01  0.54690375425E+01 -0.17928438033E+01  0.63051075980E+01  0.00000000000E+00 0. -1.
</event>
<event>
 7    1  0.2769403E-010  0.4778727E+02  0.7816164E-02  0.1312668E+00
        -11   -1    0    0    0    0  0.00000000000E+00  0.00000000000E+00  0.45593999997E+02  0.45594000000E+02  0.51100000000E-03 0. -1.
         11   -1    0    0    0    0 -0.00000000000E+00 -0.00000000000E+00 -0.45593999997E+02  0.45594000000E+02  0.51100000000E-03 0.  1.
    9900012    2    1    2    0    0  0.12273635019E+01  0.29197822728E+02 -0.32087444315E+02  0.47787270099E+02  0.19999995692E+02 0.  0.
         12    1    1    2    0    0 -0.12273635019E+01 -0.29197822728E+02  0.32087444315E+02  0.43400729901E+02  0.00000000000E+00 0. -1.
         11    1    3    3    0    0 -0.14967303895E+01  0.43364944857E+01 -0.97601242577E-01  0.45885632334E+01  0.51100000000E-03 0. -1.
        -11    1    3    3    0    0  0.32474829080E+01  0.16408299608E+02 -0.96575332690E+01  0.19314408879E+02  0.51100000000E-03 0.  1.
        -12    1    3    3    0    0 -0.52338901658E+00  0.84530286346E+01 -0.22332309804E+02  0.23884297987E+02  0.00000000000E+00 0.  1.
</event>
<event>
 7    1  0.2769403E-010  0.4778727E+02  0.7816164E-02  0.1312668E+00
        -11   -1    0    0    0    0  0.00000000000E+00  0.00000000000E+00  0.45593999997E+02  0.45594000000E+02  0.51100000000E-03 0.  1.
         11   -1    0    0    0    0 -0.00000000000E+00 -0.00000000000E+00 -0.45593999997E+02  0.45594000000E+02  0.51100000000E-03 0. -1.
    9900012    2    1    2    0    0  0.14068525633E+02  0.40716768058E+02  0.52768071201E+01  0.47787270651E+02  0.19999998208E+02 0.  0.
         12    1    1    2    0    0 -0.14068525633E+02 -0.40716768058E+02 -0.52768071201E+01  0.43400729349E+02  0.00000000000E+00 0. -1.
         11    1    3    3    0    0  0.32036239862E+01  0.95962420183E+01 -0.62355806202E+01  0.11884171551E+02  0.51100000000E-03 0. -1.
        -11    1    3    3    0    0 -0.40934620348E+00  0.10386933826E+02  0.30883527960E+01  0.10844071277E+02  0.51100000000E-03 0.  1.
        -12    1    3    3    0    0  0.11274247850E+02  0.20733592214E+02  0.84240349443E+01  0.25059027823E+02  0.00000000000E+00 0.  1.
</event>
<event>
 7    1  0.2769403E-010  0.4778727E+02  0.7816164E-02  0.1312668E+00
        -11   -1    0    0    0    0  0.00000000000E+00  0.00000000000E+00  0.45593999997E+02  0.45594000000E+02  0.51100000000E-03 0.  1.
         11   -1    0    0    0    0 -0.00000000000E+00 -0.00000000000E+00 -0.45593999997E+02  0.45594000000E+02  0.51100000000E-03 0. -1.
    9900012    2    1    2    0    0 -0.32188006489E+02  0.14548585497E+02  0.25216941788E+02  0.47787271264E+02  0.20000001000E+02 0.  0.
         12    1    1    2    0    0  0.32188006489E+02 -0.14548585497E+02 -0.25216941788E+02  0.43400728736E+02  0.00000000000E+00 0. -1.
         11    1    3    3    0    0 -0.62615582220E+01  0.65057390003E+01  0.16780275875E+02  0.19055429935E+02  0.51100000000E-03 0. -1.
        -11    1    3    3    0    0 -0.68283563746E+01  0.33230932374E+00  0.27166762937E+01  0.73564400773E+01  0.51100000000E-03 0.  1.
        -12    1    3    3    0    0 -0.19098091892E+02  0.77105371732E+01  0.57199896195E+01  0.21375401251E+02  0.00000000000E+00 0.  1.
</event>
<event>
 7    1  0.2769403E-010  0.4778726E+02  0.7816164E-02  0.1312668E+00
        -11   -1    0    0    0    0  0.00000000000E+00  0.00000000000E+00  0.45593999997E+02  0.45594000000E+02  0.51100000000E-03 0.  1.
         11   -1    0    0    0    0 -0.00000000000E+00 -0.00000000000E+00 -0.45593999997E+02  0.45594000000E+02  0.51100000000E-03 0. -1.
    9900012    2    1    2    0    0  0.62944879794E+01  0.31794689993E+02  0.28863488413E+02  0.47787264360E+02  0.19999969525E+02 0.  0.
         12    1    1    2    0    0 -0.62944879794E+01 -0.31794689993E+02 -0.28863488413E+02  0.43400735640E+02  0.00000000000E+00 0. -1.
         11    1    3    3    0    0  0.55476096933E+01  0.22759670406E+02  0.99415447735E+01  0.25448239291E+02  0.51100000000E-03 0. -1.
        -11    1    3    3    0    0 -0.18869981478E+01  0.89345292335E+01  0.13340266042E+02  0.16166300535E+02  0.51100000000E-03 0.  1.
         12    1    3    3    0    0  0.26338764339E+01  0.10049035429E+00  0.55816775973E+01  0.61727245346E+01  0.00000000000E+00 0. -1.
</event>
<event>
 7    1  0.3385661E-010  0.4778726E+02  0.7816164E-02  0.1312668E+00
        -11   -1    0    0    0    0  0.00000000000E+00  0.00000000000E+00  0.45593999997E+02  0.45594000000E+02  0.51100000000E-03 0. -1.
         11   -1    0    0    0    0 -0.00000000000E+00 -0.00000000000E+00 -0.45593999997E+02  0.45594000000E+02  0.51100000000E-03 0.  1.
    9900012    2    1    2    0    0  0.16526008576E+00 -0.43085121134E+02 -0.52220229717E+01  0.47787256942E+02  0.19999935703E+02 0.  0.
         12    1    1    2    0    0 -0.16526008576E+00  0.43085121134E+02  0.52220229717E+01  0.43400743058E+02  0.00000000000E+00 0. -1.
         11    1    3    3    0    0  0.34605304751E+01 -0.92679129103E+01  0.18537088894E+01  0.10065074157E+02  0.51100000000E-03 0. -1.
        -11    1    3    3    0    0  0.18228965177E+01 -0.29124818458E+02 -0.22542850329E+01  0.29268751309E+02  0.51100000000E-03 0.  1.
         12    1    3    3    0    0 -0.51181669070E+01 -0.46923897657E+01 -0.48214468283E+01  0.84534314760E+01  0.00000000000E+00 0. -1.
</event>
<event>
 7    1  0.2769403E-010  0.4778727E+02  0.7816164E-02  0.1312668E+00
        -11   -1    0    0    0    0  0.00000000000E+00  0.00000000000E+00  0.45593999997E+02  0.45594000000E+02  0.51100000000E-03 0.  1.
         11   -1    0    0    0    0 -0.00000000000E+00 -0.00000000000E+00 -0.45593999997E+02  0.45594000000E+02  0.51100000000E-03 0. -1.
    9900012    2    1    2    0    0  0.27407818012E+02  0.28380342658E+02  0.18082890992E+02  0.47787270926E+02  0.19999999458E+02 0.  0.
         12    1    1    2    0    0 -0.27407818012E+02 -0.28380342658E+02 -0.18082890992E+02  0.43400729074E+02  0.00000000000E+00 0. -1.
         11    1    3    3    0    0  0.23752065165E+01 -0.10984821657E+01  0.34354400294E+01  0.43186244941E+01  0.51100000000E-03 0. -1.
        -11    1    3    3    0    0  0.31694112511E+01  0.44146020371E+01  0.78077010865E+01  0.95128373970E+01  0.51100000000E-03 0.  1.
        -12    1    3    3    0    0  0.21863200244E+02  0.25064222787E+02  0.68397498759E+01  0.33955809034E+02  0.00000000000E+00 0.  1.
</event>
<event>
 7    1  0.2940485E-010  0.4778727E+02  0.7816164E-02  0.1312668E+00
        -11   -1    0    0    0    0  0.00000000000E+00  0.00000000000E+00  0.45593999997E+02  0.45594000000E+02  0.51100000000E-03 0.  1.
         11   -1    0    0    0    0 -0.00000000000E+00 -0.00000000000E+00 -0.45593999997E+02  0.45594000000E+02  0.51100000000E-03 0. -1.
    9900012    2    1    2    0    0  0.12284222232E+00 -0.32407828514E+02  0.28867642572E+02  0.47787271586E+02  0.20000002469E+02 0.  0.
         12    1    1    2    0    0 -0.12284222232E+00  0.32407828514E+02 -0.28867642572E+02  0.43400728414E+02  0.00000000000E+00 0. -1.
         11    1    3    3    0    0 -0.48575938040E+01 -0.16869300927E+02  0.10840922724E+02  0.20632380791E+02  0.51100000000E-03 0. -1.
        -11    1    3    3    0    0  0.69044207031E+00 -0.15916137676E+02  0.15082054852E+02  0.21937833247E+02  0.51100000000E-03 0.  1.
         12    1    3    3    0    0  0.42899939560E+01  0.37761008858E+00  0.29446649958E+01  0.52170575480E+01  0.00000000000E+00 0. -1.
</event>
<event>
 7    1  0.2769403E-010  0.4778727E+02  0.7816164E-02  0.1312668E+00
        -11   -1    0    0    0    0  0.00000000000E+00  0.00000000000E+00  0.45593999997E+02  0.45594000000E+02  0.51100000000E-03 0. -1.
         11   -1    0    0    0    0 -0.00000000000E+00 -0.00000000000E+00 -0.45593999997E+02  0.45594000000E+02  0.51100000000E-03 0.  1.
    9900012    2    1    2    0    0  0.19218514848E+02  0.17393838929E+02 -0.34809862099E+02  0.47787269073E+02  0.19999991012E+02 0.  0.
         12    1    1    2    0    0 -0.19218514848E+02 -0.17393838929E+02  0.34809862099E+02  0.43400730927E+02  0.00000000000E+00 0. -1.
         11    1    3    3    0    0  0.56863704433E+01  0.26685932938E+01 -0.10828148102E+02  0.12518186393E+02  0.51100000000E-03 0. -1.
        -11    1    3    3    0    0  0.25908537111E+01  0.76586329148E+00 -0.15272953208E+02  0.15510066715E+02  0.51100000000E-03 0.  1.
         12    1    3    3    0    0  0.10941290694E+02  0.13959382344E+02 -0.87087607889E+01  0.19759015966E+02  0.00000000000E+00 0. -1.
</event>
<event>
 7    1  0.2769403E-010  0.4778727E+02  0.7816164E-02  0.1312668E+00
        -11   -1    0    0    0    0  0.00000000000E+00  0.00000000000E+00  0.45593999997E+02  0.45594000000E+02  0.51100000000E-03 0.  1.
         11   -1    0    0    0    0 -0.00000000000E+00 -0.00000000000E+00 -0.45593999997E+02  0.45594000000E+02  0.51100000000E-03 0. -1.
    9900012    2    1    2    0    0 -0.85154817682E+01  0.35365933366E+02  0.23671933928E+02  0.47787272720E+02  0.20000007638E+02 0.  0.
         12    1    1    2    0    0  0.85154817682E+01 -0.35365933366E+02 -0.23671933928E+02  0.43400727280E+02  0.00000000000E+00 0. -1.
         11    1    3    3    0    0 -0.56761014573E+01  0.10578328663E+02  0.22499941786E+01  0.12213993578E+02  0.51100000000E-03 0. -1.
        -11    1    3    3    0    0  0.12229622647E+00  0.29078162361E+01 -0.18858678308E+01  0.34679748221E+01  0.51100000000E-03 0.  1.
        -12    1    3    3    0    0 -0.29616765374E+01  0.21879788467E+02  0.23307807580E+02  0.32105304320E+02  0.00000000000E+00 0.  1.
</event>
<event>
 7    1  0.2769403E-010  0.4778727E+02  0.7816164E-02  0.1312668E+00
        -11   -1    0    0    0    0  0.00000000000E+00  0.00000000000E+00  0.45593999997E+02  0.45594000000E+02  0.51100000000E-03 0. -1.
         11   -1    0    0    0    0 -0.00000000000E+00 -0.00000000000E+00 -0.45593999997E+02  0.45594000000E+02  0.51100000000E-03 0.  1.
    9900012    2    1    2    0    0 -0.32997390685E+02 -0.28038382853E+02 -0.29401765575E+01  0.47787270245E+02  0.19999996357E+02 0.  0.
         12    1    1    2    0    0  0.32997390685E+02  0.28038382853E+02  0.29401765575E+01  0.43400729755E+02  0.00000000000E+00 0. -1.
         11    1    3    3    0    0 -0.72697236195E+00  0.11037168509E-01  0.31213494272E+01  0.32049076651E+01  0.51100000000E-03 0. -1.
        -11    1    3    3    0    0 -0.46781234688E+01 -0.97565730286E+01 -0.35256013575E+01  0.11380044888E+02  0.51100000000E-03 0.  1.
         12    1    3    3    0    0 -0.27592294855E+02 -0.18292846993E+02 -0.25359246272E+01  0.33202317693E+02  0.00000000000E+00 0. -1.
</event>
<event>
 7    1  0.2769403E-010  0.4778728E+02  0.7816164E-02  0.1312668E+00
        -11   -1    0    0    0    0  0.00000000000E+00  0.00000000000E+00  0.45593999997E+02  0.45594000000E+02  0.51100000000E-03 0.  1.
         11   -1    0    0    0    0 -0.00000000000E+00 -0.00000000000E+00 -0.45593999997E+02  0.45594000000E+02  0.51100000000E-03 0. -1.
    9900012    2    1    2    0    0  0.39181188841E+02 -0.31028495013E+01 -0.18407309411E+02  0.47787282566E+02  0.20000052532E+02 0.  0.
         12    1    1    2    0    0 -0.39181188841E+02  0.31028495013E+01  0.18407309411E+02  0.43400717434E+02  0.00000000000E+00 0. -1.
         11    1    3    3    0    0  0.67588509633E+01  0.45267927847E+01 -0.61545468612E+01  0.10200606187E+02  0.51100000000E-03 0. -1.
        -11    1    3    3    0    0  0.84863036221E+01 -0.50185564884E+01 -0.88892299187E+01  0.13274850930E+02  0.51100000000E-03 0.  1.
         12    1    3    3    0    0  0.23936034255E+02 -0.26110857976E+01 -0.33635326314E+01  0.24311825449E+02  0.00000000000E+00 0. -1.
</event>
<event>
 7    1  0.2769403E-010  0.4778727E+02  0.7816164E-02  0.1312668E+00
        -11   -1    0    0    0    0  0.00000000000E+00  0.00000000000E+00  0.45593999997E+02  0.45594000000E+02  0.51100000000E-03 0. -1.
         11   -1    0    0    0    0 -0.00000000000E+00 -0.00000000000E+00 -0.45593999997E+02  0.45594000000E+02  0.51100000000E-03 0.  1.
    9900012    2    1    2    0    0  0.48250177585E+01 -0.17019731051E+02 -0.39631697522E+02  0.47787268556E+02  0.19999988654E+02 0.  0.
         12    1    1    2    0    0 -0.48250177585E+01  0.17019731051E+02  0.39631697522E+02  0.43400731444E+02  0.00000000000E+00 0. -1.
         11    1    3    3    0    0  0.67382363766E+01 -0.31044745614E+00 -0.99538577235E+01  0.12024121212E+02  0.51100000000E-03 0. -1.
        -11    1    3    3    0    0  0.36116238885E+01 -0.59445473364E+01 -0.60555826404E+01  0.92223398074E+01  0.51100000000E-03 0.  1.
        -12    1    3    3    0    0 -0.55248425066E+01 -0.10764736258E+02 -0.23622257158E+02  0.26540807536E+02  0.00000000000E+00 0.  1.
</event>
<event>
 7    1  0.2769403E-010  0.4778727E+02  0.7816164E-02  0.1312668E+00
        -11   -1    0    0    0    0  0.00000000000E+00  0.00000000000E+00  0.45593999997E+02  0.45594000000E+02  0.51100000000E-03 0.  1.
         11   -1    0    0    0    0 -0.00000000000E+00 -0.00000000000E+00 -0.45593999997E+02  0.45594000000E+02  0.51100000000E-03 0. -1.
    9900012    2    1    2    0    0  0.26346982500E+02  0.22708424675E+02  0.25957421386E+02  0.47787265408E+02  0.19999974301E+02 0.  0.
         12    1    1    2    0    0 -0.26346982500E+02 -0.22708424675E+02 -0.25957421386E+02  0.43400734592E+02  0.00000000000E+00 0. -1.
         11    1    3    3    0    0  0.13537840500E+02  0.17176617695E+02  0.17816344752E+02  0.28208712509E+02  0.51100000000E-03 0.  1.
        -11    1    3    3    0    0  0.13444426042E+02  0.58996141457E+01  0.98761852185E+01  0.17694549256E+02  0.51100000000E-03 0. -1.
         12    1    3    3    0    0 -0.63528404140E+00 -0.36780716495E+00 -0.17351085847E+01  0.18840036424E+01  0.00000000000E+00 0. -1.
</event>
<event>
 7    1  0.2769403E-010  0.4778727E+02  0.7816164E-02  0.1312668E+00
        -11   -1    0    0    0    0  0.00000000000E+00  0.00000000000E+00  0.45593999997E+02  0.45594000000E+02  0.51100000000E-03 0.  1.
         11   -1    0    0    0    0 -0.00000000000E+00 -0.00000000000E+00 -0.45593999997E+02  0.45594000000E+02  0.51100000000E-03 0. -1.
    9900012    2    1    2    0    0  0.39825951674E+02 -0.16300478260E+02  0.56401282951E+01  0.47787273446E+02  0.20000010949E+02 0.  0.
         12    1    1    2    0    0 -0.39825951674E+02  0.16300478260E+02 -0.56401282951E+01  0.43400726554E+02  0.00000000000E+00 0. -1.
         11    1    3    3    0    0  0.13989262279E+01 -0.13167580928E+01 -0.34769983301E+01  0.39724506434E+01  0.51100000000E-03 0. -1.
        -11    1    3    3    0    0  0.22608521541E+02 -0.74818220888E+01 -0.54053141111E+00  0.23820476118E+02  0.51100000000E-03 0.  1.
         12    1    3    3    0    0  0.15818503905E+02 -0.75018980787E+01  0.96576580363E+01  0.19994346684E+02  0.00000000000E+00 0. -1.
</event>
<event>
 7    1  0.2769403E-010  0.4778727E+02  0.7816164E-02  0.1312668E+00
        -11   -1    0    0    0    0  0.00000000000E+00  0.00000000000E+00  0.45593999997E+02  0.45594000000E+02  0.51100000000E-03 0.  1.
         11   -1    0    0    0    0 -0.00000000000E+00 -0.00000000000E+00 -0.45593999997E+02  0.45594000000E+02  0.51100000000E-03 0. -1.
    9900012    2    1    2    0    0  0.19615130556E+02 -0.35722507066E+02  0.14925567403E+02  0.47787269360E+02  0.19999992319E+02 0.  0.
         12    1    1    2    0    0 -0.19615130556E+02  0.35722507066E+02 -0.14925567403E+02  0.43400730640E+02  0.00000000000E+00 0. -1.
         11    1    3    3    0    0  0.30840941671E+00  0.14268425616E+01  0.25460928642E+01  0.29348910028E+01  0.51100000000E-03 0. -1.
        -11    1    3    3    0    0  0.58726016784E+01 -0.36165418007E+01  0.94016228049E+00  0.69606558918E+01  0.51100000000E-03 0.  1.
        -12    1    3    3    0    0  0.13434119461E+02 -0.33532807827E+02  0.11439312259E+02  0.37891722465E+02  0.00000000000E+00 0.  1.
</event>
<event>
 7    1  0.2769403E-010  0.4778728E+02  0.7816164E-02  0.1312668E+00
        -11   -1    0    0    0    0  0.00000000000E+00  0.00000000000E+00  0.45593999997E+02  0.45594000000E+02  0.51100000000E-03 0.  1.
         11   -1    0    0    0    0 -0.00000000000E+00 -0.00000000000E+00 -0.45593999997E+02  0.45594000000E+02  0.51100000000E-03 0. -1.
    9900012    2    1    2    0    0  0.22868813814E+01  0.24217898200E+02  0.35942821356E+02  0.47787276196E+02  0.20000023489E+02 0.  0.
         12    1    1    2    0    0 -0.22868813814E+01 -0.24217898200E+02 -0.35942821356E+02  0.43400723804E+02  0.00000000000E+00 0. -1.
         11    1    3    3    0    0 -0.48225522495E+00  0.54522926453E+01  0.19375009115E+01  0.58063736734E+01  0.51100000000E-03 0. -1.
        -11    1    3    3    0    0  0.70325766069E+01  0.20334130977E+01  0.91893784796E+01  0.11748896955E+02  0.51100000000E-03 0.  1.
        -12    1    3    3    0    0 -0.42634400005E+01  0.16732192457E+02  0.24815941965E+02  0.30232005568E+02  0.00000000000E+00 0.  1.
</event>
<event>
 7    1  0.2769403E-010  0.4778727E+02  0.7816164E-02  0.1312668E+00
        -11   -1    0    0    0    0  0.00000000000E+00  0.00000000000E+00  0.45593999997E+02  0.45594000000E+02  0.51100000000E-03 0. -1.
         11   -1    0    0    0    0 -0.00000000000E+00 -0.00000000000E+00 -0.45593999997E+02  0.45594000000E+02  0.51100000000E-03 0.  1.
    9900012    2    1    2    0    0  0.33750837190E+02 -0.26900871867E+02  0.45658901302E+01  0.47787271078E+02  0.20000000154E+02 0.  0.
         12    1    1    2    0    0 -0.33750837190E+02  0.26900871867E+02 -0.45658901302E+01  0.43400728922E+02  0.00000000000E+00 0. -1.
         11    1    3    3    0    0  0.15728899489E+02 -0.20846358858E+02  0.33515746953E+00  0.26116685998E+02  0.51100000000E-03 0. -1.
        -11    1    3    3    0    0 -0.90067552543E+00 -0.92562531479E+00 -0.67994077507E+00  0.14595610108E+01  0.51100000000E-03 0.  1.
        -12    1    3    3    0    0  0.18922613227E+02 -0.51288876948E+01  0.49106734357E+01  0.20211024069E+02  0.00000000000E+00 0.  1.
</event>
<event>
 7    1  0.2769403E-010  0.4778730E+02  0.7816164E-02  0.1312668E+00
        -11   -1    0    0    0    0  0.00000000000E+00  0.00000000000E+00  0.45593999997E+02  0.45594000000E+02  0.51100000000E-03 0.  1.
         11   -1    0    0    0    0 -0.00000000000E+00 -0.00000000000E+00 -0.45593999997E+02  0.45594000000E+02  0.51100000000E-03 0. -1.
    9900012    2    1    2    0    0  0.31044523564E+02  0.16339897877E+02  0.25551245922E+02  0.47787298691E+02  0.20000126052E+02 0.  0.
         12    1    1    2    0    0 -0.31044523564E+02 -0.16339897877E+02 -0.25551245922E+02  0.43400701309E+02  0.00000000000E+00 0. -1.
         11    1    3    3    0    0 -0.12285975663E+01  0.21378579563E+01  0.19684463241E+01  0.31551021874E+01  0.51100000000E-03 0. -1.
        -11    1    3    3    0    0  0.11035422098E+01  0.49013030966E+01  0.12539517209E+01  0.51781244319E+01  0.51100000000E-03 0.  1.
        -12    1    3    3    0    0  0.31169578920E+02  0.93007368238E+01  0.22328847877E+02  0.39454072072E+02  0.00000000000E+00 0.  1.
</event>
<event>
 7    1  0.2769403E-010  0.4778728E+02  0.7816164E-02  0.1312668E+00
        -11   -1    0    0    0    0  0.00000000000E+00  0.00000000000E+00  0.45593999997E+02  0.45594000000E+02  0.51100000000E-03 0. -1.
         11   -1    0    0    0    0 -0.00000000000E+00 -0.00000000000E+00 -0.45593999997E+02  0.45594000000E+02  0.51100000000E-03 0.  1.
    9900012    2    1    2    0    0 -0.26063797150E+02  0.34377354231E+02  0.47432683921E+01  0.47787278798E+02  0.20000035352E+02 0.  0.
         12    1    1    2    0    0  0.26063797150E+02 -0.34377354231E+02 -0.47432683921E+01  0.43400721202E+02  0.00000000000E+00 0. -1.
         11    1    3    3    0    0  0.10452833606E+00 -0.11335112620E+01  0.10289046798E+01  0.15344116316E+01  0.51100000000E-03 0. -1.
        -11    1    3    3    0    0 -0.13186787053E+01  0.11135372819E+02 -0.27073127244E+00  0.11216449395E+02  0.51100000000E-03 0.  1.
        -12    1    3    3    0    0 -0.24849646781E+02  0.24375492674E+02  0.39850949848E+01  0.35036417772E+02  0.00000000000E+00 0.  1.
</event>
<event>
 7    1  0.2769403E-010  0.4778726E+02  0.7816164E-02  0.1312668E+00
        -11   -1    0    0    0    0  0.00000000000E+00  0.00000000000E+00  0.45593999997E+02  0.45594000000E+02  0.51100000000E-03 0.  1.
         11   -1    0    0    0    0 -0.00000000000E+00 -0.00000000000E+00 -0.45593999997E+02  0.45594000000E+02  0.51100000000E-03 0. -1.
    9900012    2    1    2    0    0 -0.26847863243E+02  0.21252548460E+02  0.26667309450E+02  0.47787263024E+02  0.19999963432E+02 0.  0.
         12    1    1    2    0    0  0.26847863243E+02 -0.21252548460E+02 -0.26667309450E+02  0.43400736976E+02  0.00000000000E+00 0. -1.
         11    1    3    3    0    0 -0.19540173009E+01  0.10608982095E+02  0.63041832036E+01  0.12494455204E+02  0.51100000000E-03 0. -1.
        -11    1    3    3    0    0 -0.13937894458E+02  0.11075335857E+02  0.13686735337E+02  0.22455616017E+02  0.51100000000E-03 0.  1.
        -12    1    3    3    0    0 -0.10955951484E+02 -0.43176949273E+00  0.66763909094E+01  0.12837191803E+02  0.00000000000E+00 0.  1.
</event>
<event>
 7    1  0.2769403E-010  0.4778727E+02  0.7816164E-02  0.1312668E+00
        -11   -1    0    0    0    0  0.00000000000E+00  0.00000000000E+00  0.45593999997E+02  0.45594000000E+02  0.51100000000E-03 0. -1.
         11   -1    0    0    0    0 -0.00000000000E+00 -0.00000000000E+00 -0.45593999997E+02  0.45594000000E+02  0.51100000000E-03 0.  1.
    9900012    2    1    2    0    0  0.30218192074E+02 -0.22488355264E+02 -0.21558250443E+02  0.47787269397E+02  0.19999992490E+02 0.  0.
         12    1    1    2    0    0 -0.30218192074E+02  0.22488355264E+02  0.21558250443E+02  0.43400730603E+02  0.00000000000E+00 0. -1.
         11    1    3    3    0    0 -0.11154616543E+00 -0.33502723155E+01 -0.10602667306E+01  0.35158118459E+01  0.51100000000E-03 0. -1.
        -11    1    3    3    0    0  0.19325515553E+02 -0.15212516347E+02 -0.53993820455E+01  0.25180340183E+02  0.51100000000E-03 0.  1.
         12    1    3    3    0    0  0.11004222686E+02 -0.39255666011E+01 -0.15098601667E+02  0.19091117368E+02  0.00000000000E+00 0. -1.
</event>
<event>
 7    1  0.2769403E-010  0.4778724E+02  0.7816164E-02  0.1312668E+00
        -11   -1    0    0    0    0  0.00000000000E+00  0.00000000000E+00  0.45593999997E+02  0.45594000000E+02  0.51100000000E-03 0. -1.
         11   -1    0    0    0    0 -0.00000000000E+00 -0.00000000000E+00 -0.45593999997E+02  0.45594000000E+02  0.51100000000E-03 0.  1.
    9900012    2    1    2    0    0 -0.74655098549E+01 -0.23059036335E+02 -0.36002400240E+02  0.47787241745E+02  0.19999866413E+02 0.  0.
         12    1    1    2    0    0  0.74655098549E+01  0.23059036335E+02  0.36002400240E+02  0.43400758255E+02  0.00000000000E+00 0. -1.
         11    1    3    3    0    0  0.21336235661E+01 -0.56830463042E+00 -0.11372624010E+01  0.24836838979E+01  0.51100000000E-03 0. -1.
        -11    1    3    3    0    0  0.80896985300E+00 -0.20357959304E+01  0.12431029839E+01  0.25187700536E+01  0.51100000000E-03 0.  1.
        -12    1    3    3    0    0 -0.10408103274E+02 -0.20454935774E+02 -0.36108240822E+02  0.42784787794E+02  0.00000000000E+00 0.  1.
</event>
<event>
 7    1  0.2769403E-010  0.4778728E+02  0.7816164E-02  0.1312668E+00
        -11   -1    0    0    0    0  0.00000000000E+00  0.00000000000E+00  0.45593999997E+02  0.45594000000E+02  0.51100000000E-03 0.  1.
         11   -1    0    0    0    0 -0.00000000000E+00 -0.00000000000E+00 -0.45593999997E+02  0.45594000000E+02  0.51100000000E-03 0. -1.
    9900012    2    1    2    0    0 -0.38079339647E+02  0.40328892034E+01  0.20428474191E+02  0.47787275801E+02  0.20000021685E+02 0.  0.
         12    1    1    2    0    0  0.38079339647E+02 -0.40328892034E+01 -0.20428474191E+02  0.43400724199E+02  0.00000000000E+00 0. -1.
         11    1    3    3    0    0 -0.20024257523E+02  0.54295423326E+01  0.10800951170E+02  0.23390411834E+02  0.51100000000E-03 0. -1.
        -11    1    3    3    0    0 -0.17811913648E+02 -0.50430539214E+01  0.93299121414E+01  0.20730265832E+02  0.51100000000E-03 0.  1.
         12    1    3    3    0    0 -0.24316847551E+00  0.36464007922E+01  0.29761087907E+00  0.36665981345E+01  0.00000000000E+00 0. -1.
</event>
<event>
 7    1  0.2769403E-010  0.4778727E+02  0.7816164E-02  0.1312668E+00
        -11   -1    0    0    0    0  0.00000000000E+00  0.00000000000E+00  0.45593999997E+02  0.45594000000E+02  0.51100000000E-03 0.  1.
         11   -1    0    0    0    0 -0.00000000000E+00 -0.00000000000E+00 -0.45593999997E+02  0.45594000000E+02  0.51100000000E-03 0. -1.
    9900012    2    1    2    0    0 -0.43380137632E+02  0.93214134884E+00 -0.95811463969E+00  0.47787271755E+02  0.20000003242E+02 0.  0.
         12    1    1    2    0    0  0.43380137632E+02 -0.93214134884E+00  0.95811463969E+00  0.43400728245E+02  0.00000000000E+00 0. -1.
         11    1    3    3    0    0 -0.28625594333E+02  0.31386024093E+01 -0.23896218966E+01  0.28896120312E+02  0.51100000000E-03 0. -1.
        -11    1    3    3    0    0 -0.12028170123E+02  0.28559962575E+01  0.33863854427E+01  0.12818002877E+02  0.51100000000E-03 0.  1.
         12    1    3    3    0    0 -0.27263731765E+01 -0.50624573179E+01 -0.19548781858E+01  0.60731485668E+01  0.00000000000E+00 0. -1.
</event>
<event>
 7    1  0.2769403E-010  0.4778727E+02  0.7816164E-02  0.1312668E+00
        -11   -1    0    0    0    0  0.00000000000E+00  0.00000000000E+00  0.45593999997E+02  0.45594000000E+02  0.51100000000E-03 0. -1.
         11   -1    0    0    0    0 -0.00000000000E+00 -0.00000000000E+00 -0.45593999997E+02  0.45594000000E+02  0.51100000000E-03 0.  1.
    9900012    2    1    2    0    0 -0.31929987172E+02  0.90108179280E+00 -0.29381750014E+02  0.47787271169E+02  0.20000000567E+02 0.  0.
         12    1    1    2    0    0  0.31929987172E+02 -0.90108179280E+00  0.29381750014E+02  0.43400728831E+02  0.00000000000E+00 0. -1.
         11    1    3    3    0    0 -0.91038312666E+00 -0.95095912158E-01  0.43133126902E+00  0.10118733095E+01  0.51100000000E-03 0. -1.
        -11    1    3    3    0    0 -0.51494825331E+01  0.77077899942E+01 -0.87411857054E+01  0.12741095901E+02  0.51100000000E-03 0.  1.
        -12    1    3    3    0    0 -0.25870121512E+02 -0.67116122893E+01 -0.21071895578E+02  0.34034301959E+02  0.00000000000E+00 0.  1.
</event>
<event>
 7    1  0.2769403E-010  0.4778727E+02  0.7816164E-02  0.1312668E+00
        -11   -1    0    0    0    0  0.00000000000E+00  0.00000000000E+00  0.45593999997E+02  0.45594000000E+02  0.51100000000E-03 0.  1.
         11   -1    0    0    0    0 -0.00000000000E+00 -0.00000000000E+00 -0.45593999997E+02  0.45594000000E+02  0.51100000000E-03 0. -1.
    9900012    2    1    2    0    0 -0.53321639294E+01 -0.15667048550E+02  0.40121500631E+02  0.47787271949E+02  0.20000004124E+02 0.  0.
         12    1    1    2    0    0  0.53321639294E+01  0.15667048550E+02 -0.40121500631E+02  0.43400728051E+02  0.00000000000E+00 0. -1.
         11    1    3    3    0    0 -0.60220973031E+01  0.14311365207E+00  0.15394975355E+02  0.16531527573E+02  0.51100000000E-03 0. -1.
        -11    1    3    3    0    0 -0.26653217683E+01 -0.43614394542E+00  0.72607245440E+01  0.77467595054E+01  0.51100000000E-03 0.  1.
        -12    1    3    3    0    0  0.33552551420E+01 -0.15374018257E+02  0.17465800732E+02  0.23508984870E+02  0.00000000000E+00 0.  1.
</event>
<event>
 7    1  0.2769403E-010  0.4778727E+02  0.7816164E-02  0.1312668E+00
        -11   -1    0    0    0    0  0.00000000000E+00  0.00000000000E+00  0.45593999997E+02  0.45594000000E+02  0.51100000000E-03 0. -1.
         11   -1    0    0    0    0 -0.00000000000E+00 -0.00000000000E+00 -0.45593999997E+02  0.45594000000E+02  0.51100000000E-03 0.  1.
    9900012    2    1    2    0    0 -0.11112469406E+02  0.31619270689E+02 -0.27574587515E+02  0.47787272681E+02  0.20000007461E+02 0.  0.
         12    1    1    2    0    0  0.11112469406E+02 -0.31619270689E+02  0.27574587515E+02  0.43400727319E+02  0.00000000000E+00 0. -1.
         11    1    3    3    0    0  0.24784145928E+01  0.56189047460E+01 -0.11174255247E+01  0.62420565123E+01  0.51100000000E-03 0. -1.
        -11    1    3    3    0    0 -0.10831707094E+01  0.10040604315E+01  0.14341743988E+01  0.20587016790E+01  0.51100000000E-03 0.  1.
        -12    1    3    3    0    0 -0.12507713289E+02  0.24996305511E+02 -0.27891336389E+02  0.39486514489E+02  0.00000000000E+00 0.  1.
</event>
<event>
 7    1  0.2769403E-010  0.4778727E+02  0.7816164E-02  0.1312668E+00
        -11   -1    0    0    0    0  0.00000000000E+00  0.00000000000E+00  0.45593999997E+02  0.45594000000E+02  0.51100000000E-03 0.  1.
         11   -1    0    0    0    0 -0.00000000000E+00 -0.00000000000E+00 -0.45593999997E+02  0.45594000000E+02  0.51100000000E-03 0. -1.
    9900012    2    1    2    0    0 -0.24448525180E+02 -0.15795050020E+02  0.32193308689E+02  0.47787272899E+02  0.20000008454E+02 0.  0.
         12    1    1    2    0    0  0.24448525180E+02  0.15795050020E+02 -0.32193308689E+02  0.43400727101E+02  0.00000000000E+00 0. -1.
         11    1    3    3    0    0 -0.76685071358E+01  0.15853246132E+01  0.32198335179E+01  0.84667930154E+01  0.51100000000E-03 0. -1.
        -11    1    3    3    0    0  0.75991029655E+00  0.16915113880E+00 -0.39572327501E+00  0.87331147826E+00  0.51100000000E-03 0.  1.
        -12    1    3    3    0    0 -0.17539928340E+02 -0.17549525772E+02  0.29369198446E+02  0.38447168405E+02  0.00000000000E+00 0.  1.
</event>
<event>
 7    1  0.2769403E-010  0.4778726E+02  0.7816164E-02  0.1312668E+00
        -11   -1    0    0    0    0  0.00000000000E+00  0.00000000000E+00  0.45593999997E+02  0.45594000000E+02  0.51100000000E-03 0.  1.
         11   -1    0    0    0    0 -0.00000000000E+00 -0.00000000000E+00 -0.45593999997E+02  0.45594000000E+02  0.51100000000E-03 0. -1.
    9900012    2    1    2    0    0 -0.38889247892E+01 -0.16259153282E+02  0.40051719413E+02  0.47787262340E+02  0.19999960314E+02 0.  0.
         12    1    1    2    0    0  0.38889247892E+01  0.16259153282E+02 -0.40051719413E+02  0.43400737660E+02  0.00000000000E+00 0. -1.
         11    1    3    3    0    0 -0.44424554852E+01 -0.58858503803E+01  0.12321297651E+02  0.14359422742E+02  0.51100000000E-03 0. -1.
        -11    1    3    3    0    0 -0.67619176478E+01 -0.47931435407E+01  0.73950272305E+01  0.11107843322E+02  0.51100000000E-03 0.  1.
        -12    1    3    3    0    0  0.73154483438E+01 -0.55801593607E+01  0.20335394532E+02  0.22319996275E+02  0.00000000000E+00 0.  1.
</event>
<event>
 7    1  0.2769403E-010  0.4778727E+02  0.7816164E-02  0.1312668E+00
        -11   -1    0    0    0    0  0.00000000000E+00  0.00000000000E+00  0.45593999997E+02  0.45594000000E+02  0.51100000000E-03 0.  1.
         11   -1    0    0    0    0 -0.00000000000E+00 -0.00000000000E+00 -0.45593999997E+02  0.45594000000E+02  0.51100000000E-03 0. -1.
    9900012    2    1    2    0    0  0.39496724812E+02 -0.17469886840E+02  0.42936481928E+01  0.47787266920E+02  0.19999981194E+02 0.  0.
         12    1    1    2    0    0 -0.39496724812E+02  0.17469886840E+02 -0.42936481928E+01  0.43400733080E+02  0.00000000000E+00 0. -1.
         11    1    3    3    0    0 -0.59929217822E+00 -0.35727598667E+01 -0.20054642773E+01  0.41407307820E+01  0.51100000000E-03 0. -1.
        -11    1    3    3    0    0  0.33341593127E+00 -0.81640953093E+00  0.11838674871E+01  0.14762226098E+01  0.51100000000E-03 0.  1.
        -12    1    3    3    0    0  0.39762601059E+02 -0.13080717443E+02  0.51152449830E+01  0.42170313528E+02  0.00000000000E+00 0.  1.
</event>
<event>
 7    1  0.2769403E-010  0.4778727E+02  0.7816164E-02  0.1312668E+00
        -11   -1    0    0    0    0  0.00000000000E+00  0.00000000000E+00  0.45593999997E+02  0.45594000000E+02  0.51100000000E-03 0. -1.
         11   -1    0    0    0    0 -0.00000000000E+00 -0.00000000000E+00 -0.45593999997E+02  0.45594000000E+02  0.51100000000E-03 0.  1.
    9900012    2    1    2    0    0  0.33153305455E+01 -0.76595456030E+00 -0.43267137257E+02  0.47787271096E+02  0.20000000234E+02 0.  0.
         12    1    1    2    0    0 -0.33153305455E+01  0.76595456030E+00  0.43267137257E+02  0.43400728904E+02  0.00000000000E+00 0. -1.
         11    1    3    3    0    0  0.34374667779E+01 -0.11422326151E+01 -0.16176536579E+01  0.39670740873E+01  0.51100000000E-03 0. -1.
        -11    1    3    3    0    0  0.49049948723E+01 -0.14572147410E+00 -0.57178902155E+01  0.75348840882E+01  0.51100000000E-03 0.  1.
         12    1    3    3    0    0 -0.50271311046E+01  0.52199952895E+00 -0.35931593383E+02  0.36285312920E+02  0.00000000000E+00 0. -1.
</event>
<event>
 7    1  0.4207409E-010  0.4778727E+02  0.7816164E-02  0.1312668E+00
        -11   -1    0    0    0    0  0.00000000000E+00  0.00000000000E+00  0.45593999997E+02  0.45594000000E+02  0.51100000000E-03 0. -1.
         11   -1    0    0    0    0 -0.00000000000E+00 -0.00000000000E+00 -0.45593999997E+02  0.45594000000E+02  0.51100000000E-03 0.  1.
    9900012    2    1    2    0    0  0.43146272160E+00  0.71200654394E+01 -0.42810534761E+02  0.47787269840E+02  0.19999994507E+02 0.  0.
         12    1    1    2    0    0 -0.43146272160E+00 -0.71200654394E+01  0.42810534761E+02  0.43400730160E+02  0.00000000000E+00 0. -1.
         11    1    3    3    0    0 -0.62304306768E+01  0.36451858607E+00 -0.15504612892E+02  0.16713592116E+02  0.51100000000E-03 0. -1.
        -11    1    3    3    0    0  0.47652982271E+00  0.78372096465E+01 -0.19722919611E+02  0.21228341762E+02  0.51100000000E-03 0.  1.
         12    1    3    3    0    0  0.61853635757E+01 -0.10816627932E+01 -0.75830022577E+01  0.98453359618E+01  0.00000000000E+00 0. -1.
</event>
<event>
 7    1  0.2769403E-010  0.4778727E+02  0.7816164E-02  0.1312668E+00
        -11   -1    0    0    0    0  0.00000000000E+00  0.00000000000E+00  0.45593999997E+02  0.45594000000E+02  0.51100000000E-03 0.  1.
         11   -1    0    0    0    0 -0.00000000000E+00 -0.00000000000E+00 -0.45593999997E+02  0.45594000000E+02  0.51100000000E-03 0. -1.
    9900012    2    1    2    0    0 -0.20044468257E+02 -0.23952803285E+02  0.30134796298E+02  0.47787269122E+02  0.19999991233E+02 0.  0.
         12    1    1    2    0    0  0.20044468257E+02  0.23952803285E+02 -0.30134796298E+02  0.43400730878E+02  0.00000000000E+00 0. -1.
         11    1    3    3    0    0  0.51905773566E+00 -0.45154633690E-02 -0.31137223364E+00  0.60530508949E+00  0.51100000000E-03 0. -1.
        -11    1    3    3    0    0 -0.15394171825E+02 -0.26211579863E+02  0.25900317985E+02  0.39935622157E+02  0.51100000000E-03 0.  1.
        -12    1    3    3    0    0 -0.51693541672E+01  0.22632920421E+01  0.45458505465E+01  0.72463418747E+01  0.00000000000E+00 0.  1.
</event>
<event>
 7    1  0.2769403E-010  0.4778726E+02  0.7816164E-02  0.1312668E+00
        -11   -1    0    0    0    0  0.00000000000E+00  0.00000000000E+00  0.45593999997E+02  0.45594000000E+02  0.51100000000E-03 0.  1.
         11   -1    0    0    0    0 -0.00000000000E+00 -0.00000000000E+00 -0.45593999997E+02  0.45594000000E+02  0.51100000000E-03 0. -1.
    9900012    2    1    2    0    0 -0.13233533933E+02  0.15303048356E+02  0.38396802021E+02  0.47787261357E+02  0.19999955829E+02 0.  0.
         12    1    1    2    0    0  0.13233533933E+02 -0.15303048356E+02 -0.38396802021E+02  0.43400738643E+02  0.00000000000E+00 0. -1.
         11    1    3    3    0    0 -0.21976319368E+01 -0.60302229142E+00  0.47925386287E+01  0.53067550143E+01  0.51100000000E-03 0. -1.
        -11    1    3    3    0    0 -0.12119283411E+02  0.40191391406E+01  0.10725810453E+02  0.16675536572E+02  0.51100000000E-03 0.  1.
         12    1    3    3    0    0  0.10833814149E+01  0.11886931507E+02  0.22878452940E+02  0.25804969771E+02  0.00000000000E+00 0. -1.
</event>
<event>
 7    1  0.2769403E-010  0.4778727E+02  0.7816164E-02  0.1312668E+00
        -11   -1    0    0    0    0  0.00000000000E+00  0.00000000000E+00  0.45593999997E+02  0.45594000000E+02  0.51100000000E-03 0. -1.
         11   -1    0    0    0    0 -0.00000000000E+00 -0.00000000000E+00 -0.45593999997E+02  0.45594000000E+02  0.51100000000E-03 0.  1.
    9900012    2    1    2    0    0  0.14495161650E+02 -0.38410160520E+02  0.14077413916E+02  0.47787265848E+02  0.19999976305E+02 0.  0.
         12    1    1    2    0    0 -0.14495161650E+02  0.38410160520E+02 -0.14077413916E+02  0.43400734152E+02  0.00000000000E+00 0. -1.
         11    1    3    3    0    0  0.78955069609E+01 -0.87678491975E+01  0.68179416185E+01  0.13627125078E+02  0.51100000000E-03 0. -1.
        -11    1    3    3    0    0  0.10510760549E+02 -0.17237355253E+02  0.26584954245E+01  0.20363450140E+02  0.51100000000E-03 0.  1.
         12    1    3    3    0    0 -0.39111058601E+01 -0.12404956069E+02  0.46009768726E+01  0.13796690629E+02  0.00000000000E+00 0. -1.
</event>
<event>
 7    1  0.2769403E-010  0.4778726E+02  0.7816164E-02  0.1312668E+00
        -11   -1    0    0    0    0  0.00000000000E+00  0.00000000000E+00  0.45593999997E+02  0.45594000000E+02  0.51100000000E-03 0.  1.
         11   -1    0    0    0    0 -0.00000000000E+00 -0.00000000000E+00 -0.45593999997E+02  0.45594000000E+02  0.51100000000E-03 0. -1.
    9900012    2    1    2    0    0  0.18027100215E+02 -0.17763620014E+01  0.39439733071E+02  0.47787258661E+02  0.19999943537E+02 0.  0.
         12    1    1    2    0    0 -0.18027100215E+02  0.17763620014E+01 -0.39439733071E+02  0.43400741339E+02  0.00000000000E+00 0. -1.
         11    1    3    3    0    0  0.70948043218E+00  0.36822548865E+01  0.10507551308E+01  0.38944126821E+01  0.51100000000E-03 0. -1.
        -11    1    3    3    0    0  0.64123061344E+01  0.23149817133E+01  0.70243945933E+01  0.97887144180E+01  0.51100000000E-03 0.  1.
        -12    1    3    3    0    0  0.10905313649E+02 -0.77735986012E+01  0.31364583347E+02  0.34104131560E+02  0.00000000000E+00 0.  1.
</event>
<event>
 7    1  0.2769403E-010  0.4778727E+02  0.7816164E-02  0.1312668E+00
        -11   -1    0    0    0    0  0.00000000000E+00  0.00000000000E+00  0.45593999997E+02  0.45594000000E+02  0.51100000000E-03 0. -1.
         11   -1    0    0    0    0 -0.00000000000E+00 -0.00000000000E+00 -0.45593999997E+02  0.45594000000E+02  0.51100000000E-03 0.  1.
    9900012    2    1    2    0    0 -0.17935812490E+02 -0.25644251290E+02 -0.30071626779E+02  0.47787265778E+02  0.19999975989E+02 0.  0.
         12    1    1    2    0    0  0.17935812490E+02  0.25644251290E+02  0.30071626779E+02  0.43400734222E+02  0.00000000000E+00 0. -1.
         11    1    3    3    0    0  0.12504936745E+00 -0.58828026084E+00  0.24725870749E+00  0.65026774420E+00  0.51100000000E-03 0. -1.
        -11    1    3    3    0    0 -0.11872629892E+02 -0.26764514247E+02 -0.21972371616E+02  0.36607153374E+02  0.51100000000E-03 0.  1.
        -12    1    3    3    0    0 -0.61882319652E+01  0.17085432184E+01 -0.83465138704E+01  0.10529844660E+02  0.00000000000E+00 0.  1.
</event>
<event>
 7    1  0.2769403E-010  0.4778727E+02  0.7816164E-02  0.1312668E+00
        -11   -1    0    0    0    0  0.00000000000E+00  0.00000000000E+00  0.45593999997E+02  0.45594000000E+02  0.51100000000E-03 0.  1.
         11   -1    0    0    0    0 -0.00000000000E+00 -0.00000000000E+00 -0.45593999997E+02  0.45594000000E+02  0.51100000000E-03 0. -1.
    9900012    2    1    2    0    0  0.12833459924E+02 -0.21949782967E+02  0.35172901033E+02  0.47787266908E+02  0.19999981138E+02 0.  0.
         12    1    1    2    0    0 -0.12833459924E+02  0.21949782967E+02 -0.35172901033E+02  0.43400733092E+02  0.00000000000E+00 0. -1.
         11    1    3    3    0    0  0.83843879621E+01 -0.81665935987E+01  0.11375265341E+02  0.16321393149E+02  0.51100000000E-03 0. -1.
        -11    1    3    3    0    0 -0.42616618159E+01 -0.80360761442E+01  0.62054540616E+01  0.11011264305E+02  0.51100000000E-03 0.  1.
        -12    1    3    3    0    0  0.87107337776E+01 -0.57471132238E+01  0.17592181631E+02  0.20454609453E+02  0.00000000000E+00 0.  1.
</event>
<event>
 7    1  0.2769403E-010  0.4778724E+02  0.7816164E-02  0.1312668E+00
        -11   -1    0    0    0    0  0.00000000000E+00  0.00000000000E+00  0.45593999997E+02  0.45594000000E+02  0.51100000000E-03 0.  1.
         11   -1    0    0    0    0 -0.00000000000E+00 -0.00000000000E+00 -0.45593999997E+02  0.45594000000E+02  0.51100000000E-03 0. -1.
    9900012    2    1    2    0    0  0.36256944378E+02 -0.61856672888E+01  0.23039034652E+02  0.47787244096E+02  0.19999877129E+02 0.  0.
         12    1    1    2    0    0 -0.36256944378E+02  0.61856672888E+01 -0.23039034652E+02  0.43400755904E+02  0.00000000000E+00 0. -1.
         11    1    3    3    0    0  0.56806477865E+01  0.52947549697E+01  0.33100306780E+00  0.77726284329E+01  0.51100000000E-03 0. -1.
        -11    1    3    3    0    0  0.16279087323E+01  0.20580514207E+00  0.54446871958E+00  0.17288403758E+01  0.51100000000E-03 0.  1.
         12    1    3    3    0    0  0.28948387859E+02 -0.11686227401E+02  0.22163562864E+02  0.38285775287E+02  0.00000000000E+00 0. -1.
</event>
<event>
 7    1  0.2769403E-010  0.4778727E+02  0.7816164E-02  0.1312668E+00
        -11   -1    0    0    0    0  0.00000000000E+00  0.00000000000E+00  0.45593999997E+02  0.45594000000E+02  0.51100000000E-03 0. -1.
         11   -1    0    0    0    0 -0.00000000000E+00 -0.00000000000E+00 -0.45593999997E+02  0.45594000000E+02  0.51100000000E-03 0.  1.
    9900012    2    1    2    0    0  0.14034286521E+01 -0.34199618910E+02 -0.26684074501E+02  0.47787269850E+02  0.19999994553E+02 0.  0.
         12    1    1    2    0    0 -0.14034286521E+01  0.34199618910E+02  0.26684074501E+02  0.43400730150E+02  0.00000000000E+00 0. -1.
         11    1    3    3    0    0 -0.24802705596E+00 -0.11947863039E+02 -0.99221171386E+01  0.15532590170E+02  0.51100000000E-03 0. -1.
        -11    1    3    3    0    0  0.10001019527E+00 -0.19853930292E+02 -0.54512072993E+01  0.20588934197E+02  0.51100000000E-03 0.  1.
         12    1    3    3    0    0  0.15514455127E+01 -0.23978255796E+01 -0.11310750063E+02  0.11665745483E+02  0.00000000000E+00 0. -1.
</event>
<event>
 7    1  0.2769403E-010  0.4778727E+02  0.7816164E-02  0.1312668E+00
        -11   -1    0    0    0    0  0.00000000000E+00  0.00000000000E+00  0.45593999997E+02  0.45594000000E+02  0.51100000000E-03 0.  1.
         11   -1    0    0    0    0 -0.00000000000E+00 -0.00000000000E+00 -0.45593999997E+02  0.45594000000E+02  0.51100000000E-03 0. -1.
    9900012    2    1    2    0    0 -0.32899207363E+02 -0.23920072981E+02  0.15135900576E+02  0.47787271633E+02  0.20000002682E+02 0.  0.
         12    1    1    2    0    0  0.32899207363E+02  0.23920072981E+02 -0.15135900576E+02  0.43400728367E+02  0.00000000000E+00 0. -1.
         11    1    3    3    0    0  0.54604900620E-01 -0.57801415572E+01  0.13470439525E+01  0.59352797565E+01  0.51100000000E-03 0. -1.
        -11    1    3    3    0    0 -0.10880572702E+02 -0.69956890147E+01  0.10977728359E+02  0.16965761030E+02  0.51100000000E-03 0.  1.
        -12    1    3    3    0    0 -0.22073239562E+02 -0.11144242409E+02  0.28111282642E+01  0.24886230847E+02  0.00000000000E+00 0.  1.
</event>
<event>
 7    1  0.2769403E-010  0.4778727E+02  0.7816164E-02  0.1312668E+00
        -11   -1    0    0    0    0  0.00000000000E+00  0.00000000000E+00  0.45593999997E+02  0.45594000000E+02  0.51100000000E-03 0. -1.
         11   -1    0    0    0    0 -0.00000000000E+00 -0.00000000000E+00 -0.45593999997E+02  0.45594000000E+02  0.51100000000E-03 0.  1.
    9900012    2    1    2    0    0 -0.16632131515E+02 -0.55232113221E+01 -0.39705029171E+02  0.47787274159E+02  0.20000014199E+02 0.  0.
         12    1    1    2    0    0  0.16632131515E+02  0.55232113221E+01  0.39705029171E+02  0.43400725841E+02  0.00000000000E+00 0. -1.
         11    1    3    3    0    0 -0.64564536747E+00  0.73419444520E+00  0.13238642542E+01  0.16457570442E+01  0.51100000000E-03 0. -1.
        -11    1    3    3    0    0  0.55674306264E+00 -0.34036157359E+01 -0.13182882320E+02  0.13626553102E+02  0.51100000000E-03 0.  1.
         12    1    3    3    0    0 -0.16543229211E+02 -0.28537900314E+01 -0.27846011106E+02  0.32514964013E+02  0.00000000000E+00 0. -1.
</event>
<event>
 7    1  0.2769403E-010  0.4778727E+02  0.7816164E-02  0.1312668E+00
        -11   -1    0    0    0    0  0.00000000000E+00  0.00000000000E+00  0.45593999997E+02  0.45594000000E+02  0.51100000000E-03 0. -1.
         11   -1    0    0    0    0 -0.00000000000E+00 -0.00000000000E+00 -0.45593999997E+02  0.45594000000E+02  0.51100000000E-03 0.  1.
    9900012    2    1    2    0    0  0.38539758912E+02  0.17466420975E+02 -0.96557976828E+01  0.47787270656E+02  0.19999998230E+02 0.  0.
         12    1    1    2    0    0 -0.38539758912E+02 -0.17466420975E+02  0.96557976828E+01  0.43400729344E+02  0.00000000000E+00 0. -1.
         11    1    3    3    0    0  0.12366009404E+02  0.62386235884E+01 -0.87017375178E+00  0.13877889446E+02  0.51100000000E-03 0. -1.
        -11    1    3    3    0    0  0.19809399488E+02  0.13829418920E+02 -0.19879976184E+01  0.24240818273E+02  0.51100000000E-03 0.  1.
         12    1    3    3    0    0  0.63643500199E+01 -0.26016215339E+01 -0.67976263126E+01  0.96685629371E+01  0.00000000000E+00 0. -1.
</event>
<event>
 7    1  0.2769403E-010  0.4778727E+02  0.7816164E-02  0.1312668E+00
        -11   -1    0    0    0    0  0.00000000000E+00  0.00000000000E+00  0.45593999997E+02  0.45594000000E+02  0.51100000000E-03 0.  1.
         11   -1    0    0    0    0 -0.00000000000E+00 -0.00000000000E+00 -0.45593999997E+02  0.45594000000E+02  0.51100000000E-03 0. -1.
    9900012    2    1    2    0    0 -0.21448487393E+02 -0.19904360952E+02  0.32053114089E+02  0.47787270522E+02  0.19999997620E+02 0.  0.
         12    1    1    2    0    0  0.21448487393E+02  0.19904360952E+02 -0.32053114089E+02  0.43400729478E+02  0.00000000000E+00 0. -1.
         11    1    3    3    0    0 -0.98797002189E+01 -0.96573477430E+01  0.69646790373E+01  0.15471896981E+02  0.51100000000E-03 0. -1.
        -11    1    3    3    0    0 -0.10096127997E+02 -0.13249594173E+02  0.18289286911E+02  0.24738261100E+02  0.51100000000E-03 0.  1.
        -12    1    3    3    0    0 -0.14726591773E+01  0.30025809642E+01  0.67991481415E+01  0.75771124414E+01  0.00000000000E+00 0.  1.
</event>
<event>
 7    1  0.2769403E-010  0.4778727E+02  0.7816164E-02  0.1312668E+00
        -11   -1    0    0    0    0  0.00000000000E+00  0.00000000000E+00  0.45593999997E+02  0.45594000000E+02  0.51100000000E-03 0.  1.
         11   -1    0    0    0    0 -0.00000000000E+00 -0.00000000000E+00 -0.45593999997E+02  0.45594000000E+02  0.51100000000E-03 0. -1.
    9900012    2    1    2    0    0 -0.31933865462E+01 -0.25289917820E+01  0.43209141782E+02  0.47787269008E+02  0.19999990717E+02 0.  0.
         12    1    1    2    0    0  0.31933865462E+01  0.25289917820E+01 -0.43209141782E+02  0.43400730992E+02  0.00000000000E+00 0. -1.
         11    1    3    3    0    0 -0.57511105246E+01  0.24698503904E+01  0.10864361386E+02  0.12538332497E+02  0.51100000000E-03 0. -1.
        -11    1    3    3    0    0 -0.16308401490E+01  0.10631868802E+01 -0.12769741428E+00  0.19509774024E+01  0.51100000000E-03 0.  1.
        -12    1    3    3    0    0  0.41885641274E+01 -0.60620290526E+01  0.32472477810E+02  0.33297959109E+02  0.00000000000E+00 0.  1.
</event>
<event>
 7    1  0.2769403E-010  0.4778727E+02  0.7816164E-02  0.1312668E+00
        -11   -1    0    0    0    0  0.00000000000E+00  0.00000000000E+00  0.45593999997E+02  0.45594000000E+02  0.51100000000E-03 0.  1.
         11   -1    0    0    0    0 -0.00000000000E+00 -0.00000000000E+00 -0.45593999997E+02  0.45594000000E+02  0.51100000000E-03 0. -1.
    9900012    2    1    2    0    0 -0.10293399709E+02  0.12340675682E+02  0.40315963862E+02  0.47787270790E+02  0.19999998838E+02 0.  0.
         12    1    1    2    0    0  0.10293399709E+02 -0.12340675682E+02 -0.40315963862E+02  0.43400729210E+02  0.00000000000E+00 0. -1.
         11    1    3    3    0    0 -0.11092998793E+01  0.50086924206E+01  0.21949167591E+01  0.55798929942E+01  0.51100000000E-03 0. -1.
        -11    1    3    3    0    0 -0.49647123026E+01  0.11211812397E+02  0.23586541015E+02  0.26583416311E+02  0.51100000000E-03 0.  1.
        -12    1    3    3    0    0 -0.42193875274E+01 -0.38798291359E+01  0.14534506088E+02  0.15623961484E+02  0.00000000000E+00 0.  1.
</event>
<event>
 7    1  0.2769403E-010  0.4778727E+02  0.7816164E-02  0.1312668E+00
        -11   -1    0    0    0    0  0.00000000000E+00  0.00000000000E+00  0.45593999997E+02  0.45594000000E+02  0.51100000000E-03 0.  1.
         11   -1    0    0    0    0 -0.00000000000E+00 -0.00000000000E+00 -0.45593999997E+02  0.45594000000E+02  0.51100000000E-03 0. -1.
    9900012    2    1    2    0    0 -0.11798487001E+01  0.27172397416E+02  0.33821474913E+02  0.47787269711E+02  0.19999993921E+02 0.  0.
         12    1    1    2    0    0  0.11798487001E+01 -0.27172397416E+02 -0.33821474913E+02  0.43400730289E+02  0.00000000000E+00 0. -1.
         11    1    3    3    0    0  0.21570523458E+01  0.10373517652E+02  0.64197380557E+01  0.12388534225E+02  0.51100000000E-03 0. -1.
        -11    1    3    3    0    0 -0.75010175796E+01  0.10843233223E+02  0.10023783413E+02  0.16562524132E+02  0.51100000000E-03 0.  1.
         12    1    3    3    0    0  0.41641165337E+01  0.59556465413E+01  0.17377953444E+02  0.18836211353E+02  0.00000000000E+00 0. -1.
</event>
<event>
 7    1  0.2769403E-010  0.4778727E+02  0.7816164E-02  0.1312668E+00
        -11   -1    0    0    0    0  0.00000000000E+00  0.00000000000E+00  0.45593999997E+02  0.45594000000E+02  0.51100000000E-03 0.  1.
         11   -1    0    0    0    0 -0.00000000000E+00 -0.00000000000E+00 -0.45593999997E+02  0.45594000000E+02  0.51100000000E-03 0. -1.
    9900012    2    1    2    0    0  0.23412809838E+02 -0.59338647534E+01  0.36059020413E+02  0.47787269954E+02  0.19999995027E+02 0.  0.
         12    1    1    2    0    0 -0.23412809838E+02  0.59338647534E+01 -0.36059020413E+02  0.43400730046E+02  0.00000000000E+00 0. -1.
         11    1    3    3    0    0  0.74277530051E+01 -0.34484381146E+01  0.20671778712E+02  0.22234785259E+02  0.51100000000E-03 0. -1.
        -11    1    3    3    0    0  0.11786099477E+02  0.33958880487E+01  0.13162086482E+02  0.17991240017E+02  0.51100000000E-03 0.  1.
         12    1    3    3    0    0  0.41989573557E+01 -0.58813146875E+01  0.22251552182E+01  0.75612446776E+01  0.00000000000E+00 0. -1.
</event>
<event>
 7    1  0.2769403E-010  0.4778726E+02  0.7816164E-02  0.1312668E+00
        -11   -1    0    0    0    0  0.00000000000E+00  0.00000000000E+00  0.45593999997E+02  0.45594000000E+02  0.51100000000E-03 0.  1.
         11   -1    0    0    0    0 -0.00000000000E+00 -0.00000000000E+00 -0.45593999997E+02  0.45594000000E+02  0.51100000000E-03 0. -1.
    9900012    2    1    2    0    0  0.41661585465E+02 -0.91655413811E+01  0.79955584440E+01  0.47787264902E+02  0.19999971993E+02 0.  0.
         12    1    1    2    0    0 -0.41661585465E+02  0.91655413811E+01 -0.79955584440E+01  0.43400735098E+02  0.00000000000E+00 0. -1.
         11    1    3    3    0    0  0.64280114574E+00 -0.15657070999E+01  0.24111969782E+01  0.29459299321E+01  0.51100000000E-03 0. -1.
        -11    1    3    3    0    0  0.12936734200E+02 -0.35418678116E-01 -0.50323445807E+01  0.13881096443E+02  0.51100000000E-03 0.  1.
         12    1    3    3    0    0  0.28082050119E+02 -0.75644156031E+01  0.10616706046E+02  0.30960238526E+02  0.00000000000E+00 0. -1.
</event>
<event>
 7    1  0.2769403E-010  0.4778725E+02  0.7816164E-02  0.1312668E+00
        -11   -1    0    0    0    0  0.00000000000E+00  0.00000000000E+00  0.45593999997E+02  0.45594000000E+02  0.51100000000E-03 0. -1.
         11   -1    0    0    0    0 -0.00000000000E+00 -0.00000000000E+00 -0.45593999997E+02  0.45594000000E+02  0.51100000000E-03 0.  1.
    9900012    2    1    2    0    0  0.37442327218E+02  0.19109283873E+02  0.10795028841E+02  0.47787248333E+02  0.19999896448E+02 0.  0.
         12    1    1    2    0    0 -0.37442327218E+02 -0.19109283873E+02 -0.10795028841E+02  0.43400751667E+02  0.00000000000E+00 0. -1.
         11    1    3    3    0    0  0.15881404253E+01  0.24979835316E+01  0.48058796887E+00  0.29988459099E+01  0.51100000000E-03 0.  1.
        -11    1    3    3    0    0 -0.11405006490E+01  0.20559734058E+01  0.38500978550E+01  0.45112107167E+01  0.51100000000E-03 0. -1.
         12    1    3    3    0    0  0.36994687441E+02  0.14555326935E+02  0.64643430168E+01  0.40277191706E+02  0.00000000000E+00 0. -1.
</event>
<event>
 7    1  0.2769403E-010  0.4778727E+02  0.7816164E-02  0.1312668E+00
        -11   -1    0    0    0    0  0.00000000000E+00  0.00000000000E+00  0.45593999997E+02  0.45594000000E+02  0.51100000000E-03 0.  1.
         11   -1    0    0    0    0 -0.00000000000E+00 -0.00000000000E+00 -0.45593999997E+02  0.45594000000E+02  0.51100000000E-03 0. -1.
    9900012    2    1    2    0    0  0.40804787254E+02  0.12325640115E+02  0.81652472410E+01  0.47787270402E+02  0.19999997072E+02 0.  0.
         12    1    1    2    0    0 -0.40804787254E+02 -0.12325640115E+02 -0.81652472410E+01  0.43400729598E+02  0.00000000000E+00 0. -1.
         11    1    3    3    0    0  0.81597816353E+01  0.75034841827E+00  0.67048866862E+01  0.10587755419E+02  0.51100000000E-03 0. -1.
        -11    1    3    3    0    0  0.28237925565E+02  0.62780368412E+01  0.51512755222E+01  0.29382474820E+02  0.51100000000E-03 0.  1.
        -12    1    3    3    0    0  0.44070800540E+01  0.52972548558E+01 -0.36909149675E+01  0.78170401628E+01  0.00000000000E+00 0.  1.
</event>
<event>
 7    1  0.2769403E-010  0.4778727E+02  0.7816164E-02  0.1312668E+00
        -11   -1    0    0    0    0  0.00000000000E+00  0.00000000000E+00  0.45593999997E+02  0.45594000000E+02  0.51100000000E-03 0.  1.
         11   -1    0    0    0    0 -0.00000000000E+00 -0.00000000000E+00 -0.45593999997E+02  0.45594000000E+02  0.51100000000E-03 0. -1.
    9900012    2    1    2    0    0 -0.72007453338E-01 -0.39942168137E+02  0.16977676856E+02  0.47787268531E+02  0.19999988542E+02 0.  0.
         12    1    1    2    0    0  0.72007453338E-01  0.39942168137E+02 -0.16977676856E+02  0.43400731469E+02  0.00000000000E+00 0. -1.
         11    1    3    3    0    0  0.45341571525E+01 -0.10806733683E+02  0.10136435580E+02  0.15494883043E+02  0.51100000000E-03 0. -1.
        -11    1    3    3    0    0 -0.54521405333E+01 -0.10843988886E+02  0.69393022602E+01  0.13981124686E+02  0.51100000000E-03 0.  1.
        -12    1    3    3    0    0  0.84597592748E+00 -0.18291445568E+02 -0.98060984438E-01  0.18311260803E+02  0.00000000000E+00 0.  1.
</event>
<event>
 7    1  0.2769403E-010  0.4778727E+02  0.7816164E-02  0.1312668E+00
        -11   -1    0    0    0    0  0.00000000000E+00  0.00000000000E+00  0.45593999997E+02  0.45594000000E+02  0.51100000000E-03 0. -1.
         11   -1    0    0    0    0 -0.00000000000E+00 -0.00000000000E+00 -0.45593999997E+02  0.45594000000E+02  0.51100000000E-03 0.  1.
    9900012    2    1    2    0    0 -0.40755248722E+02 -0.12176865322E+02 -0.86230566341E+01  0.47787268978E+02  0.19999990580E+02 0.  0.
         12    1    1    2    0    0  0.40755248722E+02  0.12176865322E+02  0.86230566341E+01  0.43400731022E+02  0.00000000000E+00 0. -1.
         11    1    3    3    0    0 -0.19302073996E+02 -0.60204711521E+01 -0.87680748481E+01  0.22038495190E+02  0.51100000000E-03 0. -1.
        -11    1    3    3    0    0 -0.13842321186E+02  0.24141204592E+01 -0.16470777643E+01  0.14147462629E+02  0.51100000000E-03 0.  1.
         12    1    3    3    0    0 -0.76108535405E+01 -0.85705146295E+01  0.17920959783E+01  0.11601311160E+02  0.00000000000E+00 0. -1.
</event>
<event>
 7    1  0.2769403E-010  0.4778727E+02  0.7816164E-02  0.1312668E+00
        -11   -1    0    0    0    0  0.00000000000E+00  0.00000000000E+00  0.45593999997E+02  0.45594000000E+02  0.51100000000E-03 0.  1.
         11   -1    0    0    0    0 -0.00000000000E+00 -0.00000000000E+00 -0.45593999997E+02  0.45594000000E+02  0.51100000000E-03 0. -1.
    9900012    2    1    2    0    0  0.33691056631E+02  0.21889428886E+02  0.16413075701E+02  0.47787269040E+02  0.19999990860E+02 0.  0.
         12    1    1    2    0    0 -0.33691056631E+02 -0.21889428886E+02 -0.16413075701E+02  0.43400730960E+02  0.00000000000E+00 0. -1.
         11    1    3    3    0    0  0.91464148371E+01  0.10115096218E+02  0.41861303461E+01  0.14265194124E+02  0.51100000000E-03 0. -1.
        -11    1    3    3    0    0  0.12883959275E+02  0.67841821001E+01  0.14598297792E+02  0.20618725277E+02  0.51100000000E-03 0.  1.
         12    1    3    3    0    0  0.11660682519E+02  0.49901505684E+01 -0.23713524370E+01  0.12903349639E+02  0.00000000000E+00 0. -1.
</event>
<event>
 7    1  0.2769403E-010  0.4778727E+02  0.7816164E-02  0.1312668E+00
        -11   -1    0    0    0    0  0.00000000000E+00  0.00000000000E+00  0.45593999997E+02  0.45594000000E+02  0.51100000000E-03 0. -1.
         11   -1    0    0    0    0 -0.00000000000E+00 -0.00000000000E+00 -0.45593999997E+02  0.45594000000E+02  0.51100000000E-03 0.  1.
    9900012    2    1    2    0    0  0.17497510761E+02  0.18903824766E+02 -0.34930010106E+02  0.47787273283E+02  0.20000010204E+02 0.  0.
         12    1    1    2    0    0 -0.17497510761E+02 -0.18903824766E+02  0.34930010106E+02  0.43400726717E+02  0.00000000000E+00 0. -1.
         11    1    3    3    0    0  0.27030694433E+01 -0.81744452232E+00 -0.64848214303E+01  0.70730268772E+01  0.51100000000E-03 0. -1.
        -11    1    3    3    0    0  0.20483014419E+01 -0.22223565483E+01 -0.67746046832E+00  0.30973150263E+01  0.51100000000E-03 0.  1.
        -12    1    3    3    0    0  0.12746139875E+02  0.21943625836E+02 -0.27767728208E+02  0.37616931379E+02  0.00000000000E+00 0.  1.
</event>
<event>
 7    1  0.2769403E-010  0.4778727E+02  0.7816164E-02  0.1312668E+00
        -11   -1    0    0    0    0  0.00000000000E+00  0.00000000000E+00  0.45593999997E+02  0.45594000000E+02  0.51100000000E-03 0.  1.
         11   -1    0    0    0    0 -0.00000000000E+00 -0.00000000000E+00 -0.45593999997E+02  0.45594000000E+02  0.51100000000E-03 0. -1.
    9900012    2    1    2    0    0  0.42949236578E+00 -0.73537862927E+01  0.42771025803E+02  0.47787270919E+02  0.19999999426E+02 0.  0.
         12    1    1    2    0    0 -0.42949236578E+00  0.73537862927E+01 -0.42771025803E+02  0.43400729081E+02  0.00000000000E+00 0. -1.
         11    1    3    3    0    0 -0.26554061632E+01 -0.20340454266E+01  0.13383024182E+02  0.13794704028E+02  0.51100000000E-03 0. -1.
        -11    1    3    3    0    0  0.75411151392E+01  0.11232991172E+01  0.21765266893E+02  0.23062026399E+02  0.51100000000E-03 0.  1.
         12    1    3    3    0    0 -0.44562166102E+01 -0.64430399833E+01  0.76227347281E+01  0.10930540492E+02  0.00000000000E+00 0. -1.
</event>
<event>
 7    1  0.2769403E-010  0.4778727E+02  0.7816164E-02  0.1312668E+00
        -11   -1    0    0    0    0  0.00000000000E+00  0.00000000000E+00  0.45593999997E+02  0.45594000000E+02  0.51100000000E-03 0.  1.
         11   -1    0    0    0    0 -0.00000000000E+00 -0.00000000000E+00 -0.45593999997E+02  0.45594000000E+02  0.51100000000E-03 0. -1.
    9900012    2    1    2    0    0  0.12127208471E+02  0.17434699051E+02  0.37849512944E+02  0.47787267905E+02  0.19999985684E+02 0.  0.
         12    1    1    2    0    0 -0.12127208471E+02 -0.17434699051E+02 -0.37849512944E+02  0.43400732095E+02  0.00000000000E+00 0. -1.
         11    1    3    3    0    0  0.82992291011E+01  0.76758211917E+01  0.40051167194E+01  0.11993181181E+02  0.51100000000E-03 0. -1.
        -11    1    3    3    0    0  0.28657257859E+01  0.41346453734E+01  0.90762799824E+01  0.10377212305E+02  0.51100000000E-03 0.  1.
         12    1    3    3    0    0  0.96225358389E+00  0.56242324865E+01  0.24768116242E+02  0.25416874419E+02  0.00000000000E+00 0. -1.
</event>
<event>
 7    1  0.2769403E-010  0.4778727E+02  0.7816164E-02  0.1312668E+00
        -11   -1    0    0    0    0  0.00000000000E+00  0.00000000000E+00  0.45593999997E+02  0.45594000000E+02  0.51100000000E-03 0.  1.
         11   -1    0    0    0    0 -0.00000000000E+00 -0.00000000000E+00 -0.45593999997E+02  0.45594000000E+02  0.51100000000E-03 0. -1.
    9900012    2    1    2    0    0  0.16288415808E+02  0.31042285607E+02  0.25586857714E+02  0.47787271055E+02  0.20000000050E+02 0.  0.
         12    1    1    2    0    0 -0.16288415808E+02 -0.31042285607E+02 -0.25586857714E+02  0.43400728945E+02  0.00000000000E+00 0. -1.
         11    1    3    3    0    0  0.31113581347E+01  0.38970030977E+01  0.10264374159E+02  0.11411597597E+02  0.51100000000E-03 0.  1.
        -11    1    3    3    0    0  0.60870811811E+01  0.94573595786E+01  0.12982258670E+02  0.17176531895E+02  0.51100000000E-03 0. -1.
         12    1    3    3    0    0  0.70899764926E+01  0.17687922930E+02  0.23402248857E+01  0.19199141564E+02  0.00000000000E+00 0. -1.
</event>
<event>
 7    1  0.2769403E-010  0.4778727E+02  0.7816164E-02  0.1312668E+00
        -11   -1    0    0    0    0  0.00000000000E+00  0.00000000000E+00  0.45593999997E+02  0.45594000000E+02  0.51100000000E-03 0.  1.
         11   -1    0    0    0    0 -0.00000000000E+00 -0.00000000000E+00 -0.45593999997E+02  0.45594000000E+02  0.51100000000E-03 0. -1.
    9900012    2    1    2    0    0 -0.26887331428E+02  0.19818373362E+02  0.27711488442E+02  0.47787272982E+02  0.20000008833E+02 0.  0.
         12    1    1    2    0    0  0.26887331428E+02 -0.19818373362E+02 -0.27711488442E+02  0.43400727018E+02  0.00000000000E+00 0. -1.
         11    1    3    3    0    0 -0.30087244938E+01  0.69487669616E+01  0.14496160827E+02  0.16354707712E+02  0.51100000000E-03 0. -1.
        -11    1    3    3    0    0 -0.10720180278E+02  0.62786443769E+01  0.10914583832E+02  0.16536982218E+02  0.51100000000E-03 0.  1.
        -12    1    3    3    0    0 -0.13158426657E+02  0.65909620235E+01  0.23007437827E+01  0.14895583051E+02  0.00000000000E+00 0.  1.
</event>
<event>
 7    1  0.2769403E-010  0.4778726E+02  0.7816164E-02  0.1312668E+00
        -11   -1    0    0    0    0  0.00000000000E+00  0.00000000000E+00  0.45593999997E+02  0.45594000000E+02  0.51100000000E-03 0. -1.
         11   -1    0    0    0    0 -0.00000000000E+00 -0.00000000000E+00 -0.45593999997E+02  0.45594000000E+02  0.51100000000E-03 0.  1.
    9900012    2    1    2    0    0  0.14443190140E+02 -0.24206997699E+02 -0.33000600648E+02  0.47787261272E+02  0.19999955444E+02 0.  0.
         12    1    1    2    0    0 -0.14443190140E+02  0.24206997699E+02  0.33000600648E+02  0.43400738728E+02  0.00000000000E+00 0. -1.
         11    1    3    3    0    0  0.47023254408E+01 -0.37386771404E+00 -0.52324468401E+01  0.70448663447E+01  0.51100000000E-03 0. -1.
        -11    1    3    3    0    0  0.51579830814E+01  0.32168982266E+00 -0.38776269548E+01  0.64609801789E+01  0.51100000000E-03 0.  1.
         12    1    3    3    0    0  0.45828816181E+01 -0.24154819807E+02 -0.23890526853E+02  0.34281414748E+02  0.00000000000E+00 0. -1.
</event>
<event>
 7    1  0.2769403E-010  0.4778727E+02  0.7816164E-02  0.1312668E+00
        -11   -1    0    0    0    0  0.00000000000E+00  0.00000000000E+00  0.45593999997E+02  0.45594000000E+02  0.51100000000E-03 0.  1.
         11   -1    0    0    0    0 -0.00000000000E+00 -0.00000000000E+00 -0.45593999997E+02  0.45594000000E+02  0.51100000000E-03 0. -1.
    9900012    2    1    2    0    0  0.16357344789E+02  0.23896034561E+02  0.32327081242E+02  0.47787269846E+02  0.19999994536E+02 0.  0.
         12    1    1    2    0    0 -0.16357344789E+02 -0.23896034561E+02 -0.32327081242E+02  0.43400730154E+02  0.00000000000E+00 0. -1.
         11    1    3    3    0    0  0.70241898414E+01  0.12293888139E+02  0.73248102894E+01  0.15941511049E+02  0.51100000000E-03 0. -1.
        -11    1    3    3    0    0  0.30968623165E+00  0.10550505504E+02  0.11961166539E+02  0.15952384686E+02  0.51100000000E-03 0.  1.
        -12    1    3    3    0    0  0.90234687163E+01  0.10516409184E+01  0.13041104413E+02  0.15893374111E+02  0.00000000000E+00 0.  1.
</event>
<event>
 7    1  0.2769403E-010  0.4778727E+02  0.7816164E-02  0.1312668E+00
        -11   -1    0    0    0    0  0.00000000000E+00  0.00000000000E+00  0.45593999997E+02  0.45594000000E+02  0.51100000000E-03 0.  1.
         11   -1    0    0    0    0 -0.00000000000E+00 -0.00000000000E+00 -0.45593999997E+02  0.45594000000E+02  0.51100000000E-03 0. -1.
    9900012    2    1    2    0    0  0.93326855564E+01  0.31427866237E+02  0.28439646510E+02  0.47787270865E+02  0.19999999180E+02 0.  0.
         12    1    1    2    0    0 -0.93326855564E+01 -0.31427866237E+02 -0.28439646510E+02  0.43400729135E+02  0.00000000000E+00 0. -1.
         11    1    3    3    0    0  0.14103374535E+01  0.16456969187E+02  0.13899840070E+02  0.21587645560E+02  0.51100000000E-03 0. -1.
        -11    1    3    3    0    0  0.96080110213E+01  0.16223143777E+02  0.10339636959E+02  0.21503775540E+02  0.51100000000E-03 0.  1.
        -12    1    3    3    0    0 -0.16856629185E+01 -0.12522467278E+01  0.42001694810E+01  0.46958497646E+01  0.00000000000E+00 0.  1.
</event>
<event>
 7    1  0.2769403E-010  0.4778726E+02  0.7816164E-02  0.1312668E+00
        -11   -1    0    0    0    0  0.00000000000E+00  0.00000000000E+00  0.45593999997E+02  0.45594000000E+02  0.51100000000E-03 0.  1.
         11   -1    0    0    0    0 -0.00000000000E+00 -0.00000000000E+00 -0.45593999997E+02  0.45594000000E+02  0.51100000000E-03 0. -1.
    9900012    2    1    2    0    0 -0.18172698345E+02  0.39274573718E+02  0.32992759612E+01  0.47787258903E+02  0.19999944644E+02 0.  0.
         12    1    1    2    0    0  0.18172698345E+02 -0.39274573718E+02 -0.32992759612E+01  0.43400741097E+02  0.00000000000E+00 0. -1.
         11    1    3    3    0    0  0.22915447480E+00  0.15532260072E+01 -0.32865610031E+00  0.16040691681E+01  0.51100000000E-03 0. -1.
        -11    1    3    3    0    0 -0.71757486508E+01  0.25712442568E+02  0.10064292408E+02  0.28529126405E+02  0.51100000000E-03 0.  1.
        -12    1    3    3    0    0 -0.11226104169E+02  0.12008905143E+02 -0.64363603469E+01  0.17654063330E+02  0.00000000000E+00 0.  1.
</event>
<event>
 7    1  0.2769403E-010  0.4778727E+02  0.7816164E-02  0.1312668E+00
        -11   -1    0    0    0    0  0.00000000000E+00  0.00000000000E+00  0.45593999997E+02  0.45594000000E+02  0.51100000000E-03 0.  1.
         11   -1    0    0    0    0 -0.00000000000E+00 -0.00000000000E+00 -0.45593999997E+02  0.45594000000E+02  0.51100000000E-03 0. -1.
    9900012    2    1    2    0    0 -0.21101369548E+02 -0.22884898138E+02  0.30242966522E+02  0.47787269780E+02  0.19999994233E+02 0.  0.
         12    1    1    2    0    0  0.21101369548E+02  0.22884898138E+02 -0.30242966522E+02  0.43400730220E+02  0.00000000000E+00 0. -1.
         11    1    3    3    0    0 -0.13176494295E+02 -0.32085719948E+01  0.12851129880E+02  0.18683320787E+02  0.51100000000E-03 0. -1.
        -11    1    3    3    0    0 -0.97999132397E+01 -0.13028585506E+02  0.13560304153E+02  0.21205286812E+02  0.51100000000E-03 0.  1.
        -12    1    3    3    0    0  0.18750379874E+01 -0.66477406372E+01  0.38315324900E+01  0.78986621814E+01  0.00000000000E+00 0.  1.
</event>
<event>
 7    1  0.2769403E-010  0.4778727E+02  0.7816164E-02  0.1312668E+00
        -11   -1    0    0    0    0  0.00000000000E+00  0.00000000000E+00  0.45593999997E+02  0.45594000000E+02  0.51100000000E-03 0.  1.
         11   -1    0    0    0    0 -0.00000000000E+00 -0.00000000000E+00 -0.45593999997E+02  0.45594000000E+02  0.51100000000E-03 0. -1.
    9900012    2    1    2    0    0  0.86084579335E+00  0.76022680365E+01  0.42721046423E+02  0.47787270257E+02  0.19999996409E+02 0.  0.
         12    1    1    2    0    0 -0.86084579335E+00 -0.76022680365E+01 -0.42721046423E+02  0.43400729743E+02  0.00000000000E+00 0. -1.
         11    1    3    3    0    0  0.45090829021E+01  0.15625710124E+01  0.90645857899E+01  0.10244031071E+02  0.51100000000E-03 0.  1.
        -11    1    3    3    0    0 -0.36010309106E+01  0.98251940876E+01  0.31486078351E+02  0.33179436292E+02  0.51100000000E-03 0. -1.
         12    1    3    3    0    0 -0.47206198214E-01 -0.37854970636E+01  0.21703822821E+01  0.43638028936E+01  0.00000000000E+00 0. -1.
</event>
<event>
 7    1  0.2769403E-010  0.4778727E+02  0.7816164E-02  0.1312668E+00
        -11   -1    0    0    0    0  0.00000000000E+00  0.00000000000E+00  0.45593999997E+02  0.45594000000E+02  0.51100000000E-03 0.  1.
         11   -1    0    0    0    0 -0.00000000000E+00 -0.00000000000E+00 -0.45593999997E+02  0.45594000000E+02  0.51100000000E-03 0. -1.
    9900012    2    1    2    0    0 -0.36621806910E+02 -0.22709142405E+02  0.51731369820E+01  0.47787271477E+02  0.20000001972E+02 0.  0.
         12    1    1    2    0    0  0.36621806910E+02  0.22709142405E+02 -0.51731369820E+01  0.43400728523E+02  0.00000000000E+00 0. -1.
         11    1    3    3    0    0 -0.12454693798E+02 -0.30157439319E+01  0.19105142462E+01  0.12956240736E+02  0.51100000000E-03 0. -1.
        -11    1    3    3    0    0 -0.22593965094E+02 -0.97653205340E+01  0.27310533519E+01  0.24765043841E+02  0.51100000000E-03 0.  1.
         12    1    3    3    0    0 -0.15731480176E+01 -0.99280779391E+01  0.53156938391E+00  0.10065986899E+02  0.00000000000E+00 0. -1.
</event>
<event>
 7    1  0.2769403E-010  0.4778727E+02  0.7816164E-02  0.1312668E+00
        -11   -1    0    0    0    0  0.00000000000E+00  0.00000000000E+00  0.45593999997E+02  0.45594000000E+02  0.51100000000E-03 0. -1.
         11   -1    0    0    0    0 -0.00000000000E+00 -0.00000000000E+00 -0.45593999997E+02  0.45594000000E+02  0.51100000000E-03 0.  1.
    9900012    2    1    2    0    0 -0.31123674680E+02  0.26297425747E+02 -0.14946098181E+02  0.47787267548E+02  0.19999984060E+02 0.  0.
         12    1    1    2    0    0  0.31123674680E+02 -0.26297425747E+02  0.14946098181E+02  0.43400732452E+02  0.00000000000E+00 0. -1.
         11    1    3    3    0    0 -0.11033649674E+02  0.96072863172E+01  0.11615830348E+01  0.14676193338E+02  0.51100000000E-03 0. -1.
        -11    1    3    3    0    0 -0.20099040539E+02  0.15156991940E+02 -0.10462053060E+02  0.27260968247E+02  0.51100000000E-03 0.  1.
        -12    1    3    3    0    0  0.90155328815E-02  0.15331474901E+01 -0.56456281558E+01  0.58501059631E+01  0.00000000000E+00 0.  1.
</event>
<event>
 7    1  0.2769403E-010  0.4778727E+02  0.7816164E-02  0.1312668E+00
        -11   -1    0    0    0    0  0.00000000000E+00  0.00000000000E+00  0.45593999997E+02  0.45594000000E+02  0.51100000000E-03 0.  1.
         11   -1    0    0    0    0 -0.00000000000E+00 -0.00000000000E+00 -0.45593999997E+02  0.45594000000E+02  0.51100000000E-03 0. -1.
    9900012    2    1    2    0    0  0.31528780332E+02 -0.51371036875E+01  0.29379752349E+02  0.47787266462E+02  0.19999979109E+02 0.  0.
         12    1    1    2    0    0 -0.31528780332E+02  0.51371036875E+01 -0.29379752349E+02  0.43400733538E+02  0.00000000000E+00 0. -1.
         11    1    3    3    0    0  0.36214324348E+01 -0.19956713138E+01 -0.12783330884E+01  0.43280033062E+01  0.51100000000E-03 0. -1.
        -11    1    3    3    0    0  0.32543609853E+01  0.39693066962E+01  0.46742624845E+01  0.69422612388E+01  0.51100000000E-03 0.  1.
         12    1    3    3    0    0  0.24652986912E+02 -0.71107390700E+01  0.25983822952E+02  0.36517001917E+02  0.00000000000E+00 0. -1.
</event>
<event>
 7    1  0.2769403E-010  0.4778727E+02  0.7816164E-02  0.1312668E+00
        -11   -1    0    0    0    0  0.00000000000E+00  0.00000000000E+00  0.45593999997E+02  0.45594000000E+02  0.51100000000E-03 0.  1.
         11   -1    0    0    0    0 -0.00000000000E+00 -0.00000000000E+00 -0.45593999997E+02  0.45594000000E+02  0.51100000000E-03 0. -1.
    9900012    2    1    2    0    0 -0.15893584040E+02 -0.31941380919E+02  0.24713667656E+02  0.47787271923E+02  0.20000004004E+02 0.  0.
         12    1    1    2    0    0  0.15893584040E+02  0.31941380919E+02 -0.24713667656E+02  0.43400728077E+02  0.00000000000E+00 0. -1.
         11    1    3    3    0    0  0.95219825328E+00 -0.90149360207E+01  0.31139440055E+01  0.95850091550E+01  0.51100000000E-03 0. -1.
        -11    1    3    3    0    0  0.14821900993E+01 -0.16515445616E+01  0.52707683261E+01  0.57188710370E+01  0.51100000000E-03 0.  1.
         12    1    3    3    0    0 -0.18327972392E+02 -0.21274900337E+02  0.16328955324E+02  0.32483391731E+02  0.00000000000E+00 0. -1.
</event>
<event>
 7    1  0.2769403E-010  0.4778727E+02  0.7816164E-02  0.1312668E+00
        -11   -1    0    0    0    0  0.00000000000E+00  0.00000000000E+00  0.45593999997E+02  0.45594000000E+02  0.51100000000E-03 0.  1.
         11   -1    0    0    0    0 -0.00000000000E+00 -0.00000000000E+00 -0.45593999997E+02  0.45594000000E+02  0.51100000000E-03 0. -1.
    9900012    2    1    2    0    0 -0.20124850569E+02  0.50557142485E+01  0.38118943239E+02  0.47787266243E+02  0.19999978107E+02 0.  0.
         12    1    1    2    0    0  0.20124850569E+02 -0.50557142485E+01 -0.38118943239E+02  0.43400733757E+02  0.00000000000E+00 0. -1.
         11    1    3    3    0    0 -0.14382555892E+01  0.20279223220E+01  0.12532911185E+02  0.12777124525E+02  0.51100000000E-03 0. -1.
        -11    1    3    3    0    0 -0.17232676583E+02  0.62315435498E+01  0.25611284018E+02  0.31491826663E+02  0.51100000000E-03 0.  1.
        -12    1    3    3    0    0 -0.14539183965E+01 -0.32037516233E+01 -0.25251963961E-01  0.35183150554E+01  0.00000000000E+00 0.  1.
</event>
<event>
 7    1  0.2769403E-010  0.4778727E+02  0.7816164E-02  0.1312668E+00
        -11   -1    0    0    0    0  0.00000000000E+00  0.00000000000E+00  0.45593999997E+02  0.45594000000E+02  0.51100000000E-03 0.  1.
         11   -1    0    0    0    0 -0.00000000000E+00 -0.00000000000E+00 -0.45593999997E+02  0.45594000000E+02  0.51100000000E-03 0. -1.
    9900012    2    1    2    0    0 -0.11470603839E+02 -0.13138010753E+02  0.39742182523E+02  0.47787272464E+02  0.20000006473E+02 0.  0.
         12    1    1    2    0    0  0.11470603839E+02  0.13138010753E+02 -0.39742182523E+02  0.43400727536E+02  0.00000000000E+00 0. -1.
         11    1    3    3    0    0 -0.18386470450E+01 -0.15905873569E+02  0.23307447221E+02  0.28277456271E+02  0.51100000000E-03 0. -1.
        -11    1    3    3    0    0 -0.30902184138E+01 -0.51408646882E+00  0.39950910731E+01  0.50768580526E+01  0.51100000000E-03 0.  1.
         12    1    3    3    0    0 -0.65417383804E+01  0.32819492854E+01  0.12439644229E+02  0.14432958140E+02  0.00000000000E+00 0. -1.
</event>
<event>
 7    1  0.2950452E-010  0.4778727E+02  0.7816164E-02  0.1312668E+00
        -11   -1    0    0    0    0  0.00000000000E+00  0.00000000000E+00  0.45593999997E+02  0.45594000000E+02  0.51100000000E-03 0.  1.
         11   -1    0    0    0    0 -0.00000000000E+00 -0.00000000000E+00 -0.45593999997E+02  0.45594000000E+02  0.51100000000E-03 0. -1.
    9900012    2    1    2    0    0 -0.35784240343E+02  0.21738872161E+02  0.11425083150E+02  0.47787274837E+02  0.20000017290E+02 0.  0.
         12    1    1    2    0    0  0.35784240343E+02 -0.21738872161E+02 -0.11425083150E+02  0.43400725163E+02  0.00000000000E+00 0. -1.
         11    1    3    3    0    0 -0.28119221176E+01  0.42718853149E+01  0.57971697893E+01  0.77306589607E+01  0.51100000000E-03 0. -1.
        -11    1    3    3    0    0 -0.18549122261E+02  0.12183002817E+02  0.96170832152E+01  0.24186438021E+02  0.51100000000E-03 0.  1.
         12    1    3    3    0    0 -0.14423195964E+02  0.52839840290E+01 -0.39891698547E+01  0.15870177855E+02  0.00000000000E+00 0. -1.
</event>
<event>
 7    1  0.2769403E-010  0.4778727E+02  0.7816164E-02  0.1312668E+00
        -11   -1    0    0    0    0  0.00000000000E+00  0.00000000000E+00  0.45593999997E+02  0.45594000000E+02  0.51100000000E-03 0.  1.
         11   -1    0    0    0    0 -0.00000000000E+00 -0.00000000000E+00 -0.45593999997E+02  0.45594000000E+02  0.51100000000E-03 0. -1.
    9900012    2    1    2    0    0  0.11438918995E+01  0.10124822471E+02  0.42187704524E+02  0.47787274986E+02  0.20000017972E+02 0.  0.
         12    1    1    2    0    0 -0.11438918995E+01 -0.10124822471E+02 -0.42187704524E+02  0.43400725014E+02  0.00000000000E+00 0. -1.
         11    1    3    3    0    0 -0.11551078297E+01  0.76230035845E-01 -0.89367226297E+00  0.14624416198E+01  0.51100000000E-03 0. -1.
        -11    1    3    3    0    0  0.66299920358E+01  0.10723198760E+01  0.12950760498E+02  0.14588655252E+02  0.51100000000E-03 0.  1.
        -12    1    3    3    0    0 -0.43309923066E+01  0.89762725587E+01  0.30130616288E+02  0.31736178115E+02  0.00000000000E+00 0.  1.
</event>
<event>
 7    1  0.2769403E-010  0.4778727E+02  0.7816164E-02  0.1312668E+00
        -11   -1    0    0    0    0  0.00000000000E+00  0.00000000000E+00  0.45593999997E+02  0.45594000000E+02  0.51100000000E-03 0.  1.
         11   -1    0    0    0    0 -0.00000000000E+00 -0.00000000000E+00 -0.45593999997E+02  0.45594000000E+02  0.51100000000E-03 0. -1.
    9900012    2    1    2    0    0 -0.18920395722E+02  0.10927353949E+02  0.37499798068E+02  0.47787270815E+02  0.19999998955E+02 0.  0.
         12    1    1    2    0    0  0.18920395722E+02 -0.10927353949E+02 -0.37499798068E+02  0.43400729185E+02  0.00000000000E+00 0. -1.
         11    1    3    3    0    0 -0.53913966972E+01  0.47215786470E+01  0.97802052253E+00  0.72330482972E+01  0.51100000000E-03 0. -1.
        -11    1    3    3    0    0 -0.56834280557E+01 -0.60868853255E+00  0.58892443727E+01  0.82070125952E+01  0.51100000000E-03 0.  1.
        -12    1    3    3    0    0 -0.78455709689E+01  0.68144638349E+01  0.30632533173E+02  0.32347209923E+02  0.00000000000E+00 0.  1.
</event>
<event>
 7    1  0.2769403E-010  0.4778727E+02  0.7816164E-02  0.1312668E+00
        -11   -1    0    0    0    0  0.00000000000E+00  0.00000000000E+00  0.45593999997E+02  0.45594000000E+02  0.51100000000E-03 0.  1.
         11   -1    0    0    0    0 -0.00000000000E+00 -0.00000000000E+00 -0.45593999997E+02  0.45594000000E+02  0.51100000000E-03 0. -1.
    9900012    2    1    2    0    0 -0.11658758601E+01 -0.20736167086E+02  0.38108737408E+02  0.47787265459E+02  0.19999974531E+02 0.  0.
         12    1    1    2    0    0  0.11658758601E+01  0.20736167086E+02 -0.38108737408E+02  0.43400734541E+02  0.00000000000E+00 0. -1.
         11    1    3    3    0    0  0.22821044900E+01 -0.48924724516E+01  0.11906562177E+02  0.13073274675E+02  0.51100000000E-03 0. -1.
        -11    1    3    3    0    0  0.55669819009E+01 -0.11398782676E+02  0.15556007626E+02  0.20072690589E+02  0.51100000000E-03 0.  1.
         12    1    3    3    0    0 -0.90149622511E+01 -0.44449119583E+01  0.10646167605E+02  0.14641300194E+02  0.00000000000E+00 0. -1.
</event>
<event>
 7    1  0.2769403E-010  0.4778727E+02  0.7816164E-02  0.1312668E+00
        -11   -1    0    0    0    0  0.00000000000E+00  0.00000000000E+00  0.45593999997E+02  0.45594000000E+02  0.51100000000E-03 0. -1.
         11   -1    0    0    0    0 -0.00000000000E+00 -0.00000000000E+00 -0.45593999997E+02  0.45594000000E+02  0.51100000000E-03 0.  1.
    9900012    2    1    2    0    0 -0.11132587784E+01  0.46807841619E+01 -0.43133213633E+02  0.47787271852E+02  0.20000003681E+02 0.  0.
         12    1    1    2    0    0  0.11132587784E+01 -0.46807841619E+01  0.43133213633E+02  0.43400728148E+02  0.00000000000E+00 0. -1.
         11    1    3    3    0    0  0.13672684026E+01  0.55403875073E+01 -0.41925400492E+01  0.70811516677E+01  0.51100000000E-03 0. -1.
        -11    1    3    3    0    0  0.28388841130E+01  0.28026842523E+01 -0.64821602845E+01  0.76113536405E+01  0.51100000000E-03 0.  1.
         12    1    3    3    0    0 -0.53194112940E+01 -0.36622875978E+01 -0.32458513299E+02  0.33094766544E+02  0.00000000000E+00 0. -1.
</event>
<event>
 7    1  0.2769403E-010  0.4778727E+02  0.7816164E-02  0.1312668E+00
        -11   -1    0    0    0    0  0.00000000000E+00  0.00000000000E+00  0.45593999997E+02  0.45594000000E+02  0.51100000000E-03 0.  1.
         11   -1    0    0    0    0 -0.00000000000E+00 -0.00000000000E+00 -0.45593999997E+02  0.45594000000E+02  0.51100000000E-03 0. -1.
    9900012    2    1    2    0    0 -0.36920966812E+02  0.21402762125E+02 -0.78985552611E+01  0.47787271986E+02  0.20000004294E+02 0.  0.
         12    1    1    2    0    0  0.36920966812E+02 -0.21402762125E+02  0.78985552611E+01  0.43400728014E+02  0.00000000000E+00 0. -1.
         11    1    3    3    0    0 -0.66720182791E+01 -0.15860017041E+01  0.63607627353E+00  0.68873668851E+01  0.51100000000E-03 0. -1.
        -11    1    3    3    0    0 -0.15532225755E+02  0.41453399970E+01 -0.28955394905E+01  0.16334565492E+02  0.51100000000E-03 0.  1.
        -12    1    3    3    0    0 -0.14716722777E+02  0.18843423832E+02 -0.56390920442E+01  0.24565339609E+02  0.00000000000E+00 0.  1.
</event>
<event>
 7    1  0.2769403E-010  0.4778727E+02  0.7816164E-02  0.1312668E+00
        -11   -1    0    0    0    0  0.00000000000E+00  0.00000000000E+00  0.45593999997E+02  0.45594000000E+02  0.51100000000E-03 0.  1.
         11   -1    0    0    0    0 -0.00000000000E+00 -0.00000000000E+00 -0.45593999997E+02  0.45594000000E+02  0.51100000000E-03 0. -1.
    9900012    2    1    2    0    0  0.87399179617E+01 -0.30606875763E+02  0.29503492539E+02  0.47787273255E+02  0.20000010080E+02 0.  0.
         12    1    1    2    0    0 -0.87399179617E+01  0.30606875763E+02 -0.29503492539E+02  0.43400726745E+02  0.00000000000E+00 0. -1.
         11    1    3    3    0    0  0.93919576187E+01 -0.74434803728E+01  0.71450176430E+01  0.13952259507E+02  0.51100000000E-03 0. -1.
        -11    1    3    3    0    0  0.35393087651E+01 -0.28576500533E+01  0.53104067473E+01  0.69923737346E+01  0.51100000000E-03 0.  1.
        -12    1    3    3    0    0 -0.41913484222E+01 -0.20305745337E+02  0.17048068149E+02  0.26842640014E+02  0.00000000000E+00 0.  1.
</event>
<event>
 7    1  0.2769403E-010  0.4778726E+02  0.7816164E-02  0.1312668E+00
        -11   -1    0    0    0    0  0.00000000000E+00  0.00000000000E+00  0.45593999997E+02  0.45594000000E+02  0.51100000000E-03 0. -1.
         11   -1    0    0    0    0 -0.00000000000E+00 -0.00000000000E+00 -0.45593999997E+02  0.45594000000E+02  0.51100000000E-03 0.  1.
    9900012    2    1    2    0    0  0.27342271201E-01 -0.39810683177E+02 -0.17283887328E+02  0.47787262636E+02  0.19999961661E+02 0.  0.
         12    1    1    2    0    0 -0.27342271201E-01  0.39810683177E+02  0.17283887328E+02  0.43400737364E+02  0.00000000000E+00 0. -1.
         11    1    3    3    0    0  0.17307489850E+01 -0.34288006752E+01 -0.74551491805E+01  0.83863827533E+01  0.51100000000E-03 0. -1.
        -11    1    3    3    0    0  0.27752976622E+01 -0.15390953099E+02 -0.87267229730E+01  0.17909198991E+02  0.51100000000E-03 0.  1.
         12    1    3    3    0    0 -0.44787043760E+01 -0.20990929403E+02 -0.11020151743E+01  0.21491680891E+02  0.00000000000E+00 0. -1.
</event>
<event>
 7    1  0.2769403E-010  0.4778726E+02  0.7816164E-02  0.1312668E+00
        -11   -1    0    0    0    0  0.00000000000E+00  0.00000000000E+00  0.45593999997E+02  0.45594000000E+02  0.51100000000E-03 0. -1.
         11   -1    0    0    0    0 -0.00000000000E+00 -0.00000000000E+00 -0.45593999997E+02  0.45594000000E+02  0.51100000000E-03 0.  1.
    9900012    2    1    2    0    0  0.12119489805E+01 -0.36082371006E+02 -0.24087710846E+02  0.47787261163E+02  0.19999954948E+02 0.  0.
         12    1    1    2    0    0 -0.12119489805E+01  0.36082371006E+02  0.24087710846E+02  0.43400738837E+02  0.00000000000E+00 0. -1.
         11    1    3    3    0    0  0.49590477740E+00  0.70668409136E+00 -0.28613505753E+01  0.29887541433E+01  0.51100000000E-03 0. -1.
        -11    1    3    3    0    0  0.56127572444E+01 -0.58126792126E+01 -0.47444575761E+01  0.93701740360E+01  0.51100000000E-03 0.  1.
        -12    1    3    3    0    0 -0.48967130414E+01 -0.30976375885E+02 -0.16481902695E+02  0.35428332984E+02  0.00000000000E+00 0.  1.
</event>
<event>
 7    1  0.2769403E-010  0.4778730E+02  0.7816164E-02  0.1312668E+00
        -11   -1    0    0    0    0  0.00000000000E+00  0.00000000000E+00  0.45593999997E+02  0.45594000000E+02  0.51100000000E-03 0. -1.
         11   -1    0    0    0    0 -0.00000000000E+00 -0.00000000000E+00 -0.45593999997E+02  0.45594000000E+02  0.51100000000E-03 0.  1.
    9900012    2    1    2    0    0 -0.16527158574E+01  0.43352241468E+02 -0.12134848585E+01  0.47787298906E+02  0.20000127030E+02 0.  0.
         12    1    1    2    0    0  0.16527158574E+01 -0.43352241468E+02  0.12134848585E+01  0.43400701094E+02  0.00000000000E+00 0. -1.
         11    1    3    3    0    0  0.89965695236E+00  0.25732920642E+02  0.73723114262E+00  0.25759194425E+02  0.51100000000E-03 0. -1.
        -11    1    3    3    0    0  0.49259772951E+01  0.10162221861E+02 -0.26184918781E-01  0.11293214395E+02  0.51100000000E-03 0.  1.
        -12    1    3    3    0    0 -0.74783501048E+01  0.74570989643E+01 -0.19245310824E+01  0.10734890085E+02  0.00000000000E+00 0.  1.
</event>
<event>
 7    1  0.2769403E-010  0.4778727E+02  0.7816164E-02  0.1312668E+00
        -11   -1    0    0    0    0  0.00000000000E+00  0.00000000000E+00  0.45593999997E+02  0.45594000000E+02  0.51100000000E-03 0. -1.
         11   -1    0    0    0    0 -0.00000000000E+00 -0.00000000000E+00 -0.45593999997E+02  0.45594000000E+02  0.51100000000E-03 0.  1.
    9900012    2    1    2    0    0 -0.12689538576E+02 -0.39839536931E+02 -0.11636576549E+02  0.47787274132E+02  0.20000014075E+02 0.  0.
         12    1    1    2    0    0  0.12689538576E+02  0.39839536931E+02  0.11636576549E+02  0.43400725868E+02  0.00000000000E+00 0. -1.
         11    1    3    3    0    0 -0.17751785898E+01 -0.17162107283E+01 -0.23575479120E+01  0.34138937752E+01  0.51100000000E-03 0. -1.
        -11    1    3    3    0    0 -0.12330686851E+02 -0.37430300736E+02 -0.12028500215E+02  0.41203859881E+02  0.51100000000E-03 0.  1.
         12    1    3    3    0    0  0.14163268653E+01 -0.69302546614E+00  0.27494715776E+01  0.31695204751E+01  0.00000000000E+00 0. -1.
</event>
<event>
 7    1  0.2769403E-010  0.4778727E+02  0.7816164E-02  0.1312668E+00
        -11   -1    0    0    0    0  0.00000000000E+00  0.00000000000E+00  0.45593999997E+02  0.45594000000E+02  0.51100000000E-03 0.  1.
         11   -1    0    0    0    0 -0.00000000000E+00 -0.00000000000E+00 -0.45593999997E+02  0.45594000000E+02  0.51100000000E-03 0. -1.
    9900012    2    1    2    0    0  0.14093967928E+02  0.10485552550E+02  0.39686731431E+02  0.47787269639E+02  0.19999993592E+02 0.  0.
         12    1    1    2    0    0 -0.14093967928E+02 -0.10485552550E+02 -0.39686731431E+02  0.43400730361E+02  0.00000000000E+00 0. -1.
         11    1    3    3    0    0  0.82152724848E+01 -0.31426735543E+01  0.24522200877E+02  0.26051975649E+02  0.51100000000E-03 0. -1.
        -11    1    3    3    0    0  0.35622667728E+01  0.32170777027E+01  0.59149915014E+01  0.76175099756E+01  0.51100000000E-03 0.  1.
         12    1    3    3    0    0  0.23164286702E+01  0.10411148401E+02  0.92495390518E+01  0.14117784015E+02  0.00000000000E+00 0. -1.
</event>
<event>
 7    1  0.2769403E-010  0.4778727E+02  0.7816164E-02  0.1312668E+00
        -11   -1    0    0    0    0  0.00000000000E+00  0.00000000000E+00  0.45593999997E+02  0.45594000000E+02  0.51100000000E-03 0. -1.
         11   -1    0    0    0    0 -0.00000000000E+00 -0.00000000000E+00 -0.45593999997E+02  0.45594000000E+02  0.51100000000E-03 0.  1.
    9900012    2    1    2    0    0 -0.34594650358E+02  0.69004619284E+01 -0.25282743851E+02  0.47787270227E+02  0.19999996273E+02 0.  0.
         12    1    1    2    0    0  0.34594650358E+02 -0.69004619284E+01  0.25282743851E+02  0.43400729773E+02  0.00000000000E+00 0. -1.
         11    1    3    3    0    0 -0.12638749742E+02 -0.65271391935E+01 -0.69460028113E+01  0.15829987253E+02  0.51100000000E-03 0. -1.
        -11    1    3    3    0    0 -0.31962524141E+01  0.24709530943E+00 -0.28531658999E+01  0.42915779732E+01  0.51100000000E-03 0.  1.
        -12    1    3    3    0    0 -0.18759648201E+02  0.13180505812E+02 -0.15483575140E+02  0.27665705001E+02  0.00000000000E+00 0.  1.
</event>
<event>
 7    1  0.2769403E-010  0.4778727E+02  0.7816164E-02  0.1312668E+00
        -11   -1    0    0    0    0  0.00000000000E+00  0.00000000000E+00  0.45593999997E+02  0.45594000000E+02  0.51100000000E-03 0.  1.
         11   -1    0    0    0    0 -0.00000000000E+00 -0.00000000000E+00 -0.45593999997E+02  0.45594000000E+02  0.51100000000E-03 0. -1.
    9900012    2    1    2    0    0  0.17334935175E+02  0.28820267995E+02  0.27432017923E+02  0.47787269221E+02  0.19999991685E+02 0.  0.
         12    1    1    2    0    0 -0.17334935175E+02 -0.28820267995E+02 -0.27432017923E+02  0.43400730779E+02  0.00000000000E+00 0. -1.
         11    1    3    3    0    0  0.35267829582E+01  0.10553847777E+02  0.86006888287E+01  0.14063916578E+02  0.51100000000E-03 0. -1.
        -11    1    3    3    0    0  0.90576017152E+01  0.19195929060E+02  0.19516691695E+02  0.28834442882E+02  0.51100000000E-03 0.  1.
         12    1    3    3    0    0  0.47505505018E+01 -0.92950884230E+00 -0.68536260017E+00  0.48889097611E+01  0.00000000000E+00 0. -1.
</event>
<event>
 7    1  0.2769403E-010  0.4778727E+02  0.7816164E-02  0.1312668E+00
        -11   -1    0    0    0    0  0.00000000000E+00  0.00000000000E+00  0.45593999997E+02  0.45594000000E+02  0.51100000000E-03 0. -1.
         11   -1    0    0    0    0 -0.00000000000E+00 -0.00000000000E+00 -0.45593999997E+02  0.45594000000E+02  0.51100000000E-03 0.  1.
    9900012    2    1    2    0    0 -0.11109062271E+02 -0.41453504024E+02 -0.64667534367E+01  0.47787272352E+02  0.20000005962E+02 0.  0.
         12    1    1    2    0    0  0.11109062271E+02  0.41453504024E+02  0.64667534367E+01  0.43400727648E+02  0.00000000000E+00 0. -1.
         11    1    3    3    0    0  0.14245232098E+01 -0.14813628565E+02 -0.18292762283E+01  0.14993969102E+02  0.51100000000E-03 0. -1.
        -11    1    3    3    0    0 -0.68834699576E+01 -0.18944664643E+02 -0.92653695081E+01  0.22183993091E+02  0.51100000000E-03 0.  1.
         12    1    3    3    0    0 -0.56501155228E+01 -0.76952108155E+01  0.46278922997E+01  0.10609310159E+02  0.00000000000E+00 0. -1.
</event>
<event>
 7    1  0.2769403E-010  0.4778727E+02  0.7816164E-02  0.1312668E+00
        -11   -1    0    0    0    0  0.00000000000E+00  0.00000000000E+00  0.45593999997E+02  0.45594000000E+02  0.51100000000E-03 0. -1.
         11   -1    0    0    0    0 -0.00000000000E+00 -0.00000000000E+00 -0.45593999997E+02  0.45594000000E+02  0.51100000000E-03 0.  1.
    9900012    2    1    2    0    0  0.30235119886E+02 -0.60364853775E+01 -0.30545402298E+02  0.47787271530E+02  0.20000002213E+02 0.  0.
         12    1    1    2    0    0 -0.30235119886E+02  0.60364853775E+01  0.30545402298E+02  0.43400728470E+02  0.00000000000E+00 0. -1.
         11    1    3    3    0    0  0.15234185621E+02  0.14758633551E+01 -0.19735328992E+02  0.24974823220E+02  0.51100000000E-03 0. -1.
        -11    1    3    3    0    0  0.96550902164E+01  0.10506389026E+01 -0.34001375980E+01  0.10290070220E+02  0.51100000000E-03 0.  1.
         12    1    3    3    0    0  0.53458440478E+01 -0.85629876352E+01 -0.74099357074E+01  0.12522378089E+02  0.00000000000E+00 0. -1.
</event>
<event>
 7    1  0.2769403E-010  0.4778727E+02  0.7816164E-02  0.1312668E+00
        -11   -1    0    0    0    0  0.00000000000E+00  0.00000000000E+00  0.45593999997E+02  0.45594000000E+02  0.51100000000E-03 0.  1.
         11   -1    0    0    0    0 -0.00000000000E+00 -0.00000000000E+00 -0.45593999997E+02  0.45594000000E+02  0.51100000000E-03 0. -1.
    9900012    2    1    2    0    0 -0.15194992689E+02  0.40438807697E+02 -0.41759471780E+01  0.47787268375E+02  0.19999987829E+02 0.  0.
         12    1    1    2    0    0  0.15194992689E+02 -0.40438807697E+02  0.41759471780E+01  0.43400731625E+02  0.00000000000E+00 0. -1.
         11    1    3    3    0    0 -0.23392887771E+00  0.18282031480E+02 -0.63178935634E+01  0.19344331911E+02  0.51100000000E-03 0. -1.
        -11    1    3    3    0    0 -0.22643962354E+01  0.45405150171E+01 -0.33049580984E+01  0.60552882033E+01  0.51100000000E-03 0.  1.
        -12    1    3    3    0    0 -0.12696667576E+02  0.17616261200E+02  0.54469044838E+01  0.22387648260E+02  0.00000000000E+00 0.  1.
</event>
<event>
 7    1  0.2769403E-010  0.4778727E+02  0.7816164E-02  0.1312668E+00
        -11   -1    0    0    0    0  0.00000000000E+00  0.00000000000E+00  0.45593999997E+02  0.45594000000E+02  0.51100000000E-03 0.  1.
         11   -1    0    0    0    0 -0.00000000000E+00 -0.00000000000E+00 -0.45593999997E+02  0.45594000000E+02  0.51100000000E-03 0. -1.
    9900012    2    1    2    0    0 -0.24319393168E+02 -0.58870590427E+01  0.35461706371E+02  0.47787274580E+02  0.20000016122E+02 0.  0.
         12    1    1    2    0    0  0.24319393168E+02  0.58870590427E+01 -0.35461706371E+02  0.43400725420E+02  0.00000000000E+00 0. -1.
         11    1    3    3    0    0 -0.66418405704E+01 -0.35306993866E+01  0.14511321955E+02  0.16344979335E+02  0.51100000000E-03 0. -1.
        -11    1    3    3    0    0 -0.17059559187E+02 -0.66298737198E+01  0.19821561164E+02  0.26979215564E+02  0.51100000000E-03 0.  1.
         12    1    3    3    0    0 -0.61799341033E+00  0.42735140637E+01  0.11288232515E+01  0.44630796812E+01  0.00000000000E+00 0. -1.
</event>
<event>
 7    1  0.2769403E-010  0.4778727E+02  0.7816164E-02  0.1312668E+00
        -11   -1    0    0    0    0  0.00000000000E+00  0.00000000000E+00  0.45593999997E+02  0.45594000000E+02  0.51100000000E-03 0.  1.
         11   -1    0    0    0    0 -0.00000000000E+00 -0.00000000000E+00 -0.45593999997E+02  0.45594000000E+02  0.51100000000E-03 0. -1.
    9900012    2    1    2    0    0 -0.30128049250E+02  0.24927674231E+02 -0.18829106478E+02  0.47787267921E+02  0.19999985760E+02 0.  0.
         12    1    1    2    0    0  0.30128049250E+02 -0.24927674231E+02  0.18829106478E+02  0.43400732079E+02  0.00000000000E+00 0. -1.
         11    1    3    3    0    0  0.94043762727E+00  0.18888032279E+01 -0.49258211283E+01  0.53587045649E+01  0.51100000000E-03 0. -1.
        -11    1    3    3    0    0 -0.56161334022E+00 -0.10568298714E+01 -0.22805989461E+00  0.12183228216E+01  0.51100000000E-03 0.  1.
        -12    1    3    3    0    0 -0.30506873537E+02  0.24095700875E+02 -0.13675225455E+02  0.41210240535E+02  0.00000000000E+00 0.  1.
</event>
<event>
 7    1  0.2769403E-010  0.4778728E+02  0.7816164E-02  0.1312668E+00
        -11   -1    0    0    0    0  0.00000000000E+00  0.00000000000E+00  0.45593999997E+02  0.45594000000E+02  0.51100000000E-03 0. -1.
         11   -1    0    0    0    0 -0.00000000000E+00 -0.00000000000E+00 -0.45593999997E+02  0.45594000000E+02  0.51100000000E-03 0.  1.
    9900012    2    1    2    0    0 -0.17677907045E+01 -0.38068662634E+02  0.20767150312E+02  0.47787277762E+02  0.20000030629E+02 0.  0.
         12    1    1    2    0    0  0.17677907045E+01  0.38068662634E+02 -0.20767150312E+02  0.43400722238E+02  0.00000000000E+00 0. -1.
         11    1    3    3    0    0  0.22440774992E+01 -0.12729541213E+02  0.99437547386E+01  0.16308137903E+02  0.51100000000E-03 0. -1.
        -11    1    3    3    0    0 -0.48151270978E+01 -0.73858819284E+01  0.10220299565E+02  0.13497822946E+02  0.51100000000E-03 0.  1.
        -12    1    3    3    0    0  0.80325889419E+00 -0.17953239493E+02  0.60309600874E+00  0.17981316913E+02  0.00000000000E+00 0.  1.
</event>
<event>
 7    1  0.2769403E-010  0.4778727E+02  0.7816164E-02  0.1312668E+00
        -11   -1    0    0    0    0  0.00000000000E+00  0.00000000000E+00  0.45593999997E+02  0.45594000000E+02  0.51100000000E-03 0.  1.
         11   -1    0    0    0    0 -0.00000000000E+00 -0.00000000000E+00 -0.45593999997E+02  0.45594000000E+02  0.51100000000E-03 0. -1.
    9900012    2    1    2    0    0  0.17726869444E+02 -0.18191374596E+02  0.35191695703E+02  0.47787268941E+02  0.19999990409E+02 0.  0.
         12    1    1    2    0    0 -0.17726869444E+02  0.18191374596E+02 -0.35191695703E+02  0.43400731059E+02  0.00000000000E+00 0. -1.
         11    1    3    3    0    0  0.36985690416E+01 -0.11075732083E+02  0.64850136485E+01  0.13356895463E+02  0.51100000000E-03 0. -1.
        -11    1    3    3    0    0  0.11923258048E+00 -0.46123680527E+01  0.97383606025E+01  0.10776076417E+02  0.51100000000E-03 0.  1.
        -12    1    3    3    0    0  0.13909067822E+02 -0.25032744603E+01  0.18968321452E+02  0.23654297060E+02  0.00000000000E+00 0.  1.
</event>
<event>
 7    1  0.2769403E-010  0.4778727E+02  0.7816164E-02  0.1312668E+00
        -11   -1    0    0    0    0  0.00000000000E+00  0.00000000000E+00  0.45593999997E+02  0.45594000000E+02  0.51100000000E-03 0. -1.
         11   -1    0    0    0    0 -0.00000000000E+00 -0.00000000000E+00 -0.45593999997E+02  0.45594000000E+02  0.51100000000E-03 0.  1.
    9900012    2    1    2    0    0  0.31897919489E+02  0.35642607576E+00 -0.29428197273E+02  0.47787273024E+02  0.20000009026E+02 0.  0.
         12    1    1    2    0    0 -0.31897919489E+02 -0.35642607576E+00  0.29428197273E+02  0.43400726976E+02  0.00000000000E+00 0. -1.
         11    1    3    3    0    0  0.10145495228E+02  0.36886272030E+01 -0.62866924813E+01  0.12492379544E+02  0.51100000000E-03 0. -1.
        -11    1    3    3    0    0  0.79586682364E+01  0.19846927322E+01 -0.45251349568E+00  0.82148751703E+01  0.51100000000E-03 0.  1.
         12    1    3    3    0    0  0.13793756025E+02 -0.53168938595E+01 -0.22688991297E+02  0.27080018309E+02  0.00000000000E+00 0. -1.
</event>
<event>
 7    1  0.2769403E-010  0.4778727E+02  0.7816164E-02  0.1312668E+00
        -11   -1    0    0    0    0  0.00000000000E+00  0.00000000000E+00  0.45593999997E+02  0.45594000000E+02  0.51100000000E-03 0. -1.
         11   -1    0    0    0    0 -0.00000000000E+00 -0.00000000000E+00 -0.45593999997E+02  0.45594000000E+02  0.51100000000E-03 0.  1.
    9900012    2    1    2    0    0  0.34760406341E+02  0.61828233329E+01 -0.25241042429E+02  0.47787269865E+02  0.19999994623E+02 0.  0.
         12    1    1    2    0    0 -0.34760406341E+02 -0.61828233329E+01  0.25241042429E+02  0.43400730135E+02  0.00000000000E+00 0. -1.
         11    1    3    3    0    0 -0.64846398046E+00 -0.25529278907E+01 -0.26215244975E+01  0.37162262178E+01  0.51100000000E-03 0. -1.
        -11    1    3    3    0    0  0.75046282783E+01 -0.19907313363E+01 -0.63854286069E+01  0.10052669079E+02  0.51100000000E-03 0.  1.
        -12    1    3    3    0    0  0.27904242043E+02  0.10726482560E+02 -0.16234089324E+02  0.34018374569E+02  0.00000000000E+00 0.  1.
</event>
<event>
 7    1  0.2769403E-010  0.4778727E+02  0.7816164E-02  0.1312668E+00
        -11   -1    0    0    0    0  0.00000000000E+00  0.00000000000E+00  0.45593999997E+02  0.45594000000E+02  0.51100000000E-03 0.  1.
         11   -1    0    0    0    0 -0.00000000000E+00 -0.00000000000E+00 -0.45593999997E+02  0.45594000000E+02  0.51100000000E-03 0. -1.
    9900012    2    1    2    0    0  0.44220938022E+01  0.36063816760E+02  0.23737512767E+02  0.47787270683E+02  0.19999998352E+02 0.  0.
         12    1    1    2    0    0 -0.44220938022E+01 -0.36063816760E+02 -0.23737512767E+02  0.43400729317E+02  0.00000000000E+00 0. -1.
         11    1    3    3    0    0  0.28920250563E+01  0.13870638641E+02  0.10617193306E+02  0.17705457328E+02  0.51100000000E-03 0. -1.
        -11    1    3    3    0    0 -0.57099906550E+01  0.11495263699E+02  0.11175365309E+02  0.17018633049E+02  0.51100000000E-03 0.  1.
         12    1    3    3    0    0  0.72400594009E+01  0.10697914420E+02  0.19449541521E+01  0.13063180306E+02  0.00000000000E+00 0. -1.
</event>
<event>
 7    1  0.2769403E-010  0.4778727E+02  0.7816164E-02  0.1312668E+00
        -11   -1    0    0    0    0  0.00000000000E+00  0.00000000000E+00  0.45593999997E+02  0.45594000000E+02  0.51100000000E-03 0.  1.
         11   -1    0    0    0    0 -0.00000000000E+00 -0.00000000000E+00 -0.45593999997E+02  0.45594000000E+02  0.51100000000E-03 0. -1.
    9900012    2    1    2    0    0 -0.94332982351E+01 -0.34927800827E+02  0.23972596411E+02  0.47787265388E+02  0.19999974208E+02 0.  0.
         12    1    1    2    0    0  0.94332982351E+01  0.34927800827E+02 -0.23972596411E+02  0.43400734612E+02  0.00000000000E+00 0. -1.
         11    1    3    3    0    0 -0.51792049753E+01 -0.12696609868E+02  0.24645945639E+01  0.13932059896E+02  0.51100000000E-03 0. -1.
        -11    1    3    3    0    0  0.28640750587E+01 -0.97263240349E+01  0.33310177336E+01  0.10672393573E+02  0.51100000000E-03 0.  1.
        -12    1    3    3    0    0 -0.71181683184E+01 -0.12504866924E+02  0.18176984113E+02  0.23182811919E+02  0.00000000000E+00 0.  1.
</event>
<event>
 7    1  0.2769403E-010  0.4778726E+02  0.7816164E-02  0.1312668E+00
        -11   -1    0    0    0    0  0.00000000000E+00  0.00000000000E+00  0.45593999997E+02  0.45594000000E+02  0.51100000000E-03 0.  1.
         11   -1    0    0    0    0 -0.00000000000E+00 -0.00000000000E+00 -0.45593999997E+02  0.45594000000E+02  0.51100000000E-03 0. -1.
    9900012    2    1    2    0    0  0.32522859864E+02  0.11256774781E+02  0.26441873518E+02  0.47787261903E+02  0.19999958322E+02 0.  0.
         12    1    1    2    0    0 -0.32522859864E+02 -0.11256774781E+02 -0.26441873518E+02  0.43400738097E+02  0.00000000000E+00 0. -1.
         11    1    3    3    0    0  0.57417767703E+01  0.48627542993E+01  0.32964959356E+01  0.82146981423E+01  0.51100000000E-03 0. -1.
        -11    1    3    3    0    0  0.59974516173E+01  0.29656283161E+01  0.15977673842E+02  0.17321964059E+02  0.51100000000E-03 0.  1.
        -12    1    3    3    0    0  0.20783631476E+02  0.34283921654E+01  0.71677037412E+01  0.22250599702E+02  0.00000000000E+00 0.  1.
</event>
<event>
 7    1  0.2769403E-010  0.4778727E+02  0.7816164E-02  0.1312668E+00
        -11   -1    0    0    0    0  0.00000000000E+00  0.00000000000E+00  0.45593999997E+02  0.45594000000E+02  0.51100000000E-03 0. -1.
         11   -1    0    0    0    0 -0.00000000000E+00 -0.00000000000E+00 -0.45593999997E+02  0.45594000000E+02  0.51100000000E-03 0.  1.
    9900012    2    1    2    0    0  0.27942751752E+02  0.24109910563E+02  0.22837213667E+02  0.47787268544E+02  0.19999988601E+02 0.  0.
         12    1    1    2    0    0 -0.27942751752E+02 -0.24109910563E+02 -0.22837213667E+02  0.43400731456E+02  0.00000000000E+00 0. -1.
         11    1    3    3    0    0  0.83042648470E+01  0.19408353656E+01  0.20549199143E+01  0.87721350127E+01  0.51100000000E-03 0. -1.
        -11    1    3    3    0    0  0.12952331318E+02  0.16575788589E+02  0.21732850154E+02  0.30246263075E+02  0.51100000000E-03 0.  1.
        -12    1    3    3    0    0  0.66861555871E+01  0.55932866077E+01 -0.95055640163E+00  0.87688704565E+01  0.00000000000E+00 0.  1.
</event>
<event>
 7    1  0.2769403E-010  0.4778727E+02  0.7816164E-02  0.1312668E+00
        -11   -1    0    0    0    0  0.00000000000E+00  0.00000000000E+00  0.45593999997E+02  0.45594000000E+02  0.51100000000E-03 0. -1.
         11   -1    0    0    0    0 -0.00000000000E+00 -0.00000000000E+00 -0.45593999997E+02  0.45594000000E+02  0.51100000000E-03 0.  1.
    9900012    2    1    2    0    0  0.32937286070E+02 -0.26336297415E+02 -0.10254662103E+02  0.47787268785E+02  0.19999989697E+02 0.  0.
         12    1    1    2    0    0 -0.32937286070E+02  0.26336297415E+02  0.10254662103E+02  0.43400731215E+02  0.00000000000E+00 0. -1.
         11    1    3    3    0    0  0.57565912966E+01 -0.11926607575E+02 -0.49986537649E+01  0.14155170481E+02  0.51100000000E-03 0. -1.
        -11    1    3    3    0    0  0.19122047858E+02 -0.10656473712E+02 -0.94001092331E+01  0.23823836805E+02  0.51100000000E-03 0.  1.
        -12    1    3    3    0    0  0.80586469149E+01 -0.37532161278E+01  0.41441008955E+01  0.98082614990E+01  0.00000000000E+00 0.  1.
</event>
<event>
 7    1  0.2769403E-010  0.4778727E+02  0.7816164E-02  0.1312668E+00
        -11   -1    0    0    0    0  0.00000000000E+00  0.00000000000E+00  0.45593999997E+02  0.45594000000E+02  0.51100000000E-03 0.  1.
         11   -1    0    0    0    0 -0.00000000000E+00 -0.00000000000E+00 -0.45593999997E+02  0.45594000000E+02  0.51100000000E-03 0. -1.
    9900012    2    1    2    0    0  0.13430216984E+02 -0.36137373800E+02  0.19933464778E+02  0.47787268077E+02  0.19999986472E+02 0.  0.
         12    1    1    2    0    0 -0.13430216984E+02  0.36137373800E+02 -0.19933464778E+02  0.43400731923E+02  0.00000000000E+00 0. -1.
         11    1    3    3    0    0  0.74700252585E+01 -0.62595656681E+01  0.12619945965E+01  0.98273124678E+01  0.51100000000E-03 0. -1.
        -11    1    3    3    0    0  0.88000798700E+01 -0.16497376202E+02  0.14494643953E+02  0.23657969711E+02  0.51100000000E-03 0.  1.
        -12    1    3    3    0    0 -0.28398881442E+01 -0.13380431930E+02  0.41768262279E+01  0.14301985898E+02  0.00000000000E+00 0.  1.
</event>
<event>
 7    1  0.2769403E-010  0.4778727E+02  0.7816164E-02  0.1312668E+00
        -11   -1    0    0    0    0  0.00000000000E+00  0.00000000000E+00  0.45593999997E+02  0.45594000000E+02  0.51100000000E-03 0.  1.
         11   -1    0    0    0    0 -0.00000000000E+00 -0.00000000000E+00 -0.45593999997E+02  0.45594000000E+02  0.51100000000E-03 0. -1.
    9900012    2    1    2    0    0 -0.20547978892E+01  0.23060120351E+02  0.36710107439E+02  0.47787270362E+02  0.19999996887E+02 0.  0.
         12    1    1    2    0    0  0.20547978892E+01 -0.23060120351E+02 -0.36710107439E+02  0.43400729638E+02  0.00000000000E+00 0. -1.
         11    1    3    3    0    0 -0.26774133931E+01 -0.10859475621E+01  0.54281891790E+00  0.29398090455E+01  0.51100000000E-03 0. -1.
        -11    1    3    3    0    0 -0.40780777715E+01  0.44913478048E+01  0.59669212163E+01  0.85092345412E+01  0.51100000000E-03 0.  1.
        -12    1    3    3    0    0  0.47006932753E+01  0.19654720109E+02  0.30200367305E+02  0.36338226775E+02  0.00000000000E+00 0.  1.
</event>
<event>
 7    1  0.2769403E-010  0.4778727E+02  0.7816164E-02  0.1312668E+00
        -11   -1    0    0    0    0  0.00000000000E+00  0.00000000000E+00  0.45593999997E+02  0.45594000000E+02  0.51100000000E-03 0.  1.
         11   -1    0    0    0    0 -0.00000000000E+00 -0.00000000000E+00 -0.45593999997E+02  0.45594000000E+02  0.51100000000E-03 0. -1.
    9900012    2    1    2    0    0 -0.40952420106E+02  0.12807572539E+02  0.65183263692E+01  0.47787271832E+02  0.20000003589E+02 0.  0.
         12    1    1    2    0    0  0.40952420106E+02 -0.12807572539E+02 -0.65183263692E+01  0.43400728168E+02  0.00000000000E+00 0. -1.
         11    1    3    3    0    0 -0.36384831598E+01  0.29815103090E+00 -0.29200465995E+01  0.46748396920E+01  0.51100000000E-03 0. -1.
        -11    1    3    3    0    0 -0.14072328391E+02  0.12222233980E+02  0.22020256121E+01  0.18768653304E+02  0.51100000000E-03 0.  1.
        -12    1    3    3    0    0 -0.23241608556E+02  0.28718752823E+00  0.72363473567E+01  0.24343778836E+02  0.00000000000E+00 0.  1.
</event>
<event>
 7    1  0.2769403E-010  0.4778729E+02  0.7816164E-02  0.1312668E+00
        -11   -1    0    0    0    0  0.00000000000E+00  0.00000000000E+00  0.45593999997E+02  0.45594000000E+02  0.51100000000E-03 0.  1.
         11   -1    0    0    0    0 -0.00000000000E+00 -0.00000000000E+00 -0.45593999997E+02  0.45594000000E+02  0.51100000000E-03 0. -1.
    9900012    2    1    2    0    0 -0.18893411012E+02 -0.24354056578E+02  0.30553889174E+02  0.47787294993E+02  0.20000109189E+02 0.  0.
         12    1    1    2    0    0  0.18893411012E+02  0.24354056578E+02 -0.30553889174E+02  0.43400705007E+02  0.00000000000E+00 0. -1.
         11    1    3    3    0    0 -0.10250512094E+02 -0.97194750449E+01  0.16455178827E+01  0.14221424777E+02  0.51100000000E-03 0. -1.
        -11    1    3    3    0    0 -0.26089726815E+01 -0.32284310913E+01  0.73215782185E+01  0.84163539396E+01  0.51100000000E-03 0.  1.
        -12    1    3    3    0    0 -0.60339262366E+01 -0.11406150442E+02  0.21586793073E+02  0.25149516276E+02  0.00000000000E+00 0.  1.
</event>
<event>
 7    1  0.2769403E-010  0.4778727E+02  0.7816164E-02  0.1312668E+00
        -11   -1    0    0    0    0  0.00000000000E+00  0.00000000000E+00  0.45593999997E+02  0.45594000000E+02  0.51100000000E-03 0. -1.
         11   -1    0    0    0    0 -0.00000000000E+00 -0.00000000000E+00 -0.45593999997E+02  0.45594000000E+02  0.51100000000E-03 0.  1.
    9900012    2    1    2    0    0 -0.26822570931E+02 -0.51197190044E+01 -0.33733683323E+02  0.47787271613E+02  0.20000002591E+02 0.  0.
         12    1    1    2    0    0  0.26822570931E+02  0.51197190044E+01  0.33733683323E+02  0.43400728387E+02  0.00000000000E+00 0. -1.
         11    1    3    3    0    0 -0.15499955596E+02 -0.47367510316E+01 -0.15104096214E+02  0.22154438754E+02  0.51100000000E-03 0.  1.
        -11    1    3    3    0    0 -0.68176824263E+01 -0.44578495457E+01 -0.26955068826E+01  0.85801499902E+01  0.51100000000E-03 0. -1.
        -12    1    3    3    0    0 -0.45049329084E+01  0.40748815729E+01 -0.15934080227E+02  0.17052682869E+02  0.00000000000E+00 0.  1.
</event>
<event>
 7    1  0.2769403E-010  0.4778727E+02  0.7816164E-02  0.1312668E+00
        -11   -1    0    0    0    0  0.00000000000E+00  0.00000000000E+00  0.45593999997E+02  0.45594000000E+02  0.51100000000E-03 0.  1.
         11   -1    0    0    0    0 -0.00000000000E+00 -0.00000000000E+00 -0.45593999997E+02  0.45594000000E+02  0.51100000000E-03 0. -1.
    9900012    2    1    2    0    0  0.20844005330E+01 -0.43237368932E+02  0.31318849727E+01  0.47787268425E+02  0.19999988057E+02 0.  0.
         12    1    1    2    0    0 -0.20844005330E+01  0.43237368932E+02 -0.31318849727E+01  0.43400731575E+02  0.00000000000E+00 0. -1.
         11    1    3    3    0    0  0.13737451877E+01 -0.15072259416E+02  0.74834076950E+01  0.16883766486E+02  0.51100000000E-03 0. -1.
        -11    1    3    3    0    0 -0.39039196306E+01 -0.36155329775E+01  0.84930057120E+00  0.53883187466E+01  0.51100000000E-03 0.  1.
        -12    1    3    3    0    0  0.46145749758E+01 -0.24549576538E+02 -0.52008232935E+01  0.25515183193E+02  0.00000000000E+00 0.  1.
</event>
<event>
 7    1  0.2769403E-010  0.4778727E+02  0.7816164E-02  0.1312668E+00
        -11   -1    0    0    0    0  0.00000000000E+00  0.00000000000E+00  0.45593999997E+02  0.45594000000E+02  0.51100000000E-03 0. -1.
         11   -1    0    0    0    0 -0.00000000000E+00 -0.00000000000E+00 -0.45593999997E+02  0.45594000000E+02  0.51100000000E-03 0.  1.
    9900012    2    1    2    0    0 -0.21153851843E+02  0.23825556719E+02 -0.29470003365E+02  0.47787266146E+02  0.19999977664E+02 0.  0.
         12    1    1    2    0    0  0.21153851843E+02 -0.23825556719E+02  0.29470003365E+02  0.43400733854E+02  0.00000000000E+00 0. -1.
         11    1    3    3    0    0 -0.11704728973E+01 -0.18574893198E+00  0.15329841451E+01  0.19376661527E+01  0.51100000000E-03 0. -1.
        -11    1    3    3    0    0 -0.14468149178E+02  0.15027161593E+02 -0.11860104447E+02  0.23995937238E+02  0.51100000000E-03 0.  1.
        -12    1    3    3    0    0 -0.55152297680E+01  0.89841440578E+01 -0.19142883063E+02  0.21853662755E+02  0.00000000000E+00 0.  1.
</event>
<event>
 7    1  0.2769403E-010  0.4778727E+02  0.7816164E-02  0.1312668E+00
        -11   -1    0    0    0    0  0.00000000000E+00  0.00000000000E+00  0.45593999997E+02  0.45594000000E+02  0.51100000000E-03 0.  1.
         11   -1    0    0    0    0 -0.00000000000E+00 -0.00000000000E+00 -0.45593999997E+02  0.45594000000E+02  0.51100000000E-03 0. -1.
    9900012    2    1    2    0    0 -0.22156262847E+02 -0.15369886284E+02  0.34007202460E+02  0.47787271816E+02  0.20000003518E+02 0.  0.
         12    1    1    2    0    0  0.22156262847E+02  0.15369886284E+02 -0.34007202460E+02  0.43400728184E+02  0.00000000000E+00 0. -1.
         11    1    3    3    0    0 -0.64815174299E+01 -0.16546352287E+01  0.11084947408E+01  0.67806081428E+01  0.51100000000E-03 0. -1.
        -11    1    3    3    0    0 -0.17937617662E+02 -0.12735896879E+02  0.29147326506E+02  0.36517500454E+02  0.51100000000E-03 0.  1.
         12    1    3    3    0    0  0.22628722448E+01 -0.97935417631E+00  0.37513812137E+01  0.44891632193E+01  0.00000000000E+00 0. -1.
</event>
<event>
 7    1  0.2769403E-010  0.4778727E+02  0.7816164E-02  0.1312668E+00
        -11   -1    0    0    0    0  0.00000000000E+00  0.00000000000E+00  0.45593999997E+02  0.45594000000E+02  0.51100000000E-03 0. -1.
         11   -1    0    0    0    0 -0.00000000000E+00 -0.00000000000E+00 -0.45593999997E+02  0.45594000000E+02  0.51100000000E-03 0.  1.
    9900012    2    1    2    0    0 -0.40074224885E+02 -0.15070200798E+02 -0.71111559739E+01  0.47787274298E+02  0.20000014834E+02 0.  0.
         12    1    1    2    0    0  0.40074224885E+02  0.15070200798E+02  0.71111559739E+01  0.43400725702E+02  0.00000000000E+00 0. -1.
         11    1    3    3    0    0 -0.16685599048E+01  0.31280113296E+01 -0.11522655416E+01  0.37277691953E+01  0.51100000000E-03 0. -1.
        -11    1    3    3    0    0 -0.13704511515E+02 -0.11083639087E+02 -0.50639391378E+01  0.18338597851E+02  0.51100000000E-03 0.  1.
        -12    1    3    3    0    0 -0.24701153465E+02 -0.71145730404E+01 -0.89495129446E+00  0.25720907252E+02  0.00000000000E+00 0.  1.
</event>
<event>
 7    1  0.2769403E-010  0.4778726E+02  0.7816164E-02  0.1312668E+00
        -11   -1    0    0    0    0  0.00000000000E+00  0.00000000000E+00  0.45593999997E+02  0.45594000000E+02  0.51100000000E-03 0.  1.
         11   -1    0    0    0    0 -0.00000000000E+00 -0.00000000000E+00 -0.45593999997E+02  0.45594000000E+02  0.51100000000E-03 0. -1.
    9900012    2    1    2    0    0  0.27627759949E+02 -0.63063102474E+01  0.32871889857E+02  0.47787264851E+02  0.19999971760E+02 0.  0.
         12    1    1    2    0    0 -0.27627759949E+02  0.63063102474E+01 -0.32871889857E+02  0.43400735149E+02  0.00000000000E+00 0. -1.
         11    1    3    3    0    0  0.15590570081E+02 -0.84481487649E+01  0.14879623717E+02  0.23148224451E+02  0.51100000000E-03 0. -1.
        -11    1    3    3    0    0  0.13544006514E+02  0.41963055110E+01  0.14173555640E+02  0.20048410713E+02  0.51100000000E-03 0.  1.
         12    1    3    3    0    0 -0.15068166462E+01 -0.20544669935E+01  0.38187105002E+01  0.45906296864E+01  0.00000000000E+00 0. -1.
</event>
<event>
 7    1  0.2769403E-010  0.4778727E+02  0.7816164E-02  0.1312668E+00
        -11   -1    0    0    0    0  0.00000000000E+00  0.00000000000E+00  0.45593999997E+02  0.45594000000E+02  0.51100000000E-03 0. -1.
         11   -1    0    0    0    0 -0.00000000000E+00 -0.00000000000E+00 -0.45593999997E+02  0.45594000000E+02  0.51100000000E-03 0.  1.
    9900012    2    1    2    0    0 -0.18280241913E+02  0.25856130744E+02 -0.29680240351E+02  0.47787269491E+02  0.19999992916E+02 0.  0.
         12    1    1    2    0    0  0.18280241913E+02 -0.25856130744E+02  0.29680240351E+02  0.43400730509E+02  0.00000000000E+00 0. -1.
         11    1    3    3    0    0  0.22195513024E+01  0.24409709304E+01 -0.11079146514E+01  0.34802618009E+01  0.51100000000E-03 0. -1.
        -11    1    3    3    0    0 -0.82657716263E+01  0.92143778358E+01 -0.32424894822E+01  0.12796150897E+02  0.51100000000E-03 0.  1.
        -12    1    3    3    0    0 -0.12234021590E+02  0.14200781978E+02 -0.25329836217E+02  0.31510856793E+02  0.00000000000E+00 0.  1.
</event>
<event>
 7    1  0.2769403E-010  0.4778727E+02  0.7816164E-02  0.1312668E+00
        -11   -1    0    0    0    0  0.00000000000E+00  0.00000000000E+00  0.45593999997E+02  0.45594000000E+02  0.51100000000E-03 0.  1.
         11   -1    0    0    0    0 -0.00000000000E+00 -0.00000000000E+00 -0.45593999997E+02  0.45594000000E+02  0.51100000000E-03 0. -1.
    9900012    2    1    2    0    0 -0.14900917387E+01 -0.21352531115E+02  0.37755428744E+02  0.47787270074E+02  0.19999995578E+02 0.  0.
         12    1    1    2    0    0  0.14900917387E+01  0.21352531115E+02 -0.37755428744E+02  0.43400729926E+02  0.00000000000E+00 0. -1.
         11    1    3    3    0    0  0.16428612246E+01 -0.40956347486E+01  0.60094665983E+01  0.74556626838E+01  0.51100000000E-03 0. -1.
        -11    1    3    3    0    0 -0.65398872937E+01 -0.15310882444E+01  0.29309074523E+01  0.73283405885E+01  0.51100000000E-03 0.  1.
        -12    1    3    3    0    0  0.34069343303E+01 -0.15725808122E+02  0.28815054694E+02  0.33003266802E+02  0.00000000000E+00 0.  1.
</event>
<event>
 7    1  0.2769403E-010  0.4778726E+02  0.7816164E-02  0.1312668E+00
        -11   -1    0    0    0    0  0.00000000000E+00  0.00000000000E+00  0.45593999997E+02  0.45594000000E+02  0.51100000000E-03 0. -1.
         11   -1    0    0    0    0 -0.00000000000E+00 -0.00000000000E+00 -0.45593999997E+02  0.45594000000E+02  0.51100000000E-03 0.  1.
    9900012    2    1    2    0    0 -0.36404348594E+02 -0.17328041746E+02 -0.16065071192E+02  0.47787261070E+02  0.19999954521E+02 0.  0.
         12    1    1    2    0    0  0.36404348594E+02  0.17328041746E+02  0.16065071192E+02  0.43400738930E+02  0.00000000000E+00 0. -1.
         11    1    3    3    0    0 -0.15845802202E+01 -0.19158280353E+01 -0.67533958741E+01  0.71965024580E+01  0.51100000000E-03 0. -1.
        -11    1    3    3    0    0 -0.13472648608E+02 -0.81980515897E+01 -0.87824776495E+01  0.18051377352E+02  0.51100000000E-03 0.  1.
         12    1    3    3    0    0 -0.21347119765E+02 -0.72141621213E+01 -0.52919766880E+00  0.22539381259E+02  0.00000000000E+00 0. -1.
</event>
<event>
 7    1  0.2769403E-010  0.4778727E+02  0.7816164E-02  0.1312668E+00
        -11   -1    0    0    0    0  0.00000000000E+00  0.00000000000E+00  0.45593999997E+02  0.45594000000E+02  0.51100000000E-03 0.  1.
         11   -1    0    0    0    0 -0.00000000000E+00 -0.00000000000E+00 -0.45593999997E+02  0.45594000000E+02  0.51100000000E-03 0. -1.
    9900012    2    1    2    0    0  0.13191436451E+01 -0.19242905533E+02  0.38879220990E+02  0.47787269844E+02  0.19999994525E+02 0.  0.
         12    1    1    2    0    0 -0.13191436451E+01  0.19242905533E+02 -0.38879220990E+02  0.43400730156E+02  0.00000000000E+00 0. -1.
         11    1    3    3    0    0  0.41721054239E+01 -0.36729804238E+01  0.78522014197E+01  0.96205153842E+01  0.51100000000E-03 0.  1.
        -11    1    3    3    0    0 -0.50326897766E+01 -0.77777425370E+01  0.42470265460E+01  0.10191098081E+02  0.51100000000E-03 0. -1.
         12    1    3    3    0    0  0.21797279978E+01 -0.77921825718E+01  0.26779993025E+02  0.27975656378E+02  0.00000000000E+00 0. -1.
</event>
<event>
 7    1  0.2769403E-010  0.4778727E+02  0.7816164E-02  0.1312668E+00
        -11   -1    0    0    0    0  0.00000000000E+00  0.00000000000E+00  0.45593999997E+02  0.45594000000E+02  0.51100000000E-03 0. -1.
         11   -1    0    0    0    0 -0.00000000000E+00 -0.00000000000E+00 -0.45593999997E+02  0.45594000000E+02  0.51100000000E-03 0.  1.
    9900012    2    1    2    0    0  0.65750098332E+00 -0.43395269033E+02 -0.20380676117E+00  0.47787271675E+02  0.20000002873E+02 0.  0.
         12    1    1    2    0    0 -0.65750098332E+00  0.43395269033E+02  0.20380676117E+00  0.43400728325E+02  0.00000000000E+00 0. -1.
         11    1    3    3    0    0  0.27036529390E+01 -0.30603065893E+01 -0.36713127621E+01  0.54912433286E+01  0.51100000000E-03 0. -1.
        -11    1    3    3    0    0 -0.32610881819E+01 -0.68489973394E+01  0.44105548796E+01  0.87747624066E+01  0.51100000000E-03 0.  1.
        -12    1    3    3    0    0  0.12149362262E+01 -0.33485965104E+02 -0.94304887870E+00  0.33521265939E+02  0.00000000000E+00 0.  1.
</event>
<event>
 7    1  0.2769403E-010  0.4778727E+02  0.7816164E-02  0.1312668E+00
        -11   -1    0    0    0    0  0.00000000000E+00  0.00000000000E+00  0.45593999997E+02  0.45594000000E+02  0.51100000000E-03 0.  1.
         11   -1    0    0    0    0 -0.00000000000E+00 -0.00000000000E+00 -0.45593999997E+02  0.45594000000E+02  0.51100000000E-03 0. -1.
    9900012    2    1    2    0    0 -0.37905576777E+02 -0.65710402984E+01  0.20090098244E+02  0.47787269950E+02  0.19999995011E+02 0.  0.
         12    1    1    2    0    0  0.37905576777E+02  0.65710402984E+01 -0.20090098244E+02  0.43400730050E+02  0.00000000000E+00 0. -1.
         11    1    3    3    0    0 -0.78400841284E+01  0.19363959502E+01  0.50512254477E+01  0.95253045726E+01  0.51100000000E-03 0.  1.
        -11    1    3    3    0    0 -0.14272430561E+02 -0.39286902295E+01  0.15990979315E+02  0.21791014220E+02  0.51100000000E-03 0. -1.
         12    1    3    3    0    0 -0.15793062088E+02 -0.45787460192E+01 -0.95210651843E+00  0.16470951158E+02  0.00000000000E+00 0. -1.
</event>
<event>
 7    1  0.2892353E-010  0.4778728E+02  0.7816164E-02  0.1312668E+00
        -11   -1    0    0    0    0  0.00000000000E+00  0.00000000000E+00  0.45593999997E+02  0.45594000000E+02  0.51100000000E-03 0. -1.
         11   -1    0    0    0    0 -0.00000000000E+00 -0.00000000000E+00 -0.45593999997E+02  0.45594000000E+02  0.51100000000E-03 0.  1.
    9900012    2    1    2    0    0  0.18358253447E+02  0.23235697063E+02 -0.31728520062E+02  0.47787284880E+02  0.20000063082E+02 0.  0.
         12    1    1    2    0    0 -0.18358253447E+02 -0.23235697063E+02  0.31728520062E+02  0.43400715120E+02  0.00000000000E+00 0. -1.
         11    1    3    3    0    0 -0.25862128838E+01  0.25553512698E+01 -0.21590882092E+01  0.42284724604E+01  0.51100000000E-03 0. -1.
        -11    1    3    3    0    0  0.29435015417E+01  0.86243685506E+01 -0.14651641314E+02  0.17254406037E+02  0.51100000000E-03 0.  1.
         12    1    3    3    0    0  0.18000964789E+02  0.12055977242E+02 -0.14917790538E+02  0.26304406383E+02  0.00000000000E+00 0. -1.
</event>
<event>
 7    1  0.2769403E-010  0.4778727E+02  0.7816164E-02  0.1312668E+00
        -11   -1    0    0    0    0  0.00000000000E+00  0.00000000000E+00  0.45593999997E+02  0.45594000000E+02  0.51100000000E-03 0. -1.
         11   -1    0    0    0    0 -0.00000000000E+00 -0.00000000000E+00 -0.45593999997E+02  0.45594000000E+02  0.51100000000E-03 0.  1.
    9900012    2    1    2    0    0  0.28256518173E+02 -0.24161523396E+01 -0.32853534115E+02  0.47787270568E+02  0.19999997829E+02 0.  0.
         12    1    1    2    0    0 -0.28256518173E+02  0.24161523396E+01  0.32853534115E+02  0.43400729432E+02  0.00000000000E+00 0. -1.
         11    1    3    3    0    0  0.64157782899E+01  0.45062384434E+01 -0.95303711373E+01  0.12340841554E+02  0.51100000000E-03 0. -1.
        -11    1    3    3    0    0  0.21240281021E+02 -0.19828466020E+01 -0.16338469618E+02  0.26870556530E+02  0.51100000000E-03 0.  1.
        -12    1    3    3    0    0  0.60045886235E+00 -0.49395441811E+01 -0.69846933589E+01  0.85758724851E+01  0.00000000000E+00 0.  1.
</event>
<event>
 7    1  0.2769403E-010  0.4778727E+02  0.7816164E-02  0.1312668E+00
        -11   -1    0    0    0    0  0.00000000000E+00  0.00000000000E+00  0.45593999997E+02  0.45594000000E+02  0.51100000000E-03 0.  1.
         11   -1    0    0    0    0 -0.00000000000E+00 -0.00000000000E+00 -0.45593999997E+02  0.45594000000E+02  0.51100000000E-03 0. -1.
    9900012    2    1    2    0    0  0.29624658188E+02 -0.90804969111E+01  0.30389923849E+02  0.47787271106E+02  0.20000000283E+02 0.  0.
         12    1    1    2    0    0 -0.29624658188E+02  0.90804969111E+01 -0.30389923849E+02  0.43400728894E+02  0.00000000000E+00 0. -1.
         11    1    3    3    0    0 -0.99877746576E+00  0.10064865855E+00  0.31991514812E+01  0.33529475152E+01  0.51100000000E-03 0. -1.
        -11    1    3    3    0    0 -0.38757608541E+00  0.13479585020E+01 -0.55802018622E+00  0.15095012867E+01  0.51100000000E-03 0.  1.
        -12    1    3    3    0    0  0.31011011739E+02 -0.10529104072E+02  0.27748792554E+02  0.42924822305E+02  0.00000000000E+00 0.  1.
</event>
<event>
 7    1  0.2769403E-010  0.4778727E+02  0.7816164E-02  0.1312668E+00
        -11   -1    0    0    0    0  0.00000000000E+00  0.00000000000E+00  0.45593999997E+02  0.45594000000E+02  0.51100000000E-03 0.  1.
         11   -1    0    0    0    0 -0.00000000000E+00 -0.00000000000E+00 -0.45593999997E+02  0.45594000000E+02  0.51100000000E-03 0. -1.
    9900012    2    1    2    0    0 -0.13219170919E+02 -0.21863505994E+02  0.35083672487E+02  0.47787269023E+02  0.19999990783E+02 0.  0.
         12    1    1    2    0    0  0.13219170919E+02  0.21863505994E+02 -0.35083672487E+02  0.43400730977E+02  0.00000000000E+00 0. -1.
         11    1    3    3    0    0  0.49859080644E+00 -0.22173237936E+01  0.14715398944E+02  0.14889865141E+02  0.51100000000E-03 0. -1.
        -11    1    3    3    0    0 -0.63859766639E+01 -0.19900655576E+01  0.59460370816E+01  0.89496601116E+01  0.51100000000E-03 0.  1.
        -12    1    3    3    0    0 -0.73317850613E+01 -0.17656116643E+02  0.14422236462E+02  0.23947743770E+02  0.00000000000E+00 0.  1.
</event>
<event>
 7    1  0.2769403E-010  0.4778727E+02  0.7816164E-02  0.1312668E+00
        -11   -1    0    0    0    0  0.00000000000E+00  0.00000000000E+00  0.45593999997E+02  0.45594000000E+02  0.51100000000E-03 0. -1.
         11   -1    0    0    0    0 -0.00000000000E+00 -0.00000000000E+00 -0.45593999997E+02  0.45594000000E+02  0.51100000000E-03 0.  1.
    9900012    2    1    2    0    0 -0.13444770278E+02  0.40907104265E+02 -0.54286565552E+01  0.47787270292E+02  0.19999996569E+02 0.  0.
         12    1    1    2    0    0  0.13444770278E+02 -0.40907104265E+02  0.54286565552E+01  0.43400729708E+02  0.00000000000E+00 0. -1.
         11    1    3    3    0    0 -0.12778627830E+02  0.24370848942E+02  0.13186341264E+01  0.27549417482E+02  0.51100000000E-03 0. -1.
        -11    1    3    3    0    0 -0.28728031663E+01  0.52966706596E+00 -0.10981688156E+01  0.31208204437E+01  0.51100000000E-03 0.  1.
        -12    1    3    3    0    0  0.22066607187E+01  0.16006588257E+02 -0.56491218660E+01  0.17117032366E+02  0.00000000000E+00 0.  1.
</event>
<event>
 7    1  0.2769403E-010  0.4778727E+02  0.7816164E-02  0.1312668E+00
        -11   -1    0    0    0    0  0.00000000000E+00  0.00000000000E+00  0.45593999997E+02  0.45594000000E+02  0.51100000000E-03 0.  1.
         11   -1    0    0    0    0 -0.00000000000E+00 -0.00000000000E+00 -0.45593999997E+02  0.45594000000E+02  0.51100000000E-03 0. -1.
    9900012    2    1    2    0    0  0.29826107553E+01  0.23136947746E+02  0.36597934306E+02  0.47787272893E+02  0.20000008429E+02 0.  0.
         12    1    1    2    0    0 -0.29826107553E+01 -0.23136947746E+02 -0.36597934306E+02  0.43400727107E+02  0.00000000000E+00 0. -1.
         11    1    3    3    0    0 -0.21027213812E+01  0.80436266552E+01  0.15236723557E+02  0.17357393583E+02  0.51100000000E-03 0. -1.
        -11    1    3    3    0    0 -0.24261826008E+01  0.12953103408E+02  0.16914704049E+02  0.21442398728E+02  0.51100000000E-03 0.  1.
         12    1    3    3    0    0  0.75115147373E+01  0.21402176836E+01  0.44465067000E+01  0.89874805822E+01  0.00000000000E+00 0. -1.
</event>
<event>
 7    1  0.2769403E-010  0.4778727E+02  0.7816164E-02  0.1312668E+00
        -11   -1    0    0    0    0  0.00000000000E+00  0.00000000000E+00  0.45593999997E+02  0.45594000000E+02  0.51100000000E-03 0. -1.
         11   -1    0    0    0    0 -0.00000000000E+00 -0.00000000000E+00 -0.45593999997E+02  0.45594000000E+02  0.51100000000E-03 0.  1.
    9900012    2    1    2    0    0  0.17230481469E+02  0.39170113763E+02 -0.72412770944E+01  0.47787269617E+02  0.19999993490E+02 0.  0.
         12    1    1    2    0    0 -0.17230481469E+02 -0.39170113763E+02  0.72412770944E+01  0.43400730383E+02  0.00000000000E+00 0. -1.
         11    1    3    3    0    0  0.15223201597E+01  0.10994609864E+01 -0.31760247250E+01  0.36896350015E+01  0.51100000000E-03 0. -1.
        -11    1    3    3    0    0  0.56248429151E+01  0.23764346418E+02 -0.88129028903E+01  0.25962478236E+02  0.51100000000E-03 0.  1.
         12    1    3    3    0    0  0.10083318394E+02  0.14306306358E+02  0.47476505209E+01  0.18135156380E+02  0.00000000000E+00 0. -1.
</event>
<event>
 7    1  0.2769403E-010  0.4778725E+02  0.7816164E-02  0.1312668E+00
        -11   -1    0    0    0    0  0.00000000000E+00  0.00000000000E+00  0.45593999997E+02  0.45594000000E+02  0.51100000000E-03 0.  1.
         11   -1    0    0    0    0 -0.00000000000E+00 -0.00000000000E+00 -0.45593999997E+02  0.45594000000E+02  0.51100000000E-03 0. -1.
    9900012    2    1    2    0    0 -0.33662109369E+02  0.23655453443E+02  0.13816917337E+02  0.47787247824E+02  0.19999894127E+02 0.  0.
         12    1    1    2    0    0  0.33662109369E+02 -0.23655453443E+02 -0.13816917337E+02  0.43400752176E+02  0.00000000000E+00 0. -1.
         11    1    3    3    0    0 -0.28107968942E+01 -0.12947932283E+01  0.23781788127E+01  0.39029224192E+01  0.51100000000E-03 0. -1.
        -11    1    3    3    0    0 -0.23659384962E+02  0.19341645586E+02  0.15063438028E+02  0.34070117643E+02  0.51100000000E-03 0.  1.
         12    1    3    3    0    0 -0.71919275126E+01  0.56086010858E+01 -0.36246995036E+01  0.98142077610E+01  0.00000000000E+00 0. -1.
</event>
<event>
 7    1  0.2769403E-010  0.4778727E+02  0.7816164E-02  0.1312668E+00
        -11   -1    0    0    0    0  0.00000000000E+00  0.00000000000E+00  0.45593999997E+02  0.45594000000E+02  0.51100000000E-03 0. -1.
         11   -1    0    0    0    0 -0.00000000000E+00 -0.00000000000E+00 -0.45593999997E+02  0.45594000000E+02  0.51100000000E-03 0.  1.
    9900012    2    1    2    0    0  0.27011904307E+02 -0.21769547066E+02 -0.26078097887E+02  0.47787270247E+02  0.19999996364E+02 0.  0.
         12    1    1    2    0    0 -0.27011904307E+02  0.21769547066E+02  0.26078097887E+02  0.43400729753E+02  0.00000000000E+00 0. -1.
         11    1    3    3    0    0  0.28502871514E+01 -0.68612840092E+01  0.19049329855E+01  0.76700798588E+01  0.51100000000E-03 0.  1.
        -11    1    3    3    0    0  0.57419718415E+01 -0.15609048901E+01 -0.67755817420E+01  0.90174926065E+01  0.51100000000E-03 0. -1.
        -12    1    3    3    0    0  0.18419645314E+02 -0.13347358166E+02 -0.21207449130E+02  0.31099697782E+02  0.00000000000E+00 0.  1.
</event>
<event>
 7    1  0.2769403E-010  0.4778727E+02  0.7816164E-02  0.1312668E+00
        -11   -1    0    0    0    0  0.00000000000E+00  0.00000000000E+00  0.45593999997E+02  0.45594000000E+02  0.51100000000E-03 0. -1.
         11   -1    0    0    0    0 -0.00000000000E+00 -0.00000000000E+00 -0.45593999997E+02  0.45594000000E+02  0.51100000000E-03 0.  1.
    9900012    2    1    2    0    0 -0.34769149026E+02 -0.94899061602E+01 -0.24179974049E+02  0.47787272035E+02  0.20000004514E+02 0.  0.
         12    1    1    2    0    0  0.34769149026E+02  0.94899061602E+01  0.24179974049E+02  0.43400727965E+02  0.00000000000E+00 0. -1.
         11    1    3    3    0    0 -0.16961230760E+02 -0.98899752993E+01 -0.15046593146E+02  0.24736509978E+02  0.51100000000E-03 0. -1.
        -11    1    3    3    0    0 -0.17578191281E+02 -0.29082869109E+01 -0.72396570002E+01  0.19231837541E+02  0.51100000000E-03 0.  1.
         12    1    3    3    0    0 -0.22972698585E+00  0.33083560500E+01 -0.18937239024E+01  0.38189245162E+01  0.00000000000E+00 0. -1.
</event>
<event>
 7    1  0.2769403E-010  0.4778727E+02  0.7816164E-02  0.1312668E+00
        -11   -1    0    0    0    0  0.00000000000E+00  0.00000000000E+00  0.45593999997E+02  0.45594000000E+02  0.51100000000E-03 0.  1.
         11   -1    0    0    0    0 -0.00000000000E+00 -0.00000000000E+00 -0.45593999997E+02  0.45594000000E+02  0.51100000000E-03 0. -1.
    9900012    2    1    2    0    0  0.83795354771E+01  0.15552706211E+02  0.39642407959E+02  0.47787265051E+02  0.19999972674E+02 0.  0.
         12    1    1    2    0    0 -0.83795354771E+01 -0.15552706211E+02 -0.39642407959E+02  0.43400734949E+02  0.00000000000E+00 0. -1.
         11    1    3    3    0    0  0.54636893962E+01  0.13373227203E+02  0.16420387634E+02  0.21870625001E+02  0.51100000000E-03 0. -1.
        -11    1    3    3    0    0  0.56917667717E+01  0.47216222344E+01  0.12164820510E+02  0.14236319181E+02  0.51100000000E-03 0.  1.
         12    1    3    3    0    0 -0.27759206908E+01 -0.25421432256E+01  0.11057199815E+02  0.11680320869E+02  0.00000000000E+00 0. -1.
</event>
<event>
 7    1  0.2769403E-010  0.4778727E+02  0.7816164E-02  0.1312668E+00
        -11   -1    0    0    0    0  0.00000000000E+00  0.00000000000E+00  0.45593999997E+02  0.45594000000E+02  0.51100000000E-03 0.  1.
         11   -1    0    0    0    0 -0.00000000000E+00 -0.00000000000E+00 -0.45593999997E+02  0.45594000000E+02  0.51100000000E-03 0. -1.
    9900012    2    1    2    0    0 -0.39698279666E+02  0.12532668944E+02  0.12272014826E+02  0.47787267895E+02  0.19999985642E+02 0.  0.
         12    1    1    2    0    0  0.39698279666E+02 -0.12532668944E+02 -0.12272014826E+02  0.43400732105E+02  0.00000000000E+00 0. -1.
         11    1    3    3    0    0 -0.49641495308E+01 -0.87173081740E+00 -0.23198746626E+01  0.55483793934E+01  0.51100000000E-03 0. -1.
        -11    1    3    3    0    0 -0.27624146017E+02  0.64771665635E+01  0.57601817059E+01  0.28952147129E+02  0.51100000000E-03 0.  1.
        -12    1    3    3    0    0 -0.71099841186E+01  0.69272331975E+01  0.88317077829E+01  0.13286741373E+02  0.00000000000E+00 0.  1.
</event>
<event>
 7    1  0.2769403E-010  0.4778727E+02  0.7816164E-02  0.1312668E+00
        -11   -1    0    0    0    0  0.00000000000E+00  0.00000000000E+00  0.45593999997E+02  0.45594000000E+02  0.51100000000E-03 0.  1.
         11   -1    0    0    0    0 -0.00000000000E+00 -0.00000000000E+00 -0.45593999997E+02  0.45594000000E+02  0.51100000000E-03 0. -1.
    9900012    2    1    2    0    0 -0.81021471868E+01  0.40702475395E+02 -0.12699880468E+02  0.47787271248E+02  0.20000000929E+02 0.  0.
         12    1    1    2    0    0  0.81021471868E+01 -0.40702475395E+02  0.12699880468E+02  0.43400728752E+02  0.00000000000E+00 0. -1.
         11    1    3    3    0    0 -0.39528367970E+01  0.19355132563E+02 -0.15404239597E+02  0.25050682088E+02  0.51100000000E-03 0. -1.
        -11    1    3    3    0    0  0.79419451470E+00  0.53754460390E+01  0.25835335447E+01  0.60167109689E+01  0.51100000000E-03 0.  1.
        -12    1    3    3    0    0 -0.49435049045E+01  0.15971896793E+02  0.12082558390E+00  0.16719878191E+02  0.00000000000E+00 0.  1.
</event>
<event>
 7    1  0.2769403E-010  0.4778727E+02  0.7816164E-02  0.1312668E+00
        -11   -1    0    0    0    0  0.00000000000E+00  0.00000000000E+00  0.45593999997E+02  0.45594000000E+02  0.51100000000E-03 0. -1.
         11   -1    0    0    0    0 -0.00000000000E+00 -0.00000000000E+00 -0.45593999997E+02  0.45594000000E+02  0.51100000000E-03 0.  1.
    9900012    2    1    2    0    0  0.30892168983E+01  0.17179592826E+02 -0.39735897634E+02  0.47787271532E+02  0.20000002225E+02 0.  0.
         12    1    1    2    0    0 -0.30892168983E+01 -0.17179592826E+02  0.39735897634E+02  0.43400728468E+02  0.00000000000E+00 0. -1.
         11    1    3    3    0    0 -0.48648047869E+01  0.26446693979E+01 -0.15629503711E+02  0.16581374743E+02  0.51100000000E-03 0. -1.
        -11    1    3    3    0    0 -0.33216836186E+00 -0.14933563162E+01 -0.34788932263E+01  0.38004140892E+01  0.51100000000E-03 0.  1.
        -12    1    3    3    0    0  0.82861900470E+01  0.16028279744E+02 -0.20627500697E+02  0.27405482701E+02  0.00000000000E+00 0.  1.
</event>
<event>
 7    1  0.2769403E-010  0.4778727E+02  0.7816164E-02  0.1312668E+00
        -11   -1    0    0    0    0  0.00000000000E+00  0.00000000000E+00  0.45593999997E+02  0.45594000000E+02  0.51100000000E-03 0.  1.
         11   -1    0    0    0    0 -0.00000000000E+00 -0.00000000000E+00 -0.45593999997E+02  0.45594000000E+02  0.51100000000E-03 0. -1.
    9900012    2    1    2    0    0 -0.41696042406E+02 -0.83937950703E+01 -0.86375799096E+01  0.47787268040E+02  0.19999986300E+02 0.  0.
         12    1    1    2    0    0  0.41696042406E+02  0.83937950703E+01  0.86375799096E+01  0.43400731960E+02  0.00000000000E+00 0. -1.
         11    1    3    3    0    0 -0.22534081625E+02 -0.67290669307E+01 -0.50575306791E+01  0.24055015969E+02  0.51100000000E-03 0. -1.
        -11    1    3    3    0    0 -0.18401694289E+02 -0.29125467008E+01  0.12630540603E+01  0.18673526363E+02  0.51100000000E-03 0.  1.
         12    1    3    3    0    0 -0.76026649144E+00  0.12478185612E+01 -0.48431032908E+01  0.50587257077E+01  0.00000000000E+00 0. -1.
</event>
<event>
 7    1  0.2769403E-010  0.4778727E+02  0.7816164E-02  0.1312668E+00
        -11   -1    0    0    0    0  0.00000000000E+00  0.00000000000E+00  0.45593999997E+02  0.45594000000E+02  0.51100000000E-03 0.  1.
         11   -1    0    0    0    0 -0.00000000000E+00 -0.00000000000E+00 -0.45593999997E+02  0.45594000000E+02  0.51100000000E-03 0. -1.
    9900012    2    1    2    0    0 -0.12008978688E+02 -0.15495528518E+02  0.38720747520E+02  0.47787271185E+02  0.20000000640E+02 0.  0.
         12    1    1    2    0    0  0.12008978688E+02  0.15495528518E+02 -0.38720747520E+02  0.43400728815E+02  0.00000000000E+00 0. -1.
         11    1    3    3    0    0  0.63853353240E+00  0.17724046090E+00  0.10249586349E+01  0.12205243617E+01  0.51100000000E-03 0. -1.
        -11    1    3    3    0    0 -0.98436866494E+01 -0.15782073544E+01  0.56808117581E+01  0.11474342151E+02  0.51100000000E-03 0.  1.
        -12    1    3    3    0    0 -0.28038255708E+01 -0.14094561624E+02  0.32014977127E+02  0.35092404672E+02  0.00000000000E+00 0.  1.
</event>
<event>
 7    1  0.2769403E-010  0.4778727E+02  0.7816164E-02  0.1312668E+00
        -11   -1    0    0    0    0  0.00000000000E+00  0.00000000000E+00  0.45593999997E+02  0.45594000000E+02  0.51100000000E-03 0.  1.
         11   -1    0    0    0    0 -0.00000000000E+00 -0.00000000000E+00 -0.45593999997E+02  0.45594000000E+02  0.51100000000E-03 0. -1.
    9900012    2    1    2    0    0 -0.46522867318E+01 -0.13935089019E+02  0.40838619434E+02  0.47787270570E+02  0.19999997838E+02 0.  0.
         12    1    1    2    0    0  0.46522867318E+01  0.13935089019E+02 -0.40838619434E+02  0.43400729430E+02  0.00000000000E+00 0. -1.
         11    1    3    3    0    0 -0.36076628567E+01  0.77680842943E+00  0.12454840005E+01  0.38948547188E+01  0.51100000000E-03 0. -1.
        -11    1    3    3    0    0 -0.16067704967E+01 -0.13463802081E+00  0.16492588769E+02  0.16571219732E+02  0.51100000000E-03 0.  1.
        -12    1    3    3    0    0  0.56214662169E+00 -0.14577259427E+02  0.23100546664E+02  0.27321196120E+02  0.00000000000E+00 0.  1.
</event>
<event>
 7    1  0.2769403E-010  0.4778727E+02  0.7816164E-02  0.1312668E+00
        -11   -1    0    0    0    0  0.00000000000E+00  0.00000000000E+00  0.45593999997E+02  0.45594000000E+02  0.51100000000E-03 0. -1.
         11   -1    0    0    0    0 -0.00000000000E+00 -0.00000000000E+00 -0.45593999997E+02  0.45594000000E+02  0.51100000000E-03 0.  1.
    9900012    2    1    2    0    0 -0.38463777650E+02 -0.46199296773E+01 -0.19565718267E+02  0.47787271059E+02  0.20000000067E+02 0.  0.
         12    1    1    2    0    0  0.38463777650E+02  0.46199296773E+01  0.19565718267E+02  0.43400728941E+02  0.00000000000E+00 0. -1.
         11    1    3    3    0    0 -0.10707526120E+02 -0.31833171738E+01  0.25553980223E+00  0.11173626300E+02  0.51100000000E-03 0. -1.
        -11    1    3    3    0    0 -0.20993751917E+02 -0.52294411548E+01 -0.93130356373E+01  0.23554560225E+02  0.51100000000E-03 0.  1.
        -12    1    3    3    0    0 -0.67624996123E+01  0.37928286514E+01 -0.10508222432E+02  0.13059084534E+02  0.00000000000E+00 0.  1.
</event>
<event>
 7    1  0.2769403E-010  0.4778728E+02  0.7816164E-02  0.1312668E+00
        -11   -1    0    0    0    0  0.00000000000E+00  0.00000000000E+00  0.45593999997E+02  0.45594000000E+02  0.51100000000E-03 0.  1.
         11   -1    0    0    0    0 -0.00000000000E+00 -0.00000000000E+00 -0.45593999997E+02  0.45594000000E+02  0.51100000000E-03 0. -1.
    9900012    2    1    2    0    0 -0.30717185564E+01 -0.28194412581E+02  0.32852131479E+02  0.47787275370E+02  0.20000019724E+02 0.  0.
         12    1    1    2    0    0  0.30717185564E+01  0.28194412581E+02 -0.32852131479E+02  0.43400724630E+02  0.00000000000E+00 0. -1.
         11    1    3    3    0    0 -0.61403338498E+01 -0.24755581482E+01  0.14614232034E+01  0.67799591424E+01  0.51100000000E-03 0. -1.
        -11    1    3    3    0    0  0.27171631398E+01 -0.55527305537E+01  0.82810079015E+01  0.10333967498E+02  0.51100000000E-03 0.  1.
        -12    1    3    3    0    0  0.35145215365E+00 -0.20166123879E+02  0.23109700374E+02  0.30673348730E+02  0.00000000000E+00 0.  1.
</event>
<event>
 7    1  0.2769403E-010  0.4778727E+02  0.7816164E-02  0.1312668E+00
        -11   -1    0    0    0    0  0.00000000000E+00  0.00000000000E+00  0.45593999997E+02  0.45594000000E+02  0.51100000000E-03 0. -1.
         11   -1    0    0    0    0 -0.00000000000E+00 -0.00000000000E+00 -0.45593999997E+02  0.45594000000E+02  0.51100000000E-03 0.  1.
    9900012    2    1    2    0    0 -0.13687628994E+02  0.20209611572E+02 -0.35886534489E+02  0.47787274833E+02  0.20000017275E+02 0.  0.
         12    1    1    2    0    0  0.13687628994E+02 -0.20209611572E+02  0.35886534489E+02  0.43400725167E+02  0.00000000000E+00 0. -1.
         11    1    3    3    0    0 -0.46694937593E+00  0.69283897733E+01 -0.91534764691E+01  0.11489419407E+02  0.51100000000E-03 0. -1.
        -11    1    3    3    0    0 -0.71176440310E+01  0.16050555483E+02 -0.16695450546E+02  0.24228480288E+02  0.51100000000E-03 0.  1.
         12    1    3    3    0    0 -0.61030355871E+01 -0.27693336848E+01 -0.10037607474E+02  0.12069375139E+02  0.00000000000E+00 0. -1.
</event>
<event>
 7    1  0.2769403E-010  0.4778721E+02  0.7816164E-02  0.1312668E+00
        -11   -1    0    0    0    0  0.00000000000E+00  0.00000000000E+00  0.45593999997E+02  0.45594000000E+02  0.51100000000E-03 0. -1.
         11   -1    0    0    0    0 -0.00000000000E+00 -0.00000000000E+00 -0.45593999997E+02  0.45594000000E+02  0.51100000000E-03 0.  1.
    9900012    2    1    2    0    0 -0.40771082412E+02  0.13602360400E+02 -0.60268652538E+01  0.47787211133E+02  0.19999726836E+02 0.  0.
         12    1    1    2    0    0  0.40771082412E+02 -0.13602360400E+02  0.60268652538E+01  0.43400788867E+02  0.00000000000E+00 0. -1.
         11    1    3    3    0    0 -0.26115092102E+02  0.21884670704E+01 -0.35835570031E+01  0.26450506700E+02  0.51100000000E-03 0.  1.
        -11    1    3    3    0    0 -0.45184851698E+00  0.20526937903E+01  0.28313873183E+01  0.35262548527E+01  0.51100000000E-03 0. -1.
        -12    1    3    3    0    0 -0.14204141794E+02  0.93611995392E+01 -0.52746955690E+01  0.17810449580E+02  0.00000000000E+00 0.  1.
</event>
<event>
 7    1  0.2769403E-010  0.4778727E+02  0.7816164E-02  0.1312668E+00
        -11   -1    0    0    0    0  0.00000000000E+00  0.00000000000E+00  0.45593999997E+02  0.45594000000E+02  0.51100000000E-03 0.  1.
         11   -1    0    0    0    0 -0.00000000000E+00 -0.00000000000E+00 -0.45593999997E+02  0.45594000000E+02  0.51100000000E-03 0. -1.
    9900012    2    1    2    0    0  0.12178729063E+02 -0.38722338303E+02  0.15358459273E+02  0.47787271936E+02  0.20000004065E+02 0.  0.
         12    1    1    2    0    0 -0.12178729063E+02  0.38722338303E+02 -0.15358459273E+02  0.43400728064E+02  0.00000000000E+00 0. -1.
         11    1    3    3    0    0 -0.36809293121E+01 -0.65816403029E+01  0.18576720040E+01  0.77664776580E+01  0.51100000000E-03 0.  1.
        -11    1    3    3    0    0  0.18329429704E+01 -0.77520017532E+01  0.81226209432E+01  0.11376738652E+02  0.51100000000E-03 0. -1.
         12    1    3    3    0    0  0.14026715405E+02 -0.24388696247E+02  0.53781663255E+01  0.28644055626E+02  0.00000000000E+00 0. -1.
</event>
<event>
 7    1  0.2769403E-010  0.4778727E+02  0.7816164E-02  0.1312668E+00
        -11   -1    0    0    0    0  0.00000000000E+00  0.00000000000E+00  0.45593999997E+02  0.45594000000E+02  0.51100000000E-03 0. -1.
         11   -1    0    0    0    0 -0.00000000000E+00 -0.00000000000E+00 -0.45593999997E+02  0.45594000000E+02  0.51100000000E-03 0.  1.
    9900012    2    1    2    0    0 -0.33614441197E+02 -0.49638344363E+01 -0.27000985624E+02  0.47787268048E+02  0.19999986338E+02 0.  0.
         12    1    1    2    0    0  0.33614441197E+02  0.49638344363E+01  0.27000985624E+02  0.43400731952E+02  0.00000000000E+00 0. -1.
         11    1    3    3    0    0 -0.25604224435E+01 -0.37377092495E+01 -0.61123585355E+01  0.76083612329E+01  0.51100000000E-03 0. -1.
        -11    1    3    3    0    0 -0.34668267283E+00  0.32344380353E+01 -0.25680171762E+01  0.41444530107E+01  0.51100000000E-03 0.  1.
         12    1    3    3    0    0 -0.30707336081E+02 -0.44605632221E+01 -0.18320609912E+02  0.36034453804E+02  0.00000000000E+00 0. -1.
</event>
<event>
 7    1  0.2769403E-010  0.4778727E+02  0.7816164E-02  0.1312668E+00
        -11   -1    0    0    0    0  0.00000000000E+00  0.00000000000E+00  0.45593999997E+02  0.45594000000E+02  0.51100000000E-03 0.  1.
         11   -1    0    0    0    0 -0.00000000000E+00 -0.00000000000E+00 -0.45593999997E+02  0.45594000000E+02  0.51100000000E-03 0. -1.
    9900012    2    1    2    0    0  0.57373254027E+01 -0.37821904663E+02  0.20499017593E+02  0.47787273078E+02  0.20000009271E+02 0.  0.
         12    1    1    2    0    0 -0.57373254027E+01  0.37821904663E+02 -0.20499017593E+02  0.43400726922E+02  0.00000000000E+00 0. -1.
         11    1    3    3    0    0  0.18513308706E+01 -0.88619937838E+01  0.18705581924E+01  0.92445307089E+01  0.51100000000E-03 0. -1.
        -11    1    3    3    0    0  0.48702402188E+01 -0.21320028003E+02  0.21163980198E+02  0.30433154485E+02  0.51100000000E-03 0.  1.
        -12    1    3    3    0    0 -0.98424568683E+00 -0.76398828757E+01 -0.25355207976E+01  0.81095878836E+01  0.00000000000E+00 0.  1.
</event>
<event>
 7    1  0.2769403E-010  0.4778727E+02  0.7816164E-02  0.1312668E+00
        -11   -1    0    0    0    0  0.00000000000E+00  0.00000000000E+00  0.45593999997E+02  0.45594000000E+02  0.51100000000E-03 0. -1.
         11   -1    0    0    0    0 -0.00000000000E+00 -0.00000000000E+00 -0.45593999997E+02  0.45594000000E+02  0.51100000000E-03 0.  1.
    9900012    2    1    2    0    0 -0.14593688147E+02 -0.38107413751E+02 -0.14780821279E+02  0.47787269658E+02  0.19999993678E+02 0.  0.
         12    1    1    2    0    0  0.14593688147E+02  0.38107413751E+02  0.14780821279E+02  0.43400730342E+02  0.00000000000E+00 0. -1.
         11    1    3    3    0    0 -0.69117101114E+01 -0.56567426315E+01  0.15805602177E+01  0.90702064324E+01  0.51100000000E-03 0. -1.
        -11    1    3    3    0    0 -0.36495279906E+01 -0.68370748270E+01 -0.87610452661E+01  0.11697032152E+02  0.51100000000E-03 0.  1.
        -12    1    3    3    0    0 -0.40324500455E+01 -0.25613596293E+02 -0.76003362302E+01  0.27020031074E+02  0.00000000000E+00 0.  1.
</event>
<event>
 7    1  0.2769403E-010  0.4778727E+02  0.7816164E-02  0.1312668E+00
        -11   -1    0    0    0    0  0.00000000000E+00  0.00000000000E+00  0.45593999997E+02  0.45594000000E+02  0.51100000000E-03 0.  1.
         11   -1    0    0    0    0 -0.00000000000E+00 -0.00000000000E+00 -0.45593999997E+02  0.45594000000E+02  0.51100000000E-03 0. -1.
    9900012    2    1    2    0    0 -0.49952459853E+01 -0.20168179815E+00  0.43111831947E+02  0.47787271760E+02  0.20000003261E+02 0.  0.
         12    1    1    2    0    0  0.49952459853E+01  0.20168179815E+00 -0.43111831947E+02  0.43400728240E+02  0.00000000000E+00 0. -1.
         11    1    3    3    0    0  0.49316655494E+00  0.71352971333E+00  0.11985536461E+01  0.14794826820E+01  0.51100000000E-03 0. -1.
        -11    1    3    3    0    0 -0.84683392909E+01 -0.72862452038E+01  0.33652586713E+02  0.35458408484E+02  0.51100000000E-03 0.  1.
        -12    1    3    3    0    0  0.29799267507E+01  0.63710336923E+01  0.82606915876E+01  0.10849380593E+02  0.00000000000E+00 0.  1.
</event>
<event>
 7    1  0.2769403E-010  0.4778727E+02  0.7816164E-02  0.1312668E+00
        -11   -1    0    0    0    0  0.00000000000E+00  0.00000000000E+00  0.45593999997E+02  0.45594000000E+02  0.51100000000E-03 0.  1.
         11   -1    0    0    0    0 -0.00000000000E+00 -0.00000000000E+00 -0.45593999997E+02  0.45594000000E+02  0.51100000000E-03 0. -1.
    9900012    2    1    2    0    0 -0.28690112776E+02  0.25196098305E+02  0.20631467020E+02  0.47787269910E+02  0.19999994830E+02 0.  0.
         12    1    1    2    0    0  0.28690112776E+02 -0.25196098305E+02 -0.20631467020E+02  0.43400730090E+02  0.00000000000E+00 0. -1.
         11    1    3    3    0    0 -0.23167832739E+01  0.10479216919E+02  0.32585525743E+01  0.11216043738E+02  0.51100000000E-03 0. -1.
        -11    1    3    3    0    0 -0.49786401758E+01  0.76670882923E+01  0.21730309543E+01  0.93964442568E+01  0.51100000000E-03 0.  1.
        -12    1    3    3    0    0 -0.21394689326E+02  0.70497930937E+01  0.15199883492E+02  0.27174781916E+02  0.00000000000E+00 0.  1.
</event>
<event>
 7    1  0.2769403E-010  0.4778727E+02  0.7816164E-02  0.1312668E+00
        -11   -1    0    0    0    0  0.00000000000E+00  0.00000000000E+00  0.45593999997E+02  0.45594000000E+02  0.51100000000E-03 0.  1.
         11   -1    0    0    0    0 -0.00000000000E+00 -0.00000000000E+00 -0.45593999997E+02  0.45594000000E+02  0.51100000000E-03 0. -1.
    9900012    2    1    2    0    0 -0.10145764229E+02  0.25894675158E+02  0.33318953075E+02  0.47787269968E+02  0.19999995092E+02 0.  0.
         12    1    1    2    0    0  0.10145764229E+02 -0.25894675158E+02 -0.33318953075E+02  0.43400730032E+02  0.00000000000E+00 0. -1.
         11    1    3    3    0    0 -0.42938935290E+00 -0.98435055534E+00  0.53970237999E+00  0.12019152018E+01  0.51100000000E-03 0. -1.
        -11    1    3    3    0    0 -0.18544675784E+01  0.20260992449E+02  0.12576034076E+02  0.23918685130E+02  0.51100000000E-03 0.  1.
        -12    1    3    3    0    0 -0.78619072972E+01  0.66180332646E+01  0.20203216618E+02  0.22666669636E+02  0.00000000000E+00 0.  1.
</event>
<event>
 7    1  0.2769403E-010  0.4778727E+02  0.7816164E-02  0.1312668E+00
        -11   -1    0    0    0    0  0.00000000000E+00  0.00000000000E+00  0.45593999997E+02  0.45594000000E+02  0.51100000000E-03 0. -1.
         11   -1    0    0    0    0 -0.00000000000E+00 -0.00000000000E+00 -0.45593999997E+02  0.45594000000E+02  0.51100000000E-03 0.  1.
    9900012    2    1    2    0    0  0.28796954866E+02  0.27944823463E+02 -0.16536190389E+02  0.47787270046E+02  0.19999995448E+02 0.  0.
         12    1    1    2    0    0 -0.28796954866E+02 -0.27944823463E+02  0.16536190389E+02  0.43400729954E+02  0.00000000000E+00 0. -1.
         11    1    3    3    0    0  0.76044783117E+01  0.67244895946E+01  0.16099241741E+01  0.10278069216E+02  0.51100000000E-03 0. -1.
        -11    1    3    3    0    0  0.10666423213E+01  0.27954892061E+01  0.19937725026E+01  0.35954992416E+01  0.51100000000E-03 0.  1.
        -12    1    3    3    0    0  0.20125834233E+02  0.18424844662E+02 -0.20139887066E+02  0.33913701589E+02  0.00000000000E+00 0.  1.
</event>
<event>
 7    1  0.2769403E-010  0.4778727E+02  0.7816164E-02  0.1312668E+00
        -11   -1    0    0    0    0  0.00000000000E+00  0.00000000000E+00  0.45593999997E+02  0.45594000000E+02  0.51100000000E-03 0.  1.
         11   -1    0    0    0    0 -0.00000000000E+00 -0.00000000000E+00 -0.45593999997E+02  0.45594000000E+02  0.51100000000E-03 0. -1.
    9900012    2    1    2    0    0  0.17023413680E+02 -0.29200598851E+02  0.27224104369E+02  0.47787269070E+02  0.19999990998E+02 0.  0.
         12    1    1    2    0    0 -0.17023413680E+02  0.29200598851E+02 -0.27224104369E+02  0.43400730930E+02  0.00000000000E+00 0. -1.
         11    1    3    3    0    0  0.44779211895E+01 -0.76623788287E+00  0.64165005151E+01  0.78619576312E+01  0.51100000000E-03 0. -1.
        -11    1    3    3    0    0  0.75160953208E+01 -0.36252787032E+01  0.25889779351E+01  0.87371128845E+01  0.51100000000E-03 0.  1.
        -12    1    3    3    0    0  0.50293971694E+01 -0.24809082265E+02  0.18218625919E+02  0.31188198554E+02  0.00000000000E+00 0.  1.
</event>
<event>
 7    1  0.2769403E-010  0.4778727E+02  0.7816164E-02  0.1312668E+00
        -11   -1    0    0    0    0  0.00000000000E+00  0.00000000000E+00  0.45593999997E+02  0.45594000000E+02  0.51100000000E-03 0.  1.
         11   -1    0    0    0    0 -0.00000000000E+00 -0.00000000000E+00 -0.45593999997E+02  0.45594000000E+02  0.51100000000E-03 0. -1.
    9900012    2    1    2    0    0  0.10109057039E+02  0.28264862677E+02  0.31345299067E+02  0.47787271089E+02  0.20000000205E+02 0.  0.
         12    1    1    2    0    0 -0.10109057039E+02 -0.28264862677E+02 -0.31345299067E+02  0.43400728911E+02  0.00000000000E+00 0. -1.
         11    1    3    3    0    0 -0.99166550087E+00  0.32532815532E+01  0.31705104245E+01  0.46496642828E+01  0.51100000000E-03 0. -1.
        -11    1    3    3    0    0  0.97730460510E+01  0.38656856576E+01  0.14544910275E+02  0.17944647388E+02  0.51100000000E-03 0.  1.
        -12    1    3    3    0    0  0.13276764890E+01  0.21145895467E+02  0.13629878367E+02  0.25192959418E+02  0.00000000000E+00 0.  1.
</event>
<event>
 7    1  0.2769403E-010  0.4778726E+02  0.7816164E-02  0.1312668E+00
        -11   -1    0    0    0    0  0.00000000000E+00  0.00000000000E+00  0.45593999997E+02  0.45594000000E+02  0.51100000000E-03 0.  1.
         11   -1    0    0    0    0 -0.00000000000E+00 -0.00000000000E+00 -0.45593999997E+02  0.45594000000E+02  0.51100000000E-03 0. -1.
    9900012    2    1    2    0    0  0.90359326215E+01  0.21061959495E+02  0.36856066833E+02  0.47787264079E+02  0.19999968242E+02 0.  0.
         12    1    1    2    0    0 -0.90359326215E+01 -0.21061959495E+02 -0.36856066833E+02  0.43400735921E+02  0.00000000000E+00 0. -1.
         11    1    3    3    0    0  0.96643777585E+01  0.10179678040E+02  0.19665128808E+02  0.24160780901E+02  0.51100000000E-03 0. -1.
        -11    1    3    3    0    0  0.54722521216E+01  0.71935303322E+01  0.10428134110E+02  0.13799942145E+02  0.51100000000E-03 0.  1.
        -12    1    3    3    0    0 -0.61006972586E+01  0.36887511228E+01  0.67628039148E+01  0.98265410332E+01  0.00000000000E+00 0.  1.
</event>
<event>
 7    1  0.2769403E-010  0.4778724E+02  0.7816164E-02  0.1312668E+00
        -11   -1    0    0    0    0  0.00000000000E+00  0.00000000000E+00  0.45593999997E+02  0.45594000000E+02  0.51100000000E-03 0.  1.
         11   -1    0    0    0    0 -0.00000000000E+00 -0.00000000000E+00 -0.45593999997E+02  0.45594000000E+02  0.51100000000E-03 0. -1.
    9900012    2    1    2    0    0  0.24695452158E+02 -0.71709182395E+01  0.34961953245E+02  0.47787244242E+02  0.19999877797E+02 0.  0.
         12    1    1    2    0    0 -0.24695452158E+02  0.71709182395E+01 -0.34961953245E+02  0.43400755758E+02  0.00000000000E+00 0. -1.
         11    1    3    3    0    0 -0.13496425173E+01  0.80408242506E+00  0.20142259748E+01  0.25544451471E+01  0.51100000000E-03 0. -1.
        -11    1    3    3    0    0  0.88610378674E+01 -0.96731167551E+01  0.99034052747E+01  0.16436685072E+02  0.51100000000E-03 0.  1.
         12    1    3    3    0    0  0.17184056808E+02  0.16981160905E+01  0.23044321995E+02  0.28796114023E+02  0.00000000000E+00 0. -1.
</event>
<event>
 7    1  0.2769403E-010  0.4778727E+02  0.7816164E-02  0.1312668E+00
        -11   -1    0    0    0    0  0.00000000000E+00  0.00000000000E+00  0.45593999997E+02  0.45594000000E+02  0.51100000000E-03 0.  1.
         11   -1    0    0    0    0 -0.00000000000E+00 -0.00000000000E+00 -0.45593999997E+02  0.45594000000E+02  0.51100000000E-03 0. -1.
    9900012    2    1    2    0    0 -0.29081123232E+01 -0.16097102507E+02  0.40200117042E+02  0.47787271474E+02  0.20000001959E+02 0.  0.
         12    1    1    2    0    0  0.29081123232E+01  0.16097102507E+02 -0.40200117042E+02  0.43400728526E+02  0.00000000000E+00 0. -1.
         11    1    3    3    0    0 -0.50478682524E+01 -0.21676091527E+01  0.24224073247E+01  0.60039620952E+01  0.51100000000E-03 0. -1.
        -11    1    3    3    0    0 -0.34853755771E+01 -0.10805857990E+02  0.22382090664E+02  0.25097258666E+02  0.51100000000E-03 0.  1.
        -12    1    3    3    0    0  0.56251315064E+01 -0.31236353638E+01  0.15395619054E+02  0.16686050713E+02  0.00000000000E+00 0.  1.
</event>
<event>
 7    1  0.2769403E-010  0.4778726E+02  0.7816164E-02  0.1312668E+00
        -11   -1    0    0    0    0  0.00000000000E+00  0.00000000000E+00  0.45593999997E+02  0.45594000000E+02  0.51100000000E-03 0.  1.
         11   -1    0    0    0    0 -0.00000000000E+00 -0.00000000000E+00 -0.45593999997E+02  0.45594000000E+02  0.51100000000E-03 0. -1.
    9900012    2    1    2    0    0 -0.17997189633E+02 -0.83783177503E+01  0.38594414751E+02  0.47787263912E+02  0.19999967482E+02 0.  0.
         12    1    1    2    0    0  0.17997189633E+02  0.83783177503E+01 -0.38594414751E+02  0.43400736088E+02  0.00000000000E+00 0. -1.
         11    1    3    3    0    0 -0.85032828851E+01 -0.57932676872E+01  0.57908341661E+01  0.11806842547E+02  0.51100000000E-03 0.  1.
        -11    1    3    3    0    0  0.13185616493E+01  0.21014443910E+01  0.27750055085E+01  0.37222747326E+01  0.51100000000E-03 0. -1.
        -12    1    3    3    0    0 -0.10812468397E+02 -0.46864944541E+01  0.30028575076E+02  0.32258146633E+02  0.00000000000E+00 0.  1.
</event>
<event>
 7    1  0.2769403E-010  0.4778727E+02  0.7816164E-02  0.1312668E+00
        -11   -1    0    0    0    0  0.00000000000E+00  0.00000000000E+00  0.45593999997E+02  0.45594000000E+02  0.51100000000E-03 0.  1.
         11   -1    0    0    0    0 -0.00000000000E+00 -0.00000000000E+00 -0.45593999997E+02  0.45594000000E+02  0.51100000000E-03 0. -1.
    9900012    2    1    2    0    0 -0.18269130372E+02  0.43171074844E+01  0.39130866682E+02  0.47787271102E+02  0.20000000264E+02 0.  0.
         12    1    1    2    0    0  0.18269130372E+02 -0.43171074844E+01 -0.39130866682E+02  0.43400728898E+02  0.00000000000E+00 0. -1.
         11    1    3    3    0    0 -0.83526296748E+01 -0.29817580577E+01  0.27686402131E+02  0.29072223287E+02  0.51100000000E-03 0. -1.
        -11    1    3    3    0    0 -0.27647694456E+01  0.88708727616E+00  0.80006168992E+01  0.85112128954E+01  0.51100000000E-03 0.  1.
        -12    1    3    3    0    0 -0.71517312521E+01  0.64117782659E+01  0.34438476514E+01  0.10203834920E+02  0.00000000000E+00 0.  1.
</event>
<event>
 7    1  0.2769403E-010  0.4778726E+02  0.7816164E-02  0.1312668E+00
        -11   -1    0    0    0    0  0.00000000000E+00  0.00000000000E+00  0.45593999997E+02  0.45594000000E+02  0.51100000000E-03 0.  1.
         11   -1    0    0    0    0 -0.00000000000E+00 -0.00000000000E+00 -0.45593999997E+02  0.45594000000E+02  0.51100000000E-03 0. -1.
    9900012    2    1    2    0    0 -0.30609692948E+02  0.27745264727E+02  0.13299279367E+02  0.47787264421E+02  0.19999969800E+02 0.  0.
         12    1    1    2    0    0  0.30609692948E+02 -0.27745264727E+02 -0.13299279367E+02  0.43400735579E+02  0.00000000000E+00 0. -1.
         11    1    3    3    0    0 -0.59341715008E+01  0.11836135141E+02 -0.14452496680E+01  0.13319055272E+02  0.51100000000E-03 0. -1.
        -11    1    3    3    0    0 -0.57598193780E+01  0.10269541933E+01 -0.66696386398E+00  0.58885478040E+01  0.51100000000E-03 0.  1.
        -12    1    3    3    0    0 -0.18915702070E+02  0.14882175392E+02  0.15411492899E+02  0.28579661344E+02  0.00000000000E+00 0.  1.
</event>
<event>
 7    1  0.2769403E-010  0.4778724E+02  0.7816164E-02  0.1312668E+00
        -11   -1    0    0    0    0  0.00000000000E+00  0.00000000000E+00  0.45593999997E+02  0.45594000000E+02  0.51100000000E-03 0.  1.
         11   -1    0    0    0    0 -0.00000000000E+00 -0.00000000000E+00 -0.45593999997E+02  0.45594000000E+02  0.51100000000E-03 0. -1.
    9900012    2    1    2    0    0  0.11040436976E+02  0.30681531854E+02  0.28642242188E+02  0.47787243289E+02  0.19999873451E+02 0.  0.
         12    1    1    2    0    0 -0.11040436976E+02 -0.30681531854E+02 -0.28642242188E+02  0.43400756711E+02  0.00000000000E+00 0. -1.
         11    1    3    3    0    0  0.26406459680E+01  0.68637924820E+01  0.16040039135E+01  0.75271167906E+01  0.51100000000E-03 0. -1.
        -11    1    3    3    0    0  0.42160442770E+01  0.21654858450E+02  0.13354554730E+02  0.25788603222E+02  0.51100000000E-03 0.  1.
         12    1    3    3    0    0  0.41837467308E+01  0.21628809223E+01  0.13683683544E+02  0.14471523276E+02  0.00000000000E+00 0. -1.
</event>
<event>
 7    1  0.2769403E-010  0.4778727E+02  0.7816164E-02  0.1312668E+00
        -11   -1    0    0    0    0  0.00000000000E+00  0.00000000000E+00  0.45593999997E+02  0.45594000000E+02  0.51100000000E-03 0. -1.
         11   -1    0    0    0    0 -0.00000000000E+00 -0.00000000000E+00 -0.45593999997E+02  0.45594000000E+02  0.51100000000E-03 0.  1.
    9900012    2    1    2    0    0 -0.33959143260E+02 -0.73068421701E+01  0.26019412413E+02  0.47787272175E+02  0.20000005155E+02 0.  0.
         12    1    1    2    0    0  0.33959143260E+02  0.73068421701E+01 -0.26019412413E+02  0.43400727825E+02  0.00000000000E+00 0. -1.
         11    1    3    3    0    0 -0.27317348921E+01  0.19911214723E+01  0.24053966891E+01  0.41488400465E+01  0.51100000000E-03 0. -1.
        -11    1    3    3    0    0 -0.25073526209E+01  0.42275889913E+01  0.25194974071E+01  0.55233317201E+01  0.51100000000E-03 0.  1.
        -12    1    3    3    0    0 -0.28720055747E+02 -0.13525552634E+02  0.21094518317E+02  0.38115100408E+02  0.00000000000E+00 0.  1.
</event>
<event>
 7    1  0.2769403E-010  0.4778727E+02  0.7816164E-02  0.1312668E+00
        -11   -1    0    0    0    0  0.00000000000E+00  0.00000000000E+00  0.45593999997E+02  0.45594000000E+02  0.51100000000E-03 0.  1.
         11   -1    0    0    0    0 -0.00000000000E+00 -0.00000000000E+00 -0.45593999997E+02  0.45594000000E+02  0.51100000000E-03 0. -1.
    9900012    2    1    2    0    0 -0.25065070434E+02 -0.32420202364E+02  0.14293204433E+02  0.47787274543E+02  0.20000015952E+02 0.  0.
         12    1    1    2    0    0  0.25065070434E+02  0.32420202364E+02 -0.14293204433E+02  0.43400725457E+02  0.00000000000E+00 0. -1.
         11    1    3    3    0    0 -0.98533273989E+01 -0.49872916316E+01  0.31283709540E+01  0.11478146354E+02  0.51100000000E-03 0. -1.
        -11    1    3    3    0    0 -0.13134835869E+02 -0.21565842794E+02  0.21334399966E+01  0.25340896890E+02  0.51100000000E-03 0.  1.
         12    1    3    3    0    0 -0.20769071659E+01 -0.58670679387E+01  0.90313934827E+01  0.10968231298E+02  0.00000000000E+00 0. -1.
</event>
<event>
 7    1  0.3000944E-010  0.4778727E+02  0.7816164E-02  0.1312668E+00
        -11   -1    0    0    0    0  0.00000000000E+00  0.00000000000E+00  0.45593999997E+02  0.45594000000E+02  0.51100000000E-03 0. -1.
         11   -1    0    0    0    0 -0.00000000000E+00 -0.00000000000E+00 -0.45593999997E+02  0.45594000000E+02  0.51100000000E-03 0.  1.
    9900012    2    1    2    0    0  0.87666822897E+01 -0.38525696022E+02  0.17959387214E+02  0.47787267731E+02  0.19999984895E+02 0.  0.
         12    1    1    2    0    0 -0.87666822897E+01  0.38525696022E+02 -0.17959387214E+02  0.43400732269E+02  0.00000000000E+00 0. -1.
         11    1    3    3    0    0 -0.13994412569E+01 -0.16416623166E+02  0.10708302331E+02  0.19650233868E+02  0.51100000000E-03 0. -1.
        -11    1    3    3    0    0  0.40037906777E+01 -0.20220675713E+02  0.43412525336E+01  0.21065434719E+02  0.51100000000E-03 0.  1.
         12    1    3    3    0    0  0.61623328689E+01 -0.18883971432E+01  0.29098323501E+01  0.70715991447E+01  0.00000000000E+00 0. -1.
</event>
<event>
 7    1  0.2769403E-010  0.4778727E+02  0.7816164E-02  0.1312668E+00
        -11   -1    0    0    0    0  0.00000000000E+00  0.00000000000E+00  0.45593999997E+02  0.45594000000E+02  0.51100000000E-03 0.  1.
         11   -1    0    0    0    0 -0.00000000000E+00 -0.00000000000E+00 -0.45593999997E+02  0.45594000000E+02  0.51100000000E-03 0. -1.
    9900012    2    1    2    0    0  0.12408544753E+02 -0.58505138531E+01  0.41175512388E+02  0.47787270563E+02  0.19999997804E+02 0.  0.
         12    1    1    2    0    0 -0.12408544753E+02  0.58505138531E+01 -0.41175512388E+02  0.43400729437E+02  0.00000000000E+00 0. -1.
         11    1    3    3    0    0  0.76219090674E+01  0.19881775930E+01  0.13315237198E+02  0.15470678391E+02  0.51100000000E-03 0. -1.
        -11    1    3    3    0    0  0.87302272195E+01 -0.34383665058E+01  0.22339338915E+02  0.24229843065E+02  0.51100000000E-03 0.  1.
         12    1    3    3    0    0 -0.39435915337E+01 -0.44003249403E+01  0.55209362762E+01  0.80867491077E+01  0.00000000000E+00 0. -1.
</event>
<event>
 7    1  0.2769403E-010  0.4778727E+02  0.7816164E-02  0.1312668E+00
        -11   -1    0    0    0    0  0.00000000000E+00  0.00000000000E+00  0.45593999997E+02  0.45594000000E+02  0.51100000000E-03 0.  1.
         11   -1    0    0    0    0 -0.00000000000E+00 -0.00000000000E+00 -0.45593999997E+02  0.45594000000E+02  0.51100000000E-03 0. -1.
    9900012    2    1    2    0    0 -0.28561986485E+02 -0.14776563621E+02  0.29146005738E+02  0.47787267807E+02  0.19999985240E+02 0.  0.
         12    1    1    2    0    0  0.28561986485E+02  0.14776563621E+02 -0.29146005738E+02  0.43400732193E+02  0.00000000000E+00 0. -1.
         11    1    3    3    0    0 -0.53206243175E+01 -0.58554058002E+01  0.21471477063E+01  0.81978694639E+01  0.51100000000E-03 0. -1.
        -11    1    3    3    0    0 -0.21593929285E+02 -0.12344242824E+02  0.21336645456E+02  0.32770879641E+02  0.51100000000E-03 0.  1.
        -12    1    3    3    0    0 -0.16474328816E+01  0.34230850031E+01  0.56622125761E+01  0.68185187024E+01  0.00000000000E+00 0.  1.
</event>
<event>
 7    1  0.2769403E-010  0.4778727E+02  0.7816164E-02  0.1312668E+00
        -11   -1    0    0    0    0  0.00000000000E+00  0.00000000000E+00  0.45593999997E+02  0.45594000000E+02  0.51100000000E-03 0.  1.
         11   -1    0    0    0    0 -0.00000000000E+00 -0.00000000000E+00 -0.45593999997E+02  0.45594000000E+02  0.51100000000E-03 0. -1.
    9900012    2    1    2    0    0 -0.43211769528E+02 -0.39888112936E+01 -0.67511345048E+00  0.47787269367E+02  0.19999992353E+02 0.  0.
         12    1    1    2    0    0  0.43211769528E+02  0.39888112936E+01  0.67511345048E+00  0.43400730633E+02  0.00000000000E+00 0. -1.
         11    1    3    3    0    0 -0.10714950073E+02  0.10826123381E+01 -0.20882753219E+01  0.10970100210E+02  0.51100000000E-03 0. -1.
        -11    1    3    3    0    0 -0.28529178037E+02 -0.96946219467E+01  0.35969346819E+01  0.30345306615E+02  0.51100000000E-03 0.  1.
        -12    1    3    3    0    0 -0.39676414176E+01  0.46231983150E+01 -0.21837728105E+01  0.64718625423E+01  0.00000000000E+00 0.  1.
</event>
<event>
 7    1  0.2769403E-010  0.4778727E+02  0.7816164E-02  0.1312668E+00
        -11   -1    0    0    0    0  0.00000000000E+00  0.00000000000E+00  0.45593999997E+02  0.45594000000E+02  0.51100000000E-03 0. -1.
         11   -1    0    0    0    0 -0.00000000000E+00 -0.00000000000E+00 -0.45593999997E+02  0.45594000000E+02  0.51100000000E-03 0.  1.
    9900012    2    1    2    0    0 -0.71113368404E+01  0.13725903226E+02 -0.40554304437E+02  0.47787272593E+02  0.20000007062E+02 0.  0.
         12    1    1    2    0    0  0.71113368404E+01 -0.13725903226E+02  0.40554304437E+02  0.43400727407E+02  0.00000000000E+00 0. -1.
         11    1    3    3    0    0 -0.93675489474E+01 -0.28995917228E+00 -0.10550558544E+02  0.14112028042E+02  0.51100000000E-03 0. -1.
        -11    1    3    3    0    0 -0.18502390745E+01  0.32110761677E+01 -0.64742095322E+01  0.74598782910E+01  0.51100000000E-03 0.  1.
         12    1    3    3    0    0  0.41064511815E+01  0.10804786231E+02 -0.23529536361E+02  0.26215366261E+02  0.00000000000E+00 0. -1.
</event>
<event>
 7    1  0.2769403E-010  0.4778727E+02  0.7816164E-02  0.1312668E+00
        -11   -1    0    0    0    0  0.00000000000E+00  0.00000000000E+00  0.45593999997E+02  0.45594000000E+02  0.51100000000E-03 0. -1.
         11   -1    0    0    0    0 -0.00000000000E+00 -0.00000000000E+00 -0.45593999997E+02  0.45594000000E+02  0.51100000000E-03 0.  1.
    9900012    2    1    2    0    0 -0.37653716050E+02 -0.21563961508E+02 -0.90362705678E+00  0.47787270626E+02  0.19999998094E+02 0.  0.
         12    1    1    2    0    0  0.37653716050E+02  0.21563961508E+02  0.90362705678E+00  0.43400729374E+02  0.00000000000E+00 0. -1.
         11    1    3    3    0    0 -0.49509468710E+01 -0.23182894481E+01  0.41648316246E+01  0.68725660133E+01  0.51100000000E-03 0. -1.
        -11    1    3    3    0    0 -0.78603335154E+01  0.13945424731E+01  0.10193734030E+01  0.80479012220E+01  0.51100000000E-03 0.  1.
         12    1    3    3    0    0 -0.24842435664E+02 -0.20640214533E+02 -0.60878320844E+01  0.32866803391E+02  0.00000000000E+00 0. -1.
</event>
<event>
 7    1  0.2769403E-010  0.4778728E+02  0.7816164E-02  0.1312668E+00
        -11   -1    0    0    0    0  0.00000000000E+00  0.00000000000E+00  0.45593999997E+02  0.45594000000E+02  0.51100000000E-03 0.  1.
         11   -1    0    0    0    0 -0.00000000000E+00 -0.00000000000E+00 -0.45593999997E+02  0.45594000000E+02  0.51100000000E-03 0. -1.
    9900012    2    1    2    0    0 -0.23647890338E+02  0.35000235657E+02  0.99691368367E+01  0.47787275320E+02  0.20000019494E+02 0.  0.
         12    1    1    2    0    0  0.23647890338E+02 -0.35000235657E+02 -0.99691368367E+01  0.43400724680E+02  0.00000000000E+00 0. -1.
         11    1    3    3    0    0 -0.71712535326E-01 -0.14268070939E-01  0.14592680552E+01  0.14610988275E+01  0.51100000000E-03 0. -1.
        -11    1    3    3    0    0 -0.15696670656E+02  0.28943375469E+02  0.13017149083E+02  0.35405516855E+02  0.51100000000E-03 0.  1.
        -12    1    3    3    0    0 -0.78795071468E+01  0.60711282585E+01 -0.45072803017E+01  0.10920659638E+02  0.00000000000E+00 0.  1.
</event>
<event>
 7    1  0.2769403E-010  0.4778728E+02  0.7816164E-02  0.1312668E+00
        -11   -1    0    0    0    0  0.00000000000E+00  0.00000000000E+00  0.45593999997E+02  0.45594000000E+02  0.51100000000E-03 0.  1.
         11   -1    0    0    0    0 -0.00000000000E+00 -0.00000000000E+00 -0.45593999997E+02  0.45594000000E+02  0.51100000000E-03 0. -1.
    9900012    2    1    2    0    0 -0.39981537179E+02  0.11199273702E+02  0.12636267750E+02  0.47787282157E+02  0.20000050665E+02 0.  0.
         12    1    1    2    0    0  0.39981537179E+02 -0.11199273702E+02 -0.12636267750E+02  0.43400717843E+02  0.00000000000E+00 0. -1.
         11    1    3    3    0    0 -0.15564587297E+02  0.63911670963E+01  0.60071435919E+00  0.16836396663E+02  0.51100000000E-03 0. -1.
        -11    1    3    3    0    0 -0.33318529139E+01 -0.27936850547E+01 -0.16940748769E+01  0.46664558258E+01  0.51100000000E-03 0.  1.
        -12    1    3    3    0    0 -0.21085096968E+02  0.76017916602E+01  0.13729628268E+02  0.26284429668E+02  0.00000000000E+00 0.  1.
</event>
<event>
 7    1  0.2769403E-010  0.4778727E+02  0.7816164E-02  0.1312668E+00
        -11   -1    0    0    0    0  0.00000000000E+00  0.00000000000E+00  0.45593999997E+02  0.45594000000E+02  0.51100000000E-03 0.  1.
         11   -1    0    0    0    0 -0.00000000000E+00 -0.00000000000E+00 -0.45593999997E+02  0.45594000000E+02  0.51100000000E-03 0. -1.
    9900012    2    1    2    0    0  0.41624273289E+02 -0.12282487399E+02  0.42872987024E+00  0.47787269213E+02  0.19999991649E+02 0.  0.
         12    1    1    2    0    0 -0.41624273289E+02  0.12282487399E+02 -0.42872987024E+00  0.43400730787E+02  0.00000000000E+00 0. -1.
         11    1    3    3    0    0  0.46039801795E+01 -0.43489395612E+01 -0.77083671694E+00  0.63799763562E+01  0.51100000000E-03 0. -1.
        -11    1    3    3    0    0  0.23391218258E+02 -0.69708552385E+01 -0.71018669425E+01  0.25420039903E+02  0.51100000000E-03 0.  1.
         12    1    3    3    0    0  0.13629074852E+02 -0.96269259946E+00  0.83014335297E+01  0.15987252954E+02  0.00000000000E+00 0. -1.
</event>
<event>
 7    1  0.2769403E-010  0.4778727E+02  0.7816164E-02  0.1312668E+00
        -11   -1    0    0    0    0  0.00000000000E+00  0.00000000000E+00  0.45593999997E+02  0.45594000000E+02  0.51100000000E-03 0.  1.
         11   -1    0    0    0    0 -0.00000000000E+00 -0.00000000000E+00 -0.45593999997E+02  0.45594000000E+02  0.51100000000E-03 0. -1.
    9900012    2    1    2    0    0  0.21897369273E+02 -0.30357323680E+02 -0.21967277150E+02  0.47787272501E+02  0.20000006639E+02 0.  0.
         12    1    1    2    0    0 -0.21897369273E+02  0.30357323680E+02  0.21967277150E+02  0.43400727499E+02  0.00000000000E+00 0. -1.
         11    1    3    3    0    0  0.72334955009E+01 -0.57260201099E+01 -0.41563946434E+01  0.10118615526E+02  0.51100000000E-03 0. -1.
        -11    1    3    3    0    0  0.12330715190E+02 -0.79252083863E+01 -0.24637261193E+01  0.14863559860E+02  0.51100000000E-03 0.  1.
         12    1    3    3    0    0  0.23331585828E+01 -0.16706095183E+02 -0.15347156388E+02  0.22805097115E+02  0.00000000000E+00 0. -1.
</event>
<event>
 7    1  0.2769403E-010  0.4778727E+02  0.7816164E-02  0.1312668E+00
        -11   -1    0    0    0    0  0.00000000000E+00  0.00000000000E+00  0.45593999997E+02  0.45594000000E+02  0.51100000000E-03 0.  1.
         11   -1    0    0    0    0 -0.00000000000E+00 -0.00000000000E+00 -0.45593999997E+02  0.45594000000E+02  0.51100000000E-03 0. -1.
    9900012    2    1    2    0    0  0.17135716104E+02 -0.50848395131E+01  0.39549146107E+02  0.47787270547E+02  0.19999997731E+02 0.  0.
         12    1    1    2    0    0 -0.17135716104E+02  0.50848395131E+01 -0.39549146107E+02  0.43400729453E+02  0.00000000000E+00 0. -1.
         11    1    3    3    0    0  0.51270989140E+01 -0.14028438364E+01  0.17976888428E+02  0.18746296485E+02  0.51100000000E-03 0. -1.
        -11    1    3    3    0    0  0.11083336436E+02  0.38942803843E+01  0.11924892807E+02  0.16739439507E+02  0.51100000000E-03 0.  1.
         12    1    3    3    0    0  0.92528075340E+00 -0.75762760611E+01  0.96473648726E+01  0.12301534555E+02  0.00000000000E+00 0. -1.
</event>
<event>
 7    1  0.2769403E-010  0.4778727E+02  0.7816164E-02  0.1312668E+00
        -11   -1    0    0    0    0  0.00000000000E+00  0.00000000000E+00  0.45593999997E+02  0.45594000000E+02  0.51100000000E-03 0.  1.
         11   -1    0    0    0    0 -0.00000000000E+00 -0.00000000000E+00 -0.45593999997E+02  0.45594000000E+02  0.51100000000E-03 0. -1.
    9900012    2    1    2    0    0 -0.31241000403E+02 -0.15113489280E+02  0.26061573951E+02  0.47787270729E+02  0.19999998563E+02 0.  0.
         12    1    1    2    0    0  0.31241000403E+02  0.15113489280E+02 -0.26061573951E+02  0.43400729271E+02  0.00000000000E+00 0. -1.
         11    1    3    3    0    0 -0.92250767963E+01 -0.34721519856E+01  0.80571363224E+01  0.12730880853E+02  0.51100000000E-03 0.  1.
        -11    1    3    3    0    0 -0.88445479593E+01 -0.38685398208E+01 -0.20169119368E+01  0.98620263116E+01  0.51100000000E-03 0. -1.
         12    1    3    3    0    0 -0.13171375647E+02 -0.77727974738E+01  0.20021349566E+02  0.25194363565E+02  0.00000000000E+00 0. -1.
</event>
<event>
 7    1  0.2769403E-010  0.4778727E+02  0.7816164E-02  0.1312668E+00
        -11   -1    0    0    0    0  0.00000000000E+00  0.00000000000E+00  0.45593999997E+02  0.45594000000E+02  0.51100000000E-03 0.  1.
         11   -1    0    0    0    0 -0.00000000000E+00 -0.00000000000E+00 -0.45593999997E+02  0.45594000000E+02  0.51100000000E-03 0. -1.
    9900012    2    1    2    0    0 -0.34483872432E+02 -0.19705763867E+02  0.17497678228E+02  0.47787270388E+02  0.19999997006E+02 0.  0.
         12    1    1    2    0    0  0.34483872432E+02  0.19705763867E+02 -0.17497678228E+02  0.43400729612E+02  0.00000000000E+00 0. -1.
         11    1    3    3    0    0 -0.21963695448E+02 -0.18181623852E+02  0.52959522749E+01  0.29000387487E+02  0.51100000000E-03 0. -1.
        -11    1    3    3    0    0  0.69735870566E+00 -0.37403958849E+00  0.16681587722E+01  0.18463392778E+01  0.51100000000E-03 0.  1.
         12    1    3    3    0    0 -0.13217535690E+02 -0.11501004270E+01  0.10533567181E+02  0.16940543624E+02  0.00000000000E+00 0. -1.
</event>
<event>
 7    1  0.2769403E-010  0.4778727E+02  0.7816164E-02  0.1312668E+00
        -11   -1    0    0    0    0  0.00000000000E+00  0.00000000000E+00  0.45593999997E+02  0.45594000000E+02  0.51100000000E-03 0. -1.
         11   -1    0    0    0    0 -0.00000000000E+00 -0.00000000000E+00 -0.45593999997E+02  0.45594000000E+02  0.51100000000E-03 0.  1.
    9900012    2    1    2    0    0  0.28429915414E+02 -0.18396043099E+02 -0.27146804422E+02  0.47787268641E+02  0.19999989042E+02 0.  0.
         12    1    1    2    0    0 -0.28429915414E+02  0.18396043099E+02  0.27146804422E+02  0.43400731359E+02  0.00000000000E+00 0. -1.
         11    1    3    3    0    0  0.63417137466E+01  0.23263851902E+01 -0.86893295243E+01  0.11006082370E+02  0.51100000000E-03 0. -1.
        -11    1    3    3    0    0  0.38268362432E+01 -0.71385909810E+01 -0.11338164246E+01  0.81786121544E+01  0.51100000000E-03 0.  1.
        -12    1    3    3    0    0  0.18261365425E+02 -0.13583837308E+02 -0.17323658473E+02  0.28602574116E+02  0.00000000000E+00 0.  1.
</event>
<event>
 7    1  0.2769403E-010  0.4778727E+02  0.7816164E-02  0.1312668E+00
        -11   -1    0    0    0    0  0.00000000000E+00  0.00000000000E+00  0.45593999997E+02  0.45594000000E+02  0.51100000000E-03 0.  1.
         11   -1    0    0    0    0 -0.00000000000E+00 -0.00000000000E+00 -0.45593999997E+02  0.45594000000E+02  0.51100000000E-03 0. -1.
    9900012    2    1    2    0    0 -0.14093584161E+02  0.33530322401E+02  0.23679348552E+02  0.47787272096E+02  0.20000004792E+02 0.  0.
         12    1    1    2    0    0  0.14093584161E+02 -0.33530322401E+02 -0.23679348552E+02  0.43400727904E+02  0.00000000000E+00 0. -1.
         11    1    3    3    0    0 -0.63129251272E+01  0.17698126852E+02  0.11124242836E+02  0.21836334323E+02  0.51100000000E-03 0. -1.
        -11    1    3    3    0    0 -0.10891649339E+02  0.16252000614E+02  0.10572715874E+02  0.22238207448E+02  0.51100000000E-03 0.  1.
         12    1    3    3    0    0  0.31109903057E+01 -0.41980506549E+00  0.19823898425E+01  0.37127303246E+01  0.00000000000E+00 0. -1.
</event>
<event>
 7    1  0.2769403E-010  0.4778727E+02  0.7816164E-02  0.1312668E+00
        -11   -1    0    0    0    0  0.00000000000E+00  0.00000000000E+00  0.45593999997E+02  0.45594000000E+02  0.51100000000E-03 0.  1.
         11   -1    0    0    0    0 -0.00000000000E+00 -0.00000000000E+00 -0.45593999997E+02  0.45594000000E+02  0.51100000000E-03 0. -1.
    9900012    2    1    2    0    0 -0.50242769901E+01  0.37430383612E+02  0.21385653546E+02  0.47787272423E+02  0.20000006286E+02 0.  0.
         12    1    1    2    0    0  0.50242769901E+01 -0.37430383612E+02 -0.21385653546E+02  0.43400727577E+02  0.00000000000E+00 0. -1.
         11    1    3    3    0    0  0.91630704695E+00  0.60104678325E+01  0.50293925182E+01  0.78905089528E+01  0.51100000000E-03 0.  1.
        -11    1    3    3    0    0 -0.13767232615E+00  0.19117558293E+02  0.66376587732E+00  0.19129573287E+02  0.51100000000E-03 0. -1.
         12    1    3    3    0    0 -0.58029117109E+01  0.12302357486E+02  0.15692495151E+02  0.20767190183E+02  0.00000000000E+00 0. -1.
</event>
<event>
 7    1  0.2769403E-010  0.4778727E+02  0.7816164E-02  0.1312668E+00
        -11   -1    0    0    0    0  0.00000000000E+00  0.00000000000E+00  0.45593999997E+02  0.45594000000E+02  0.51100000000E-03 0.  1.
         11   -1    0    0    0    0 -0.00000000000E+00 -0.00000000000E+00 -0.45593999997E+02  0.45594000000E+02  0.51100000000E-03 0. -1.
    9900012    2    1    2    0    0 -0.35679779070E+02 -0.18941533098E+02  0.15868045698E+02  0.47787272070E+02  0.20000004675E+02 0.  0.
         12    1    1    2    0    0  0.35679779070E+02  0.18941533098E+02 -0.15868045698E+02  0.43400727930E+02  0.00000000000E+00 0. -1.
         11    1    3    3    0    0 -0.22201209256E+02 -0.16077180974E+02  0.36603069207E+01  0.27654426183E+02  0.51100000000E-03 0. -1.
        -11    1    3    3    0    0 -0.98952903077E+01 -0.54889026977E+01  0.70763442806E+01  0.13346140706E+02  0.51100000000E-03 0.  1.
         12    1    3    3    0    0 -0.35832795064E+01  0.26245505736E+01  0.51313944963E+01  0.67867051808E+01  0.00000000000E+00 0. -1.
</event>
<event>
 7    1  0.2769403E-010  0.4778727E+02  0.7816164E-02  0.1312668E+00
        -11   -1    0    0    0    0  0.00000000000E+00  0.00000000000E+00  0.45593999997E+02  0.45594000000E+02  0.51100000000E-03 0.  1.
         11   -1    0    0    0    0 -0.00000000000E+00 -0.00000000000E+00 -0.45593999997E+02  0.45594000000E+02  0.51100000000E-03 0. -1.
    9900012    2    1    2    0    0  0.19974110449E+02  0.30841011228E+02 -0.23097415637E+02  0.47787266470E+02  0.19999979145E+02 0.  0.
         12    1    1    2    0    0 -0.19974110449E+02 -0.30841011228E+02  0.23097415637E+02  0.43400733530E+02  0.00000000000E+00 0. -1.
         11    1    3    3    0    0  0.19036720484E+01  0.10941952075E+02 -0.34842109387E+01  0.11640017551E+02  0.51100000000E-03 0. -1.
        -11    1    3    3    0    0  0.96264368647E+01  0.61594582067E+01 -0.92946797836E+00  0.11466085779E+02  0.51100000000E-03 0.  1.
        -12    1    3    3    0    0  0.84440015357E+01  0.13739600947E+02 -0.18683736720E+02  0.24681163140E+02  0.00000000000E+00 0.  1.
</event>
<event>
 7    1  0.2769403E-010  0.4778727E+02  0.7816164E-02  0.1312668E+00
        -11   -1    0    0    0    0  0.00000000000E+00  0.00000000000E+00  0.45593999997E+02  0.45594000000E+02  0.51100000000E-03 0.  1.
         11   -1    0    0    0    0 -0.00000000000E+00 -0.00000000000E+00 -0.45593999997E+02  0.45594000000E+02  0.51100000000E-03 0. -1.
    9900012    2    1    2    0    0  0.42743204454E+02 -0.34597212887E+01  0.66837310448E+01  0.47787268911E+02  0.19999990273E+02 0.  0.
         12    1    1    2    0    0 -0.42743204454E+02  0.34597212887E+01 -0.66837310448E+01  0.43400731089E+02  0.00000000000E+00 0. -1.
         11    1    3    3    0    0  0.25375269166E+01  0.10670589966E+01  0.57823576169E+01  0.64041640848E+01  0.51100000000E-03 0. -1.
        -11    1    3    3    0    0  0.22030513554E+02  0.18593298977E+01  0.48838644513E+00  0.22114229733E+02  0.51100000000E-03 0.  1.
        -12    1    3    3    0    0  0.18175163984E+02 -0.63861101829E+01  0.41298698273E+00  0.19268875093E+02  0.00000000000E+00 0.  1.
</event>
<event>
 7    1  0.2769403E-010  0.4778727E+02  0.7816164E-02  0.1312668E+00
        -11   -1    0    0    0    0  0.00000000000E+00  0.00000000000E+00  0.45593999997E+02  0.45594000000E+02  0.51100000000E-03 0. -1.
         11   -1    0    0    0    0 -0.00000000000E+00 -0.00000000000E+00 -0.45593999997E+02  0.45594000000E+02  0.51100000000E-03 0.  1.
    9900012    2    1    2    0    0  0.41984839590E+02 -0.84190110140E+01 -0.70722465813E+01  0.47787272200E+02  0.20000005268E+02 0.  0.
         12    1    1    2    0    0 -0.41984839590E+02  0.84190110140E+01  0.70722465813E+01  0.43400727800E+02  0.00000000000E+00 0. -1.
         11    1    3    3    0    0  0.65646811678E+01 -0.17075290001E+01  0.30923684870E+00  0.67901636071E+01  0.51100000000E-03 0.  1.
        -11    1    3    3    0    0  0.14793642933E+02 -0.11894703681E+02 -0.22194161790E+01  0.19111819781E+02  0.51100000000E-03 0. -1.
         12    1    3    3    0    0  0.20626515490E+02  0.51832216674E+01 -0.51620672510E+01  0.21885288812E+02  0.00000000000E+00 0. -1.
</event>
<event>
 7    1  0.2769403E-010  0.4778727E+02  0.7816164E-02  0.1312668E+00
        -11   -1    0    0    0    0  0.00000000000E+00  0.00000000000E+00  0.45593999997E+02  0.45594000000E+02  0.51100000000E-03 0.  1.
         11   -1    0    0    0    0 -0.00000000000E+00 -0.00000000000E+00 -0.45593999997E+02  0.45594000000E+02  0.51100000000E-03 0. -1.
    9900012    2    1    2    0    0 -0.20265327157E+02 -0.37985995407E+02  0.54776304482E+01  0.47787265361E+02  0.19999974088E+02 0.  0.
         12    1    1    2    0    0  0.20265327157E+02  0.37985995407E+02 -0.54776304482E+01  0.43400734639E+02  0.00000000000E+00 0. -1.
         11    1    3    3    0    0 -0.34389531647E+01  0.88533108538E+00  0.18810736957E+00  0.35560644881E+01  0.51100000000E-03 0.  1.
        -11    1    3    3    0    0 -0.19332873233E+01 -0.11182782601E+02 -0.29576352526E+01  0.11727737767E+02  0.51100000000E-03 0. -1.
        -12    1    3    3    0    0 -0.14893086669E+02 -0.27688543892E+02  0.82471583312E+01  0.32503463106E+02  0.00000000000E+00 0.  1.
</event>
<event>
 7    1  0.2769403E-010  0.4778727E+02  0.7816164E-02  0.1312668E+00
        -11   -1    0    0    0    0  0.00000000000E+00  0.00000000000E+00  0.45593999997E+02  0.45594000000E+02  0.51100000000E-03 0.  1.
         11   -1    0    0    0    0 -0.00000000000E+00 -0.00000000000E+00 -0.45593999997E+02  0.45594000000E+02  0.51100000000E-03 0. -1.
    9900012    2    1    2    0    0 -0.25869753522E+02 -0.34696760661E+02 -0.32424900944E+01  0.47787273167E+02  0.20000009678E+02 0.  0.
         12    1    1    2    0    0  0.25869753522E+02  0.34696760661E+02  0.32424900944E+01  0.43400726833E+02  0.00000000000E+00 0. -1.
         11    1    3    3    0    0 -0.11013747021E+02 -0.59587879241E+01 -0.29167325944E+01  0.12857569998E+02  0.51100000000E-03 0. -1.
        -11    1    3    3    0    0 -0.11878453052E+02 -0.97030651961E+01  0.22136427088E+01  0.15496687885E+02  0.51100000000E-03 0.  1.
         12    1    3    3    0    0 -0.29775534494E+01 -0.19034907540E+02 -0.25394002088E+01  0.19433015284E+02  0.00000000000E+00 0. -1.
</event>
<event>
 7    1  0.2769403E-010  0.4778725E+02  0.7816164E-02  0.1312668E+00
        -11   -1    0    0    0    0  0.00000000000E+00  0.00000000000E+00  0.45593999997E+02  0.45594000000E+02  0.51100000000E-03 0.  1.
         11   -1    0    0    0    0 -0.00000000000E+00 -0.00000000000E+00 -0.45593999997E+02  0.45594000000E+02  0.51100000000E-03 0. -1.
    9900012    2    1    2    0    0  0.37044873840E+02 -0.22151761584E+02  0.45389046537E+01  0.47787252604E+02  0.19999915922E+02 0.  0.
         12    1    1    2    0    0 -0.37044873840E+02  0.22151761584E+02 -0.45389046537E+01  0.43400747396E+02  0.00000000000E+00 0. -1.
         11    1    3    3    0    0  0.13541533552E+02 -0.43584804411E+01 -0.24121076905E+01  0.14428712572E+02  0.51100000000E-03 0. -1.
        -11    1    3    3    0    0  0.81528249431E+01 -0.45047880225E+01  0.89998320746E+01  0.12952167669E+02  0.51100000000E-03 0.  1.
        -12    1    3    3    0    0  0.15350515344E+02 -0.13288493121E+02 -0.20488197304E+01  0.20406372364E+02  0.00000000000E+00 0.  1.
</event>
<event>
 7    1  0.2769403E-010  0.4778727E+02  0.7816164E-02  0.1312668E+00
        -11   -1    0    0    0    0  0.00000000000E+00  0.00000000000E+00  0.45593999997E+02  0.45594000000E+02  0.51100000000E-03 0.  1.
         11   -1    0    0    0    0 -0.00000000000E+00 -0.00000000000E+00 -0.45593999997E+02  0.45594000000E+02  0.51100000000E-03 0. -1.
    9900012    2    1    2    0    0  0.15519288032E+02 -0.34832034273E+02  0.20724497327E+02  0.47787266112E+02  0.19999977509E+02 0.  0.
         12    1    1    2    0    0 -0.15519288032E+02  0.34832034273E+02 -0.20724497327E+02  0.43400733888E+02  0.00000000000E+00 0. -1.
         11    1    3    3    0    0 -0.32703178813E+00 -0.95971487558E+00  0.29071403091E+01  0.30788743837E+01  0.51100000000E-03 0. -1.
        -11    1    3    3    0    0  0.57339487014E+00 -0.53181093205E+01  0.10085197733E+02  0.11415878503E+02  0.51100000000E-03 0.  1.
         12    1    3    3    0    0  0.15272924950E+02 -0.28554210077E+02  0.77321592853E+01  0.33292513225E+02  0.00000000000E+00 0. -1.
</event>
<event>
 7    1  0.2769403E-010  0.4778727E+02  0.7816164E-02  0.1312668E+00
        -11   -1    0    0    0    0  0.00000000000E+00  0.00000000000E+00  0.45593999997E+02  0.45594000000E+02  0.51100000000E-03 0.  1.
         11   -1    0    0    0    0 -0.00000000000E+00 -0.00000000000E+00 -0.45593999997E+02  0.45594000000E+02  0.51100000000E-03 0. -1.
    9900012    2    1    2    0    0 -0.22780003463E+02 -0.33105498002E+02  0.16392702705E+02  0.47787271231E+02  0.20000000849E+02 0.  0.
         12    1    1    2    0    0  0.22780003463E+02  0.33105498002E+02 -0.16392702705E+02  0.43400728769E+02  0.00000000000E+00 0. -1.
         11    1    3    3    0    0 -0.11596522996E+02 -0.53782250990E+01  0.20952529899E+01  0.12953560752E+02  0.51100000000E-03 0. -1.
        -11    1    3    3    0    0  0.15189361355E+01 -0.19923095733E+01  0.31992069608E+01  0.40634209551E+01  0.51100000000E-03 0.  1.
        -12    1    3    3    0    0 -0.12702416603E+02 -0.25734963329E+02  0.11098242755E+02  0.30770289523E+02  0.00000000000E+00 0.  1.
</event>
<event>
 7    1  0.2769403E-010  0.4778728E+02  0.7816164E-02  0.1312668E+00
        -11   -1    0    0    0    0  0.00000000000E+00  0.00000000000E+00  0.45593999997E+02  0.45594000000E+02  0.51100000000E-03 0.  1.
         11   -1    0    0    0    0 -0.00000000000E+00 -0.00000000000E+00 -0.45593999997E+02  0.45594000000E+02  0.51100000000E-03 0. -1.
    9900012    2    1    2    0    0 -0.37667930343E+02 -0.62570137803E+01  0.20630068205E+02  0.47787275214E+02  0.20000019013E+02 0.  0.
         12    1    1    2    0    0  0.37667930343E+02  0.62570137803E+01 -0.20630068205E+02  0.43400724786E+02  0.00000000000E+00 0. -1.
         11    1    3    3    0    0 -0.54671298580E+01 -0.13616416712E+01  0.20956842714E+00  0.56380400949E+01  0.51100000000E-03 0. -1.
        -11    1    3    3    0    0 -0.26126897235E+01 -0.62150091534E+01  0.67110154261E+01  0.95126344763E+01  0.51100000000E-03 0.  1.
         12    1    3    3    0    0 -0.29588110761E+02  0.13196370443E+01  0.13709484352E+02  0.32636600643E+02  0.00000000000E+00 0. -1.
</event>
<event>
 7    1  0.3680350E-010  0.4778732E+02  0.7816164E-02  0.1312668E+00
        -11   -1    0    0    0    0  0.00000000000E+00  0.00000000000E+00  0.45593999997E+02  0.45594000000E+02  0.51100000000E-03 0. -1.
         11   -1    0    0    0    0 -0.00000000000E+00 -0.00000000000E+00 -0.45593999997E+02  0.45594000000E+02  0.51100000000E-03 0.  1.
    9900012    2    1    2    0    0  0.21363406315E+02  0.31482358283E+02 -0.20882641597E+02  0.47787323364E+02  0.20000238544E+02 0.  0.
         12    1    1    2    0    0 -0.21363406315E+02 -0.31482358283E+02  0.20882641597E+02  0.43400676636E+02  0.00000000000E+00 0. -1.
         11    1    3    3    0    0  0.32235802688E+01  0.88344658775E+01  0.75570031073E+00  0.94345291515E+01  0.51100000000E-03 0. -1.
        -11    1    3    3    0    0  0.15936174645E+02  0.20494952708E+02 -0.12706020928E+02  0.28904112456E+02  0.51100000000E-03 0.  1.
         12    1    3    3    0    0  0.22036514006E+01  0.21529396974E+01 -0.89323209800E+01  0.94486817559E+01  0.00000000000E+00 0. -1.
</event>
<event>
 7    1  0.2769403E-010  0.4778730E+02  0.7816164E-02  0.1312668E+00
        -11   -1    0    0    0    0  0.00000000000E+00  0.00000000000E+00  0.45593999997E+02  0.45594000000E+02  0.51100000000E-03 0. -1.
         11   -1    0    0    0    0 -0.00000000000E+00 -0.00000000000E+00 -0.45593999997E+02  0.45594000000E+02  0.51100000000E-03 0.  1.
    9900012    2    1    2    0    0  0.67021178314E+01  0.34008496603E+02 -0.26117522099E+02  0.47787295107E+02  0.20000109712E+02 0.  0.
         12    1    1    2    0    0 -0.67021178314E+01 -0.34008496603E+02  0.26117522099E+02  0.43400704893E+02  0.00000000000E+00 0. -1.
         11    1    3    3    0    0 -0.99970515125E+00  0.88956792893E+01 -0.71493825698E+01  0.11456273033E+02  0.51100000000E-03 0. -1.
        -11    1    3    3    0    0  0.70517911652E+01  0.27112033816E+02 -0.19536208787E+02  0.34153383292E+02  0.51100000000E-03 0.  1.
         12    1    3    3    0    0  0.65003181744E+00 -0.19992165024E+01  0.56806925746E+00  0.21776387828E+01  0.00000000000E+00 0. -1.
</event>
<event>
 7    1  0.2769403E-010  0.4778727E+02  0.7816164E-02  0.1312668E+00
        -11   -1    0    0    0    0  0.00000000000E+00  0.00000000000E+00  0.45593999997E+02  0.45594000000E+02  0.51100000000E-03 0.  1.
         11   -1    0    0    0    0 -0.00000000000E+00 -0.00000000000E+00 -0.45593999997E+02  0.45594000000E+02  0.51100000000E-03 0. -1.
    9900012    2    1    2    0    0 -0.39431789787E+02 -0.16173332088E+02  0.81963643063E+01  0.47787272996E+02  0.20000008898E+02 0.  0.
         12    1    1    2    0    0  0.39431789787E+02  0.16173332088E+02 -0.81963643063E+01  0.43400727004E+02  0.00000000000E+00 0. -1.
         11    1    3    3    0    0 -0.76457868869E+01 -0.40529639563E+01  0.15376122397E+01  0.87891311067E+01  0.51100000000E-03 0. -1.
        -11    1    3    3    0    0 -0.11880363743E+02 -0.38849871938E+01  0.11426141842E+02  0.16934960461E+02  0.51100000000E-03 0.  1.
         12    1    3    3    0    0 -0.19905639157E+02 -0.82353809376E+01 -0.47673897757E+01  0.22063181428E+02  0.00000000000E+00 0. -1.
</event>
<event>
 7    1  0.2769403E-010  0.4778727E+02  0.7816164E-02  0.1312668E+00
        -11   -1    0    0    0    0  0.00000000000E+00  0.00000000000E+00  0.45593999997E+02  0.45594000000E+02  0.51100000000E-03 0.  1.
         11   -1    0    0    0    0 -0.00000000000E+00 -0.00000000000E+00 -0.45593999997E+02  0.45594000000E+02  0.51100000000E-03 0. -1.
    9900012    2    1    2    0    0 -0.49048873951E+01 -0.33404725285E+02  0.27270670830E+02  0.47787273287E+02  0.20000010223E+02 0.  0.
         12    1    1    2    0    0  0.49048873951E+01  0.33404725285E+02 -0.27270670830E+02  0.43400726713E+02  0.00000000000E+00 0. -1.
         11    1    3    3    0    0 -0.85746391683E+00  0.72668773693E+00  0.41792587714E+01  0.43277619591E+01  0.51100000000E-03 0. -1.
        -11    1    3    3    0    0 -0.78047492996E+01 -0.15792748725E+02  0.14706005986E+02  0.22947584541E+02  0.51100000000E-03 0.  1.
        -12    1    3    3    0    0  0.37573258213E+01 -0.18338664296E+02  0.83854060729E+01  0.20511926787E+02  0.00000000000E+00 0.  1.
</event>
<event>
 7    1  0.2769403E-010  0.4778727E+02  0.7816164E-02  0.1312668E+00
        -11   -1    0    0    0    0  0.00000000000E+00  0.00000000000E+00  0.45593999997E+02  0.45594000000E+02  0.51100000000E-03 0.  1.
         11   -1    0    0    0    0 -0.00000000000E+00 -0.00000000000E+00 -0.45593999997E+02  0.45594000000E+02  0.51100000000E-03 0. -1.
    9900012    2    1    2    0    0 -0.18652707893E+02  0.17306518945E+02  0.35159410024E+02  0.47787271631E+02  0.20000002672E+02 0.  0.
         12    1    1    2    0    0  0.18652707893E+02 -0.17306518945E+02 -0.35159410024E+02  0.43400728369E+02  0.00000000000E+00 0. -1.
         11    1    3    3    0    0 -0.35733360696E+01  0.82492764669E+01  0.29485891650E+01  0.94611559134E+01  0.51100000000E-03 0. -1.
        -11    1    3    3    0    0 -0.23980545915E+00  0.55034746108E+01  0.87274544588E+01  0.10320571740E+02  0.51100000000E-03 0.  1.
         12    1    3    3    0    0 -0.14839566365E+02  0.35537678669E+01  0.23483366401E+02  0.28005543977E+02  0.00000000000E+00 0. -1.
</event>
<event>
 7    1  0.2769403E-010  0.4778727E+02  0.7816164E-02  0.1312668E+00
        -11   -1    0    0    0    0  0.00000000000E+00  0.00000000000E+00  0.45593999997E+02  0.45594000000E+02  0.51100000000E-03 0.  1.
         11   -1    0    0    0    0 -0.00000000000E+00 -0.00000000000E+00 -0.45593999997E+02  0.45594000000E+02  0.51100000000E-03 0. -1.
    9900012    2    1    2    0    0 -0.32718812698E+02  0.25707419475E+02  0.12338192504E+02  0.47787272878E+02  0.20000008361E+02 0.  0.
         12    1    1    2    0    0  0.32718812698E+02 -0.25707419475E+02 -0.12338192504E+02  0.43400727122E+02  0.00000000000E+00 0. -1.
         11    1    3    3    0    0  0.73026291744E+00  0.42751041349E+01  0.28753631815E+01  0.52036057671E+01  0.51100000000E-03 0. -1.
        -11    1    3    3    0    0 -0.45814337271E+01  0.16957024040E+01 -0.26723051526E+01  0.55683172259E+01  0.51100000000E-03 0.  1.
         12    1    3    3    0    0 -0.28867641888E+02  0.19736612936E+02  0.12135134475E+02  0.37015349885E+02  0.00000000000E+00 0. -1.
</event>
<event>
 7    1  0.2769403E-010  0.4778725E+02  0.7816164E-02  0.1312668E+00
        -11   -1    0    0    0    0  0.00000000000E+00  0.00000000000E+00  0.45593999997E+02  0.45594000000E+02  0.51100000000E-03 0. -1.
         11   -1    0    0    0    0 -0.00000000000E+00 -0.00000000000E+00 -0.45593999997E+02  0.45594000000E+02  0.51100000000E-03 0.  1.
    9900012    2    1    2    0    0 -0.20358455700E+02 -0.27151502872E+02 -0.27054650102E+02  0.47787252094E+02  0.19999913595E+02 0.  0.
         12    1    1    2    0    0  0.20358455700E+02  0.27151502872E+02  0.27054650102E+02  0.43400747906E+02  0.00000000000E+00 0. -1.
         11    1    3    3    0    0 -0.55934825324E+01 -0.28103060901E+01 -0.20352693081E+01  0.65823391418E+01  0.51100000000E-03 0. -1.
        -11    1    3    3    0    0 -0.16861294922E+02 -0.23279491193E+02 -0.25903694219E+02  0.38694177225E+02  0.51100000000E-03 0.  1.
        -12    1    3    3    0    0  0.20963217548E+01 -0.10617055886E+01  0.88431342482E+00  0.25107357268E+01  0.00000000000E+00 0.  1.
</event>
<event>
 7    1  0.2769403E-010  0.4778727E+02  0.7816164E-02  0.1312668E+00
        -11   -1    0    0    0    0  0.00000000000E+00  0.00000000000E+00  0.45593999997E+02  0.45594000000E+02  0.51100000000E-03 0.  1.
         11   -1    0    0    0    0 -0.00000000000E+00 -0.00000000000E+00 -0.45593999997E+02  0.45594000000E+02  0.51100000000E-03 0. -1.
    9900012    2    1    2    0    0  0.29901043871E+02 -0.31156063573E+02  0.43417311610E+01  0.47787270152E+02  0.19999995929E+02 0.  0.
         12    1    1    2    0    0 -0.29901043871E+02  0.31156063573E+02 -0.43417311610E+01  0.43400729848E+02  0.00000000000E+00 0. -1.
         11    1    3    3    0    0 -0.10508642317E+01 -0.25045092569E+00  0.15246536921E+01  0.18685851443E+01  0.51100000000E-03 0. -1.
        -11    1    3    3    0    0  0.45101690204E+01 -0.59516825815E+01 -0.46573869134E+01  0.88008751420E+01  0.51100000000E-03 0.  1.
        -12    1    3    3    0    0  0.26441739082E+02 -0.24953930066E+02  0.74744643823E+01  0.37117809865E+02  0.00000000000E+00 0.  1.
</event>
<event>
 7    1  0.2769403E-010  0.4778727E+02  0.7816164E-02  0.1312668E+00
        -11   -1    0    0    0    0  0.00000000000E+00  0.00000000000E+00  0.45593999997E+02  0.45594000000E+02  0.51100000000E-03 0.  1.
         11   -1    0    0    0    0 -0.00000000000E+00 -0.00000000000E+00 -0.45593999997E+02  0.45594000000E+02  0.51100000000E-03 0. -1.
    9900012    2    1    2    0    0  0.26944485618E+02  0.42799235490E+01  0.33753522550E+02  0.47787270337E+02  0.19999996773E+02 0.  0.
         12    1    1    2    0    0 -0.26944485618E+02 -0.42799235490E+01 -0.33753522550E+02  0.43400729663E+02  0.00000000000E+00 0. -1.
         11    1    3    3    0    0  0.22542498979E+01 -0.24697276812E+01  0.66651280205E+01  0.74568846854E+01  0.51100000000E-03 0. -1.
        -11    1    3    3    0    0  0.13637637971E+02 -0.17807838889E+01  0.20990904274E+02  0.25095306796E+02  0.51100000000E-03 0.  1.
        -12    1    3    3    0    0  0.11052597748E+02  0.85304351190E+01  0.60974902554E+01  0.15235078855E+02  0.00000000000E+00 0.  1.
</event>
<event>
 7    1  0.2769403E-010  0.4778727E+02  0.7816164E-02  0.1312668E+00
        -11   -1    0    0    0    0  0.00000000000E+00  0.00000000000E+00  0.45593999997E+02  0.45594000000E+02  0.51100000000E-03 0.  1.
         11   -1    0    0    0    0 -0.00000000000E+00 -0.00000000000E+00 -0.45593999997E+02  0.45594000000E+02  0.51100000000E-03 0. -1.
    9900012    2    1    2    0    0  0.34916066064E+02 -0.16375432473E+02  0.19908207321E+02  0.47787272163E+02  0.20000005098E+02 0.  0.
         12    1    1    2    0    0 -0.34916066064E+02  0.16375432473E+02 -0.19908207321E+02  0.43400727837E+02  0.00000000000E+00 0. -1.
         11    1    3    3    0    0  0.15547021504E+00 -0.21985843545E+01  0.35908238541E+01  0.42133075325E+01  0.51100000000E-03 0. -1.
        -11    1    3    3    0    0  0.15440748150E+02 -0.14043989489E+02  0.10691662358E+02  0.23451268376E+02  0.51100000000E-03 0.  1.
         12    1    3    3    0    0  0.19319847700E+02 -0.13285862963E+00  0.56257211089E+01  0.20122696254E+02  0.00000000000E+00 0. -1.
</event>
<event>
 7    1  0.2769403E-010  0.4778728E+02  0.7816164E-02  0.1312668E+00
        -11   -1    0    0    0    0  0.00000000000E+00  0.00000000000E+00  0.45593999997E+02  0.45594000000E+02  0.51100000000E-03 0.  1.
         11   -1    0    0    0    0 -0.00000000000E+00 -0.00000000000E+00 -0.45593999997E+02  0.45594000000E+02  0.51100000000E-03 0. -1.
    9900012    2    1    2    0    0  0.31871152125E+02  0.22503118827E+02  0.19012151835E+02  0.47787278669E+02  0.20000034761E+02 0.  0.
         12    1    1    2    0    0 -0.31871152125E+02 -0.22503118827E+02 -0.19012151835E+02  0.43400721331E+02  0.00000000000E+00 0. -1.
         11    1    3    3    0    0  0.22377063153E+01  0.53855803775E+01 -0.10280318964E+01  0.59218793805E+01  0.51100000000E-03 0. -1.
        -11    1    3    3    0    0  0.16403864098E+02  0.16764288783E+02  0.11576377410E+02  0.26156082465E+02  0.51100000000E-03 0.  1.
         12    1    3    3    0    0  0.13229581711E+02  0.35324966642E+00  0.84638063216E+01  0.15709316823E+02  0.00000000000E+00 0. -1.
</event>
<event>
 7    1  0.2769403E-010  0.4778727E+02  0.7816164E-02  0.1312668E+00
        -11   -1    0    0    0    0  0.00000000000E+00  0.00000000000E+00  0.45593999997E+02  0.45594000000E+02  0.51100000000E-03 0.  1.
         11   -1    0    0    0    0 -0.00000000000E+00 -0.00000000000E+00 -0.45593999997E+02  0.45594000000E+02  0.51100000000E-03 0. -1.
    9900012    2    1    2    0    0  0.56254317614E+01 -0.40043149156E+02  0.15764643393E+02  0.47787271226E+02  0.20000000827E+02 0.  0.
         12    1    1    2    0    0 -0.56254317614E+01  0.40043149156E+02 -0.15764643393E+02  0.43400728774E+02  0.00000000000E+00 0. -1.
         11    1    3    3    0    0 -0.37701856032E+01 -0.80418107845E+01  0.96307692206E+01  0.13101020427E+02  0.51100000000E-03 0. -1.
        -11    1    3    3    0    0  0.19379026238E+01 -0.16533558949E+02  0.53929128639E+01  0.17498501293E+02  0.51100000000E-03 0.  1.
         12    1    3    3    0    0  0.74577147408E+01 -0.15467779423E+02  0.74096130833E+00  0.17187749506E+02  0.00000000000E+00 0. -1.
</event>
<event>
 7    1  0.2769403E-010  0.4778727E+02  0.7816164E-02  0.1312668E+00
        -11   -1    0    0    0    0  0.00000000000E+00  0.00000000000E+00  0.45593999997E+02  0.45594000000E+02  0.51100000000E-03 0.  1.
         11   -1    0    0    0    0 -0.00000000000E+00 -0.00000000000E+00 -0.45593999997E+02  0.45594000000E+02  0.51100000000E-03 0. -1.
    9900012    2    1    2    0    0  0.32916899691E+02  0.18833408488E+02  0.21104591045E+02  0.47787270470E+02  0.19999997381E+02 0.  0.
         12    1    1    2    0    0 -0.32916899691E+02 -0.18833408488E+02 -0.21104591045E+02  0.43400729530E+02  0.00000000000E+00 0. -1.
         11    1    3    3    0    0  0.20187844762E+02  0.10833041582E+02  0.12245115324E+02  0.25977811987E+02  0.51100000000E-03 0. -1.
        -11    1    3    3    0    0  0.10691776753E+02 -0.91754005330E+00  0.55518690112E+01  0.12082186047E+02  0.51100000000E-03 0.  1.
         12    1    3    3    0    0  0.20372781753E+01  0.89179069592E+01  0.33076067104E+01  0.97272724362E+01  0.00000000000E+00 0. -1.
</event>
<event>
 7    1  0.2769403E-010  0.4778727E+02  0.7816164E-02  0.1312668E+00
        -11   -1    0    0    0    0  0.00000000000E+00  0.00000000000E+00  0.45593999997E+02  0.45594000000E+02  0.51100000000E-03 0.  1.
         11   -1    0    0    0    0 -0.00000000000E+00 -0.00000000000E+00 -0.45593999997E+02  0.45594000000E+02  0.51100000000E-03 0. -1.
    9900012    2    1    2    0    0 -0.24797636085E+02 -0.32211525137E+02  0.15202574358E+02  0.47787269889E+02  0.19999994732E+02 0.  0.
         12    1    1    2    0    0  0.24797636085E+02  0.32211525137E+02 -0.15202574358E+02  0.43400730111E+02  0.00000000000E+00 0. -1.
         11    1    3    3    0    0 -0.28656252691E+01 -0.81587411131E+01 -0.36785772367E+01  0.93972759607E+01  0.51100000000E-03 0. -1.
        -11    1    3    3    0    0 -0.26932930903E+01 -0.18083776442E+01 -0.33106546545E+00  0.32609296186E+01  0.51100000000E-03 0.  1.
        -12    1    3    3    0    0 -0.19238717725E+02 -0.22244406380E+02  0.19212217061E+02  0.35129064310E+02  0.00000000000E+00 0.  1.
</event>
<event>
 7    1  0.2769403E-010  0.4778727E+02  0.7816164E-02  0.1312668E+00
        -11   -1    0    0    0    0  0.00000000000E+00  0.00000000000E+00  0.45593999997E+02  0.45594000000E+02  0.51100000000E-03 0.  1.
         11   -1    0    0    0    0 -0.00000000000E+00 -0.00000000000E+00 -0.45593999997E+02  0.45594000000E+02  0.51100000000E-03 0. -1.
    9900012    2    1    2    0    0 -0.10454027808E+02 -0.42120777029E+02  0.42005800294E+00  0.47787274158E+02  0.20000014194E+02 0.  0.
         12    1    1    2    0    0  0.10454027808E+02  0.42120777029E+02 -0.42005800294E+00  0.43400725842E+02  0.00000000000E+00 0. -1.
         11    1    3    3    0    0 -0.37446984408E+00 -0.76495662499E+01  0.69729857533E+00  0.76904042182E+01  0.51100000000E-03 0. -1.
        -11    1    3    3    0    0  0.23326430995E+01 -0.22959598711E+02  0.11627503477E+01  0.23107063540E+02  0.51100000000E-03 0.  1.
         12    1    3    3    0    0 -0.12412201064E+02 -0.11511612068E+02 -0.14399909201E+01  0.16989806399E+02  0.00000000000E+00 0. -1.
</event>
<event>
 7    1  0.2769403E-010  0.4778727E+02  0.7816164E-02  0.1312668E+00
        -11   -1    0    0    0    0  0.00000000000E+00  0.00000000000E+00  0.45593999997E+02  0.45594000000E+02  0.51100000000E-03 0.  1.
         11   -1    0    0    0    0 -0.00000000000E+00 -0.00000000000E+00 -0.45593999997E+02  0.45594000000E+02  0.51100000000E-03 0. -1.
    9900012    2    1    2    0    0 -0.40610162113E+02 -0.12652840006E+02  0.86222903268E+01  0.47787268237E+02  0.19999987199E+02 0.  0.
         12    1    1    2    0    0  0.40610162113E+02  0.12652840006E+02 -0.86222903268E+01  0.43400731763E+02  0.00000000000E+00 0. -1.
         11    1    3    3    0    0 -0.21416995916E+02 -0.49920832127E+01  0.53380714081E+01  0.22629706482E+02  0.51100000000E-03 0. -1.
        -11    1    3    3    0    0 -0.11100853717E+02 -0.85843603954E+01  0.75801065332E+01  0.15949238601E+02  0.51100000000E-03 0.  1.
         12    1    3    3    0    0 -0.80923124806E+01  0.92360360182E+00 -0.42958876145E+01  0.92083231532E+01  0.00000000000E+00 0. -1.
</event>
<event>
 7    1  0.2769403E-010  0.4778727E+02  0.7816164E-02  0.1312668E+00
        -11   -1    0    0    0    0  0.00000000000E+00  0.00000000000E+00  0.45593999997E+02  0.45594000000E+02  0.51100000000E-03 0.  1.
         11   -1    0    0    0    0 -0.00000000000E+00 -0.00000000000E+00 -0.45593999997E+02  0.45594000000E+02  0.51100000000E-03 0. -1.
    9900012    2    1    2    0    0  0.26262413187E+02 -0.31384768428E+01  0.34410156654E+02  0.47787271155E+02  0.20000000504E+02 0.  0.
         12    1    1    2    0    0 -0.26262413187E+02  0.31384768428E+01 -0.34410156654E+02  0.43400728845E+02  0.00000000000E+00 0. -1.
         11    1    3    3    0    0  0.13829880972E+02 -0.49648487631E+01  0.30489206040E+02  0.33845339652E+02  0.51100000000E-03 0. -1.
        -11    1    3    3    0    0  0.10839705956E+01  0.70902359037E+00  0.19926231028E+01  0.23766055194E+01  0.51100000000E-03 0.  1.
         12    1    3    3    0    0  0.11348561620E+02  0.11173483299E+01  0.19283275117E+01  0.11565325984E+02  0.00000000000E+00 0. -1.
</event>
<event>
 7    1  0.2769403E-010  0.4778727E+02  0.7816164E-02  0.1312668E+00
        -11   -1    0    0    0    0  0.00000000000E+00  0.00000000000E+00  0.45593999997E+02  0.45594000000E+02  0.51100000000E-03 0.  1.
         11   -1    0    0    0    0 -0.00000000000E+00 -0.00000000000E+00 -0.45593999997E+02  0.45594000000E+02  0.51100000000E-03 0. -1.
    9900012    2    1    2    0    0 -0.33498124349E+02  0.13271218126E+02  0.24194495136E+02  0.47787272352E+02  0.20000005963E+02 0.  0.
         12    1    1    2    0    0  0.33498124349E+02 -0.13271218126E+02 -0.24194495136E+02  0.43400727648E+02  0.00000000000E+00 0. -1.
         11    1    3    3    0    0 -0.17886596585E+02  0.10506701162E+02  0.62068112333E+01  0.21652843062E+02  0.51100000000E-03 0. -1.
        -11    1    3    3    0    0 -0.13103022878E+02  0.23193179836E+01  0.73617906491E+01  0.15207379994E+02  0.51100000000E-03 0.  1.
        -12    1    3    3    0    0 -0.25085048861E+01  0.44519897997E+00  0.10625893254E+02  0.10927049297E+02  0.00000000000E+00 0.  1.
</event>
<event>
 7    1  0.2769403E-010  0.4778727E+02  0.7816164E-02  0.1312668E+00
        -11   -1    0    0    0    0  0.00000000000E+00  0.00000000000E+00  0.45593999997E+02  0.45594000000E+02  0.51100000000E-03 0.  1.
         11   -1    0    0    0    0 -0.00000000000E+00 -0.00000000000E+00 -0.45593999997E+02  0.45594000000E+02  0.51100000000E-03 0. -1.
    9900012    2    1    2    0    0 -0.19438520378E+02  0.60950347759E+01  0.38322552960E+02  0.47787267416E+02  0.19999983459E+02 0.  0.
         12    1    1    2    0    0  0.19438520378E+02 -0.60950347759E+01 -0.38322552960E+02  0.43400732584E+02  0.00000000000E+00 0. -1.
         11    1    3    3    0    0 -0.20417317618E+01 -0.52172366075E+01  0.46292197385E+01  0.72675925900E+01  0.51100000000E-03 0. -1.
        -11    1    3    3    0    0 -0.77097935104E+01  0.23908311300E+01  0.67197883608E+01  0.10502977927E+02  0.51100000000E-03 0.  1.
         12    1    3    3    0    0 -0.96869951057E+01  0.89214402535E+01  0.26973544861E+02  0.30016696899E+02  0.00000000000E+00 0. -1.
</event>
<event>
 7    1  0.2769403E-010  0.4778727E+02  0.7816164E-02  0.1312668E+00
        -11   -1    0    0    0    0  0.00000000000E+00  0.00000000000E+00  0.45593999997E+02  0.45594000000E+02  0.51100000000E-03 0. -1.
         11   -1    0    0    0    0 -0.00000000000E+00 -0.00000000000E+00 -0.45593999997E+02  0.45594000000E+02  0.51100000000E-03 0.  1.
    9900012    2    1    2    0    0  0.31092446240E+02  0.29053417892E+02 -0.85312304756E+01  0.47787271921E+02  0.20000003995E+02 0.  0.
         12    1    1    2    0    0 -0.31092446240E+02 -0.29053417892E+02  0.85312304756E+01  0.43400728079E+02  0.00000000000E+00 0. -1.
         11    1    3    3    0    0  0.16481575108E+02  0.19069199773E+02 -0.42675953587E+01  0.25563432251E+02  0.51100000000E-03 0. -1.
        -11    1    3    3    0    0  0.12099222437E+02  0.13063406262E+02 -0.30190664877E+01  0.18059859619E+02  0.51100000000E-03 0.  1.
         12    1    3    3    0    0  0.25116486944E+01 -0.30791881433E+01 -0.12445686292E+01  0.41639800503E+01  0.00000000000E+00 0. -1.
</event>
<event>
 7    1  0.2769403E-010  0.4778727E+02  0.7816164E-02  0.1312668E+00
        -11   -1    0    0    0    0  0.00000000000E+00  0.00000000000E+00  0.45593999997E+02  0.45594000000E+02  0.51100000000E-03 0.  1.
         11   -1    0    0    0    0 -0.00000000000E+00 -0.00000000000E+00 -0.45593999997E+02  0.45594000000E+02  0.51100000000E-03 0. -1.
    9900012    2    1    2    0    0  0.74865432278E+01 -0.75189071966E+01  0.42083739583E+02  0.47787269220E+02  0.19999991681E+02 0.  0.
         12    1    1    2    0    0 -0.74865432278E+01  0.75189071966E+01 -0.42083739583E+02  0.43400730780E+02  0.00000000000E+00 0. -1.
         11    1    3    3    0    0  0.20445778494E+01 -0.72055173619E+00  0.17989568795E+00  0.21752829945E+01  0.51100000000E-03 0. -1.
        -11    1    3    3    0    0  0.10660741712E+02 -0.61162461662E+01  0.24197804611E+02  0.27140258460E+02  0.51100000000E-03 0.  1.
         12    1    3    3    0    0 -0.52187763332E+01 -0.68210929416E+00  0.17706039284E+02  0.18471727765E+02  0.00000000000E+00 0. -1.
</event>
<event>
 7    1  0.2769403E-010  0.4778728E+02  0.7816164E-02  0.1312668E+00
        -11   -1    0    0    0    0  0.00000000000E+00  0.00000000000E+00  0.45593999997E+02  0.45594000000E+02  0.51100000000E-03 0.  1.
         11   -1    0    0    0    0 -0.00000000000E+00 -0.00000000000E+00 -0.45593999997E+02  0.45594000000E+02  0.51100000000E-03 0. -1.
    9900012    2    1    2    0    0 -0.56050647690E+01  0.41748747278E+02 -0.10452173046E+02  0.47787279133E+02  0.20000036880E+02 0.  0.
         12    1    1    2    0    0  0.56050647690E+01 -0.41748747278E+02  0.10452173046E+02  0.43400720867E+02  0.00000000000E+00 0. -1.
         11    1    3    3    0    0  0.30559636875E+01  0.28126572025E+01 -0.12524711024E+01  0.43380454956E+01  0.51100000000E-03 0. -1.
        -11    1    3    3    0    0 -0.57097721536E+01  0.49723275986E+01 -0.50612090461E+01  0.91072156592E+01  0.51100000000E-03 0.  1.
        -12    1    3    3    0    0 -0.29512563030E+01  0.33963762477E+02 -0.41384928978E+01  0.34342017978E+02  0.00000000000E+00 0.  1.
</event>
<event>
 7    1  0.2769403E-010  0.4778728E+02  0.7816164E-02  0.1312668E+00
        -11   -1    0    0    0    0  0.00000000000E+00  0.00000000000E+00  0.45593999997E+02  0.45594000000E+02  0.51100000000E-03 0.  1.
         11   -1    0    0    0    0 -0.00000000000E+00 -0.00000000000E+00 -0.45593999997E+02  0.45594000000E+02  0.51100000000E-03 0. -1.
    9900012    2    1    2    0    0 -0.13907170375E+02 -0.30641487597E+02  0.27410083411E+02  0.47787276243E+02  0.20000023705E+02 0.  0.
         12    1    1    2    0    0  0.13907170375E+02  0.30641487597E+02 -0.27410083411E+02  0.43400723757E+02  0.00000000000E+00 0. -1.
         11    1    3    3    0    0 -0.11123003371E+01  0.16538128914E+01  0.13794082448E+01  0.24238557066E+01  0.51100000000E-03 0. -1.
        -11    1    3    3    0    0 -0.36624475169E+01 -0.19294869791E+00  0.36756955186E+01  0.51924453604E+01  0.51100000000E-03 0.  1.
        -12    1    3    3    0    0 -0.91324225211E+01 -0.32102351791E+02  0.22354979647E+02  0.40170975176E+02  0.00000000000E+00 0.  1.
</event>
<event>
 7    1  0.2769403E-010  0.4778727E+02  0.7816164E-02  0.1312668E+00
        -11   -1    0    0    0    0  0.00000000000E+00  0.00000000000E+00  0.45593999997E+02  0.45594000000E+02  0.51100000000E-03 0. -1.
         11   -1    0    0    0    0 -0.00000000000E+00 -0.00000000000E+00 -0.45593999997E+02  0.45594000000E+02  0.51100000000E-03 0.  1.
    9900012    2    1    2    0    0 -0.33689385334E+02 -0.47595667755E+01 -0.26944293304E+02  0.47787273027E+02  0.20000009040E+02 0.  0.
         12    1    1    2    0    0  0.33689385334E+02  0.47595667755E+01  0.26944293304E+02  0.43400726973E+02  0.00000000000E+00 0. -1.
         11    1    3    3    0    0 -0.66939676456E+01 -0.40403420196E+00 -0.61436768103E+01  0.90949003011E+01  0.51100000000E-03 0.  1.
        -11    1    3    3    0    0 -0.11215337056E+02  0.45335565546E+01 -0.14424935845E+01  0.12182680671E+02  0.51100000000E-03 0. -1.
         12    1    3    3    0    0 -0.15780080632E+02 -0.88890891281E+01 -0.19358122910E+02  0.26509692055E+02  0.00000000000E+00 0. -1.
</event>
<event>
 7    1  0.2769403E-010  0.4778727E+02  0.7816164E-02  0.1312668E+00
        -11   -1    0    0    0    0  0.00000000000E+00  0.00000000000E+00  0.45593999997E+02  0.45594000000E+02  0.51100000000E-03 0. -1.
         11   -1    0    0    0    0 -0.00000000000E+00 -0.00000000000E+00 -0.45593999997E+02  0.45594000000E+02  0.51100000000E-03 0.  1.
    9900012    2    1    2    0    0  0.32919765402E+02  0.23486456280E+02 -0.15757512250E+02  0.47787265271E+02  0.19999973678E+02 0.  0.
         12    1    1    2    0    0 -0.32919765402E+02 -0.23486456280E+02  0.15757512250E+02  0.43400734729E+02  0.00000000000E+00 0. -1.
         11    1    3    3    0    0  0.15301050811E+02  0.15176162920E+02 -0.65979067667E+01  0.22538199814E+02  0.51100000000E-03 0. -1.
        -11    1    3    3    0    0  0.14770554915E+02  0.11799991755E+02 -0.83729593445E+01  0.20676449075E+02  0.51100000000E-03 0.  1.
         12    1    3    3    0    0  0.28481596752E+01 -0.34896983954E+01 -0.78664613850E+00  0.45726163817E+01  0.00000000000E+00 0. -1.
</event>
<event>
 7    1  0.2769403E-010  0.4778727E+02  0.7816164E-02  0.1312668E+00
        -11   -1    0    0    0    0  0.00000000000E+00  0.00000000000E+00  0.45593999997E+02  0.45594000000E+02  0.51100000000E-03 0.  1.
         11   -1    0    0    0    0 -0.00000000000E+00 -0.00000000000E+00 -0.45593999997E+02  0.45594000000E+02  0.51100000000E-03 0. -1.
    9900012    2    1    2    0    0 -0.36915408740E+02  0.22547940669E+02  0.35307668194E+01  0.47787270223E+02  0.19999996253E+02 0.  0.
         12    1    1    2    0    0  0.36915408740E+02 -0.22547940669E+02 -0.35307668194E+01  0.43400729777E+02  0.00000000000E+00 0. -1.
         11    1    3    3    0    0  0.14459377120E+01  0.26561951519E+01  0.32734756275E+01  0.44566524990E+01  0.51100000000E-03 0. -1.
        -11    1    3    3    0    0 -0.35575468870E+01  0.86499366776E+00 -0.13228016208E+00  0.36635846109E+01  0.51100000000E-03 0.  1.
         12    1    3    3    0    0 -0.34803799565E+02  0.19026751850E+02  0.38957135397E+00  0.39667033113E+02  0.00000000000E+00 0. -1.
</event>
<event>
 7    1  0.2769403E-010  0.4778727E+02  0.7816164E-02  0.1312668E+00
        -11   -1    0    0    0    0  0.00000000000E+00  0.00000000000E+00  0.45593999997E+02  0.45594000000E+02  0.51100000000E-03 0.  1.
         11   -1    0    0    0    0 -0.00000000000E+00 -0.00000000000E+00 -0.45593999997E+02  0.45594000000E+02  0.51100000000E-03 0. -1.
    9900012    2    1    2    0    0  0.20611290633E+02  0.21512368123E+02  0.31559718900E+02  0.47787272577E+02  0.20000006988E+02 0.  0.
         12    1    1    2    0    0 -0.20611290633E+02 -0.21512368123E+02 -0.31559718900E+02  0.43400727423E+02  0.00000000000E+00 0. -1.
         11    1    3    3    0    0 -0.31384808960E+01  0.53707483495E+01  0.30722704926E+01  0.69378560383E+01  0.51100000000E-03 0. -1.
        -11    1    3    3    0    0  0.37032315727E+01  0.44342983738E+01  0.35593018110E+01  0.67856875695E+01  0.51100000000E-03 0.  1.
        -12    1    3    3    0    0  0.20046539957E+02  0.11707321399E+02  0.24928146596E+02  0.34063728969E+02  0.00000000000E+00 0.  1.
</event>
<event>
 7    1  0.2769403E-010  0.4778726E+02  0.7816164E-02  0.1312668E+00
        -11   -1    0    0    0    0  0.00000000000E+00  0.00000000000E+00  0.45593999997E+02  0.45594000000E+02  0.51100000000E-03 0.  1.
         11   -1    0    0    0    0 -0.00000000000E+00 -0.00000000000E+00 -0.45593999997E+02  0.45594000000E+02  0.51100000000E-03 0. -1.
    9900012    2    1    2    0    0  0.23592625560E+02  0.30269690778E+02  0.20267168444E+02  0.47787259484E+02  0.19999947289E+02 0.  0.
         12    1    1    2    0    0 -0.23592625560E+02 -0.30269690778E+02 -0.20267168444E+02  0.43400740516E+02  0.00000000000E+00 0. -1.
         11    1    3    3    0    0 -0.82923095016E+00  0.16787236971E+01 -0.67744951732E+00  0.19911492485E+01  0.51100000000E-03 0. -1.
        -11    1    3    3    0    0  0.20260794963E+02  0.24600548837E+02  0.99590914083E+01  0.33389673816E+02  0.51100000000E-03 0.  1.
        -12    1    3    3    0    0  0.41610615471E+01  0.39904182439E+01  0.10985526553E+02  0.12406436419E+02  0.00000000000E+00 0.  1.
</event>
<event>
 7    1  0.2769403E-010  0.4778727E+02  0.7816164E-02  0.1312668E+00
        -11   -1    0    0    0    0  0.00000000000E+00  0.00000000000E+00  0.45593999997E+02  0.45594000000E+02  0.51100000000E-03 0.  1.
         11   -1    0    0    0    0 -0.00000000000E+00 -0.00000000000E+00 -0.45593999997E+02  0.45594000000E+02  0.51100000000E-03 0. -1.
    9900012    2    1    2    0    0  0.34184495190E+02  0.12603687258E+02  0.23583692510E+02  0.47787271938E+02  0.20000004074E+02 0.  0.
         12    1    1    2    0    0 -0.34184495190E+02 -0.12603687258E+02 -0.23583692510E+02  0.43400728062E+02  0.00000000000E+00 0. -1.
         11    1    3    3    0    0  0.19130765154E+02  0.50780913571E+01  0.65883968535E+01  0.20860972186E+02  0.51100000000E-03 0. -1.
        -11    1    3    3    0    0  0.14227679907E+02  0.59341601450E+01  0.72822035444E+01  0.17049094430E+02  0.51100000000E-03 0.  1.
         12    1    3    3    0    0  0.82605012902E+00  0.15914357561E+01  0.97130921120E+01  0.98772053212E+01  0.00000000000E+00 0. -1.
</event>
<event>
 7    1  0.2769403E-010  0.4778727E+02  0.7816164E-02  0.1312668E+00
        -11   -1    0    0    0    0  0.00000000000E+00  0.00000000000E+00  0.45593999997E+02  0.45594000000E+02  0.51100000000E-03 0.  1.
         11   -1    0    0    0    0 -0.00000000000E+00 -0.00000000000E+00 -0.45593999997E+02  0.45594000000E+02  0.51100000000E-03 0. -1.
    9900012    2    1    2    0    0  0.23044182957E+02  0.14867429574E+02  0.33638495092E+02  0.47787272099E+02  0.20000004806E+02 0.  0.
         12    1    1    2    0    0 -0.23044182957E+02 -0.14867429574E+02 -0.33638495092E+02  0.43400727901E+02  0.00000000000E+00 0. -1.
         11    1    3    3    0    0  0.11859635501E+02  0.23495153440E+01  0.25929933698E+01  0.12365063342E+02  0.51100000000E-03 0. -1.
        -11    1    3    3    0    0 -0.18719522567E+00  0.16488525190E+00  0.29434393216E+00  0.38583391547E+00  0.51100000000E-03 0.  1.
        -12    1    3    3    0    0  0.11371742682E+02  0.12353028978E+02  0.30751157790E+02  0.35036374841E+02  0.00000000000E+00 0.  1.
</event>
<event>
 7    1  0.2769403E-010  0.4778728E+02  0.7816164E-02  0.1312668E+00
        -11   -1    0    0    0    0  0.00000000000E+00  0.00000000000E+00  0.45593999997E+02  0.45594000000E+02  0.51100000000E-03 0.  1.
         11   -1    0    0    0    0 -0.00000000000E+00 -0.00000000000E+00 -0.45593999997E+02  0.45594000000E+02  0.51100000000E-03 0. -1.
    9900012    2    1    2    0    0  0.40360877322E+02 -0.10826996215E+02 -0.11721714089E+02  0.47787275969E+02  0.20000022452E+02 0.  0.
         12    1    1    2    0    0 -0.40360877322E+02  0.10826996215E+02  0.11721714089E+02  0.43400724031E+02  0.00000000000E+00 0. -1.
         11    1    3    3    0    0  0.11424758008E+01  0.23063452398E+01 -0.27539107782E+01  0.37694169517E+01  0.51100000000E-03 0. -1.
        -11    1    3    3    0    0  0.41572571681E+01 -0.28450097888E+01 -0.52721814314E+01  0.72919657958E+01  0.51100000000E-03 0.  1.
        -12    1    3    3    0    0  0.35061144353E+02 -0.10288331666E+02 -0.36956218794E+01  0.36725893221E+02  0.00000000000E+00 0.  1.
</event>
<event>
 7    1  0.2769403E-010  0.4778727E+02  0.7816164E-02  0.1312668E+00
        -11   -1    0    0    0    0  0.00000000000E+00  0.00000000000E+00  0.45593999997E+02  0.45594000000E+02  0.51100000000E-03 0.  1.
         11   -1    0    0    0    0 -0.00000000000E+00 -0.00000000000E+00 -0.45593999997E+02  0.45594000000E+02  0.51100000000E-03 0. -1.
    9900012    2    1    2    0    0 -0.14847671981E+01 -0.42232272834E+02 -0.98921121025E+01  0.47787270925E+02  0.19999999456E+02 0.  0.
         12    1    1    2    0    0  0.14847671981E+01  0.42232272834E+02  0.98921121025E+01  0.43400729075E+02  0.00000000000E+00 0. -1.
         11    1    3    3    0    0 -0.77617692777E+01 -0.25190981787E+02 -0.60820477117E+01  0.27052207495E+02  0.51100000000E-03 0. -1.
        -11    1    3    3    0    0 -0.23107055851E+01 -0.45637910617E+01  0.26022593942E-02  0.51154233636E+01  0.51100000000E-03 0.  1.
         12    1    3    3    0    0  0.85877076647E+01 -0.12477499985E+02 -0.38126666503E+01  0.15619640067E+02  0.00000000000E+00 0. -1.
</event>
<event>
 7    1  0.2769403E-010  0.4778727E+02  0.7816164E-02  0.1312668E+00
        -11   -1    0    0    0    0  0.00000000000E+00  0.00000000000E+00  0.45593999997E+02  0.45594000000E+02  0.51100000000E-03 0. -1.
         11   -1    0    0    0    0 -0.00000000000E+00 -0.00000000000E+00 -0.45593999997E+02  0.45594000000E+02  0.51100000000E-03 0.  1.
    9900012    2    1    2    0    0 -0.23364196977E+02  0.33447571470E+02 -0.14798555406E+02  0.47787274433E+02  0.20000015449E+02 0.  0.
         12    1    1    2    0    0  0.23364196977E+02 -0.33447571470E+02  0.14798555406E+02  0.43400725567E+02  0.00000000000E+00 0. -1.
         11    1    3    3    0    0 -0.34186016501E+01  0.14978143710E+02 -0.10189605718E+02  0.18435283865E+02  0.51100000000E-03 0. -1.
        -11    1    3    3    0    0 -0.36940504356E+01  0.96312238407E+01 -0.12119375955E+00  0.10316063662E+02  0.51100000000E-03 0.  1.
         12    1    3    3    0    0 -0.16251544892E+02  0.88382039197E+01 -0.44877559286E+01  0.19035926906E+02  0.00000000000E+00 0. -1.
</event>
<event>
 7    1  0.2769403E-010  0.4778728E+02  0.7816164E-02  0.1312668E+00
        -11   -1    0    0    0    0  0.00000000000E+00  0.00000000000E+00  0.45593999997E+02  0.45594000000E+02  0.51100000000E-03 0. -1.
         11   -1    0    0    0    0 -0.00000000000E+00 -0.00000000000E+00 -0.45593999997E+02  0.45594000000E+02  0.51100000000E-03 0.  1.
    9900012    2    1    2    0    0  0.35288841919E+01 -0.18434795784E+02 -0.39132188033E+02  0.47787275818E+02  0.20000021765E+02 0.  0.
         12    1    1    2    0    0 -0.35288841919E+01  0.18434795784E+02  0.39132188033E+02  0.43400724182E+02  0.00000000000E+00 0. -1.
         11    1    3    3    0    0  0.27338934009E+00 -0.78691397183E+01 -0.21165084078E+02  0.22582269282E+02  0.51100000000E-03 0. -1.
        -11    1    3    3    0    0  0.47735805947E+00 -0.71202105674E+01 -0.19304597096E+02  0.20581368724E+02  0.51100000000E-03 0.  1.
         12    1    3    3    0    0  0.27781367924E+01 -0.34454454985E+01  0.13374931404E+01  0.46236378125E+01  0.00000000000E+00 0. -1.
</event>
<event>
 7    1  0.2769403E-010  0.4778727E+02  0.7816164E-02  0.1312668E+00
        -11   -1    0    0    0    0  0.00000000000E+00  0.00000000000E+00  0.45593999997E+02  0.45594000000E+02  0.51100000000E-03 0.  1.
         11   -1    0    0    0    0 -0.00000000000E+00 -0.00000000000E+00 -0.45593999997E+02  0.45594000000E+02  0.51100000000E-03 0. -1.
    9900012    2    1    2    0    0  0.38722621072E+01  0.26663969933E+02  0.34024424655E+02  0.47787272131E+02  0.20000004954E+02 0.  0.
         12    1    1    2    0    0 -0.38722621072E+01 -0.26663969933E+02 -0.34024424655E+02  0.43400727869E+02  0.00000000000E+00 0. -1.
         11    1    3    3    0    0  0.56548710494E+01  0.44937654466E+01  0.77728647468E+01  0.10610792671E+02  0.51100000000E-03 0. -1.
        -11    1    3    3    0    0  0.13996045826E+00  0.16491380333E+02  0.26458446626E+02  0.31177469627E+02  0.51100000000E-03 0.  1.
        -12    1    3    3    0    0 -0.19225694005E+01  0.56788241536E+01 -0.20688671704E+00  0.59990098334E+01  0.00000000000E+00 0.  1.
</event>
<event>
 7    1  0.2769403E-010  0.4778727E+02  0.7816164E-02  0.1312668E+00
        -11   -1    0    0    0    0  0.00000000000E+00  0.00000000000E+00  0.45593999997E+02  0.45594000000E+02  0.51100000000E-03 0.  1.
         11   -1    0    0    0    0 -0.00000000000E+00 -0.00000000000E+00 -0.45593999997E+02  0.45594000000E+02  0.51100000000E-03 0. -1.
    9900012    2    1    2    0    0 -0.24972745968E+02  0.35495801416E+02  0.18235961956E+00  0.47787271730E+02  0.20000003126E+02 0.  0.
         12    1    1    2    0    0  0.24972745968E+02 -0.35495801416E+02 -0.18235961956E+00  0.43400728270E+02  0.00000000000E+00 0. -1.
         11    1    3    3    0    0 -0.11839266581E+01  0.25743881969E+01 -0.49228352025E+01  0.56800936271E+01  0.51100000000E-03 0. -1.
        -11    1    3    3    0    0 -0.47185792573E+00  0.52514652449E+01 -0.11225995427E+01  0.53908039396E+01  0.51100000000E-03 0.  1.
        -12    1    3    3    0    0 -0.23316961384E+02  0.27669947974E+02  0.62277943648E+01  0.36716374163E+02  0.00000000000E+00 0.  1.
</event>
<event>
 7    1  0.2769403E-010  0.4778728E+02  0.7816164E-02  0.1312668E+00
        -11   -1    0    0    0    0  0.00000000000E+00  0.00000000000E+00  0.45593999997E+02  0.45594000000E+02  0.51100000000E-03 0. -1.
         11   -1    0    0    0    0 -0.00000000000E+00 -0.00000000000E+00 -0.45593999997E+02  0.45594000000E+02  0.51100000000E-03 0.  1.
    9900012    2    1    2    0    0 -0.63305904539E+00 -0.71993530440E+01 -0.42794755983E+02  0.47787278950E+02  0.20000036044E+02 0.  0.
         12    1    1    2    0    0  0.63305904539E+00  0.71993530440E+01  0.42794755983E+02  0.43400721050E+02  0.00000000000E+00 0. -1.
         11    1    3    3    0    0  0.17212170665E+01  0.18771072324E+01 -0.60745449215E+01  0.65868213895E+01  0.51100000000E-03 0. -1.
        -11    1    3    3    0    0 -0.54170270388E+01  0.23596403498E+01 -0.18931866641E+02  0.19832489992E+02  0.51100000000E-03 0.  1.
         12    1    3    3    0    0  0.30627509269E+01 -0.11436100626E+02 -0.17788344421E+02  0.21367967568E+02  0.00000000000E+00 0. -1.
</event>
<event>
 7    1  0.2769403E-010  0.4778727E+02  0.7816164E-02  0.1312668E+00
        -11   -1    0    0    0    0  0.00000000000E+00  0.00000000000E+00  0.45593999997E+02  0.45594000000E+02  0.51100000000E-03 0. -1.
         11   -1    0    0    0    0 -0.00000000000E+00 -0.00000000000E+00 -0.45593999997E+02  0.45594000000E+02  0.51100000000E-03 0.  1.
    9900012    2    1    2    0    0  0.36861416450E+02  0.86296162611E-01 -0.22909645227E+02  0.47787270580E+02  0.19999997883E+02 0.  0.
         12    1    1    2    0    0 -0.36861416450E+02 -0.86296162611E-01  0.22909645227E+02  0.43400729420E+02  0.00000000000E+00 0. -1.
         11    1    3    3    0    0  0.55747399644E+01 -0.24306599201E+01  0.16719646412E+01  0.63072418172E+01  0.51100000000E-03 0. -1.
        -11    1    3    3    0    0 -0.67714669959E-01  0.18256795773E+01 -0.26161061173E+01  0.31908780412E+01  0.51100000000E-03 0.  1.
        -12    1    3    3    0    0  0.31354391156E+02  0.69127650545E+00 -0.21965503751E+02  0.38289150722E+02  0.00000000000E+00 0.  1.
</event>
<event>
 7    1  0.2769403E-010  0.4778727E+02  0.7816164E-02  0.1312668E+00
        -11   -1    0    0    0    0  0.00000000000E+00  0.00000000000E+00  0.45593999997E+02  0.45594000000E+02  0.51100000000E-03 0.  1.
         11   -1    0    0    0    0 -0.00000000000E+00 -0.00000000000E+00 -0.45593999997E+02  0.45594000000E+02  0.51100000000E-03 0. -1.
    9900012    2    1    2    0    0 -0.34611235256E+02 -0.23488719457E+02  0.11574344357E+02  0.47787274257E+02  0.20000014649E+02 0.  0.
         12    1    1    2    0    0  0.34611235256E+02  0.23488719457E+02 -0.11574344357E+02  0.43400725743E+02  0.00000000000E+00 0. -1.
         11    1    3    3    0    0 -0.19714406499E+02 -0.58084209137E+01  0.76486768489E+01  0.21929382913E+02  0.51100000000E-03 0. -1.
        -11    1    3    3    0    0 -0.14119388623E+02 -0.12515144650E+02  0.66013825033E+01  0.19989102829E+02  0.51100000000E-03 0.  1.
        -12    1    3    3    0    0 -0.77744013442E+00 -0.51651538933E+01 -0.26757149956E+01  0.58687885156E+01  0.00000000000E+00 0.  1.
</event>
<event>
 7    1  0.2769403E-010  0.4778727E+02  0.7816164E-02  0.1312668E+00
        -11   -1    0    0    0    0  0.00000000000E+00  0.00000000000E+00  0.45593999997E+02  0.45594000000E+02  0.51100000000E-03 0. -1.
         11   -1    0    0    0    0 -0.00000000000E+00 -0.00000000000E+00 -0.45593999997E+02  0.45594000000E+02  0.51100000000E-03 0.  1.
    9900012    2    1    2    0    0 -0.19108305900E+02  0.26128598931E+02 -0.28910071156E+02  0.47787271311E+02  0.20000001216E+02 0.  0.
         12    1    1    2    0    0  0.19108305900E+02 -0.26128598931E+02  0.28910071156E+02  0.43400728689E+02  0.00000000000E+00 0. -1.
         11    1    3    3    0    0 -0.13620729833E+00  0.65222198832E+01 -0.47747848398E+01  0.80843351712E+01  0.51100000000E-03 0. -1.
        -11    1    3    3    0    0 -0.15345858092E+02  0.21798953531E+02 -0.23251843646E+02  0.35374255735E+02  0.51100000000E-03 0.  1.
         12    1    3    3    0    0 -0.36262405095E+01 -0.21925744828E+01 -0.88344267033E+00  0.43286804048E+01  0.00000000000E+00 0. -1.
</event>
<event>
 7    1  0.2769403E-010  0.4778729E+02  0.7816164E-02  0.1312668E+00
        -11   -1    0    0    0    0  0.00000000000E+00  0.00000000000E+00  0.45593999997E+02  0.45594000000E+02  0.51100000000E-03 0.  1.
         11   -1    0    0    0    0 -0.00000000000E+00 -0.00000000000E+00 -0.45593999997E+02  0.45594000000E+02  0.51100000000E-03 0. -1.
    9900012    2    1    2    0    0 -0.82637422391E+01 -0.15285447640E+02  0.39770435540E+02  0.47787287006E+02  0.20000072775E+02 0.  0.
         12    1    1    2    0    0  0.82637422391E+01  0.15285447640E+02 -0.39770435540E+02  0.43400712994E+02  0.00000000000E+00 0. -1.
         11    1    3    3    0    0 -0.41989809916E+00  0.29794154409E+01  0.34532002817E+01  0.45801553718E+01  0.51100000000E-03 0. -1.
        -11    1    3    3    0    0 -0.93182390762E+01 -0.60864059380E+01  0.17917522552E+02  0.21092926098E+02  0.51100000000E-03 0.  1.
        -12    1    3    3    0    0  0.14743949363E+01 -0.12178457143E+02  0.18399712706E+02  0.22114205536E+02  0.00000000000E+00 0.  1.
</event>
<event>
 7    1  0.2769403E-010  0.4778727E+02  0.7816164E-02  0.1312668E+00
        -11   -1    0    0    0    0  0.00000000000E+00  0.00000000000E+00  0.45593999997E+02  0.45594000000E+02  0.51100000000E-03 0.  1.
         11   -1    0    0    0    0 -0.00000000000E+00 -0.00000000000E+00 -0.45593999997E+02  0.45594000000E+02  0.51100000000E-03 0. -1.
    9900012    2    1    2    0    0  0.29932195360E+02  0.15467068598E+02  0.27357937231E+02  0.47787271209E+02  0.20000000749E+02 0.  0.
         12    1    1    2    0    0 -0.29932195360E+02 -0.15467068598E+02 -0.27357937231E+02  0.43400728791E+02  0.00000000000E+00 0. -1.
         11    1    3    3    0    0  0.29196629855E+01 -0.16739926315E+00 -0.76009257498E+00  0.30216213273E+01  0.51100000000E-03 0. -1.
        -11    1    3    3    0    0  0.27949491057E+02  0.10911224848E+02  0.24658580420E+02  0.38836509455E+02  0.51100000000E-03 0.  1.
        -12    1    3    3    0    0 -0.93695868306E+00  0.47232430139E+01  0.34594493860E+01  0.59291404265E+01  0.00000000000E+00 0.  1.
</event>
<event>
 7    1  0.2769403E-010  0.4778727E+02  0.7816164E-02  0.1312668E+00
        -11   -1    0    0    0    0  0.00000000000E+00  0.00000000000E+00  0.45593999997E+02  0.45594000000E+02  0.51100000000E-03 0. -1.
         11   -1    0    0    0    0 -0.00000000000E+00 -0.00000000000E+00 -0.45593999997E+02  0.45594000000E+02  0.51100000000E-03 0.  1.
    9900012    2    1    2    0    0 -0.30942708516E+02  0.18484365944E+02 -0.24176444179E+02  0.47787269041E+02  0.19999990866E+02 0.  0.
         12    1    1    2    0    0  0.30942708516E+02 -0.18484365944E+02  0.24176444179E+02  0.43400730959E+02  0.00000000000E+00 0. -1.
         11    1    3    3    0    0 -0.51660611247E+01 -0.13264575929E+01 -0.39987211518E+01  0.66661419428E+01  0.51100000000E-03 0. -1.
        -11    1    3    3    0    0 -0.11701396419E+02  0.81964727608E+01 -0.17635952667E+02  0.22696512300E+02  0.51100000000E-03 0.  1.
         12    1    3    3    0    0 -0.14075250972E+02  0.11614350776E+02 -0.25417703597E+01  0.18424614798E+02  0.00000000000E+00 0. -1.
</event>
<event>
 7    1  0.2769403E-010  0.4778727E+02  0.7816164E-02  0.1312668E+00
        -11   -1    0    0    0    0  0.00000000000E+00  0.00000000000E+00  0.45593999997E+02  0.45594000000E+02  0.51100000000E-03 0. -1.
         11   -1    0    0    0    0 -0.00000000000E+00 -0.00000000000E+00 -0.45593999997E+02  0.45594000000E+02  0.51100000000E-03 0.  1.
    9900012    2    1    2    0    0 -0.19443241656E+02 -0.36198304957E+02  0.13973774212E+02  0.47787270818E+02  0.19999998966E+02 0.  0.
         12    1    1    2    0    0  0.19443241656E+02  0.36198304957E+02 -0.13973774212E+02  0.43400729182E+02  0.00000000000E+00 0. -1.
         11    1    3    3    0    0 -0.93535577890E+01 -0.69747944005E+01  0.88833986885E+01  0.14664636810E+02  0.51100000000E-03 0. -1.
        -11    1    3    3    0    0 -0.10272589577E+02 -0.13305268450E+02  0.25283189029E+01  0.16998489988E+02  0.51100000000E-03 0.  1.
         12    1    3    3    0    0  0.18290570981E+00 -0.15918242106E+02  0.25620566202E+01  0.16124144020E+02  0.00000000000E+00 0. -1.
</event>
<event>
 7    1  0.2769403E-010  0.4778727E+02  0.7816164E-02  0.1312668E+00
        -11   -1    0    0    0    0  0.00000000000E+00  0.00000000000E+00  0.45593999997E+02  0.45594000000E+02  0.51100000000E-03 0.  1.
         11   -1    0    0    0    0 -0.00000000000E+00 -0.00000000000E+00 -0.45593999997E+02  0.45594000000E+02  0.51100000000E-03 0. -1.
    9900012    2    1    2    0    0  0.23274408914E+02  0.33454411116E+02  0.14924060897E+02  0.47787270431E+02  0.19999997205E+02 0.  0.
         12    1    1    2    0    0 -0.23274408914E+02 -0.33454411116E+02 -0.14924060897E+02  0.43400729569E+02  0.00000000000E+00 0. -1.
         11    1    3    3    0    0  0.95768703937E+01  0.60638245186E+01 -0.44286152741E+00  0.11343832726E+02  0.51100000000E-03 0. -1.
        -11    1    3    3    0    0  0.90626455527E+01  0.79869708884E+01  0.15557076471E+01  0.12179633612E+02  0.51100000000E-03 0.  1.
        -12    1    3    3    0    0  0.46348929673E+01  0.19403615709E+02  0.13811214777E+02  0.24263804093E+02  0.00000000000E+00 0.  1.
</event>
<event>
 7    1  0.2769403E-010  0.4778726E+02  0.7816164E-02  0.1312668E+00
        -11   -1    0    0    0    0  0.00000000000E+00  0.00000000000E+00  0.45593999997E+02  0.45594000000E+02  0.51100000000E-03 0.  1.
         11   -1    0    0    0    0 -0.00000000000E+00 -0.00000000000E+00 -0.45593999997E+02  0.45594000000E+02  0.51100000000E-03 0. -1.
    9900012    2    1    2    0    0 -0.16223974695E+02 -0.39125679569E+02 -0.94650779523E+01  0.47787264323E+02  0.19999969353E+02 0.  0.
         12    1    1    2    0    0  0.16223974695E+02  0.39125679569E+02  0.94650779523E+01  0.43400735677E+02  0.00000000000E+00 0. -1.
         11    1    3    3    0    0 -0.53112480389E+01 -0.15715888705E+02 -0.51405937324E+01  0.17367331911E+02  0.51100000000E-03 0. -1.
        -11    1    3    3    0    0 -0.29758349313E+01 -0.19418287492E+02  0.16494772896E+01  0.19714113174E+02  0.51100000000E-03 0.  1.
         12    1    3    3    0    0 -0.79368917252E+01 -0.39915033724E+01 -0.59739615095E+01  0.10705819238E+02  0.00000000000E+00 0. -1.
</event>
<event>
 7    1  0.2769403E-010  0.4778727E+02  0.7816164E-02  0.1312668E+00
        -11   -1    0    0    0    0  0.00000000000E+00  0.00000000000E+00  0.45593999997E+02  0.45594000000E+02  0.51100000000E-03 0.  1.
         11   -1    0    0    0    0 -0.00000000000E+00 -0.00000000000E+00 -0.45593999997E+02  0.45594000000E+02  0.51100000000E-03 0. -1.
    9900012    2    1    2    0    0  0.22409678246E+02  0.42050326862E+00  0.37165210758E+02  0.47787269674E+02  0.19999993753E+02 0.  0.
         12    1    1    2    0    0 -0.22409678246E+02 -0.42050326862E+00 -0.37165210758E+02  0.43400730326E+02  0.00000000000E+00 0. -1.
         11    1    3    3    0    0 -0.85956404300E+00 -0.31391453035E+01  0.29644613840E+01  0.44023987937E+01  0.51100000000E-03 0. -1.
        -11    1    3    3    0    0  0.51245662679E+01  0.64755401360E+01  0.93057891623E+01  0.12441523688E+02  0.51100000000E-03 0.  1.
        -12    1    3    3    0    0  0.18144676021E+02 -0.29158915638E+01  0.24894960212E+02  0.30943347193E+02  0.00000000000E+00 0.  1.
</event>
<event>
 7    1  0.2769403E-010  0.4778727E+02  0.7816164E-02  0.1312668E+00
        -11   -1    0    0    0    0  0.00000000000E+00  0.00000000000E+00  0.45593999997E+02  0.45594000000E+02  0.51100000000E-03 0. -1.
         11   -1    0    0    0    0 -0.00000000000E+00 -0.00000000000E+00 -0.45593999997E+02  0.45594000000E+02  0.51100000000E-03 0.  1.
    9900012    2    1    2    0    0 -0.93666612058E+01 -0.23365154068E+02 -0.35354757756E+02  0.47787266564E+02  0.19999979573E+02 0.  0.
         12    1    1    2    0    0  0.93666612058E+01  0.23365154068E+02  0.35354757756E+02  0.43400733436E+02  0.00000000000E+00 0. -1.
         11    1    3    3    0    0  0.55970126507E+01 -0.42681310561E+01 -0.57960097666E+01  0.91179615485E+01  0.51100000000E-03 0. -1.
        -11    1    3    3    0    0 -0.90593798821E+00 -0.27915648021E+01 -0.64484246898E+01  0.70848951244E+01  0.51100000000E-03 0.  1.
        -12    1    3    3    0    0 -0.14057735868E+02 -0.16305458210E+02 -0.23110323300E+02  0.31584409891E+02  0.00000000000E+00 0.  1.
</event>
<event>
 7    1  0.2769403E-010  0.4778727E+02  0.7816164E-02  0.1312668E+00
        -11   -1    0    0    0    0  0.00000000000E+00  0.00000000000E+00  0.45593999997E+02  0.45594000000E+02  0.51100000000E-03 0.  1.
         11   -1    0    0    0    0 -0.00000000000E+00 -0.00000000000E+00 -0.45593999997E+02  0.45594000000E+02  0.51100000000E-03 0. -1.
    9900012    2    1    2    0    0 -0.27304173094E+02 -0.17546970387E+02  0.28813357520E+02  0.47787267176E+02  0.19999982361E+02 0.  0.
         12    1    1    2    0    0  0.27304173094E+02  0.17546970387E+02 -0.28813357520E+02  0.43400732824E+02  0.00000000000E+00 0. -1.
         11    1    3    3    0    0 -0.11108737989E+01 -0.16506725387E+00 -0.88963460931E+00  0.14327378667E+01  0.51100000000E-03 0.  1.
        -11    1    3    3    0    0 -0.20432314367E+02 -0.37466626428E+01  0.16742746684E+02  0.26680264582E+02  0.51100000000E-03 0. -1.
        -12    1    3    3    0    0 -0.57609849277E+01 -0.13635240490E+02  0.12960245445E+02  0.19674264728E+02  0.00000000000E+00 0.  1.
</event>
<event>
 7    1  0.2769403E-010  0.4778727E+02  0.7816164E-02  0.1312668E+00
        -11   -1    0    0    0    0  0.00000000000E+00  0.00000000000E+00  0.45593999997E+02  0.45594000000E+02  0.51100000000E-03 0.  1.
         11   -1    0    0    0    0 -0.00000000000E+00 -0.00000000000E+00 -0.45593999997E+02  0.45594000000E+02  0.51100000000E-03 0. -1.
    9900012    2    1    2    0    0  0.10729916188E+02  0.26556592187E+02  0.32607361714E+02  0.47787265813E+02  0.19999976149E+02 0.  0.
         12    1    1    2    0    0 -0.10729916188E+02 -0.26556592187E+02 -0.32607361714E+02  0.43400734187E+02  0.00000000000E+00 0. -1.
         11    1    3    3    0    0  0.59558702120E+01  0.23162058137E+01  0.30674541509E+01  0.70884747712E+01  0.51100000000E-03 0.  1.
        -11    1    3    3    0    0  0.12739855870E+01  0.13010718556E+02  0.60007657034E+01  0.14384402174E+02  0.51100000000E-03 0. -1.
        -12    1    3    3    0    0  0.35000603887E+01  0.11229667818E+02  0.23539141860E+02  0.26314388868E+02  0.00000000000E+00 0.  1.
</event>
<event>
 7    1  0.2769403E-010  0.4778727E+02  0.7816164E-02  0.1312668E+00
        -11   -1    0    0    0    0  0.00000000000E+00  0.00000000000E+00  0.45593999997E+02  0.45594000000E+02  0.51100000000E-03 0.  1.
         11   -1    0    0    0    0 -0.00000000000E+00 -0.00000000000E+00 -0.45593999997E+02  0.45594000000E+02  0.51100000000E-03 0. -1.
    9900012    2    1    2    0    0  0.19176501425E+01  0.33667953777E+02  0.27320593278E+02  0.47787270621E+02  0.19999998068E+02 0.  0.
         12    1    1    2    0    0 -0.19176501425E+01 -0.33667953777E+02 -0.27320593278E+02  0.43400729379E+02  0.00000000000E+00 0. -1.
         11    1    3    3    0    0 -0.37588211008E+01  0.45560050515E+01  0.46616768725E+01  0.75244368308E+01  0.51100000000E-03 0. -1.
        -11    1    3    3    0    0  0.27556668904E+01  0.14877443553E+02  0.20640518216E+02  0.25592245294E+02  0.51100000000E-03 0.  1.
         12    1    3    3    0    0  0.29208043529E+01  0.14234505173E+02  0.20183981895E+01  0.14670588496E+02  0.00000000000E+00 0. -1.
</event>
<event>
 7    1  0.2769403E-010  0.4778727E+02  0.7816164E-02  0.1312668E+00
        -11   -1    0    0    0    0  0.00000000000E+00  0.00000000000E+00  0.45593999997E+02  0.45594000000E+02  0.51100000000E-03 0. -1.
         11   -1    0    0    0    0 -0.00000000000E+00 -0.00000000000E+00 -0.45593999997E+02  0.45594000000E+02  0.51100000000E-03 0.  1.
    9900012    2    1    2    0    0  0.17282505419E+02 -0.13962282542E+02 -0.37282608315E+02  0.47787271779E+02  0.20000003351E+02 0.  0.
         12    1    1    2    0    0 -0.17282505419E+02  0.13962282542E+02  0.37282608315E+02  0.43400728221E+02  0.00000000000E+00 0. -1.
         11    1    3    3    0    0  0.29292503415E+01 -0.93542456522E+00 -0.93341762098E+01  0.98276331055E+01  0.51100000000E-03 0. -1.
        -11    1    3    3    0    0  0.69729130047E+01 -0.28913509615E+01 -0.23456827331E+02  0.24641513242E+02  0.51100000000E-03 0.  1.
         12    1    3    3    0    0  0.73803420729E+01 -0.10135507016E+02 -0.44916047737E+01  0.13318125432E+02  0.00000000000E+00 0. -1.
</event>
<event>
 7    1  0.2769403E-010  0.4778726E+02  0.7816164E-02  0.1312668E+00
        -11   -1    0    0    0    0  0.00000000000E+00  0.00000000000E+00  0.45593999997E+02  0.45594000000E+02  0.51100000000E-03 0. -1.
         11   -1    0    0    0    0 -0.00000000000E+00 -0.00000000000E+00 -0.45593999997E+02  0.45594000000E+02  0.51100000000E-03 0.  1.
    9900012    2    1    2    0    0  0.30410068461E+01 -0.33822541357E+02 -0.27026139044E+02  0.47787260167E+02  0.19999950405E+02 0.  0.
         12    1    1    2    0    0 -0.30410068461E+01  0.33822541357E+02  0.27026139044E+02  0.43400739833E+02  0.00000000000E+00 0. -1.
         11    1    3    3    0    0 -0.10121977190E+01 -0.36394471043E+01 -0.53465455070E+01  0.65464241054E+01  0.51100000000E-03 0. -1.
        -11    1    3    3    0    0  0.10403312230E+02 -0.12322153871E+02 -0.99202280581E+01  0.18933444123E+02  0.51100000000E-03 0.  1.
        -12    1    3    3    0    0 -0.63501076645E+01 -0.17860940381E+02 -0.11759365478E+02  0.22307391938E+02  0.00000000000E+00 0.  1.
</event>
<event>
 7    1  0.2769403E-010  0.4778727E+02  0.7816164E-02  0.1312668E+00
        -11   -1    0    0    0    0  0.00000000000E+00  0.00000000000E+00  0.45593999997E+02  0.45594000000E+02  0.51100000000E-03 0.  1.
         11   -1    0    0    0    0 -0.00000000000E+00 -0.00000000000E+00 -0.45593999997E+02  0.45594000000E+02  0.51100000000E-03 0. -1.
    9900012    2    1    2    0    0 -0.13616464013E+01 -0.10090283808E+02  0.42189517351E+02  0.47787270945E+02  0.19999999545E+02 0.  0.
         12    1    1    2    0    0  0.13616464013E+01  0.10090283808E+02 -0.42189517351E+02  0.43400729055E+02  0.00000000000E+00 0. -1.
         11    1    3    3    0    0 -0.50047291203E+01 -0.14389370196E+01  0.74538179500E+01  0.90927034268E+01  0.51100000000E-03 0. -1.
        -11    1    3    3    0    0 -0.31607451614E+01  0.22561955281E+01  0.11522732157E+02  0.12159526506E+02  0.51100000000E-03 0.  1.
        -12    1    3    3    0    0  0.68038278804E+01 -0.10907542317E+02  0.23212967244E+02  0.26535041012E+02  0.00000000000E+00 0.  1.
</event>
<event>
 7    1  0.2824403E-010  0.4778727E+02  0.7816164E-02  0.1312668E+00
        -11   -1    0    0    0    0  0.00000000000E+00  0.00000000000E+00  0.45593999997E+02  0.45594000000E+02  0.51100000000E-03 0.  1.
         11   -1    0    0    0    0 -0.00000000000E+00 -0.00000000000E+00 -0.45593999997E+02  0.45594000000E+02  0.51100000000E-03 0. -1.
    9900012    2    1    2    0    0 -0.17671001128E+02 -0.28906340165E+02  0.27125316240E+02  0.47787267705E+02  0.19999984775E+02 0.  0.
         12    1    1    2    0    0  0.17671001128E+02  0.28906340165E+02 -0.27125316240E+02  0.43400732295E+02  0.00000000000E+00 0. -1.
         11    1    3    3    0    0 -0.12840920779E+02 -0.10851250517E+02  0.11066182242E+02  0.20127078127E+02  0.51100000000E-03 0. -1.
        -11    1    3    3    0    0 -0.76379931462E+01 -0.11852190075E+02  0.15304527468E+02  0.20809659059E+02  0.51100000000E-03 0.  1.
         12    1    3    3    0    0  0.28079127969E+01 -0.62028995724E+01  0.75460653012E+00  0.68505305192E+01  0.00000000000E+00 0. -1.
</event>
<event>
 7    1  0.2769403E-010  0.4778728E+02  0.7816164E-02  0.1312668E+00
        -11   -1    0    0    0    0  0.00000000000E+00  0.00000000000E+00  0.45593999997E+02  0.45594000000E+02  0.51100000000E-03 0. -1.
         11   -1    0    0    0    0 -0.00000000000E+00 -0.00000000000E+00 -0.45593999997E+02  0.45594000000E+02  0.51100000000E-03 0.  1.
    9900012    2    1    2    0    0 -0.13377933142E+02 -0.40051439556E+02  0.10026754314E+02  0.47787277567E+02  0.20000029739E+02 0.  0.
         12    1    1    2    0    0  0.13377933142E+02  0.40051439556E+02 -0.10026754314E+02  0.43400722433E+02  0.00000000000E+00 0. -1.
         11    1    3    3    0    0 -0.12340006567E+00 -0.77881251964E+01  0.64197315920E+01  0.10093714659E+02  0.51100000000E-03 0. -1.
        -11    1    3    3    0    0 -0.24352272639E+01 -0.15850316529E+02  0.74188264372E+01  0.17669234614E+02  0.51100000000E-03 0.  1.
        -12    1    3    3    0    0 -0.10819305812E+02 -0.16412997830E+02 -0.38118037150E+01  0.20024328293E+02  0.00000000000E+00 0.  1.
</event>
<event>
 7    1  0.2769403E-010  0.4778727E+02  0.7816164E-02  0.1312668E+00
        -11   -1    0    0    0    0  0.00000000000E+00  0.00000000000E+00  0.45593999997E+02  0.45594000000E+02  0.51100000000E-03 0.  1.
         11   -1    0    0    0    0 -0.00000000000E+00 -0.00000000000E+00 -0.45593999997E+02  0.45594000000E+02  0.51100000000E-03 0. -1.
    9900012    2    1    2    0    0 -0.36745539990E+02 -0.34089691004E+01  0.22842234253E+02  0.47787269071E+02  0.19999991002E+02 0.  0.
         12    1    1    2    0    0  0.36745539990E+02  0.34089691004E+01 -0.22842234253E+02  0.43400730929E+02  0.00000000000E+00 0. -1.
         11    1    3    3    0    0 -0.11385069909E+02 -0.38976127823E+01  0.15527597675E+01  0.12133518261E+02  0.51100000000E-03 0. -1.
        -11    1    3    3    0    0 -0.19617966208E+02  0.33978630859E+01  0.91475826445E+01  0.21910918287E+02  0.51100000000E-03 0.  1.
         12    1    3    3    0    0 -0.57425038736E+01 -0.29092194040E+01  0.12141891841E+02  0.13742832523E+02  0.00000000000E+00 0. -1.
</event>
<event>
 7    1  0.2769403E-010  0.4778727E+02  0.7816164E-02  0.1312668E+00
        -11   -1    0    0    0    0  0.00000000000E+00  0.00000000000E+00  0.45593999997E+02  0.45594000000E+02  0.51100000000E-03 0.  1.
         11   -1    0    0    0    0 -0.00000000000E+00 -0.00000000000E+00 -0.45593999997E+02  0.45594000000E+02  0.51100000000E-03 0. -1.
    9900012    2    1    2    0    0  0.28525172146E+02 -0.82475907074E+01  0.31653042959E+02  0.47787270432E+02  0.19999997210E+02 0.  0.
         12    1    1    2    0    0 -0.28525172146E+02  0.82475907074E+01 -0.31653042959E+02  0.43400729568E+02  0.00000000000E+00 0. -1.
         11    1    3    3    0    0  0.58143377077E+01 -0.83315311950E+00  0.11361742097E+02  0.12790224816E+02  0.51100000000E-03 0. -1.
        -11    1    3    3    0    0  0.18548549560E+02 -0.52520938881E+01  0.22653104092E+02  0.29745525819E+02  0.51100000000E-03 0.  1.
         12    1    3    3    0    0  0.41622848780E+01 -0.21623436998E+01 -0.23618032303E+01  0.52515197972E+01  0.00000000000E+00 0. -1.
</event>
<event>
 7    1  0.2769403E-010  0.4778727E+02  0.7816164E-02  0.1312668E+00
        -11   -1    0    0    0    0  0.00000000000E+00  0.00000000000E+00  0.45593999997E+02  0.45594000000E+02  0.51100000000E-03 0. -1.
         11   -1    0    0    0    0 -0.00000000000E+00 -0.00000000000E+00 -0.45593999997E+02  0.45594000000E+02  0.51100000000E-03 0.  1.
    9900012    2    1    2    0    0 -0.27856619857E+02  0.32300015329E+02 -0.80212767178E+01  0.47787272583E+02  0.20000007017E+02 0.  0.
         12    1    1    2    0    0  0.27856619857E+02 -0.32300015329E+02  0.80212767178E+01  0.43400727417E+02  0.00000000000E+00 0. -1.
         11    1    3    3    0    0 -0.35834639338E+01  0.21332861907E+01  0.33509846662E+01  0.53498805810E+01  0.51100000000E-03 0. -1.
        -11    1    3    3    0    0 -0.15705814391E+02  0.11011640612E+02 -0.14790270847E+01  0.19238408355E+02  0.51100000000E-03 0.  1.
        -12    1    3    3    0    0 -0.85673415323E+01  0.19155088526E+02 -0.98932342994E+01  0.23198983648E+02  0.00000000000E+00 0.  1.
</event>
<event>
 7    1  0.2769403E-010  0.4778727E+02  0.7816164E-02  0.1312668E+00
        -11   -1    0    0    0    0  0.00000000000E+00  0.00000000000E+00  0.45593999997E+02  0.45594000000E+02  0.51100000000E-03 0. -1.
         11   -1    0    0    0    0 -0.00000000000E+00 -0.00000000000E+00 -0.45593999997E+02  0.45594000000E+02  0.51100000000E-03 0.  1.
    9900012    2    1    2    0    0 -0.18117935920E+02 -0.39235457819E+02 -0.39928275241E+01  0.47787269315E+02  0.19999992117E+02 0.  0.
         12    1    1    2    0    0  0.18117935920E+02  0.39235457819E+02  0.39928275241E+01  0.43400730685E+02  0.00000000000E+00 0. -1.
         11    1    3    3    0    0 -0.42808013614E+01  0.61023639745E-01  0.20077219170E+01  0.47286289490E+01  0.51100000000E-03 0. -1.
        -11    1    3    3    0    0 -0.38858834434E+01 -0.11743745519E+02  0.23625553258E+01  0.12593542666E+02  0.51100000000E-03 0.  1.
        -12    1    3    3    0    0 -0.99512511156E+01 -0.27552735941E+02 -0.83631047669E+01  0.30465097701E+02  0.00000000000E+00 0.  1.
</event>
<event>
 7    1  0.2769403E-010  0.4778729E+02  0.7816164E-02  0.1312668E+00
        -11   -1    0    0    0    0  0.00000000000E+00  0.00000000000E+00  0.45593999997E+02  0.45594000000E+02  0.51100000000E-03 0.  1.
         11   -1    0    0    0    0 -0.00000000000E+00 -0.00000000000E+00 -0.45593999997E+02  0.45594000000E+02  0.51100000000E-03 0. -1.
    9900012    2    1    2    0    0 -0.36162433499E+02 -0.23936445893E+02  0.17165147128E+01  0.47787291926E+02  0.20000095207E+02 0.  0.
         12    1    1    2    0    0  0.36162433499E+02  0.23936445893E+02 -0.17165147128E+01  0.43400708074E+02  0.00000000000E+00 0. -1.
         11    1    3    3    0    0 -0.72011935964E+01 -0.63690657599E+01 -0.28125695004E+01  0.10016622950E+02  0.51100000000E-03 0. -1.
        -11    1    3    3    0    0 -0.96600911687E+01  0.37432738199E+00 -0.34058148493E+01  0.10249734505E+02  0.51100000000E-03 0.  1.
         12    1    3    3    0    0 -0.19301148734E+02 -0.17941707515E+02  0.79348990626E+01  0.27520934471E+02  0.00000000000E+00 0. -1.
</event>
<event>
 7    1  0.2769403E-010  0.4778727E+02  0.7816164E-02  0.1312668E+00
        -11   -1    0    0    0    0  0.00000000000E+00  0.00000000000E+00  0.45593999997E+02  0.45594000000E+02  0.51100000000E-03 0.  1.
         11   -1    0    0    0    0 -0.00000000000E+00 -0.00000000000E+00 -0.45593999997E+02  0.45594000000E+02  0.51100000000E-03 0. -1.
    9900012    2    1    2    0    0  0.58512670378E+01  0.30235685538E+02  0.30580861754E+02  0.47787272915E+02  0.20000008530E+02 0.  0.
         12    1    1    2    0    0 -0.58512670378E+01 -0.30235685538E+02 -0.30580861754E+02  0.43400727085E+02  0.00000000000E+00 0. -1.
         11    1    3    3    0    0  0.15250861210E+01  0.52586974059E+01  0.46209892036E+01  0.71647280174E+01  0.51100000000E-03 0. -1.
        -11    1    3    3    0    0  0.77533499951E+01  0.22568580571E+02  0.27266974742E+02  0.36234557773E+02  0.51100000000E-03 0.  1.
         12    1    3    3    0    0 -0.34271690783E+01  0.24084075603E+01 -0.13071021921E+01  0.43879871249E+01  0.00000000000E+00 0. -1.
</event>
<event>
 7    1  0.2769403E-010  0.4778727E+02  0.7816164E-02  0.1312668E+00
        -11   -1    0    0    0    0  0.00000000000E+00  0.00000000000E+00  0.45593999997E+02  0.45594000000E+02  0.51100000000E-03 0. -1.
         11   -1    0    0    0    0 -0.00000000000E+00 -0.00000000000E+00 -0.45593999997E+02  0.45594000000E+02  0.51100000000E-03 0.  1.
    9900012    2    1    2    0    0 -0.11350608550E+01 -0.75012536274E+01 -0.42732493428E+02  0.47787272313E+02  0.20000005785E+02 0.  0.
         12    1    1    2    0    0  0.11350608550E+01  0.75012536274E+01  0.42732493428E+02  0.43400727687E+02  0.00000000000E+00 0. -1.
         11    1    3    3    0    0  0.39479219069E+01 -0.12306915924E+01 -0.24852953082E+02  0.25194641620E+02  0.51100000000E-03 0. -1.
        -11    1    3    3    0    0 -0.30223546829E+01  0.19004751924E+01 -0.11448132425E+02  0.11991921033E+02  0.51100000000E-03 0.  1.
         12    1    3    3    0    0 -0.20606280789E+01 -0.81710372273E+01 -0.64314079209E+01  0.10600709660E+02  0.00000000000E+00 0. -1.
</event>
<event>
 7    1  0.2769403E-010  0.4778728E+02  0.7816164E-02  0.1312668E+00
        -11   -1    0    0    0    0  0.00000000000E+00  0.00000000000E+00  0.45593999997E+02  0.45594000000E+02  0.51100000000E-03 0. -1.
         11   -1    0    0    0    0 -0.00000000000E+00 -0.00000000000E+00 -0.45593999997E+02  0.45594000000E+02  0.51100000000E-03 0.  1.
    9900012    2    1    2    0    0 -0.25500662003E+02  0.21693557756E+02 -0.27617530775E+02  0.47787283223E+02  0.20000055527E+02 0.  0.
         12    1    1    2    0    0  0.25500662003E+02 -0.21693557756E+02  0.27617530775E+02  0.43400716777E+02  0.00000000000E+00 0. -1.
         11    1    3    3    0    0  0.20923277753E+01  0.25350083890E+01 -0.25078411758E+01  0.41344129784E+01  0.51100000000E-03 0. -1.
        -11    1    3    3    0    0 -0.88466947640E+01  0.72692741403E+00 -0.98328358424E+01  0.13246776690E+02  0.51100000000E-03 0.  1.
        -12    1    3    3    0    0 -0.18746295014E+02  0.18431621953E+02 -0.15276853757E+02  0.30406093555E+02  0.00000000000E+00 0.  1.
</event>
<event>
 7    1  0.2769403E-010  0.4778727E+02  0.7816164E-02  0.1312668E+00
        -11   -1    0    0    0    0  0.00000000000E+00  0.00000000000E+00  0.45593999997E+02  0.45594000000E+02  0.51100000000E-03 0. -1.
         11   -1    0    0    0    0 -0.00000000000E+00 -0.00000000000E+00 -0.45593999997E+02  0.45594000000E+02  0.51100000000E-03 0.  1.
    9900012    2    1    2    0    0 -0.29587652336E+02  0.31417763255E+02  0.45954301988E+01  0.47787274230E+02  0.20000014523E+02 0.  0.
         12    1    1    2    0    0  0.29587652336E+02 -0.31417763255E+02 -0.45954301988E+01  0.43400725770E+02  0.00000000000E+00 0. -1.
         11    1    3    3    0    0 -0.88241232807E+01  0.69313599177E+01 -0.46950929836E+01  0.12163585013E+02  0.51100000000E-03 0. -1.
        -11    1    3    3    0    0 -0.19165501222E+02  0.20874021455E+02  0.34138818794E+01  0.28542876494E+02  0.51100000000E-03 0.  1.
         12    1    3    3    0    0 -0.15980278336E+01  0.36123818815E+01  0.58766413031E+01  0.70808127231E+01  0.00000000000E+00 0. -1.
</event>
<event>
 7    1  0.2769403E-010  0.4778727E+02  0.7816164E-02  0.1312668E+00
        -11   -1    0    0    0    0  0.00000000000E+00  0.00000000000E+00  0.45593999997E+02  0.45594000000E+02  0.51100000000E-03 0.  1.
         11   -1    0    0    0    0 -0.00000000000E+00 -0.00000000000E+00 -0.45593999997E+02  0.45594000000E+02  0.51100000000E-03 0. -1.
    9900012    2    1    2    0    0  0.31820501317E+02 -0.14041010641E+02  0.25960148550E+02  0.47787267326E+02  0.19999983046E+02 0.  0.
         12    1    1    2    0    0 -0.31820501317E+02  0.14041010641E+02 -0.25960148550E+02  0.43400732674E+02  0.00000000000E+00 0. -1.
         11    1    3    3    0    0  0.82017515524E+01 -0.14257851244E+01  0.14409567847E+02  0.16641431355E+02  0.51100000000E-03 0. -1.
        -11    1    3    3    0    0  0.18234342635E+02 -0.46848008526E+01  0.10353865488E+02  0.21485835826E+02  0.51100000000E-03 0.  1.
         12    1    3    3    0    0  0.53844071301E+01 -0.79304246638E+01  0.11967152152E+01  0.96600001448E+01  0.00000000000E+00 0. -1.
</event>
<event>
 7    1  0.2769403E-010  0.4778727E+02  0.7816164E-02  0.1312668E+00
        -11   -1    0    0    0    0  0.00000000000E+00  0.00000000000E+00  0.45593999997E+02  0.45594000000E+02  0.51100000000E-03 0.  1.
         11   -1    0    0    0    0 -0.00000000000E+00 -0.00000000000E+00 -0.45593999997E+02  0.45594000000E+02  0.51100000000E-03 0. -1.
    9900012    2    1    2    0    0 -0.23449780809E+02 -0.31798647258E+02 -0.17960430105E+02  0.47787271469E+02  0.20000001938E+02 0.  0.
         12    1    1    2    0    0  0.23449780809E+02  0.31798647258E+02  0.17960430105E+02  0.43400728531E+02  0.00000000000E+00 0. -1.
         11    1    3    3    0    0 -0.15240768944E+01 -0.12911601075E+01 -0.46048601743E+01  0.50194264900E+01  0.51100000000E-03 0. -1.
        -11    1    3    3    0    0 -0.15815964946E+02 -0.11109833092E+02 -0.11144677645E+02  0.22310916130E+02  0.51100000000E-03 0.  1.
         12    1    3    3    0    0 -0.61097389693E+01 -0.19397654059E+02 -0.22108922856E+01  0.20456928850E+02  0.00000000000E+00 0. -1.
</event>
<event>
 7    1  0.2769403E-010  0.4778730E+02  0.7816164E-02  0.1312668E+00
        -11   -1    0    0    0    0  0.00000000000E+00  0.00000000000E+00  0.45593999997E+02  0.45594000000E+02  0.51100000000E-03 0.  1.
         11   -1    0    0    0    0 -0.00000000000E+00 -0.00000000000E+00 -0.45593999997E+02  0.45594000000E+02  0.51100000000E-03 0. -1.
    9900012    2    1    2    0    0  0.28450608023E+02 -0.24394009941E+02  0.21888714717E+02  0.47787301275E+02  0.20000137833E+02 0.  0.
         12    1    1    2    0    0 -0.28450608023E+02  0.24394009941E+02 -0.21888714717E+02  0.43400698725E+02  0.00000000000E+00 0. -1.
         11    1    3    3    0    0  0.10404124819E+02 -0.60498586625E+01  0.15137630640E+02  0.19338936495E+02  0.51100000000E-03 0. -1.
        -11    1    3    3    0    0  0.13766164395E+02 -0.11901378858E+02  0.91250809684E+01  0.20357239592E+02  0.51100000000E-03 0.  1.
         12    1    3    3    0    0  0.42803188082E+01 -0.64427724205E+01 -0.23739968920E+01  0.80911251878E+01  0.00000000000E+00 0. -1.
</event>
<event>
 7    1  0.2769403E-010  0.4778727E+02  0.7816164E-02  0.1312668E+00
        -11   -1    0    0    0    0  0.00000000000E+00  0.00000000000E+00  0.45593999997E+02  0.45594000000E+02  0.51100000000E-03 0.  1.
         11   -1    0    0    0    0 -0.00000000000E+00 -0.00000000000E+00 -0.45593999997E+02  0.45594000000E+02  0.51100000000E-03 0. -1.
    9900012    2    1    2    0    0  0.39080917200E+02 -0.15352628454E+02 -0.10981884060E+02  0.47787273426E+02  0.20000010860E+02 0.  0.
         12    1    1    2    0    0 -0.39080917200E+02  0.15352628454E+02  0.10981884060E+02  0.43400726574E+02  0.00000000000E+00 0. -1.
         11    1    3    3    0    0  0.13532966330E+02 -0.85465801588E+01 -0.60413646005E+01  0.17107989262E+02  0.51100000000E-03 0. -1.
        -11    1    3    3    0    0  0.23451703426E+02 -0.91287456704E+01 -0.40469505876E+00  0.25169031953E+02  0.51100000000E-03 0.  1.
         12    1    3    3    0    0  0.20962474442E+01  0.23226973749E+01 -0.45358244003E+01  0.55102522114E+01  0.00000000000E+00 0. -1.
</event>
<event>
 7    1  0.2769403E-010  0.4778727E+02  0.7816164E-02  0.1312668E+00
        -11   -1    0    0    0    0  0.00000000000E+00  0.00000000000E+00  0.45593999997E+02  0.45594000000E+02  0.51100000000E-03 0.  1.
         11   -1    0    0    0    0 -0.00000000000E+00 -0.00000000000E+00 -0.45593999997E+02  0.45594000000E+02  0.51100000000E-03 0. -1.
    9900012    2    1    2    0    0 -0.33284070742E+02  0.20376901423E+02  0.18988836843E+02  0.47787269575E+02  0.19999993302E+02 0.  0.
         12    1    1    2    0    0  0.33284070742E+02 -0.20376901423E+02 -0.18988836843E+02  0.43400730425E+02  0.00000000000E+00 0. -1.
         11    1    3    3    0    0 -0.46245056708E+01  0.27231164079E+01  0.52843870661E+01  0.75316772764E+01  0.51100000000E-03 0.  1.
        -11    1    3    3    0    0 -0.30798064764E+02  0.17886685989E+02  0.12268561941E+02  0.37669243970E+02  0.51100000000E-03 0. -1.
         12    1    3    3    0    0  0.21384996930E+01 -0.23290097465E+00  0.14358878360E+01  0.25863483290E+01  0.00000000000E+00 0. -1.
</event>
<event>
 7    1  0.2769403E-010  0.4778727E+02  0.7816164E-02  0.1312668E+00
        -11   -1    0    0    0    0  0.00000000000E+00  0.00000000000E+00  0.45593999997E+02  0.45594000000E+02  0.51100000000E-03 0.  1.
         11   -1    0    0    0    0 -0.00000000000E+00 -0.00000000000E+00 -0.45593999997E+02  0.45594000000E+02  0.51100000000E-03 0. -1.
    9900012    2    1    2    0    0 -0.39636621567E+02 -0.16755797247E+02  0.56395643767E+01  0.47787271930E+02  0.20000004039E+02 0.  0.
         12    1    1    2    0    0  0.39636621567E+02  0.16755797247E+02 -0.56395643767E+01  0.43400728070E+02  0.00000000000E+00 0. -1.
         11    1    3    3    0    0 -0.32179036509E+01  0.24523205041E+01  0.19837535535E+01  0.45060024615E+01  0.51100000000E-03 0. -1.
        -11    1    3    3    0    0 -0.20026859178E+01  0.75332301008E+00  0.27508414660E+01  0.34850215890E+01  0.51100000000E-03 0.  1.
        -12    1    3    3    0    0 -0.34416031998E+02 -0.19961440761E+02  0.90496935716E+00  0.39796247880E+02  0.00000000000E+00 0.  1.
</event>
<event>
 7    1  0.2769403E-010  0.4778726E+02  0.7816164E-02  0.1312668E+00
        -11   -1    0    0    0    0  0.00000000000E+00  0.00000000000E+00  0.45593999997E+02  0.45594000000E+02  0.51100000000E-03 0.  1.
         11   -1    0    0    0    0 -0.00000000000E+00 -0.00000000000E+00 -0.45593999997E+02  0.45594000000E+02  0.51100000000E-03 0. -1.
    9900012    2    1    2    0    0 -0.25133074832E+02  0.80226781849E+01  0.34461412983E+02  0.47787264977E+02  0.19999972336E+02 0.  0.
         12    1    1    2    0    0  0.25133074832E+02 -0.80226781849E+01 -0.34461412983E+02  0.43400735023E+02  0.00000000000E+00 0. -1.
         11    1    3    3    0    0 -0.14592312529E+02  0.41889908710E+01  0.84617141030E+01  0.17380559119E+02  0.51100000000E-03 0. -1.
        -11    1    3    3    0    0 -0.94423158918E+01  0.27766110314E+01  0.89934178135E+01  0.13332233963E+02  0.51100000000E-03 0.  1.
         12    1    3    3    0    0 -0.10984464112E+01  0.10570762825E+01  0.17006281066E+02  0.17074471895E+02  0.00000000000E+00 0. -1.
</event>
<event>
 7    1  0.2769403E-010  0.4778726E+02  0.7816164E-02  0.1312668E+00
        -11   -1    0    0    0    0  0.00000000000E+00  0.00000000000E+00  0.45593999997E+02  0.45594000000E+02  0.51100000000E-03 0.  1.
         11   -1    0    0    0    0 -0.00000000000E+00 -0.00000000000E+00 -0.45593999997E+02  0.45594000000E+02  0.51100000000E-03 0. -1.
    9900012    2    1    2    0    0  0.14970477904E+02  0.24094288506E+02  0.32847740073E+02  0.47787262964E+02  0.19999963160E+02 0.  0.
         12    1    1    2    0    0 -0.14970477904E+02 -0.24094288506E+02 -0.32847740073E+02  0.43400737036E+02  0.00000000000E+00 0. -1.
         11    1    3    3    0    0 -0.10715563532E+01  0.68825316288E+01  0.64086283409E+01  0.94650933494E+01  0.51100000000E-03 0. -1.
        -11    1    3    3    0    0  0.49170798777E+01  0.11102026630E+02  0.21521635479E+02  0.24710594161E+02  0.51100000000E-03 0.  1.
         12    1    3    3    0    0  0.11124954380E+02  0.61097302475E+01  0.49174762534E+01  0.13611575454E+02  0.00000000000E+00 0. -1.
</event>
<event>
 7    1  0.2769403E-010  0.4778727E+02  0.7816164E-02  0.1312668E+00
        -11   -1    0    0    0    0  0.00000000000E+00  0.00000000000E+00  0.45593999997E+02  0.45594000000E+02  0.51100000000E-03 0. -1.
         11   -1    0    0    0    0 -0.00000000000E+00 -0.00000000000E+00 -0.45593999997E+02  0.45594000000E+02  0.51100000000E-03 0.  1.
    9900012    2    1    2    0    0  0.40536017227E+02 -0.12487757071E+02 -0.91929425619E+01  0.47787274635E+02  0.20000016370E+02 0.  0.
         12    1    1    2    0    0 -0.40536017227E+02  0.12487757071E+02  0.91929425619E+01  0.43400725365E+02  0.00000000000E+00 0. -1.
         11    1    3    3    0    0  0.13511159138E+02 -0.47065273751E+01 -0.10420584185E+02  0.17700039441E+02  0.51100000000E-03 0.  1.
        -11    1    3    3    0    0  0.36378424105E+00 -0.72183563138E-01 -0.21024606483E+01  0.21349216565E+01  0.51100000000E-03 0. -1.
        -12    1    3    3    0    0  0.26661073847E+02 -0.77090461332E+01  0.33301022711E+01  0.27952313538E+02  0.00000000000E+00 0.  1.
</event>
<event>
 7    1  0.2769403E-010  0.4778727E+02  0.7816164E-02  0.1312668E+00
        -11   -1    0    0    0    0  0.00000000000E+00  0.00000000000E+00  0.45593999997E+02  0.45594000000E+02  0.51100000000E-03 0. -1.
         11   -1    0    0    0    0 -0.00000000000E+00 -0.00000000000E+00 -0.45593999997E+02  0.45594000000E+02  0.51100000000E-03 0.  1.
    9900012    2    1    2    0    0 -0.29886606945E+02  0.28238389015E+02  0.13892704795E+02  0.47787272640E+02  0.20000007275E+02 0.  0.
         12    1    1    2    0    0  0.29886606945E+02 -0.28238389015E+02 -0.13892704795E+02  0.43400727360E+02  0.00000000000E+00 0. -1.
         11    1    3    3    0    0 -0.89753169452E+01  0.12590050006E+02  0.25630236553E+01  0.15672739516E+02  0.51100000000E-03 0. -1.
        -11    1    3    3    0    0 -0.23241799882E+02  0.14558583487E+02  0.98116061710E+01  0.29127327904E+02  0.51100000000E-03 0.  1.
        -12    1    3    3    0    0  0.23305098829E+01  0.10897555225E+01  0.15180749690E+01  0.29872052197E+01  0.00000000000E+00 0.  1.
</event>
<event>
 7    1  0.2769403E-010  0.4778727E+02  0.7816164E-02  0.1312668E+00
        -11   -1    0    0    0    0  0.00000000000E+00  0.00000000000E+00  0.45593999997E+02  0.45594000000E+02  0.51100000000E-03 0.  1.
         11   -1    0    0    0    0 -0.00000000000E+00 -0.00000000000E+00 -0.45593999997E+02  0.45594000000E+02  0.51100000000E-03 0. -1.
    9900012    2    1    2    0    0  0.16344258716E+02 -0.96704933167E+01  0.39025248632E+02  0.47787271150E+02  0.20000000479E+02 0.  0.
         12    1    1    2    0    0 -0.16344258716E+02  0.96704933167E+01 -0.39025248632E+02  0.43400728850E+02  0.00000000000E+00 0. -1.
         11    1    3    3    0    0  0.87483748331E+01 -0.45569153575E+01  0.14302744612E+02  0.17374350160E+02  0.51100000000E-03 0.  1.
        -11    1    3    3    0    0  0.41445968554E+01  0.40645500948E+01  0.16900493821E+02  0.17869665420E+02  0.51100000000E-03 0. -1.
         12    1    3    3    0    0  0.34512870279E+01 -0.91781280540E+01  0.78220101986E+01  0.12543255569E+02  0.00000000000E+00 0. -1.
</event>
<event>
 7    1  0.2769403E-010  0.4778727E+02  0.7816164E-02  0.1312668E+00
        -11   -1    0    0    0    0  0.00000000000E+00  0.00000000000E+00  0.45593999997E+02  0.45594000000E+02  0.51100000000E-03 0.  1.
         11   -1    0    0    0    0 -0.00000000000E+00 -0.00000000000E+00 -0.45593999997E+02  0.45594000000E+02  0.51100000000E-03 0. -1.
    9900012    2    1    2    0    0  0.34210175105E+02  0.25755400765E+02  0.70672819550E+01  0.47787271624E+02  0.20000002643E+02 0.  0.
         12    1    1    2    0    0 -0.34210175105E+02 -0.25755400765E+02 -0.70672819550E+01  0.43400728376E+02  0.00000000000E+00 0. -1.
         11    1    3    3    0    0  0.11622017597E+01  0.41847093022E+01 -0.15964484476E+00  0.43460317086E+01  0.51100000000E-03 0. -1.
        -11    1    3    3    0    0  0.11943659167E+02 -0.80939216481E+00  0.67623057605E+00  0.11990137532E+02  0.51100000000E-03 0.  1.
        -12    1    3    3    0    0  0.21104314179E+02  0.22380083628E+02  0.65506962237E+01  0.31451102384E+02  0.00000000000E+00 0.  1.
</event>
<event>
 7    1  0.2769403E-010  0.4778727E+02  0.7816164E-02  0.1312668E+00
        -11   -1    0    0    0    0  0.00000000000E+00  0.00000000000E+00  0.45593999997E+02  0.45594000000E+02  0.51100000000E-03 0. -1.
         11   -1    0    0    0    0 -0.00000000000E+00 -0.00000000000E+00 -0.45593999997E+02  0.45594000000E+02  0.51100000000E-03 0.  1.
    9900012    2    1    2    0    0 -0.33136078660E+02  0.52110763856E+01  0.27540302751E+02  0.47787270724E+02  0.19999998540E+02 0.  0.
         12    1    1    2    0    0  0.33136078660E+02 -0.52110763856E+01 -0.27540302751E+02  0.43400729276E+02  0.00000000000E+00 0. -1.
         11    1    3    3    0    0 -0.12445332853E+02  0.70452490413E+01  0.15192505717E+02  0.20864660891E+02  0.51100000000E-03 0. -1.
        -11    1    3    3    0    0 -0.61482289112E+01  0.34854844462E+01  0.83313911230E+01  0.10925264247E+02  0.51100000000E-03 0.  1.
        -12    1    3    3    0    0 -0.14542516896E+02 -0.53196571018E+01  0.40164059107E+01  0.15997345586E+02  0.00000000000E+00 0.  1.
</event>
<event>
 7    1  0.2769403E-010  0.4778729E+02  0.7816164E-02  0.1312668E+00
        -11   -1    0    0    0    0  0.00000000000E+00  0.00000000000E+00  0.45593999997E+02  0.45594000000E+02  0.51100000000E-03 0.  1.
         11   -1    0    0    0    0 -0.00000000000E+00 -0.00000000000E+00 -0.45593999997E+02  0.45594000000E+02  0.51100000000E-03 0. -1.
    9900012    2    1    2    0    0 -0.32860991584E+02 -0.17601833056E+01  0.28296271051E+02  0.47787286082E+02  0.20000068564E+02 0.  0.
         12    1    1    2    0    0  0.32860991584E+02  0.17601833056E+01 -0.28296271051E+02  0.43400713918E+02  0.00000000000E+00 0. -1.
         11    1    3    3    0    0 -0.26895448285E+01 -0.19781784551E+01  0.32473309134E+01  0.46574670914E+01  0.51100000000E-03 0. -1.
        -11    1    3    3    0    0 -0.18395930123E+02 -0.60057733668E+01  0.67458974128E+01  0.20493576822E+02  0.51100000000E-03 0.  1.
         12    1    3    3    0    0 -0.11775516633E+02  0.62237685163E+01  0.18303042725E+02  0.22636242168E+02  0.00000000000E+00 0. -1.
</event>
<event>
 7    1  0.2769403E-010  0.4778726E+02  0.7816164E-02  0.1312668E+00
        -11   -1    0    0    0    0  0.00000000000E+00  0.00000000000E+00  0.45593999997E+02  0.45594000000E+02  0.51100000000E-03 0.  1.
         11   -1    0    0    0    0 -0.00000000000E+00 -0.00000000000E+00 -0.45593999997E+02  0.45594000000E+02  0.51100000000E-03 0. -1.
    9900012    2    1    2    0    0  0.59993808899E+01 -0.83352472418E+01  0.42168182147E+02  0.47787256882E+02  0.19999935427E+02 0.  0.
         12    1    1    2    0    0 -0.59993808899E+01  0.83352472418E+01 -0.42168182147E+02  0.43400743118E+02  0.00000000000E+00 0. -1.
         11    1    3    3    0    0  0.34417227817E+01 -0.31961992449E+01  0.19185950790E+01  0.50736725020E+01  0.51100000000E-03 0. -1.
        -11    1    3    3    0    0  0.55103697869E+01 -0.74613646753E+01  0.19101945059E+02  0.21234887409E+02  0.51100000000E-03 0.  1.
         12    1    3    3    0    0 -0.29527116787E+01  0.23223166783E+01  0.21147642009E+02  0.21478696970E+02  0.00000000000E+00 0. -1.
</event>
<event>
 7    1  0.2769403E-010  0.4778727E+02  0.7816164E-02  0.1312668E+00
        -11   -1    0    0    0    0  0.00000000000E+00  0.00000000000E+00  0.45593999997E+02  0.45594000000E+02  0.51100000000E-03 0.  1.
         11   -1    0    0    0    0 -0.00000000000E+00 -0.00000000000E+00 -0.45593999997E+02  0.45594000000E+02  0.51100000000E-03 0. -1.
    9900012    2    1    2    0    0 -0.99697739342E+01 -0.19331989536E+02  0.37556637753E+02  0.47787271308E+02  0.20000001202E+02 0.  0.
         12    1    1    2    0    0  0.99697739342E+01  0.19331989536E+02 -0.37556637753E+02  0.43400728692E+02  0.00000000000E+00 0. -1.
         11    1    3    3    0    0 -0.72496588028E+01 -0.19928765941E+01  0.12406243636E+02  0.14506687813E+02  0.51100000000E-03 0. -1.
        -11    1    3    3    0    0 -0.55804965993E+00 -0.44137310367E+01  0.17605465448E+02  0.18158878131E+02  0.51100000000E-03 0.  1.
         12    1    3    3    0    0 -0.21620654715E+01 -0.12925381905E+02  0.75449286685E+01  0.15121705364E+02  0.00000000000E+00 0. -1.
</event>
<event>
 7    1  0.2769403E-010  0.4778727E+02  0.7816164E-02  0.1312668E+00
        -11   -1    0    0    0    0  0.00000000000E+00  0.00000000000E+00  0.45593999997E+02  0.45594000000E+02  0.51100000000E-03 0.  1.
         11   -1    0    0    0    0 -0.00000000000E+00 -0.00000000000E+00 -0.45593999997E+02  0.45594000000E+02  0.51100000000E-03 0. -1.
    9900012    2    1    2    0    0 -0.36533288118E+02  0.22030230941E+02 -0.79756562069E+01  0.47787270652E+02  0.19999998211E+02 0.  0.
         12    1    1    2    0    0  0.36533288118E+02 -0.22030230941E+02  0.79756562069E+01  0.43400729348E+02  0.00000000000E+00 0. -1.
         11    1    3    3    0    0 -0.13998781578E+02  0.55201630097E+01 -0.96339975703E+01  0.17867624206E+02  0.51100000000E-03 0. -1.
        -11    1    3    3    0    0 -0.17574745258E+02  0.70439315808E+01 -0.81153370430E+00  0.18951180180E+02  0.51100000000E-03 0.  1.
        -12    1    3    3    0    0 -0.49597612818E+01  0.94661363503E+01  0.24698750677E+01  0.10968466266E+02  0.00000000000E+00 0.  1.
</event>
<event>
 7    1  0.2769403E-010  0.4778728E+02  0.7816164E-02  0.1312668E+00
        -11   -1    0    0    0    0  0.00000000000E+00  0.00000000000E+00  0.45593999997E+02  0.45594000000E+02  0.51100000000E-03 0. -1.
         11   -1    0    0    0    0 -0.00000000000E+00 -0.00000000000E+00 -0.45593999997E+02  0.45594000000E+02  0.51100000000E-03 0.  1.
    9900012    2    1    2    0    0 -0.31059899968E+01 -0.34739819906E+02 -0.25828677008E+02  0.47787276308E+02  0.20000024001E+02 0.  0.
         12    1    1    2    0    0  0.31059899968E+01  0.34739819906E+02  0.25828677008E+02  0.43400723692E+02  0.00000000000E+00 0. -1.
         11    1    3    3    0    0  0.20682024523E+01 -0.74563732751E+00 -0.70952661589E+01  0.74280709834E+01  0.51100000000E-03 0. -1.
        -11    1    3    3    0    0  0.17471462509E+01 -0.77487799388E+01 -0.76901382967E+01  0.11055963904E+02  0.51100000000E-03 0.  1.
        -12    1    3    3    0    0 -0.69213387001E+01 -0.26245402639E+02 -0.11043272553E+02  0.29303241421E+02  0.00000000000E+00 0.  1.
</event>
<event>
 7    1  0.2769403E-010  0.4778727E+02  0.7816164E-02  0.1312668E+00
        -11   -1    0    0    0    0  0.00000000000E+00  0.00000000000E+00  0.45593999997E+02  0.45594000000E+02  0.51100000000E-03 0.  1.
         11   -1    0    0    0    0 -0.00000000000E+00 -0.00000000000E+00 -0.45593999997E+02  0.45594000000E+02  0.51100000000E-03 0. -1.
    9900012    2    1    2    0    0 -0.41377849907E+02  0.67762750266E+01 -0.11206200777E+02  0.47787270720E+02  0.19999998522E+02 0.  0.
         12    1    1    2    0    0  0.41377849907E+02 -0.67762750266E+01  0.11206200777E+02  0.43400729280E+02  0.00000000000E+00 0. -1.
         11    1    3    3    0    0 -0.26261485295E+00 -0.11535196930E+01 -0.17964263583E+01  0.21509816747E+01  0.51100000000E-03 0. -1.
        -11    1    3    3    0    0 -0.19331128429E+02 -0.39679135244E+01 -0.56869549890E+01  0.20537242302E+02  0.51100000000E-03 0.  1.
         12    1    3    3    0    0 -0.21784106625E+02  0.11897708244E+02 -0.37228194297E+01  0.25099046743E+02  0.00000000000E+00 0. -1.
</event>
<event>
 7    1  0.2769403E-010  0.4778726E+02  0.7816164E-02  0.1312668E+00
        -11   -1    0    0    0    0  0.00000000000E+00  0.00000000000E+00  0.45593999997E+02  0.45594000000E+02  0.51100000000E-03 0.  1.
         11   -1    0    0    0    0 -0.00000000000E+00 -0.00000000000E+00 -0.45593999997E+02  0.45594000000E+02  0.51100000000E-03 0. -1.
    9900012    2    1    2    0    0 -0.29542400795E+02  0.27475272542E+02  0.15999372676E+02  0.47787263001E+02  0.19999963329E+02 0.  0.
         12    1    1    2    0    0  0.29542400795E+02 -0.27475272542E+02 -0.15999372676E+02  0.43400736999E+02  0.00000000000E+00 0. -1.
         11    1    3    3    0    0 -0.81343654150E+01  0.12905971635E+02 -0.23909163851E+01  0.15441777294E+02  0.51100000000E-03 0. -1.
        -11    1    3    3    0    0 -0.11613355403E+02  0.11494555019E+02  0.11063062895E+02  0.19732870538E+02  0.51100000000E-03 0.  1.
        -12    1    3    3    0    0 -0.97946799772E+01  0.30747458873E+01  0.73272261667E+01  0.12612615170E+02  0.00000000000E+00 0.  1.
</event>
<event>
 7    1  0.2769403E-010  0.4778727E+02  0.7816164E-02  0.1312668E+00
        -11   -1    0    0    0    0  0.00000000000E+00  0.00000000000E+00  0.45593999997E+02  0.45594000000E+02  0.51100000000E-03 0.  1.
         11   -1    0    0    0    0 -0.00000000000E+00 -0.00000000000E+00 -0.45593999997E+02  0.45594000000E+02  0.51100000000E-03 0. -1.
    9900012    2    1    2    0    0  0.15058513855E+02 -0.25183236989E+02  0.31979195358E+02  0.47787271889E+02  0.20000003853E+02 0.  0.
         12    1    1    2    0    0 -0.15058513855E+02  0.25183236989E+02 -0.31979195358E+02  0.43400728111E+02  0.00000000000E+00 0. -1.
         11    1    3    3    0    0 -0.13705602001E+01  0.65285494921E+00  0.24836448609E+01  0.29108670363E+01  0.51100000000E-03 0. -1.
        -11    1    3    3    0    0 -0.17639279725E+01 -0.63802384137E+01  0.28722246161E+01  0.72158546697E+01  0.51100000000E-03 0.  1.
        -12    1    3    3    0    0  0.18193002028E+02 -0.19455853525E+02  0.26623325881E+02  0.37660550183E+02  0.00000000000E+00 0.  1.
</event>
<event>
 7    1  0.2769403E-010  0.4778727E+02  0.7816164E-02  0.1312668E+00
        -11   -1    0    0    0    0  0.00000000000E+00  0.00000000000E+00  0.45593999997E+02  0.45594000000E+02  0.51100000000E-03 0. -1.
         11   -1    0    0    0    0 -0.00000000000E+00 -0.00000000000E+00 -0.45593999997E+02  0.45594000000E+02  0.51100000000E-03 0.  1.
    9900012    2    1    2    0    0  0.28951291354E+02 -0.21247282011E+02 -0.24372099239E+02  0.47787268609E+02  0.19999988897E+02 0.  0.
         12    1    1    2    0    0 -0.28951291354E+02  0.21247282011E+02  0.24372099239E+02  0.43400731391E+02  0.00000000000E+00 0. -1.
         11    1    3    3    0    0  0.55330155134E+01 -0.73183935033E+01  0.11380351342E+01  0.92449049951E+01  0.51100000000E-03 0. -1.
        -11    1    3    3    0    0  0.12258507741E+02 -0.42281591279E+01 -0.66384304654E+01  0.14567673148E+02  0.51100000000E-03 0.  1.
        -12    1    3    3    0    0  0.11159768100E+02 -0.97007293801E+01 -0.18871703908E+02  0.23974690466E+02  0.00000000000E+00 0.  1.
</event>
<event>
 7    1  0.3343998E-010  0.4778727E+02  0.7816164E-02  0.1312668E+00
        -11   -1    0    0    0    0  0.00000000000E+00  0.00000000000E+00  0.45593999997E+02  0.45594000000E+02  0.51100000000E-03 0. -1.
         11   -1    0    0    0    0 -0.00000000000E+00 -0.00000000000E+00 -0.45593999997E+02  0.45594000000E+02  0.51100000000E-03 0.  1.
    9900012    2    1    2    0    0  0.63136231106E+01 -0.26523900261E+02 -0.33767499406E+02  0.47787272610E+02  0.20000007138E+02 0.  0.
         12    1    1    2    0    0 -0.63136231106E+01  0.26523900261E+02  0.33767499406E+02  0.43400727390E+02  0.00000000000E+00 0. -1.
         11    1    3    3    0    0  0.76147561324E+01 -0.78795574770E+01 -0.99782580494E+01  0.14820174457E+02  0.51100000000E-03 0. -1.
        -11    1    3    3    0    0  0.30896100118E+01 -0.18137382186E+02 -0.19442856699E+02  0.26768171388E+02  0.51100000000E-03 0.  1.
         12    1    3    3    0    0 -0.43907430337E+01 -0.50696059800E+00 -0.43463846574E+01  0.61989267640E+01  0.00000000000E+00 0. -1.
</event>
<event>
 7    1  0.2769403E-010  0.4778727E+02  0.7816164E-02  0.1312668E+00
        -11   -1    0    0    0    0  0.00000000000E+00  0.00000000000E+00  0.45593999997E+02  0.45594000000E+02  0.51100000000E-03 0.  1.
         11   -1    0    0    0    0 -0.00000000000E+00 -0.00000000000E+00 -0.45593999997E+02  0.45594000000E+02  0.51100000000E-03 0. -1.
    9900012    2    1    2    0    0 -0.29824276048E+02  0.15674426101E+02  0.27357778069E+02  0.47787273090E+02  0.20000009327E+02 0.  0.
         12    1    1    2    0    0  0.29824276048E+02 -0.15674426101E+02 -0.27357778069E+02  0.43400726910E+02  0.00000000000E+00 0. -1.
         11    1    3    3    0    0 -0.45115558878E+01  0.58192250226E+01  0.72288625910E+01  0.10318622535E+02  0.51100000000E-03 0. -1.
        -11    1    3    3    0    0 -0.84393895875E+01  0.11339098884E+02  0.12587143293E+02  0.18927087379E+02  0.51100000000E-03 0.  1.
         12    1    3    3    0    0 -0.16873330573E+02 -0.14838978055E+01  0.75417721848E+01  0.18541563176E+02  0.00000000000E+00 0. -1.
</event>
<event>
 7    1  0.2769403E-010  0.4778727E+02  0.7816164E-02  0.1312668E+00
        -11   -1    0    0    0    0  0.00000000000E+00  0.00000000000E+00  0.45593999997E+02  0.45594000000E+02  0.51100000000E-03 0. -1.
         11   -1    0    0    0    0 -0.00000000000E+00 -0.00000000000E+00 -0.45593999997E+02  0.45594000000E+02  0.51100000000E-03 0.  1.
    9900012    2    1    2    0    0  0.33665367105E+02 -0.27374671574E+02 -0.94538398578E+00  0.47787270317E+02  0.19999996685E+02 0.  0.
         12    1    1    2    0    0 -0.33665367105E+02  0.27374671574E+02  0.94538398578E+00  0.43400729683E+02  0.00000000000E+00 0. -1.
         11    1    3    3    0    0  0.12205829089E+02 -0.54087274563E+01 -0.31069222372E+01  0.13707281368E+02  0.51100000000E-03 0. -1.
        -11    1    3    3    0    0  0.10546307545E+02 -0.16613239895E+02 -0.45468013132E+01  0.20196478532E+02  0.51100000000E-03 0.  1.
         12    1    3    3    0    0  0.10913230471E+02 -0.53527042228E+01  0.67083395647E+01  0.13883510418E+02  0.00000000000E+00 0. -1.
</event>
<event>
 7    1  0.2769403E-010  0.4778727E+02  0.7816164E-02  0.1312668E+00
        -11   -1    0    0    0    0  0.00000000000E+00  0.00000000000E+00  0.45593999997E+02  0.45594000000E+02  0.51100000000E-03 0.  1.
         11   -1    0    0    0    0 -0.00000000000E+00 -0.00000000000E+00 -0.45593999997E+02  0.45594000000E+02  0.51100000000E-03 0. -1.
    9900012    2    1    2    0    0  0.19539608375E+02 -0.36935883848E+02  0.11728908619E+02  0.47787272950E+02  0.20000008690E+02 0.  0.
         12    1    1    2    0    0 -0.19539608375E+02  0.36935883848E+02 -0.11728908619E+02  0.43400727050E+02  0.00000000000E+00 0. -1.
         11    1    3    3    0    0 -0.21796371592E+01 -0.23413128884E+01  0.24435173856E+01  0.40253374594E+01  0.51100000000E-03 0. -1.
        -11    1    3    3    0    0  0.65320824875E+01 -0.20241981565E+02  0.83337084095E+01  0.22844181216E+02  0.51100000000E-03 0.  1.
        -12    1    3    3    0    0  0.15187163047E+02 -0.14352589394E+02  0.95168282364E+00  0.20917754275E+02  0.00000000000E+00 0.  1.
</event>
<event>
 7    1  0.2769403E-010  0.4778727E+02  0.7816164E-02  0.1312668E+00
        -11   -1    0    0    0    0  0.00000000000E+00  0.00000000000E+00  0.45593999997E+02  0.45594000000E+02  0.51100000000E-03 0. -1.
         11   -1    0    0    0    0 -0.00000000000E+00 -0.00000000000E+00 -0.45593999997E+02  0.45594000000E+02  0.51100000000E-03 0.  1.
    9900012    2    1    2    0    0 -0.16452292983E+02  0.11623006772E+02 -0.38442823782E+02  0.47787274993E+02  0.20000018002E+02 0.  0.
         12    1    1    2    0    0  0.16452292983E+02 -0.11623006772E+02  0.38442823782E+02  0.43400725007E+02  0.00000000000E+00 0. -1.
         11    1    3    3    0    0 -0.93385948329E+01  0.10756422020E+01 -0.16831241217E+02  0.19278408668E+02  0.51100000000E-03 0. -1.
        -11    1    3    3    0    0 -0.49251297398E+01 -0.30327564098E+00 -0.14586758953E+02  0.15398779694E+02  0.51100000000E-03 0.  1.
         12    1    3    3    0    0 -0.21885684105E+01  0.10850640211E+02 -0.70248236123E+01  0.13110086631E+02  0.00000000000E+00 0. -1.
</event>
<event>
 7    1  0.2769403E-010  0.4778728E+02  0.7816164E-02  0.1312668E+00
        -11   -1    0    0    0    0  0.00000000000E+00  0.00000000000E+00  0.45593999997E+02  0.45594000000E+02  0.51100000000E-03 0. -1.
         11   -1    0    0    0    0 -0.00000000000E+00 -0.00000000000E+00 -0.45593999997E+02  0.45594000000E+02  0.51100000000E-03 0.  1.
    9900012    2    1    2    0    0  0.31850439823E+02  0.21379659573E+02 -0.20299811953E+02  0.47787277360E+02  0.20000028793E+02 0.  0.
         12    1    1    2    0    0 -0.31850439823E+02 -0.21379659573E+02  0.20299811953E+02  0.43400722640E+02  0.00000000000E+00 0. -1.
         11    1    3    3    0    0  0.95642680554E+01  0.96890608944E+01 -0.12517137283E+02  0.18494103127E+02  0.51100000000E-03 0. -1.
        -11    1    3    3    0    0  0.80877311762E+01  0.69059209333E+01 -0.94381203355E+01  0.14219045511E+02  0.51100000000E-03 0.  1.
        -12    1    3    3    0    0  0.14198440591E+02  0.47846777455E+01  0.16554456656E+01  0.15074128721E+02  0.00000000000E+00 0.  1.
</event>
<event>
 7    1  0.2769403E-010  0.4778727E+02  0.7816164E-02  0.1312668E+00
        -11   -1    0    0    0    0  0.00000000000E+00  0.00000000000E+00  0.45593999997E+02  0.45594000000E+02  0.51100000000E-03 0.  1.
         11   -1    0    0    0    0 -0.00000000000E+00 -0.00000000000E+00 -0.45593999997E+02  0.45594000000E+02  0.51100000000E-03 0. -1.
    9900012    2    1    2    0    0  0.20621039232E+02  0.76065614384E+01  0.37423740823E+02  0.47787269440E+02  0.19999992687E+02 0.  0.
         12    1    1    2    0    0 -0.20621039232E+02 -0.76065614384E+01 -0.37423740823E+02  0.43400730560E+02  0.00000000000E+00 0. -1.
         11    1    3    3    0    0  0.76485850377E+01 -0.66341240108E-01  0.15174440549E+02  0.16993201596E+02  0.51100000000E-03 0. -1.
        -11    1    3    3    0    0  0.58705661003E+01  0.76458434620E+01  0.21611090329E+02  0.23663509758E+02  0.51100000000E-03 0.  1.
         12    1    3    3    0    0  0.71018880936E+01  0.27059216490E-01  0.63820994485E+00  0.71305580867E+01  0.00000000000E+00 0. -1.
</event>
<event>
 7    1  0.2769403E-010  0.4778728E+02  0.7816164E-02  0.1312668E+00
        -11   -1    0    0    0    0  0.00000000000E+00  0.00000000000E+00  0.45593999997E+02  0.45594000000E+02  0.51100000000E-03 0.  1.
         11   -1    0    0    0    0 -0.00000000000E+00 -0.00000000000E+00 -0.45593999997E+02  0.45594000000E+02  0.51100000000E-03 0. -1.
    9900012    2    1    2    0    0 -0.63534029436E+01  0.15910368768E+01  0.42903678976E+02  0.47787276538E+02  0.20000025048E+02 0.  0.
         12    1    1    2    0    0  0.63534029436E+01 -0.15910368768E+01 -0.42903678976E+02  0.43400723462E+02  0.00000000000E+00 0. -1.
         11    1    3    3    0    0 -0.41958186145E+01  0.54048249044E+01  0.19016187160E+02  0.20209710549E+02  0.51100000000E-03 0. -1.
        -11    1    3    3    0    0 -0.38548568588E+01 -0.27968614530E+01  0.24902479973E+02  0.25353813608E+02  0.51100000000E-03 0.  1.
         12    1    3    3    0    0  0.16972725297E+01 -0.10169265746E+01 -0.10149881564E+01  0.22237523818E+01  0.00000000000E+00 0. -1.
</event>
<event>
 7    1  0.2769403E-010  0.4778727E+02  0.7816164E-02  0.1312668E+00
        -11   -1    0    0    0    0  0.00000000000E+00  0.00000000000E+00  0.45593999997E+02  0.45594000000E+02  0.51100000000E-03 0. -1.
         11   -1    0    0    0    0 -0.00000000000E+00 -0.00000000000E+00 -0.45593999997E+02  0.45594000000E+02  0.51100000000E-03 0.  1.
    9900012    2    1    2    0    0 -0.25055799228E+02  0.24757339066E+02  0.25355561047E+02  0.47787269723E+02  0.19999993974E+02 0.  0.
         12    1    1    2    0    0  0.25055799228E+02 -0.24757339066E+02 -0.25355561047E+02  0.43400730277E+02  0.00000000000E+00 0. -1.
         11    1    3    3    0    0 -0.36234724768E+01  0.77176314530E+01  0.45395949545E+01  0.96591568290E+01  0.51100000000E-03 0. -1.
        -11    1    3    3    0    0 -0.41329793079E+01  0.13399438843E+02  0.68901077250E+01  0.15623701994E+02  0.51100000000E-03 0.  1.
         12    1    3    3    0    0 -0.17299347444E+02  0.36402687699E+01  0.13925858367E+02  0.22504410900E+02  0.00000000000E+00 0. -1.
</event>
<event>
 7    1  0.2769403E-010  0.4778727E+02  0.7816164E-02  0.1312668E+00
        -11   -1    0    0    0    0  0.00000000000E+00  0.00000000000E+00  0.45593999997E+02  0.45594000000E+02  0.51100000000E-03 0. -1.
         11   -1    0    0    0    0 -0.00000000000E+00 -0.00000000000E+00 -0.45593999997E+02  0.45594000000E+02  0.51100000000E-03 0.  1.
    9900012    2    1    2    0    0 -0.13225544665E+02 -0.41319432460E+02 -0.11885358161E+01  0.47787272496E+02  0.20000006618E+02 0.  0.
         12    1    1    2    0    0  0.13225544665E+02  0.41319432460E+02  0.11885358161E+01  0.43400727504E+02  0.00000000000E+00 0. -1.
         11    1    3    3    0    0 -0.68602254621E+01 -0.84408546045E+01 -0.65241273139E+00  0.10896621609E+02  0.51100000000E-03 0. -1.
        -11    1    3    3    0    0 -0.10466184729E+02 -0.22095854336E+02  0.34364291791E+01  0.24689610110E+02  0.51100000000E-03 0.  1.
        -12    1    3    3    0    0  0.41008655264E+01 -0.10782723519E+02 -0.39725522638E+01  0.12201040777E+02  0.00000000000E+00 0.  1.
</event>
<event>
 7    1  0.2769403E-010  0.4778727E+02  0.7816164E-02  0.1312668E+00
        -11   -1    0    0    0    0  0.00000000000E+00  0.00000000000E+00  0.45593999997E+02  0.45594000000E+02  0.51100000000E-03 0.  1.
         11   -1    0    0    0    0 -0.00000000000E+00 -0.00000000000E+00 -0.45593999997E+02  0.45594000000E+02  0.51100000000E-03 0. -1.
    9900012    2    1    2    0    0 -0.22540167172E+01 -0.15029040392E+01  0.43316093091E+02  0.47787271520E+02  0.20000002169E+02 0.  0.
         12    1    1    2    0    0  0.22540167172E+01  0.15029040392E+01 -0.43316093091E+02  0.43400728480E+02  0.00000000000E+00 0. -1.
         11    1    3    3    0    0 -0.46201835237E+01  0.51900920376E+01  0.10519831046E+02  0.12607537295E+02  0.51100000000E-03 0. -1.
        -11    1    3    3    0    0 -0.41386786425E+01 -0.27865606688E+01  0.15740395544E+02  0.16512226785E+02  0.51100000000E-03 0.  1.
        -12    1    3    3    0    0  0.65048454490E+01 -0.39064354080E+01  0.17055866502E+02  0.18667507440E+02  0.00000000000E+00 0.  1.
</event>
<event>
 7    1  0.2769403E-010  0.4778727E+02  0.7816164E-02  0.1312668E+00
        -11   -1    0    0    0    0  0.00000000000E+00  0.00000000000E+00  0.45593999997E+02  0.45594000000E+02  0.51100000000E-03 0.  1.
         11   -1    0    0    0    0 -0.00000000000E+00 -0.00000000000E+00 -0.45593999997E+02  0.45594000000E+02  0.51100000000E-03 0. -1.
    9900012    2    1    2    0    0 -0.29378176341E+02  0.81807293686E+01  0.30880761369E+02  0.47787274190E+02  0.20000014341E+02 0.  0.
         12    1    1    2    0    0  0.29378176341E+02 -0.81807293686E+01 -0.30880761369E+02  0.43400725810E+02  0.00000000000E+00 0. -1.
         11    1    3    3    0    0  0.48922471287E+00  0.31326589959E+01  0.99397244393E+01  0.10433169001E+02  0.51100000000E-03 0. -1.
        -11    1    3    3    0    0 -0.81678864628E+01 -0.32900718907E+00  0.83995611913E+01  0.11720718556E+02  0.51100000000E-03 0.  1.
         12    1    3    3    0    0 -0.21699514591E+02  0.53770775618E+01  0.12541475738E+02  0.25633386633E+02  0.00000000000E+00 0. -1.
</event>
<event>
 7    1  0.2769403E-010  0.4778727E+02  0.7816164E-02  0.1312668E+00
        -11   -1    0    0    0    0  0.00000000000E+00  0.00000000000E+00  0.45593999997E+02  0.45594000000E+02  0.51100000000E-03 0.  1.
         11   -1    0    0    0    0 -0.00000000000E+00 -0.00000000000E+00 -0.45593999997E+02  0.45594000000E+02  0.51100000000E-03 0. -1.
    9900012    2    1    2    0    0  0.16248195798E+02  0.91636972756E+01  0.39187319403E+02  0.47787271706E+02  0.20000003016E+02 0.  0.
         12    1    1    2    0    0 -0.16248195798E+02 -0.91636972756E+01 -0.39187319403E+02  0.43400728294E+02  0.00000000000E+00 0. -1.
         11    1    3    3    0    0  0.62075938150E+01  0.43275459158E+01  0.98767756635E+01  0.12442370047E+02  0.51100000000E-03 0. -1.
        -11    1    3    3    0    0  0.88996627402E+01 -0.26050426211E+01  0.25012692947E+02  0.26676301330E+02  0.51100000000E-03 0.  1.
        -12    1    3    3    0    0  0.11409392423E+01  0.74411939809E+01  0.42978507933E+01  0.86686003286E+01  0.00000000000E+00 0.  1.
</event>
<event>
 7    1  0.2769403E-010  0.4778727E+02  0.7816164E-02  0.1312668E+00
        -11   -1    0    0    0    0  0.00000000000E+00  0.00000000000E+00  0.45593999997E+02  0.45594000000E+02  0.51100000000E-03 0.  1.
         11   -1    0    0    0    0 -0.00000000000E+00 -0.00000000000E+00 -0.45593999997E+02  0.45594000000E+02  0.51100000000E-03 0. -1.
    9900012    2    1    2    0    0 -0.43171352722E+02 -0.35579144953E+01 -0.26830576150E+01  0.47787271324E+02  0.20000001275E+02 0.  0.
         12    1    1    2    0    0  0.43171352722E+02  0.35579144953E+01  0.26830576150E+01  0.43400728676E+02  0.00000000000E+00 0. -1.
         11    1    3    3    0    0 -0.11676260951E+02 -0.31426451487E+01  0.71242787760E+00  0.12112755346E+02  0.51100000000E-03 0. -1.
        -11    1    3    3    0    0 -0.16750561340E+02 -0.83007999290E+01 -0.31094599847E+01  0.18951341017E+02  0.51100000000E-03 0.  1.
         12    1    3    3    0    0 -0.14744530431E+02  0.78855305824E+01 -0.28602550789E+00  0.16723174961E+02  0.00000000000E+00 0. -1.
</event>
<event>
 7    1  0.2769403E-010  0.4778727E+02  0.7816164E-02  0.1312668E+00
        -11   -1    0    0    0    0  0.00000000000E+00  0.00000000000E+00  0.45593999997E+02  0.45594000000E+02  0.51100000000E-03 0.  1.
         11   -1    0    0    0    0 -0.00000000000E+00 -0.00000000000E+00 -0.45593999997E+02  0.45594000000E+02  0.51100000000E-03 0. -1.
    9900012    2    1    2    0    0  0.22969210252E+02  0.20483938797E+02  0.30601423270E+02  0.47787268735E+02  0.19999989468E+02 0.  0.
         12    1    1    2    0    0 -0.22969210252E+02 -0.20483938797E+02 -0.30601423270E+02  0.43400731265E+02  0.00000000000E+00 0. -1.
         11    1    3    3    0    0  0.11160217042E+01 -0.19358672228E+01 -0.37682323127E+00  0.22660720107E+01  0.51100000000E-03 0. -1.
        -11    1    3    3    0    0  0.46099142205E+01 -0.92922567394E-01  0.21643624553E+01  0.50935654332E+01  0.51100000000E-03 0.  1.
        -12    1    3    3    0    0  0.17243274327E+02  0.22512728587E+02  0.28813884046E+02  0.40427631291E+02  0.00000000000E+00 0.  1.
</event>
<event>
 7    1  0.2769403E-010  0.4778727E+02  0.7816164E-02  0.1312668E+00
        -11   -1    0    0    0    0  0.00000000000E+00  0.00000000000E+00  0.45593999997E+02  0.45594000000E+02  0.51100000000E-03 0.  1.
         11   -1    0    0    0    0 -0.00000000000E+00 -0.00000000000E+00 -0.45593999997E+02  0.45594000000E+02  0.51100000000E-03 0. -1.
    9900012    2    1    2    0    0  0.12989939524E+02 -0.19374834467E+02  0.36599189600E+02  0.47787269374E+02  0.19999992384E+02 0.  0.
         12    1    1    2    0    0 -0.12989939524E+02  0.19374834467E+02 -0.36599189600E+02  0.43400730626E+02  0.00000000000E+00 0. -1.
         11    1    3    3    0    0  0.49752362797E+01 -0.25415604011E+01  0.13919231566E+02  0.14998583699E+02  0.51100000000E-03 0. -1.
        -11    1    3    3    0    0  0.92498219927E+01 -0.11591155742E+02  0.23030165499E+02  0.27391652406E+02  0.51100000000E-03 0.  1.
         12    1    3    3    0    0 -0.12351187481E+01 -0.52421183240E+01 -0.35020746516E+00  0.53970332696E+01  0.00000000000E+00 0. -1.
</event>
<event>
 7    1  0.2769403E-010  0.4778727E+02  0.7816164E-02  0.1312668E+00
        -11   -1    0    0    0    0  0.00000000000E+00  0.00000000000E+00  0.45593999997E+02  0.45594000000E+02  0.51100000000E-03 0.  1.
         11   -1    0    0    0    0 -0.00000000000E+00 -0.00000000000E+00 -0.45593999997E+02  0.45594000000E+02  0.51100000000E-03 0. -1.
    9900012    2    1    2    0    0 -0.18450755294E+02 -0.33689595971E+02  0.20204058135E+02  0.47787271749E+02  0.20000003211E+02 0.  0.
         12    1    1    2    0    0  0.18450755294E+02  0.33689595971E+02 -0.20204058135E+02  0.43400728251E+02  0.00000000000E+00 0. -1.
         11    1    3    3    0    0 -0.55579144844E+01 -0.13608759567E+01  0.37824157349E+01  0.68592321610E+01  0.51100000000E-03 0. -1.
        -11    1    3    3    0    0 -0.12083735628E+02 -0.18626347886E+02  0.42990718885E+01  0.22615028668E+02  0.51100000000E-03 0.  1.
        -12    1    3    3    0    0 -0.80910518239E+00 -0.13702372128E+02  0.12122570512E+02  0.18313010920E+02  0.00000000000E+00 0.  1.
</event>
<event>
 7    1  0.2769403E-010  0.4778727E+02  0.7816164E-02  0.1312668E+00
        -11   -1    0    0    0    0  0.00000000000E+00  0.00000000000E+00  0.45593999997E+02  0.45594000000E+02  0.51100000000E-03 0.  1.
         11   -1    0    0    0    0 -0.00000000000E+00 -0.00000000000E+00 -0.45593999997E+02  0.45594000000E+02  0.51100000000E-03 0. -1.
    9900012    2    1    2    0    0  0.27163176595E+02 -0.27115424310E+02  0.20261760693E+02  0.47787270229E+02  0.19999996284E+02 0.  0.
         12    1    1    2    0    0 -0.27163176595E+02  0.27115424310E+02 -0.20261760693E+02  0.43400729771E+02  0.00000000000E+00 0. -1.
         11    1    3    3    0    0  0.32113669779E+01  0.98736492820E+00  0.31246898979E+01  0.45881864159E+01  0.51100000000E-03 0. -1.
        -11    1    3    3    0    0  0.86838458392E+01 -0.94730416474E+01  0.13842111490E+02  0.18887873024E+02  0.51100000000E-03 0.  1.
        -12    1    3    3    0    0  0.15267963778E+02 -0.18629747591E+02  0.32949593052E+01  0.24311210789E+02  0.00000000000E+00 0.  1.
</event>
<event>
 7    1  0.2769403E-010  0.4778727E+02  0.7816164E-02  0.1312668E+00
        -11   -1    0    0    0    0  0.00000000000E+00  0.00000000000E+00  0.45593999997E+02  0.45594000000E+02  0.51100000000E-03 0.  1.
         11   -1    0    0    0    0 -0.00000000000E+00 -0.00000000000E+00 -0.45593999997E+02  0.45594000000E+02  0.51100000000E-03 0. -1.
    9900012    2    1    2    0    0  0.20742748934E+02 -0.34245019025E+01  0.37968859624E+02  0.47787272497E+02  0.20000006625E+02 0.  0.
         12    1    1    2    0    0 -0.20742748934E+02  0.34245019025E+01 -0.37968859624E+02  0.43400727503E+02  0.00000000000E+00 0. -1.
         11    1    3    3    0    0 -0.18360494286E+01  0.16595262770E+01  0.51971691497E+01  0.57563593008E+01  0.51100000000E-03 0. -1.
        -11    1    3    3    0    0  0.45595633774E+01 -0.52217415264E+01  0.37811086872E+01  0.78963906898E+01  0.51100000000E-03 0.  1.
        -12    1    3    3    0    0  0.18019234985E+02  0.13771334692E+00  0.28990581787E+02  0.34134522507E+02  0.00000000000E+00 0.  1.
</event>
<event>
 7    1  0.2769403E-010  0.4778727E+02  0.7816164E-02  0.1312668E+00
        -11   -1    0    0    0    0  0.00000000000E+00  0.00000000000E+00  0.45593999997E+02  0.45594000000E+02  0.51100000000E-03 0. -1.
         11   -1    0    0    0    0 -0.00000000000E+00 -0.00000000000E+00 -0.45593999997E+02  0.45594000000E+02  0.51100000000E-03 0.  1.
    9900012    2    1    2    0    0 -0.28023154390E+02  0.97902377721E+00 -0.33126537605E+02  0.47787272319E+02  0.20000005810E+02 0.  0.
         12    1    1    2    0    0  0.28023154390E+02 -0.97902377721E+00  0.33126537605E+02  0.43400727681E+02  0.00000000000E+00 0. -1.
         11    1    3    3    0    0 -0.68007438925E+01  0.54839674179E+00 -0.15937565135E+02  0.17336575186E+02  0.51100000000E-03 0. -1.
        -11    1    3    3    0    0 -0.94389952147E+01 -0.36553929243E+01 -0.14514520910E+02  0.17695418775E+02  0.51100000000E-03 0.  1.
         12    1    3    3    0    0 -0.11783415283E+02  0.40860199598E+01 -0.26744515601E+01  0.12755278358E+02  0.00000000000E+00 0. -1.
</event>
<event>
 7    1  0.2769403E-010  0.4778727E+02  0.7816164E-02  0.1312668E+00
        -11   -1    0    0    0    0  0.00000000000E+00  0.00000000000E+00  0.45593999997E+02  0.45594000000E+02  0.51100000000E-03 0.  1.
         11   -1    0    0    0    0 -0.00000000000E+00 -0.00000000000E+00 -0.45593999997E+02  0.45594000000E+02  0.51100000000E-03 0. -1.
    9900012    2    1    2    0    0 -0.20256329752E+02  0.19152420687E+02  0.33263933271E+02  0.47787269938E+02  0.19999994956E+02 0.  0.
         12    1    1    2    0    0  0.20256329752E+02 -0.19152420687E+02 -0.33263933271E+02  0.43400730062E+02  0.00000000000E+00 0. -1.
         11    1    3    3    0    0 -0.75875814018E+01 -0.95438552980E+00  0.67204428365E+01  0.10180697199E+02  0.51100000000E-03 0. -1.
        -11    1    3    3    0    0 -0.63251340323E+01  0.93596346592E+01  0.42726160448E+01  0.12077471987E+02  0.51100000000E-03 0.  1.
        -12    1    3    3    0    0 -0.63436143184E+01  0.10747171558E+02  0.22270874390E+02  0.25529100752E+02  0.00000000000E+00 0.  1.
</event>
<event>
 7    1  0.2769403E-010  0.4778727E+02  0.7816164E-02  0.1312668E+00
        -11   -1    0    0    0    0  0.00000000000E+00  0.00000000000E+00  0.45593999997E+02  0.45594000000E+02  0.51100000000E-03 0.  1.
         11   -1    0    0    0    0 -0.00000000000E+00 -0.00000000000E+00 -0.45593999997E+02  0.45594000000E+02  0.51100000000E-03 0. -1.
    9900012    2    1    2    0    0 -0.30824832012E+02  0.97797869888E+01  0.28944928832E+02  0.47787269508E+02  0.19999992997E+02 0.  0.
         12    1    1    2    0    0  0.30824832012E+02 -0.97797869888E+01 -0.28944928832E+02  0.43400730492E+02  0.00000000000E+00 0. -1.
         11    1    3    3    0    0 -0.13748784438E+02  0.11937509492E+02  0.98404822894E+01  0.20697060138E+02  0.51100000000E-03 0. -1.
        -11    1    3    3    0    0 -0.67655946083E+01  0.26289457767E+01  0.10800149156E+02  0.13012603443E+02  0.51100000000E-03 0.  1.
         12    1    3    3    0    0 -0.10310452965E+02 -0.47866682802E+01  0.83042973870E+01  0.14077605928E+02  0.00000000000E+00 0. -1.
</event>
<event>
 7    1  0.2769403E-010  0.4778727E+02  0.7816164E-02  0.1312668E+00
        -11   -1    0    0    0    0  0.00000000000E+00  0.00000000000E+00  0.45593999997E+02  0.45594000000E+02  0.51100000000E-03 0. -1.
         11   -1    0    0    0    0 -0.00000000000E+00 -0.00000000000E+00 -0.45593999997E+02  0.45594000000E+02  0.51100000000E-03 0.  1.
    9900012    2    1    2    0    0 -0.33849176488E+02 -0.25768788491E+02  0.85922064432E+01  0.47787271656E+02  0.20000002788E+02 0.  0.
         12    1    1    2    0    0  0.33849176488E+02  0.25768788491E+02 -0.85922064432E+01  0.43400728344E+02  0.00000000000E+00 0. -1.
         11    1    3    3    0    0 -0.37966576296E+01 -0.57499935856E+00 -0.53258824757E+00  0.38767104511E+01  0.51100000000E-03 0. -1.
        -11    1    3    3    0    0 -0.12266006608E+02 -0.28107827649E+01  0.87348907735E+01  0.15318411633E+02  0.51100000000E-03 0.  1.
         12    1    3    3    0    0 -0.17786512251E+02 -0.22383006368E+02  0.38990391723E+00  0.28592149572E+02  0.00000000000E+00 0. -1.
</event>
<event>
 7    1  0.2769403E-010  0.4778727E+02  0.7816164E-02  0.1312668E+00
        -11   -1    0    0    0    0  0.00000000000E+00  0.00000000000E+00  0.45593999997E+02  0.45594000000E+02  0.51100000000E-03 0. -1.
         11   -1    0    0    0    0 -0.00000000000E+00 -0.00000000000E+00 -0.45593999997E+02  0.45594000000E+02  0.51100000000E-03 0.  1.
    9900012    2    1    2    0    0  0.29858615263E+02  0.15522933614E+02 -0.27406660058E+02  0.47787269719E+02  0.19999993957E+02 0.  0.
         12    1    1    2    0    0 -0.29858615263E+02 -0.15522933614E+02  0.27406660058E+02  0.43400730281E+02  0.00000000000E+00 0. -1.
         11    1    3    3    0    0  0.31811115619E+01 -0.11471628201E+01 -0.60656621509E+01  0.69446174045E+01  0.51100000000E-03 0. -1.
        -11    1    3    3    0    0  0.11209657485E+02  0.35665990969E+01 -0.16036036984E+02  0.19887974569E+02  0.51100000000E-03 0.  1.
        -12    1    3    3    0    0  0.15467846215E+02  0.13103497337E+02 -0.53049609231E+01  0.20954677745E+02  0.00000000000E+00 0.  1.
</event>
<event>
 7    1  0.2769403E-010  0.4778727E+02  0.7816164E-02  0.1312668E+00
        -11   -1    0    0    0    0  0.00000000000E+00  0.00000000000E+00  0.45593999997E+02  0.45594000000E+02  0.51100000000E-03 0.  1.
         11   -1    0    0    0    0 -0.00000000000E+00 -0.00000000000E+00 -0.45593999997E+02  0.45594000000E+02  0.51100000000E-03 0. -1.
    9900012    2    1    2    0    0  0.18390413966E+02  0.38016956903E+01  0.39127523959E+02  0.47787270201E+02  0.19999996153E+02 0.  0.
         12    1    1    2    0    0 -0.18390413966E+02 -0.38016956903E+01 -0.39127523959E+02  0.43400729799E+02  0.00000000000E+00 0. -1.
         11    1    3    3    0    0  0.13547766267E+02  0.45660990949E+01  0.11233292400E+02  0.18181806571E+02  0.51100000000E-03 0. -1.
        -11    1    3    3    0    0  0.68330253130E+01  0.11141483432E+01  0.16631171862E+02  0.18014645132E+02  0.51100000000E-03 0.  1.
        -12    1    3    3    0    0 -0.19903776143E+01 -0.18785517479E+01  0.11263059697E+02  0.11590818498E+02  0.00000000000E+00 0.  1.
</event>
<event>
 7    1  0.2769403E-010  0.4778727E+02  0.7816164E-02  0.1312668E+00
        -11   -1    0    0    0    0  0.00000000000E+00  0.00000000000E+00  0.45593999997E+02  0.45594000000E+02  0.51100000000E-03 0.  1.
         11   -1    0    0    0    0 -0.00000000000E+00 -0.00000000000E+00 -0.45593999997E+02  0.45594000000E+02  0.51100000000E-03 0. -1.
    9900012    2    1    2    0    0  0.19569830420E+02  0.38707633398E+02 -0.15375025719E+01  0.47787273507E+02  0.20000011229E+02 0.  0.
         12    1    1    2    0    0 -0.19569830420E+02 -0.38707633398E+02  0.15375025719E+01  0.43400726493E+02  0.00000000000E+00 0. -1.
         11    1    3    3    0    0  0.25656806983E+01  0.60685177118E+01 -0.41239743627E+01  0.77728237771E+01  0.51100000000E-03 0. -1.
        -11    1    3    3    0    0  0.15409012961E+02  0.33478622181E+02 -0.88897061110E-02  0.36854523506E+02  0.51100000000E-03 0.  1.
        -12    1    3    3    0    0  0.15951367610E+01 -0.83950649525E+00  0.25953614969E+01  0.31599262240E+01  0.00000000000E+00 0.  1.
</event>
<event>
 7    1  0.2769403E-010  0.4778727E+02  0.7816164E-02  0.1312668E+00
        -11   -1    0    0    0    0  0.00000000000E+00  0.00000000000E+00  0.45593999997E+02  0.45594000000E+02  0.51100000000E-03 0.  1.
         11   -1    0    0    0    0 -0.00000000000E+00 -0.00000000000E+00 -0.45593999997E+02  0.45594000000E+02  0.51100000000E-03 0. -1.
    9900012    2    1    2    0    0  0.48924047694E+01  0.23370992314E+02  0.36242030495E+02  0.47787266359E+02  0.19999978637E+02 0.  0.
         12    1    1    2    0    0 -0.48924047694E+01 -0.23370992314E+02 -0.36242030495E+02  0.43400733641E+02  0.00000000000E+00 0. -1.
         11    1    3    3    0    0  0.36930940142E+01  0.57113291586E+01  0.17710407597E+02  0.18971472312E+02  0.51100000000E-03 0. -1.
        -11    1    3    3    0    0 -0.34928668435E+01  0.15738901456E+01  0.84059076310E+01  0.92377774566E+01  0.51100000000E-03 0.  1.
         12    1    3    3    0    0  0.46921775988E+01  0.16085773010E+02  0.10125715267E+02  0.19578016590E+02  0.00000000000E+00 0. -1.
</event>
<event>
 7    1  0.2769403E-010  0.4778726E+02  0.7816164E-02  0.1312668E+00
        -11   -1    0    0    0    0  0.00000000000E+00  0.00000000000E+00  0.45593999997E+02  0.45594000000E+02  0.51100000000E-03 0.  1.
         11   -1    0    0    0    0 -0.00000000000E+00 -0.00000000000E+00 -0.45593999997E+02  0.45594000000E+02  0.51100000000E-03 0. -1.
    9900012    2    1    2    0    0  0.11121836904E+02 -0.10735107756E+02  0.40554731630E+02  0.47787262077E+02  0.19999959116E+02 0.  0.
         12    1    1    2    0    0 -0.11121836904E+02  0.10735107756E+02 -0.40554731630E+02  0.43400737923E+02  0.00000000000E+00 0. -1.
         11    1    3    3    0    0  0.83514237129E+01 -0.23489589214E+01  0.93051244244E+01  0.12721997754E+02  0.51100000000E-03 0. -1.
        -11    1    3    3    0    0  0.66123693508E+01 -0.97363863974E+01  0.21765829425E+02  0.24744130199E+02  0.51100000000E-03 0.  1.
        -12    1    3    3    0    0 -0.38419561593E+01  0.13502375631E+01  0.94837777807E+01  0.10321134124E+02  0.00000000000E+00 0.  1.
</event>
<event>
 7    1  0.2769403E-010  0.4778727E+02  0.7816164E-02  0.1312668E+00
        -11   -1    0    0    0    0  0.00000000000E+00  0.00000000000E+00  0.45593999997E+02  0.45594000000E+02  0.51100000000E-03 0.  1.
         11   -1    0    0    0    0 -0.00000000000E+00 -0.00000000000E+00 -0.45593999997E+02  0.45594000000E+02  0.51100000000E-03 0. -1.
    9900012    2    1    2    0    0  0.26947866947E+02 -0.69643895926E+01  0.33300653675E+02  0.47787265092E+02  0.19999972861E+02 0.  0.
         12    1    1    2    0    0 -0.26947866947E+02  0.69643895926E+01 -0.33300653675E+02  0.43400734908E+02  0.00000000000E+00 0. -1.
         11    1    3    3    0    0 -0.12505148170E+01  0.93046950709E+00 -0.33016895706E+00  0.15932898708E+01  0.51100000000E-03 0. -1.
        -11    1    3    3    0    0  0.54486958132E+01  0.32384353906E+01  0.69167472887E+01  0.93817452087E+01  0.51100000000E-03 0.  1.
        -12    1    3    3    0    0  0.22749685950E+02 -0.11133294490E+02  0.26714075343E+02  0.36812230013E+02  0.00000000000E+00 0.  1.
</event>
<event>
 7    1  0.2769403E-010  0.4778727E+02  0.7816164E-02  0.1312668E+00
        -11   -1    0    0    0    0  0.00000000000E+00  0.00000000000E+00  0.45593999997E+02  0.45594000000E+02  0.51100000000E-03 0.  1.
         11   -1    0    0    0    0 -0.00000000000E+00 -0.00000000000E+00 -0.45593999997E+02  0.45594000000E+02  0.51100000000E-03 0. -1.
    9900012    2    1    2    0    0 -0.41823837712E+02 -0.86871071163E+01  0.76761963039E+01  0.47787271657E+02  0.20000002794E+02 0.  0.
         12    1    1    2    0    0  0.41823837712E+02  0.86871071163E+01 -0.76761963039E+01  0.43400728343E+02  0.00000000000E+00 0. -1.
         11    1    3    3    0    0 -0.96893901888E+01 -0.55867365175E+01  0.21563979700E+01  0.11390608395E+02  0.51100000000E-03 0. -1.
        -11    1    3    3    0    0 -0.11430965178E+02  0.71176728425E+00  0.96108332667E+01  0.14951310775E+02  0.51100000000E-03 0.  1.
         12    1    3    3    0    0 -0.20703482345E+02 -0.38121378831E+01 -0.40910349327E+01  0.21445352487E+02  0.00000000000E+00 0. -1.
</event>
<event>
 7    1  0.2769403E-010  0.4778727E+02  0.7816164E-02  0.1312668E+00
        -11   -1    0    0    0    0  0.00000000000E+00  0.00000000000E+00  0.45593999997E+02  0.45594000000E+02  0.51100000000E-03 0.  1.
         11   -1    0    0    0    0 -0.00000000000E+00 -0.00000000000E+00 -0.45593999997E+02  0.45594000000E+02  0.51100000000E-03 0. -1.
    9900012    2    1    2    0    0  0.20543276220E+01  0.11498140488E+02  0.41799470879E+02  0.47787271177E+02  0.20000000602E+02 0.  0.
         12    1    1    2    0    0 -0.20543276220E+01 -0.11498140488E+02 -0.41799470879E+02  0.43400728823E+02  0.00000000000E+00 0. -1.
         11    1    3    3    0    0 -0.77508172716E+00  0.26219879974E+01  0.13626944964E+02  0.13898532370E+02  0.51100000000E-03 0. -1.
        -11    1    3    3    0    0 -0.34304307728E+01  0.10486137287E+02  0.11174935607E+02  0.15703697545E+02  0.51100000000E-03 0.  1.
         12    1    3    3    0    0  0.62598401219E+01 -0.16099847971E+01  0.16997590308E+02  0.18185041261E+02  0.00000000000E+00 0. -1.
</event>
<event>
 7    1  0.2769403E-010  0.4778727E+02  0.7816164E-02  0.1312668E+00
        -11   -1    0    0    0    0  0.00000000000E+00  0.00000000000E+00  0.45593999997E+02  0.45594000000E+02  0.51100000000E-03 0. -1.
         11   -1    0    0    0    0 -0.00000000000E+00 -0.00000000000E+00 -0.45593999997E+02  0.45594000000E+02  0.51100000000E-03 0.  1.
    9900012    2    1    2    0    0  0.60710321615E+01 -0.34128063921E+02 -0.26115911942E+02  0.47787273796E+02  0.20000012545E+02 0.  0.
         12    1    1    2    0    0 -0.60710321615E+01  0.34128063921E+02  0.26115911942E+02  0.43400726204E+02  0.00000000000E+00 0. -1.
         11    1    3    3    0    0 -0.31187333338E+01 -0.94252112869E+01 -0.47150241274E+01  0.10990566782E+02  0.51100000000E-03 0. -1.
        -11    1    3    3    0    0  0.49313832002E+01 -0.79612811454E+01 -0.92026316462E-01  0.93653086894E+01  0.51100000000E-03 0.  1.
         12    1    3    3    0    0  0.42583822950E+01 -0.16741571488E+02 -0.21308861498E+02  0.27431398324E+02  0.00000000000E+00 0. -1.
</event>
<event>
 7    1  0.2769403E-010  0.4778727E+02  0.7816164E-02  0.1312668E+00
        -11   -1    0    0    0    0  0.00000000000E+00  0.00000000000E+00  0.45593999997E+02  0.45594000000E+02  0.51100000000E-03 0.  1.
         11   -1    0    0    0    0 -0.00000000000E+00 -0.00000000000E+00 -0.45593999997E+02  0.45594000000E+02  0.51100000000E-03 0. -1.
    9900012    2    1    2    0    0  0.19754802880E+02  0.27388754831E+02  0.27262193942E+02  0.47787270207E+02  0.19999996183E+02 0.  0.
         12    1    1    2    0    0 -0.19754802880E+02 -0.27388754831E+02 -0.27262193942E+02  0.43400729793E+02  0.00000000000E+00 0. -1.
         11    1    3    3    0    0  0.70250678443E+01  0.52308434345E+01  0.13476362418E+02  0.16072512110E+02  0.51100000000E-03 0. -1.
        -11    1    3    3    0    0  0.14182810891E+02  0.22641881265E+02  0.11800085416E+02  0.29207001354E+02  0.51100000000E-03 0.  1.
         12    1    3    3    0    0 -0.14530758558E+01 -0.48396986864E+00  0.19857461087E+01  0.25077567435E+01  0.00000000000E+00 0. -1.
</event>
<event>
 7    1  0.2769403E-010  0.4778727E+02  0.7816164E-02  0.1312668E+00
        -11   -1    0    0    0    0  0.00000000000E+00  0.00000000000E+00  0.45593999997E+02  0.45594000000E+02  0.51100000000E-03 0.  1.
         11   -1    0    0    0    0 -0.00000000000E+00 -0.00000000000E+00 -0.45593999997E+02  0.45594000000E+02  0.51100000000E-03 0. -1.
    9900012    2    1    2    0    0  0.35894800766E+02  0.19168197962E+02  0.15091936689E+02  0.47787273184E+02  0.20000009754E+02 0.  0.
         12    1    1    2    0    0 -0.35894800766E+02 -0.19168197962E+02 -0.15091936689E+02  0.43400726816E+02  0.00000000000E+00 0. -1.
         11    1    3    3    0    0 -0.15899167431E+00  0.74450010787E+00  0.15107512963E+01  0.16917235305E+01  0.51100000000E-03 0. -1.
        -11    1    3    3    0    0  0.30518990893E+02  0.17206180999E+02  0.17542059418E+02  0.39181440997E+02  0.51100000000E-03 0.  1.
         12    1    3    3    0    0  0.55348015473E+01  0.12175168550E+01 -0.39608740258E+01  0.69141086561E+01  0.00000000000E+00 0. -1.
</event>
<event>
 7    1  0.4773951E-010  0.4778727E+02  0.7816164E-02  0.1312668E+00
        -11   -1    0    0    0    0  0.00000000000E+00  0.00000000000E+00  0.45593999997E+02  0.45594000000E+02  0.51100000000E-03 0. -1.
         11   -1    0    0    0    0 -0.00000000000E+00 -0.00000000000E+00 -0.45593999997E+02  0.45594000000E+02  0.51100000000E-03 0.  1.
    9900012    2    1    2    0    0 -0.13833025602E+01  0.54478277095E+01 -0.43035227888E+02  0.47787271987E+02  0.20000004296E+02 0.  0.
         12    1    1    2    0    0  0.13833025602E+01 -0.54478277095E+01  0.43035227888E+02  0.43400728013E+02  0.00000000000E+00 0. -1.
         11    1    3    3    0    0 -0.67829844397E+01  0.17804151132E+01 -0.10758147704E+02  0.12841981863E+02  0.51100000000E-03 0. -1.
        -11    1    3    3    0    0 -0.39501156631E+00 -0.19226832681E+01 -0.20985379705E+02  0.21076975749E+02  0.51100000000E-03 0.  1.
         12    1    3    3    0    0  0.57946934458E+01  0.55900958644E+01 -0.11291700478E+02  0.13868314375E+02  0.00000000000E+00 0. -1.
</event>
<event>
 7    1  0.2769403E-010  0.4778728E+02  0.7816164E-02  0.1312668E+00
        -11   -1    0    0    0    0  0.00000000000E+00  0.00000000000E+00  0.45593999997E+02  0.45594000000E+02  0.51100000000E-03 0. -1.
         11   -1    0    0    0    0 -0.00000000000E+00 -0.00000000000E+00 -0.45593999997E+02  0.45594000000E+02  0.51100000000E-03 0.  1.
    9900012    2    1    2    0    0  0.26807712139E+02  0.31732287275E+02  0.12571049951E+02  0.47787276703E+02  0.20000025800E+02 0.  0.
         12    1    1    2    0    0 -0.26807712139E+02 -0.31732287275E+02 -0.12571049951E+02  0.43400723297E+02  0.00000000000E+00 0. -1.
         11    1    3    3    0    0  0.46427259493E+01  0.21343498630E+01  0.47875560367E+01  0.70022172662E+01  0.51100000000E-03 0. -1.
        -11    1    3    3    0    0  0.22032795868E+02  0.18177138084E+02  0.64837048268E+01  0.29289774175E+02  0.51100000000E-03 0.  1.
         12    1    3    3    0    0  0.13219032146E+00  0.11420799329E+02  0.12997890873E+01  0.11495285262E+02  0.00000000000E+00 0. -1.
</event>
<event>
 7    1  0.2769403E-010  0.4778728E+02  0.7816164E-02  0.1312668E+00
        -11   -1    0    0    0    0  0.00000000000E+00  0.00000000000E+00  0.45593999997E+02  0.45594000000E+02  0.51100000000E-03 0.  1.
         11   -1    0    0    0    0 -0.00000000000E+00 -0.00000000000E+00 -0.45593999997E+02  0.45594000000E+02  0.51100000000E-03 0. -1.
    9900012    2    1    2    0    0 -0.15116580506E+02 -0.39544513045E+02  0.95573434603E+01  0.47787281894E+02  0.20000049465E+02 0.  0.
         12    1    1    2    0    0  0.15116580506E+02  0.39544513045E+02 -0.95573434603E+01  0.43400718106E+02  0.00000000000E+00 0. -1.
         11    1    3    3    0    0 -0.96660651665E+01 -0.22596132214E+02  0.39959762311E+01  0.24899514717E+02  0.51100000000E-03 0. -1.
        -11    1    3    3    0    0 -0.38711301672E+00 -0.17130183764E+02  0.43629304641E+01  0.17681295619E+02  0.51100000000E-03 0.  1.
         12    1    3    3    0    0 -0.50634023232E+01  0.18180293399E+00  0.11984367652E+01  0.52064715570E+01  0.00000000000E+00 0. -1.
</event>
<event>
 7    1  0.2769403E-010  0.4778727E+02  0.7816164E-02  0.1312668E+00
        -11   -1    0    0    0    0  0.00000000000E+00  0.00000000000E+00  0.45593999997E+02  0.45594000000E+02  0.51100000000E-03 0.  1.
         11   -1    0    0    0    0 -0.00000000000E+00 -0.00000000000E+00 -0.45593999997E+02  0.45594000000E+02  0.51100000000E-03 0. -1.
    9900012    2    1    2    0    0 -0.39771969304E+01  0.27870103021E+02  0.33031238543E+02  0.47787268929E+02  0.19999990353E+02 0.  0.
         12    1    1    2    0    0  0.39771969304E+01 -0.27870103021E+02 -0.33031238543E+02  0.43400731071E+02  0.00000000000E+00 0. -1.
         11    1    3    3    0    0 -0.10761869569E+02  0.11537181293E+02  0.19477484996E+02  0.25065849494E+02  0.51100000000E-03 0. -1.
        -11    1    3    3    0    0  0.97405059405E+00  0.75806489237E+01  0.46190897835E+01  0.89303417265E+01  0.51100000000E-03 0.  1.
        -12    1    3    3    0    0  0.58106220448E+01  0.87522728038E+01  0.89346637634E+01  0.13791077708E+02  0.00000000000E+00 0.  1.
</event>
<event>
 7    1  0.2769403E-010  0.4778727E+02  0.7816164E-02  0.1312668E+00
        -11   -1    0    0    0    0  0.00000000000E+00  0.00000000000E+00  0.45593999997E+02  0.45594000000E+02  0.51100000000E-03 0.  1.
         11   -1    0    0    0    0 -0.00000000000E+00 -0.00000000000E+00 -0.45593999997E+02  0.45594000000E+02  0.51100000000E-03 0. -1.
    9900012    2    1    2    0    0 -0.27613156348E+02 -0.24737601987E+02  0.22565191237E+02  0.47787271768E+02  0.20000003297E+02 0.  0.
         12    1    1    2    0    0  0.27613156348E+02  0.24737601987E+02 -0.22565191237E+02  0.43400728232E+02  0.00000000000E+00 0. -1.
         11    1    3    3    0    0 -0.31117584889E+01 -0.43471643510E+01 -0.21459365665E+01  0.57607224197E+01  0.51100000000E-03 0. -1.
        -11    1    3    3    0    0 -0.15613181282E+02 -0.10439054098E+02  0.74393309679E+01  0.20201210997E+02  0.51100000000E-03 0.  1.
         12    1    3    3    0    0 -0.88882165765E+01 -0.99513835381E+01  0.17271796835E+02  0.21825338351E+02  0.00000000000E+00 0. -1.
</event>
<event>
 7    1  0.2769403E-010  0.4778727E+02  0.7816164E-02  0.1312668E+00
        -11   -1    0    0    0    0  0.00000000000E+00  0.00000000000E+00  0.45593999997E+02  0.45594000000E+02  0.51100000000E-03 0.  1.
         11   -1    0    0    0    0 -0.00000000000E+00 -0.00000000000E+00 -0.45593999997E+02  0.45594000000E+02  0.51100000000E-03 0. -1.
    9900012    2    1    2    0    0 -0.65247708771E+01  0.15214964330E+02  0.40119267961E+02  0.47787269173E+02  0.19999991467E+02 0.  0.
         12    1    1    2    0    0  0.65247708771E+01 -0.15214964330E+02 -0.40119267961E+02  0.43400730827E+02  0.00000000000E+00 0. -1.
         11    1    3    3    0    0 -0.13805356644E+01  0.80975119127E+01  0.21107078747E+02  0.22649157852E+02  0.51100000000E-03 0. -1.
        -11    1    3    3    0    0 -0.34926345518E+01  0.82530240146E+01  0.20675103542E+02  0.22533770395E+02  0.51100000000E-03 0.  1.
         12    1    3    3    0    0 -0.16516006609E+01 -0.11355715968E+01 -0.16629143278E+01  0.26043409255E+01  0.00000000000E+00 0. -1.
</event>
<event>
 7    1  0.2769403E-010  0.4778727E+02  0.7816164E-02  0.1312668E+00
        -11   -1    0    0    0    0  0.00000000000E+00  0.00000000000E+00  0.45593999997E+02  0.45594000000E+02  0.51100000000E-03 0. -1.
         11   -1    0    0    0    0 -0.00000000000E+00 -0.00000000000E+00 -0.45593999997E+02  0.45594000000E+02  0.51100000000E-03 0.  1.
    9900012    2    1    2    0    0  0.25963044421E+02  0.11602885752E+02 -0.32785917062E+02  0.47787274303E+02  0.20000014859E+02 0.  0.
         12    1    1    2    0    0 -0.25963044421E+02 -0.11602885752E+02  0.32785917062E+02  0.43400725697E+02  0.00000000000E+00 0. -1.
         11    1    3    3    0    0  0.17036820321E+02  0.49790709553E+01 -0.30093780740E+02  0.34938231691E+02  0.51100000000E-03 0. -1.
        -11    1    3    3    0    0 -0.64218296961E+00  0.12149009046E+01 -0.10634905128E+01  0.17376407875E+01  0.51100000000E-03 0.  1.
         12    1    3    3    0    0  0.95684070691E+01  0.54089138924E+01 -0.16286458095E+01  0.11111401825E+02  0.00000000000E+00 0. -1.
</event>
<event>
 7    1  0.2769403E-010  0.4778728E+02  0.7816164E-02  0.1312668E+00
        -11   -1    0    0    0    0  0.00000000000E+00  0.00000000000E+00  0.45593999997E+02  0.45594000000E+02  0.51100000000E-03 0.  1.
         11   -1    0    0    0    0 -0.00000000000E+00 -0.00000000000E+00 -0.45593999997E+02  0.45594000000E+02  0.51100000000E-03 0. -1.
    9900012    2    1    2    0    0  0.14940607154E+02 -0.31692352976E+02  0.25612409862E+02  0.47787279750E+02  0.20000039693E+02 0.  0.
         12    1    1    2    0    0 -0.14940607154E+02  0.31692352976E+02 -0.25612409862E+02  0.43400720250E+02  0.00000000000E+00 0. -1.
         11    1    3    3    0    0  0.88662666520E+00 -0.92125438897E+00  0.17762997673E+01  0.21886200257E+01  0.51100000000E-03 0. -1.
        -11    1    3    3    0    0  0.13387745315E+02 -0.16875297009E+02  0.23220449456E+02  0.31673279700E+02  0.51100000000E-03 0.  1.
         12    1    3    3    0    0  0.66623517395E+00 -0.13895801578E+02  0.61566063843E+00  0.13925380024E+02  0.00000000000E+00 0. -1.
</event>
<event>
 7    1  0.2769403E-010  0.4778728E+02  0.7816164E-02  0.1312668E+00
        -11   -1    0    0    0    0  0.00000000000E+00  0.00000000000E+00  0.45593999997E+02  0.45594000000E+02  0.51100000000E-03 0. -1.
         11   -1    0    0    0    0 -0.00000000000E+00 -0.00000000000E+00 -0.45593999997E+02  0.45594000000E+02  0.51100000000E-03 0.  1.
    9900012    2    1    2    0    0 -0.36537756055E+01 -0.35877303058E+02 -0.24147294477E+02  0.47787276717E+02  0.20000025864E+02 0.  0.
         12    1    1    2    0    0  0.36537756055E+01  0.35877303058E+02  0.24147294477E+02  0.43400723283E+02  0.00000000000E+00 0. -1.
         11    1    3    3    0    0 -0.39770798078E+01 -0.25017654720E+02 -0.10118008988E+02  0.27277725668E+02  0.51100000000E-03 0. -1.
        -11    1    3    3    0    0  0.40046489044E+01 -0.53500649892E+01 -0.23546967464E+01  0.70855490447E+01  0.51100000000E-03 0.  1.
         12    1    3    3    0    0 -0.36813447021E+01 -0.55095833490E+01 -0.11674588743E+02  0.13424002004E+02  0.00000000000E+00 0. -1.
</event>
<event>
 7    1  0.2769403E-010  0.4778727E+02  0.7816164E-02  0.1312668E+00
        -11   -1    0    0    0    0  0.00000000000E+00  0.00000000000E+00  0.45593999997E+02  0.45594000000E+02  0.51100000000E-03 0.  1.
         11   -1    0    0    0    0 -0.00000000000E+00 -0.00000000000E+00 -0.45593999997E+02  0.45594000000E+02  0.51100000000E-03 0. -1.
    9900012    2    1    2    0    0  0.33947495941E+01 -0.35573344560E+02  0.24629984675E+02  0.47787270593E+02  0.19999997942E+02 0.  0.
         12    1    1    2    0    0 -0.33947495941E+01  0.35573344560E+02 -0.24629984675E+02  0.43400729407E+02  0.00000000000E+00 0. -1.
         11    1    3    3    0    0  0.11189281722E+01  0.11086462494E+01  0.61742972175E+01  0.63720517223E+01  0.51100000000E-03 0. -1.
        -11    1    3    3    0    0  0.11230405963E+01 -0.28762909894E+01  0.26942991613E+01  0.40979895398E+01  0.51100000000E-03 0.  1.
         12    1    3    3    0    0  0.11527808256E+01 -0.33805699820E+02  0.15761388296E+02  0.37317229331E+02  0.00000000000E+00 0. -1.
</event>
<event>
 7    1  0.2769403E-010  0.4778728E+02  0.7816164E-02  0.1312668E+00
        -11   -1    0    0    0    0  0.00000000000E+00  0.00000000000E+00  0.45593999997E+02  0.45594000000E+02  0.51100000000E-03 0.  1.
         11   -1    0    0    0    0 -0.00000000000E+00 -0.00000000000E+00 -0.45593999997E+02  0.45594000000E+02  0.51100000000E-03 0. -1.
    9900012    2    1    2    0    0 -0.32247783568E+02  0.18470126056E+01  0.28987788608E+02  0.47787275478E+02  0.20000020215E+02 0.  0.
         12    1    1    2    0    0  0.32247783568E+02 -0.18470126056E+01 -0.28987788608E+02  0.43400724522E+02  0.00000000000E+00 0. -1.
         11    1    3    3    0    0 -0.74410703579E+01 -0.34649822030E+01  0.13565911386E+02  0.15855900534E+02  0.51100000000E-03 0. -1.
        -11    1    3    3    0    0 -0.38911693343E+01 -0.11479588590E+01  0.77280734158E+01  0.87282373542E+01  0.51100000000E-03 0.  1.
         12    1    3    3    0    0 -0.20915543876E+02  0.64599536676E+01  0.76938038060E+01  0.23203137590E+02  0.00000000000E+00 0. -1.
</event>
<event>
 7    1  0.2769403E-010  0.4778727E+02  0.7816164E-02  0.1312668E+00
        -11   -1    0    0    0    0  0.00000000000E+00  0.00000000000E+00  0.45593999997E+02  0.45594000000E+02  0.51100000000E-03 0. -1.
         11   -1    0    0    0    0 -0.00000000000E+00 -0.00000000000E+00 -0.45593999997E+02  0.45594000000E+02  0.51100000000E-03 0.  1.
    9900012    2    1    2    0    0 -0.17257895786E+02  0.35252936349E+02 -0.18520760253E+02  0.47787273640E+02  0.20000011835E+02 0.  0.
         12    1    1    2    0    0  0.17257895786E+02 -0.35252936349E+02  0.18520760253E+02  0.43400726360E+02  0.00000000000E+00 0. -1.
         11    1    3    3    0    0 -0.47340437628E+01  0.57227498467E+01 -0.29085291243E+01  0.79762508789E+01  0.51100000000E-03 0. -1.
        -11    1    3    3    0    0 -0.59055562113E+01  0.28965047339E+02 -0.14976545859E+02  0.33138293373E+02  0.51100000000E-03 0.  1.
        -12    1    3    3    0    0 -0.66182958122E+01  0.56513916329E+00 -0.63568526954E+00  0.66727293886E+01  0.00000000000E+00 0.  1.
</event>
<event>
 7    1  0.2769403E-010  0.4778727E+02  0.7816164E-02  0.1312668E+00
        -11   -1    0    0    0    0  0.00000000000E+00  0.00000000000E+00  0.45593999997E+02  0.45594000000E+02  0.51100000000E-03 0. -1.
         11   -1    0    0    0    0 -0.00000000000E+00 -0.00000000000E+00 -0.45593999997E+02  0.45594000000E+02  0.51100000000E-03 0.  1.
    9900012    2    1    2    0    0  0.41117275904E+02  0.16950499849E+01  0.13788384137E+02  0.47787272940E+02  0.20000008643E+02 0.  0.
         12    1    1    2    0    0 -0.41117275904E+02 -0.16950499849E+01 -0.13788384137E+02  0.43400727060E+02  0.00000000000E+00 0. -1.
         11    1    3    3    0    0  0.51914210792E+01  0.66545497957E+01  0.67490428113E+01  0.10806639854E+02  0.51100000000E-03 0. -1.
        -11    1    3    3    0    0  0.82261330502E+01 -0.53410030167E+00  0.12358672740E+01  0.83355801401E+01  0.51100000000E-03 0.  1.
         12    1    3    3    0    0  0.27699721775E+02 -0.44253995092E+01  0.58034740519E+01  0.28645052946E+02  0.00000000000E+00 0. -1.
</event>
<event>
 7    1  0.2769403E-010  0.4778727E+02  0.7816164E-02  0.1312668E+00
        -11   -1    0    0    0    0  0.00000000000E+00  0.00000000000E+00  0.45593999997E+02  0.45594000000E+02  0.51100000000E-03 0. -1.
         11   -1    0    0    0    0 -0.00000000000E+00 -0.00000000000E+00 -0.45593999997E+02  0.45594000000E+02  0.51100000000E-03 0.  1.
    9900012    2    1    2    0    0  0.19026449916E+01 -0.17753368556E+02 -0.39557819864E+02  0.47787271141E+02  0.20000000442E+02 0.  0.
         12    1    1    2    0    0 -0.19026449916E+01  0.17753368556E+02  0.39557819864E+02  0.43400728859E+02  0.00000000000E+00 0. -1.
         11    1    3    3    0    0 -0.25974456028E+01 -0.50676362921E+01 -0.16908501607E+02  0.17841667190E+02  0.51100000000E-03 0. -1.
        -11    1    3    3    0    0  0.56278426069E+00 -0.31043963184E+01 -0.18531855968E+02  0.18798502294E+02  0.51100000000E-03 0.  1.
         12    1    3    3    0    0  0.39373063338E+01 -0.95813359452E+01 -0.41174622895E+01  0.11147101658E+02  0.00000000000E+00 0. -1.
</event>
<event>
 7    1  0.2769403E-010  0.4778727E+02  0.7816164E-02  0.1312668E+00
        -11   -1    0    0    0    0  0.00000000000E+00  0.00000000000E+00  0.45593999997E+02  0.45594000000E+02  0.51100000000E-03 0.  1.
         11   -1    0    0    0    0 -0.00000000000E+00 -0.00000000000E+00 -0.45593999997E+02  0.45594000000E+02  0.51100000000E-03 0. -1.
    9900012    2    1    2    0    0 -0.31039968697E+02  0.10697144758E+02  0.28385112178E+02  0.47787272402E+02  0.20000006188E+02 0.  0.
         12    1    1    2    0    0  0.31039968697E+02 -0.10697144758E+02 -0.28385112178E+02  0.43400727598E+02  0.00000000000E+00 0. -1.
         11    1    3    3    0    0 -0.26412822966E+01 -0.76071649086E-01  0.43868843242E+01  0.51212218660E+01  0.51100000000E-03 0. -1.
        -11    1    3    3    0    0 -0.13866329876E+02  0.10450124428E+02  0.37884211101E+01  0.17771672391E+02  0.51100000000E-03 0.  1.
         12    1    3    3    0    0 -0.14532356525E+02  0.32309197859E+00  0.20209806744E+02  0.24894378145E+02  0.00000000000E+00 0. -1.
</event>
<event>
 7    1  0.2769403E-010  0.4778727E+02  0.7816164E-02  0.1312668E+00
        -11   -1    0    0    0    0  0.00000000000E+00  0.00000000000E+00  0.45593999997E+02  0.45594000000E+02  0.51100000000E-03 0.  1.
         11   -1    0    0    0    0 -0.00000000000E+00 -0.00000000000E+00 -0.45593999997E+02  0.45594000000E+02  0.51100000000E-03 0. -1.
    9900012    2    1    2    0    0  0.17585079534E+02  0.27191212797E+02  0.28896821111E+02  0.47787270215E+02  0.19999996217E+02 0.  0.
         12    1    1    2    0    0 -0.17585079534E+02 -0.27191212797E+02 -0.28896821111E+02  0.43400729785E+02  0.00000000000E+00 0. -1.
         11    1    3    3    0    0  0.41658924081E+01  0.29602728395E+01  0.85071451069E+01  0.99241822318E+01  0.51100000000E-03 0. -1.
        -11    1    3    3    0    0  0.16993492296E+02  0.20539450711E+02  0.18196121047E+02  0.32276100095E+02  0.51100000000E-03 0.  1.
         12    1    3    3    0    0 -0.35743051705E+01  0.36914892464E+01  0.21935549566E+01  0.55869878876E+01  0.00000000000E+00 0. -1.
</event>
<event>
 7    1  0.2769403E-010  0.4778727E+02  0.7816164E-02  0.1312668E+00
        -11   -1    0    0    0    0  0.00000000000E+00  0.00000000000E+00  0.45593999997E+02  0.45594000000E+02  0.51100000000E-03 0.  1.
         11   -1    0    0    0    0 -0.00000000000E+00 -0.00000000000E+00 -0.45593999997E+02  0.45594000000E+02  0.51100000000E-03 0. -1.
    9900012    2    1    2    0    0  0.26409114991E+02  0.33312431017E+01  0.34279511422E+02  0.47787269147E+02  0.19999991350E+02 0.  0.
         12    1    1    2    0    0 -0.26409114991E+02 -0.33312431017E+01 -0.34279511422E+02  0.43400730853E+02  0.00000000000E+00 0. -1.
         11    1    3    3    0    0  0.23950063132E+02  0.64605596847E+01  0.34330318216E+02  0.42354634983E+02  0.51100000000E-03 0. -1.
        -11    1    3    3    0    0 -0.84237559054E-01 -0.14042049045E+01  0.14433662809E+01  0.20154884922E+01  0.51100000000E-03 0.  1.
         12    1    3    3    0    0  0.25432894177E+01 -0.17251116785E+01 -0.14941730748E+01  0.34171456719E+01  0.00000000000E+00 0. -1.
</event>
<event>
 7    1  0.2769403E-010  0.4778727E+02  0.7816164E-02  0.1312668E+00
        -11   -1    0    0    0    0  0.00000000000E+00  0.00000000000E+00  0.45593999997E+02  0.45594000000E+02  0.51100000000E-03 0.  1.
         11   -1    0    0    0    0 -0.00000000000E+00 -0.00000000000E+00 -0.45593999997E+02  0.45594000000E+02  0.51100000000E-03 0. -1.
    9900012    2    1    2    0    0 -0.36872930268E+02 -0.15615195619E+02  0.16738461879E+02  0.47787269282E+02  0.19999991967E+02 0.  0.
         12    1    1    2    0    0  0.36872930268E+02  0.15615195619E+02 -0.16738461879E+02  0.43400730718E+02  0.00000000000E+00 0. -1.
         11    1    3    3    0    0 -0.90802503629E+01 -0.29210943093E+01  0.49982292151E+01  0.10768752675E+02  0.51100000000E-03 0. -1.
        -11    1    3    3    0    0 -0.24144676360E+02 -0.16743365792E+02  0.11532776890E+02  0.31564388758E+02  0.51100000000E-03 0.  1.
         12    1    3    3    0    0 -0.36480035443E+01  0.40492644821E+01  0.20745577310E+00  0.54541278499E+01  0.00000000000E+00 0. -1.
</event>
<event>
 7    1  0.2769403E-010  0.4778727E+02  0.7816164E-02  0.1312668E+00
        -11   -1    0    0    0    0  0.00000000000E+00  0.00000000000E+00  0.45593999997E+02  0.45594000000E+02  0.51100000000E-03 0. -1.
         11   -1    0    0    0    0 -0.00000000000E+00 -0.00000000000E+00 -0.45593999997E+02  0.45594000000E+02  0.51100000000E-03 0.  1.
    9900012    2    1    2    0    0 -0.64220451063E+01  0.17667567167E+01 -0.42886586376E+02  0.47787269780E+02  0.19999994233E+02 0.  0.
         12    1    1    2    0    0  0.64220451063E+01 -0.17667567167E+01  0.42886586376E+02  0.43400730220E+02  0.00000000000E+00 0. -1.
         11    1    3    3    0    0  0.11829210728E+01  0.32878829127E+01 -0.24905985503E+02  0.25149902395E+02  0.51100000000E-03 0. -1.
        -11    1    3    3    0    0 -0.51483572648E+01 -0.43711405683E+01 -0.17605032618E+02  0.18856023603E+02  0.51100000000E-03 0.  1.
         12    1    3    3    0    0 -0.24566089143E+01  0.28500143722E+01 -0.37556825542E+00  0.37813437816E+01  0.00000000000E+00 0. -1.
</event>
<event>
 7    1  0.2769403E-010  0.4778727E+02  0.7816164E-02  0.1312668E+00
        -11   -1    0    0    0    0  0.00000000000E+00  0.00000000000E+00  0.45593999997E+02  0.45594000000E+02  0.51100000000E-03 0.  1.
         11   -1    0    0    0    0 -0.00000000000E+00 -0.00000000000E+00 -0.45593999997E+02  0.45594000000E+02  0.51100000000E-03 0. -1.
    9900012    2    1    2    0    0 -0.14266720680E+02 -0.39348650148E+02  0.11479009222E+02  0.47787271434E+02  0.20000001774E+02 0.  0.
         12    1    1    2    0    0  0.14266720680E+02  0.39348650148E+02 -0.11479009222E+02  0.43400728566E+02  0.00000000000E+00 0. -1.
         11    1    3    3    0    0 -0.34465440882E+01 -0.83126700671E+01  0.85017627173E+01  0.12379786725E+02  0.51100000000E-03 0. -1.
        -11    1    3    3    0    0  0.19449942453E+01 -0.85154807135E+01  0.37582351879E+01  0.95089824053E+01  0.51100000000E-03 0.  1.
         12    1    3    3    0    0 -0.12765170837E+02 -0.22520499367E+02 -0.78098868356E+00  0.25898502303E+02  0.00000000000E+00 0. -1.
</event>
<event>
 7    1  0.2769403E-010  0.4778727E+02  0.7816164E-02  0.1312668E+00
        -11   -1    0    0    0    0  0.00000000000E+00  0.00000000000E+00  0.45593999997E+02  0.45594000000E+02  0.51100000000E-03 0.  1.
         11   -1    0    0    0    0 -0.00000000000E+00 -0.00000000000E+00 -0.45593999997E+02  0.45594000000E+02  0.51100000000E-03 0. -1.
    9900012    2    1    2    0    0  0.13632556321E+02 -0.82898397891E+00  0.41195749007E+02  0.47787267950E+02  0.19999985891E+02 0.  0.
         12    1    1    2    0    0 -0.13632556321E+02  0.82898397891E+00 -0.41195749007E+02  0.43400732050E+02  0.00000000000E+00 0. -1.
         11    1    3    3    0    0  0.50203191277E+01 -0.13591092501E+01  0.17782676138E+02  0.18527664532E+02  0.51100000000E-03 0. -1.
        -11    1    3    3    0    0  0.77374310114E+01 -0.12723728779E+01  0.25312227504E+02  0.26498974185E+02  0.51100000000E-03 0.  1.
         12    1    3    3    0    0  0.87480618183E+00  0.18024981491E+01 -0.18991546355E+01  0.27606292331E+01  0.00000000000E+00 0. -1.
</event>
<event>
 7    1  0.2769403E-010  0.4778727E+02  0.7816164E-02  0.1312668E+00
        -11   -1    0    0    0    0  0.00000000000E+00  0.00000000000E+00  0.45593999997E+02  0.45594000000E+02  0.51100000000E-03 0.  1.
         11   -1    0    0    0    0 -0.00000000000E+00 -0.00000000000E+00 -0.45593999997E+02  0.45594000000E+02  0.51100000000E-03 0. -1.
    9900012    2    1    2    0    0 -0.26532694210E+02  0.11428324791E+02  0.32388774874E+02  0.47787271810E+02  0.20000003492E+02 0.  0.
         12    1    1    2    0    0  0.26532694210E+02 -0.11428324791E+02 -0.32388774874E+02  0.43400728190E+02  0.00000000000E+00 0. -1.
         11    1    3    3    0    0 -0.26734347175E+00 -0.14527498603E+01  0.18223377345E+00  0.14883427354E+01  0.51100000000E-03 0. -1.
        -11    1    3    3    0    0 -0.14360035228E+02 -0.15767503577E+01  0.15689592894E+02  0.21327448954E+02  0.51100000000E-03 0.  1.
        -12    1    3    3    0    0 -0.11905315511E+02  0.14457825009E+02  0.16516948206E+02  0.24971480121E+02  0.00000000000E+00 0.  1.
</event>
<event>
 7    1  0.2769403E-010  0.4778727E+02  0.7816164E-02  0.1312668E+00
        -11   -1    0    0    0    0  0.00000000000E+00  0.00000000000E+00  0.45593999997E+02  0.45594000000E+02  0.51100000000E-03 0.  1.
         11   -1    0    0    0    0 -0.00000000000E+00 -0.00000000000E+00 -0.45593999997E+02  0.45594000000E+02  0.51100000000E-03 0. -1.
    9900012    2    1    2    0    0  0.15200614752E+01  0.22452126704E+02  0.37110840623E+02  0.47787273368E+02  0.20000010594E+02 0.  0.
         12    1    1    2    0    0 -0.15200614752E+01 -0.22452126704E+02 -0.37110840623E+02  0.43400726632E+02  0.00000000000E+00 0. -1.
         11    1    3    3    0    0  0.22461943722E+01  0.57853537651E+01  0.18367567548E+01  0.64722007835E+01  0.51100000000E-03 0. -1.
        -11    1    3    3    0    0  0.30679959904E+01 -0.24943929315E+00  0.16686062001E+01  0.35012949419E+01  0.51100000000E-03 0.  1.
        -12    1    3    3    0    0 -0.37941288873E+01  0.16916212232E+02  0.33605477668E+02  0.37813777643E+02  0.00000000000E+00 0.  1.
</event>
<event>
 7    1  0.2769403E-010  0.4778727E+02  0.7816164E-02  0.1312668E+00
        -11   -1    0    0    0    0  0.00000000000E+00  0.00000000000E+00  0.45593999997E+02  0.45594000000E+02  0.51100000000E-03 0.  1.
         11   -1    0    0    0    0 -0.00000000000E+00 -0.00000000000E+00 -0.45593999997E+02  0.45594000000E+02  0.51100000000E-03 0. -1.
    9900012    2    1    2    0    0 -0.11099796272E+02 -0.94350439470E+01  0.40882732546E+02  0.47787270144E+02  0.19999995896E+02 0.  0.
         12    1    1    2    0    0  0.11099796272E+02  0.94350439470E+01 -0.40882732546E+02  0.43400729856E+02  0.00000000000E+00 0. -1.
         11    1    3    3    0    0  0.31800658864E+00  0.38983515144E+01  0.12045882649E+02  0.12664973816E+02  0.51100000000E-03 0. -1.
        -11    1    3    3    0    0  0.89855552836E+00 -0.44070315715E+01  0.95740079382E+01  0.10577852219E+02  0.51100000000E-03 0.  1.
        -12    1    3    3    0    0 -0.12316358389E+02 -0.89263638899E+01  0.19262841959E+02  0.24544444109E+02  0.00000000000E+00 0.  1.
</event>
<event>
 7    1  0.2769403E-010  0.4778727E+02  0.7816164E-02  0.1312668E+00
        -11   -1    0    0    0    0  0.00000000000E+00  0.00000000000E+00  0.45593999997E+02  0.45594000000E+02  0.51100000000E-03 0.  1.
         11   -1    0    0    0    0 -0.00000000000E+00 -0.00000000000E+00 -0.45593999997E+02  0.45594000000E+02  0.51100000000E-03 0. -1.
    9900012    2    1    2    0    0 -0.55645861095E+00  0.42413474974E+02  0.91875399733E+01  0.47787269634E+02  0.19999993567E+02 0.  0.
         12    1    1    2    0    0  0.55645861095E+00 -0.42413474974E+02 -0.91875399733E+01  0.43400730366E+02  0.00000000000E+00 0. -1.
         11    1    3    3    0    0 -0.12462995596E+01  0.11965575621E+02  0.72385832311E+01  0.14040133546E+02  0.51100000000E-03 0. -1.
        -11    1    3    3    0    0  0.38143069603E+01  0.15204563314E+02  0.73004900272E+01  0.17292334662E+02  0.51100000000E-03 0.  1.
         12    1    3    3    0    0 -0.31244660117E+01  0.15243336039E+02 -0.53515332850E+01  0.16454801425E+02  0.00000000000E+00 0. -1.
</event>
<event>
 7    1  0.2769403E-010  0.4778728E+02  0.7816164E-02  0.1312668E+00
        -11   -1    0    0    0    0  0.00000000000E+00  0.00000000000E+00  0.45593999997E+02  0.45594000000E+02  0.51100000000E-03 0.  1.
         11   -1    0    0    0    0 -0.00000000000E+00 -0.00000000000E+00 -0.45593999997E+02  0.45594000000E+02  0.51100000000E-03 0. -1.
    9900012    2    1    2    0    0 -0.34609738608E+01 -0.43057942592E+02  0.42021251123E+01  0.47787278626E+02  0.20000034569E+02 0.  0.
         12    1    1    2    0    0  0.34609738608E+01  0.43057942592E+02 -0.42021251123E+01  0.43400721374E+02  0.00000000000E+00 0. -1.
         11    1    3    3    0    0  0.33596207777E-01 -0.22523959896E+02 -0.74607927655E+00  0.22536338049E+02  0.51100000000E-03 0. -1.
        -11    1    3    3    0    0  0.48127682800E+01 -0.11066383266E+02  0.35447001745E+01  0.12577459072E+02  0.51100000000E-03 0.  1.
         12    1    3    3    0    0 -0.83073383486E+01 -0.94675994293E+01  0.14035042143E+01  0.12673481506E+02  0.00000000000E+00 0. -1.
</event>
<event>
 7    1  0.2769403E-010  0.4778725E+02  0.7816164E-02  0.1312668E+00
        -11   -1    0    0    0    0  0.00000000000E+00  0.00000000000E+00  0.45593999997E+02  0.45594000000E+02  0.51100000000E-03 0.  1.
         11   -1    0    0    0    0 -0.00000000000E+00 -0.00000000000E+00 -0.45593999997E+02  0.45594000000E+02  0.51100000000E-03 0. -1.
    9900012    2    1    2    0    0 -0.35821014734E+02 -0.95725948552E+01 -0.22557601550E+02  0.47787250507E+02  0.19999906361E+02 0.  0.
         12    1    1    2    0    0  0.35821014734E+02  0.95725948552E+01  0.22557601550E+02  0.43400749493E+02  0.00000000000E+00 0. -1.
         11    1    3    3    0    0 -0.36694269371E+01 -0.56722068408E+01 -0.57988748159E+01  0.89031215808E+01  0.51100000000E-03 0. -1.
        -11    1    3    3    0    0 -0.26620322964E+02 -0.82184259025E+01 -0.15036143406E+02  0.31658643809E+02  0.51100000000E-03 0.  1.
        -12    1    3    3    0    0 -0.55312648333E+01  0.43180378881E+01 -0.17225833280E+01  0.72254851173E+01  0.00000000000E+00 0.  1.
</event>
<event>
 7    1  0.2769403E-010  0.4778727E+02  0.7816164E-02  0.1312668E+00
        -11   -1    0    0    0    0  0.00000000000E+00  0.00000000000E+00  0.45593999997E+02  0.45594000000E+02  0.51100000000E-03 0. -1.
         11   -1    0    0    0    0 -0.00000000000E+00 -0.00000000000E+00 -0.45593999997E+02  0.45594000000E+02  0.51100000000E-03 0.  1.
    9900012    2    1    2    0    0 -0.16641131113E+02  0.35966178490E+02 -0.17695474297E+02  0.47787273618E+02  0.20000011735E+02 0.  0.
         12    1    1    2    0    0  0.16641131113E+02 -0.35966178490E+02  0.17695474297E+02  0.43400726382E+02  0.00000000000E+00 0. -1.
         11    1    3    3    0    0  0.17414085253E+01  0.11408066044E+01  0.12166858289E+01  0.24112793343E+01  0.51100000000E-03 0. -1.
        -11    1    3    3    0    0 -0.12261763219E+01 -0.89833770549E+00 -0.14468933520E+00  0.15269100400E+01  0.51100000000E-03 0.  1.
        -12    1    3    3    0    0 -0.17156363316E+02  0.35723709591E+02 -0.18767470791E+02  0.43849084244E+02  0.00000000000E+00 0.  1.
</event>
<event>
 7    1  0.2769403E-010  0.4778728E+02  0.7816164E-02  0.1312668E+00
        -11   -1    0    0    0    0  0.00000000000E+00  0.00000000000E+00  0.45593999997E+02  0.45594000000E+02  0.51100000000E-03 0. -1.
         11   -1    0    0    0    0 -0.00000000000E+00 -0.00000000000E+00 -0.45593999997E+02  0.45594000000E+02  0.51100000000E-03 0.  1.
    9900012    2    1    2    0    0  0.36773727838E+02  0.32957780601E+01 -0.22813454486E+02  0.47787275148E+02  0.20000018709E+02 0.  0.
         12    1    1    2    0    0 -0.36773727838E+02 -0.32957780601E+01  0.22813454486E+02  0.43400724852E+02  0.00000000000E+00 0. -1.
         11    1    3    3    0    0  0.71264005815E+01 -0.32420810229E+01  0.66856730943E+00  0.78577132243E+01  0.51100000000E-03 0. -1.
        -11    1    3    3    0    0  0.72835556248E+01  0.12459245130E+01 -0.46528266603E+00  0.74039853222E+01  0.51100000000E-03 0.  1.
        -12    1    3    3    0    0  0.22363771631E+02  0.52919345700E+01 -0.23016739130E+02  0.32525576601E+02  0.00000000000E+00 0.  1.
</event>
<event>
 7    1  0.2769403E-010  0.4778727E+02  0.7816164E-02  0.1312668E+00
        -11   -1    0    0    0    0  0.00000000000E+00  0.00000000000E+00  0.45593999997E+02  0.45594000000E+02  0.51100000000E-03 0.  1.
         11   -1    0    0    0    0 -0.00000000000E+00 -0.00000000000E+00 -0.45593999997E+02  0.45594000000E+02  0.51100000000E-03 0. -1.
    9900012    2    1    2    0    0 -0.59088000641E+01 -0.13152768681E+02  0.40935491279E+02  0.47787266269E+02  0.19999978227E+02 0.  0.
         12    1    1    2    0    0  0.59088000641E+01  0.13152768681E+02 -0.40935491279E+02  0.43400733731E+02  0.00000000000E+00 0. -1.
         11    1    3    3    0    0 -0.49660357313E+01 -0.38695226518E+01  0.16274294558E+02  0.17449566758E+02  0.51100000000E-03 0. -1.
        -11    1    3    3    0    0 -0.27298969689E+01 -0.18410260280E+01  0.21983968900E+02  0.22229183592E+02  0.51100000000E-03 0.  1.
         12    1    3    3    0    0  0.17871326361E+01 -0.74422200010E+01  0.26772278205E+01  0.81085159188E+01  0.00000000000E+00 0. -1.
</event>
<event>
 7    1  0.2769403E-010  0.4778728E+02  0.7816164E-02  0.1312668E+00
        -11   -1    0    0    0    0  0.00000000000E+00  0.00000000000E+00  0.45593999997E+02  0.45594000000E+02  0.51100000000E-03 0.  1.
         11   -1    0    0    0    0 -0.00000000000E+00 -0.00000000000E+00 -0.45593999997E+02  0.45594000000E+02  0.51100000000E-03 0. -1.
    9900012    2    1    2    0    0  0.21811408956E+02 -0.61427273105E+01  0.37015566027E+02  0.47787276645E+02  0.20000025534E+02 0.  0.
         12    1    1    2    0    0 -0.21811408956E+02  0.61427273105E+01 -0.37015566027E+02  0.43400723355E+02  0.00000000000E+00 0. -1.
         11    1    3    3    0    0  0.18660026698E+02 -0.27070977323E+01  0.19386011129E+02  0.27043343030E+02  0.51100000000E-03 0. -1.
        -11    1    3    3    0    0  0.52727647602E+01 -0.47528061240E+01  0.75641057074E+01  0.10373375038E+02  0.51100000000E-03 0.  1.
        -12    1    3    3    0    0 -0.21213825021E+01  0.13171765459E+01  0.10065449191E+02  0.10370558576E+02  0.00000000000E+00 0.  1.
</event>
<event>
 7    1  0.2769403E-010  0.4778726E+02  0.7816164E-02  0.1312668E+00
        -11   -1    0    0    0    0  0.00000000000E+00  0.00000000000E+00  0.45593999997E+02  0.45594000000E+02  0.51100000000E-03 0.  1.
         11   -1    0    0    0    0 -0.00000000000E+00 -0.00000000000E+00 -0.45593999997E+02  0.45594000000E+02  0.51100000000E-03 0. -1.
    9900012    2    1    2    0    0  0.17999803271E+02  0.32316403434E+01  0.39359719280E+02  0.47787263613E+02  0.19999966119E+02 0.  0.
         12    1    1    2    0    0 -0.17999803271E+02 -0.32316403434E+01 -0.39359719280E+02  0.43400736387E+02  0.00000000000E+00 0. -1.
         11    1    3    3    0    0  0.94615268085E+01 -0.19415188508E+00  0.86340557930E+01  0.12810351447E+02  0.51100000000E-03 0. -1.
        -11    1    3    3    0    0  0.63055340966E+01  0.77017791817E+01  0.11757891206E+02  0.15405361686E+02  0.51100000000E-03 0.  1.
         12    1    3    3    0    0  0.22327423659E+01 -0.42759869532E+01  0.18967772281E+02  0.19571550480E+02  0.00000000000E+00 0. -1.
</event>
<event>
 7    1  0.2769403E-010  0.4778727E+02  0.7816164E-02  0.1312668E+00
        -11   -1    0    0    0    0  0.00000000000E+00  0.00000000000E+00  0.45593999997E+02  0.45594000000E+02  0.51100000000E-03 0. -1.
         11   -1    0    0    0    0 -0.00000000000E+00 -0.00000000000E+00 -0.45593999997E+02  0.45594000000E+02  0.51100000000E-03 0.  1.
    9900012    2    1    2    0    0  0.29287155083E+02 -0.28699107271E+02 -0.14221357242E+02  0.47787271748E+02  0.20000003207E+02 0.  0.
         12    1    1    2    0    0 -0.29287155083E+02  0.28699107271E+02  0.14221357242E+02  0.43400728252E+02  0.00000000000E+00 0. -1.
         11    1    3    3    0    0  0.10229256156E+02 -0.16062052096E+02  0.28499661795E+00  0.19044905418E+02  0.51100000000E-03 0. -1.
        -11    1    3    3    0    0  0.11127270174E+02 -0.12673812414E+02 -0.93672639701E+01  0.19292156364E+02  0.51100000000E-03 0.  1.
         12    1    3    3    0    0  0.79306287524E+01  0.36757238453E-01 -0.51390898897E+01  0.94502099658E+01  0.00000000000E+00 0. -1.
</event>
<event>
 7    1  0.2769403E-010  0.4778727E+02  0.7816164E-02  0.1312668E+00
        -11   -1    0    0    0    0  0.00000000000E+00  0.00000000000E+00  0.45593999997E+02  0.45594000000E+02  0.51100000000E-03 0.  1.
         11   -1    0    0    0    0 -0.00000000000E+00 -0.00000000000E+00 -0.45593999997E+02  0.45594000000E+02  0.51100000000E-03 0. -1.
    9900012    2    1    2    0    0  0.26858696449E+02 -0.16599422030E+02  0.29777388927E+02  0.47787270997E+02  0.19999999784E+02 0.  0.
         12    1    1    2    0    0 -0.26858696449E+02  0.16599422030E+02 -0.29777388927E+02  0.43400729003E+02  0.00000000000E+00 0. -1.
         11    1    3    3    0    0  0.10618966577E+02 -0.88484274785E+01  0.86618923829E+01  0.16312127388E+02  0.51100000000E-03 0. -1.
        -11    1    3    3    0    0  0.18411966146E+02 -0.38912255090E+01  0.15931255578E+02  0.24656582039E+02  0.51100000000E-03 0.  1.
         12    1    3    3    0    0 -0.21722362731E+01 -0.38597690428E+01  0.51842409662E+01  0.68185615701E+01  0.00000000000E+00 0. -1.
</event>
<event>
 7    1  0.2769403E-010  0.4778727E+02  0.7816164E-02  0.1312668E+00
        -11   -1    0    0    0    0  0.00000000000E+00  0.00000000000E+00  0.45593999997E+02  0.45594000000E+02  0.51100000000E-03 0.  1.
         11   -1    0    0    0    0 -0.00000000000E+00 -0.00000000000E+00 -0.45593999997E+02  0.45594000000E+02  0.51100000000E-03 0. -1.
    9900012    2    1    2    0    0  0.11480305291E+02 -0.57586556520E+01  0.41456771518E+02  0.47787269255E+02  0.19999991840E+02 0.  0.
         12    1    1    2    0    0 -0.11480305291E+02  0.57586556520E+01 -0.41456771518E+02  0.43400730745E+02  0.00000000000E+00 0. -1.
         11    1    3    3    0    0 -0.94355776736E+00 -0.24048354370E+01  0.31475414457E+01  0.40719224149E+01  0.51100000000E-03 0. -1.
        -11    1    3    3    0    0  0.52747502679E+01 -0.99243842274E+01  0.22752846417E+02  0.25377320840E+02  0.51100000000E-03 0.  1.
         12    1    3    3    0    0  0.71491127902E+01  0.65705640125E+01  0.15556383656E+02  0.18338026000E+02  0.00000000000E+00 0. -1.
</event>
<event>
 7    1  0.2769403E-010  0.4778727E+02  0.7816164E-02  0.1312668E+00
        -11   -1    0    0    0    0  0.00000000000E+00  0.00000000000E+00  0.45593999997E+02  0.45594000000E+02  0.51100000000E-03 0. -1.
         11   -1    0    0    0    0 -0.00000000000E+00 -0.00000000000E+00 -0.45593999997E+02  0.45594000000E+02  0.51100000000E-03 0.  1.
    9900012    2    1    2    0    0 -0.38036485946E+02 -0.10235193886E+02 -0.18223345612E+02  0.47787265187E+02  0.19999973295E+02 0.  0.
         12    1    1    2    0    0  0.38036485946E+02  0.10235193886E+02  0.18223345612E+02  0.43400734813E+02  0.00000000000E+00 0. -1.
         11    1    3    3    0    0  0.17675583827E+01 -0.20129030816E+01 -0.36000436062E+01  0.44873550873E+01  0.51100000000E-03 0. -1.
        -11    1    3    3    0    0 -0.24586639624E+02 -0.65546663674E+01 -0.93380795640E+01  0.27104727067E+02  0.51100000000E-03 0.  1.
         12    1    3    3    0    0 -0.15217404704E+02 -0.16676244372E+01 -0.52852224422E+01  0.16195183033E+02  0.00000000000E+00 0. -1.
</event>
<event>
 7    1  0.2769403E-010  0.4778728E+02  0.7816164E-02  0.1312668E+00
        -11   -1    0    0    0    0  0.00000000000E+00  0.00000000000E+00  0.45593999997E+02  0.45594000000E+02  0.51100000000E-03 0. -1.
         11   -1    0    0    0    0 -0.00000000000E+00 -0.00000000000E+00 -0.45593999997E+02  0.45594000000E+02  0.51100000000E-03 0.  1.
    9900012    2    1    2    0    0 -0.34460910149E+02  0.88530110038E+01 -0.24853421504E+02  0.47787277741E+02  0.20000030534E+02 0.  0.
         12    1    1    2    0    0  0.34460910149E+02 -0.88530110038E+01  0.24853421504E+02  0.43400722259E+02  0.00000000000E+00 0. -1.
         11    1    3    3    0    0  0.15458944231E+01 -0.91519450408E-01 -0.32507296876E+00  0.15823520699E+01  0.51100000000E-03 0. -1.
        -11    1    3    3    0    0  0.93241215389E-01  0.22163841556E+01 -0.36948974655E+00  0.22489054189E+01  0.51100000000E-03 0.  1.
        -12    1    3    3    0    0 -0.36100045788E+02  0.67281462987E+01 -0.24158858788E+02  0.43956020252E+02  0.00000000000E+00 0.  1.
</event>
<event>
 7    1  0.2769403E-010  0.4778727E+02  0.7816164E-02  0.1312668E+00
        -11   -1    0    0    0    0  0.00000000000E+00  0.00000000000E+00  0.45593999997E+02  0.45594000000E+02  0.51100000000E-03 0. -1.
         11   -1    0    0    0    0 -0.00000000000E+00 -0.00000000000E+00 -0.45593999997E+02  0.45594000000E+02  0.51100000000E-03 0.  1.
    9900012    2    1    2    0    0 -0.33667894050E+02 -0.18492716033E+01 -0.27325373613E+02  0.47787274910E+02  0.20000017627E+02 0.  0.
         12    1    1    2    0    0  0.33667894050E+02  0.18492716033E+01  0.27325373613E+02  0.43400725090E+02  0.00000000000E+00 0. -1.
         11    1    3    3    0    0 -0.13865673082E+02 -0.68623176945E+01 -0.91239077462E+01  0.17960901620E+02  0.51100000000E-03 0. -1.
        -11    1    3    3    0    0 -0.93557083833E+01 -0.24572131638E+01 -0.34550315472E+01  0.10271534410E+02  0.51100000000E-03 0.  1.
         12    1    3    3    0    0 -0.10446512584E+02  0.74702592550E+01 -0.14746434319E+02  0.19554838881E+02  0.00000000000E+00 0. -1.
</event>
<event>
 7    1  0.2769403E-010  0.4778727E+02  0.7816164E-02  0.1312668E+00
        -11   -1    0    0    0    0  0.00000000000E+00  0.00000000000E+00  0.45593999997E+02  0.45594000000E+02  0.51100000000E-03 0.  1.
         11   -1    0    0    0    0 -0.00000000000E+00 -0.00000000000E+00 -0.45593999997E+02  0.45594000000E+02  0.51100000000E-03 0. -1.
    9900012    2    1    2    0    0 -0.14564952392E+02 -0.23416047095E+02  0.33513786792E+02  0.47787274143E+02  0.20000014129E+02 0.  0.
         12    1    1    2    0    0  0.14564952392E+02  0.23416047095E+02 -0.33513786792E+02  0.43400725857E+02  0.00000000000E+00 0. -1.
         11    1    3    3    0    0  0.23983906665E+01 -0.48818080749E+00  0.77698255331E+01  0.81462130690E+01  0.51100000000E-03 0. -1.
        -11    1    3    3    0    0 -0.24110166990E+01 -0.11190550729E+02  0.99206289787E+01  0.15147947278E+02  0.51100000000E-03 0.  1.
         12    1    3    3    0    0 -0.14552326359E+02 -0.11737315559E+02  0.15823332281E+02  0.24493113797E+02  0.00000000000E+00 0. -1.
</event>
<event>
 7    1  0.2769403E-010  0.4778727E+02  0.7816164E-02  0.1312668E+00
        -11   -1    0    0    0    0  0.00000000000E+00  0.00000000000E+00  0.45593999997E+02  0.45594000000E+02  0.51100000000E-03 0.  1.
         11   -1    0    0    0    0 -0.00000000000E+00 -0.00000000000E+00 -0.45593999997E+02  0.45594000000E+02  0.51100000000E-03 0. -1.
    9900012    2    1    2    0    0  0.37700357577E+02 -0.20748997926E+02 -0.56378505970E+01  0.47787271484E+02  0.20000002003E+02 0.  0.
         12    1    1    2    0    0 -0.37700357577E+02  0.20748997926E+02  0.56378505970E+01  0.43400728516E+02  0.00000000000E+00 0. -1.
         11    1    3    3    0    0  0.83526996642E+01 -0.10653663136E+02 -0.17298293885E+01  0.13647726546E+02  0.51100000000E-03 0. -1.
        -11    1    3    3    0    0  0.14522709954E+02 -0.93077727221E+01  0.34174527778E+01  0.17584729773E+02  0.51100000000E-03 0.  1.
         12    1    3    3    0    0  0.14824947959E+02 -0.78756206736E+00 -0.73254739864E+01  0.16554815165E+02  0.00000000000E+00 0. -1.
</event>
<event>
 7    1  0.2769403E-010  0.4778728E+02  0.7816164E-02  0.1312668E+00
        -11   -1    0    0    0    0  0.00000000000E+00  0.00000000000E+00  0.45593999997E+02  0.45594000000E+02  0.51100000000E-03 0.  1.
         11   -1    0    0    0    0 -0.00000000000E+00 -0.00000000000E+00 -0.45593999997E+02  0.45594000000E+02  0.51100000000E-03 0. -1.
    9900012    2    1    2    0    0  0.38836594978E+02  0.14354993988E+02  0.13010590213E+02  0.47787280887E+02  0.20000044876E+02 0.  0.
         12    1    1    2    0    0 -0.38836594978E+02 -0.14354993988E+02 -0.13010590213E+02  0.43400719113E+02  0.00000000000E+00 0. -1.
         11    1    3    3    0    0  0.62390705469E+01  0.16114920378E+01 -0.16782552202E+01  0.66587873312E+01  0.51100000000E-03 0. -1.
        -11    1    3    3    0    0  0.10382742452E+01  0.29764861026E+01  0.62989341608E+01  0.70437244942E+01  0.51100000000E-03 0.  1.
        -12    1    3    3    0    0  0.31559250185E+02  0.97670158474E+01  0.83899112721E+01  0.34084769062E+02  0.00000000000E+00 0.  1.
</event>
<event>
 7    1  0.2769403E-010  0.4778728E+02  0.7816164E-02  0.1312668E+00
        -11   -1    0    0    0    0  0.00000000000E+00  0.00000000000E+00  0.45593999997E+02  0.45594000000E+02  0.51100000000E-03 0.  1.
         11   -1    0    0    0    0 -0.00000000000E+00 -0.00000000000E+00 -0.45593999997E+02  0.45594000000E+02  0.51100000000E-03 0. -1.
    9900012    2    1    2    0    0  0.33082356463E+02 -0.27376537556E+02 -0.63012421265E+01  0.47787276848E+02  0.20000026463E+02 0.  0.
         12    1    1    2    0    0 -0.33082356463E+02  0.27376537556E+02  0.63012421265E+01  0.43400723152E+02  0.00000000000E+00 0. -1.
         11    1    3    3    0    0  0.67767768748E+00 -0.85678661732E+00 -0.17144129293E+01  0.20328655413E+01  0.51100000000E-03 0. -1.
        -11    1    3    3    0    0  0.10413085393E+02 -0.12652575579E+02 -0.10001859188E+02  0.19197843724E+02  0.51100000000E-03 0.  1.
         12    1    3    3    0    0  0.21991593383E+02 -0.13867175359E+02  0.54150299906E+01  0.26556567583E+02  0.00000000000E+00 0. -1.
</event>
<event>
 7    1  0.2769403E-010  0.4778728E+02  0.7816164E-02  0.1312668E+00
        -11   -1    0    0    0    0  0.00000000000E+00  0.00000000000E+00  0.45593999997E+02  0.45594000000E+02  0.51100000000E-03 0.  1.
         11   -1    0    0    0    0 -0.00000000000E+00 -0.00000000000E+00 -0.45593999997E+02  0.45594000000E+02  0.51100000000E-03 0. -1.
    9900012    2    1    2    0    0  0.25296815698E+02 -0.10550790104E+02  0.33650777073E+02  0.47787275883E+02  0.20000022061E+02 0.  0.
         12    1    1    2    0    0 -0.25296815698E+02  0.10550790104E+02 -0.33650777073E+02  0.43400724117E+02  0.00000000000E+00 0. -1.
         11    1    3    3    0    0  0.12409491661E+02 -0.47212457283E+01  0.18829859078E+02  0.23040165747E+02  0.51100000000E-03 0. -1.
        -11    1    3    3    0    0  0.10709802743E+02 -0.10003138303E+02  0.87621327919E+01  0.17074472818E+02  0.51100000000E-03 0.  1.
         12    1    3    3    0    0  0.21775212941E+01  0.41735939279E+01  0.60587852033E+01  0.76726373172E+01  0.00000000000E+00 0. -1.
</event>
<event>
 7    1  0.2769403E-010  0.4778726E+02  0.7816164E-02  0.1312668E+00
        -11   -1    0    0    0    0  0.00000000000E+00  0.00000000000E+00  0.45593999997E+02  0.45594000000E+02  0.51100000000E-03 0.  1.
         11   -1    0    0    0    0 -0.00000000000E+00 -0.00000000000E+00 -0.45593999997E+02  0.45594000000E+02  0.51100000000E-03 0. -1.
    9900012    2    1    2    0    0 -0.12910833000E+02 -0.29695016555E+02 -0.28898800793E+02  0.47787259174E+02  0.19999945878E+02 0.  0.
         12    1    1    2    0    0  0.12910833000E+02  0.29695016555E+02  0.28898800793E+02  0.43400740826E+02  0.00000000000E+00 0. -1.
         11    1    3    3    0    0 -0.17698700468E+00 -0.13389056869E+02 -0.10221059550E+02  0.16845421539E+02  0.51100000000E-03 0.  1.
        -11    1    3    3    0    0 -0.76593517711E+01 -0.99754859904E+01 -0.24703345681E+01  0.12817119155E+02  0.51100000000E-03 0. -1.
         12    1    3    3    0    0 -0.50744942237E+01 -0.63304736960E+01 -0.16207406675E+02  0.18124718480E+02  0.00000000000E+00 0. -1.
</event>
<event>
 7    1  0.3227661E-010  0.4778727E+02  0.7816164E-02  0.1312668E+00
        -11   -1    0    0    0    0  0.00000000000E+00  0.00000000000E+00  0.45593999997E+02  0.45594000000E+02  0.51100000000E-03 0. -1.
         11   -1    0    0    0    0 -0.00000000000E+00 -0.00000000000E+00 -0.45593999997E+02  0.45594000000E+02  0.51100000000E-03 0.  1.
    9900012    2    1    2    0    0  0.11339095823E+02 -0.25914377009E+01 -0.41813066438E+02  0.47787272260E+02  0.20000005542E+02 0.  0.
         12    1    1    2    0    0 -0.11339095823E+02  0.25914377009E+01  0.41813066438E+02  0.43400727740E+02  0.00000000000E+00 0. -1.
         11    1    3    3    0    0  0.90571187117E+01 -0.15500175310E+01 -0.13579881584E+02  0.16396558719E+02  0.51100000000E-03 0. -1.
        -11    1    3    3    0    0  0.53561655846E+01 -0.57311921233E+01 -0.19423926856E+02  0.20948126592E+02  0.51100000000E-03 0.  1.
         12    1    3    3    0    0 -0.30741884730E+01  0.46897719534E+01 -0.88092579972E+01  0.10442586950E+02  0.00000000000E+00 0. -1.
</event>
<event>
 7    1  0.2769403E-010  0.4778727E+02  0.7816164E-02  0.1312668E+00
        -11   -1    0    0    0    0  0.00000000000E+00  0.00000000000E+00  0.45593999997E+02  0.45594000000E+02  0.51100000000E-03 0. -1.
         11   -1    0    0    0    0 -0.00000000000E+00 -0.00000000000E+00 -0.45593999997E+02  0.45594000000E+02  0.51100000000E-03 0.  1.
    9900012    2    1    2    0    0 -0.42809004923E+02 -0.65880244907E+01 -0.27586543467E+01  0.47787272553E+02  0.20000006877E+02 0.  0.
         12    1    1    2    0    0  0.42809004923E+02  0.65880244907E+01  0.27586543467E+01  0.43400727447E+02  0.00000000000E+00 0. -1.
         11    1    3    3    0    0 -0.26213877853E+02 -0.58664305692E+01 -0.51875852451E+00  0.26867294437E+02  0.51100000000E-03 0. -1.
        -11    1    3    3    0    0 -0.18672959478E+02 -0.95000784874E+00 -0.17973884462E+01  0.18783304716E+02  0.51100000000E-03 0.  1.
         12    1    3    3    0    0  0.20778324080E+01  0.22841392730E+00 -0.44250737598E+00  0.21366733994E+01  0.00000000000E+00 0. -1.
</event>
<event>
 7    1  0.2769403E-010  0.4778725E+02  0.7816164E-02  0.1312668E+00
        -11   -1    0    0    0    0  0.00000000000E+00  0.00000000000E+00  0.45593999997E+02  0.45594000000E+02  0.51100000000E-03 0.  1.
         11   -1    0    0    0    0 -0.00000000000E+00 -0.00000000000E+00 -0.45593999997E+02  0.45594000000E+02  0.51100000000E-03 0. -1.
    9900012    2    1    2    0    0  0.11517786988E+02 -0.28767888277E+02  0.30387078978E+02  0.47787246760E+02  0.19999889277E+02 0.  0.
         12    1    1    2    0    0 -0.11517786988E+02  0.28767888277E+02 -0.30387078978E+02  0.43400753240E+02  0.00000000000E+00 0. -1.
         11    1    3    3    0    0  0.29126249789E+01 -0.12675431693E+02  0.73683909843E+01  0.14948014544E+02  0.51100000000E-03 0. -1.
        -11    1    3    3    0    0  0.27560178469E+01 -0.16251153900E+02  0.12086592088E+02  0.20439700243E+02  0.51100000000E-03 0.  1.
         12    1    3    3    0    0  0.58491441620E+01  0.15869731539E+00  0.10932095905E+02  0.12399531973E+02  0.00000000000E+00 0. -1.
</event>
<event>
 7    1  0.2769403E-010  0.4778727E+02  0.7816164E-02  0.1312668E+00
        -11   -1    0    0    0    0  0.00000000000E+00  0.00000000000E+00  0.45593999997E+02  0.45594000000E+02  0.51100000000E-03 0.  1.
         11   -1    0    0    0    0 -0.00000000000E+00 -0.00000000000E+00 -0.45593999997E+02  0.45594000000E+02  0.51100000000E-03 0. -1.
    9900012    2    1    2    0    0 -0.34844882520E+02  0.62411721419E+01  0.25109862229E+02  0.47787271335E+02  0.20000001323E+02 0.  0.
         12    1    1    2    0    0  0.34844882520E+02 -0.62411721419E+01 -0.25109862229E+02  0.43400728665E+02  0.00000000000E+00 0. -1.
         11    1    3    3    0    0 -0.33058550913E+01  0.11080844911E+01 -0.28791749873E+01  0.45217450164E+01  0.51100000000E-03 0. -1.
        -11    1    3    3    0    0 -0.95203145339E+00  0.91380466274E+00  0.38592355876E+01  0.40786152591E+01  0.51100000000E-03 0.  1.
        -12    1    3    3    0    0 -0.30586995975E+02  0.42192829880E+01  0.24129801629E+02  0.39186911059E+02  0.00000000000E+00 0.  1.
</event>
<event>
 7    1  0.2769403E-010  0.4778728E+02  0.7816164E-02  0.1312668E+00
        -11   -1    0    0    0    0  0.00000000000E+00  0.00000000000E+00  0.45593999997E+02  0.45594000000E+02  0.51100000000E-03 0. -1.
         11   -1    0    0    0    0 -0.00000000000E+00 -0.00000000000E+00 -0.45593999997E+02  0.45594000000E+02  0.51100000000E-03 0.  1.
    9900012    2    1    2    0    0  0.83801712183E+01  0.41086294830E+02 -0.11194255996E+02  0.47787282727E+02  0.20000053265E+02 0.  0.
         12    1    1    2    0    0 -0.83801712183E+01 -0.41086294830E+02  0.11194255996E+02  0.43400717273E+02  0.00000000000E+00 0. -1.
         11    1    3    3    0    0 -0.85610302113E+00  0.19772537382E+01  0.24225101673E+01  0.32420673188E+01  0.51100000000E-03 0. -1.
        -11    1    3    3    0    0  0.33358824608E+01  0.14950819050E+01 -0.36993894935E+01  0.52008522937E+01  0.51100000000E-03 0.  1.
        -12    1    3    3    0    0  0.59003917786E+01  0.37613959187E+02 -0.99173766702E+01  0.39344363114E+02  0.00000000000E+00 0.  1.
</event>
<event>
 7    1  0.2769403E-010  0.4778727E+02  0.7816164E-02  0.1312668E+00
        -11   -1    0    0    0    0  0.00000000000E+00  0.00000000000E+00  0.45593999997E+02  0.45594000000E+02  0.51100000000E-03 0.  1.
         11   -1    0    0    0    0 -0.00000000000E+00 -0.00000000000E+00 -0.45593999997E+02  0.45594000000E+02  0.51100000000E-03 0. -1.
    9900012    2    1    2    0    0  0.83814429424E+01  0.49163878161E+01  0.42298977409E+02  0.47787274836E+02  0.20000017286E+02 0.  0.
         12    1    1    2    0    0 -0.83814429424E+01 -0.49163878161E+01 -0.42298977409E+02  0.43400725164E+02  0.00000000000E+00 0. -1.
         11    1    3    3    0    0 -0.80666741067E+00  0.24539606009E+00  0.29098206895E+01  0.30295194740E+01  0.51100000000E-03 0. -1.
        -11    1    3    3    0    0  0.32352801534E+01  0.53792985761E+01  0.38115736141E+02  0.38629175925E+02  0.51100000000E-03 0.  1.
         12    1    3    3    0    0  0.59528301997E+01 -0.70830682009E+00  0.12734205785E+01  0.61285794364E+01  0.00000000000E+00 0. -1.
</event>
<event>
 7    1  0.2769403E-010  0.4778728E+02  0.7816164E-02  0.1312668E+00
        -11   -1    0    0    0    0  0.00000000000E+00  0.00000000000E+00  0.45593999997E+02  0.45594000000E+02  0.51100000000E-03 0.  1.
         11   -1    0    0    0    0 -0.00000000000E+00 -0.00000000000E+00 -0.45593999997E+02  0.45594000000E+02  0.51100000000E-03 0. -1.
    9900012    2    1    2    0    0 -0.17752610422E+02 -0.12281832431E+02  0.37651344099E+02  0.47787282297E+02  0.20000051305E+02 0.  0.
         12    1    1    2    0    0  0.17752610422E+02  0.12281832431E+02 -0.37651344099E+02  0.43400717703E+02  0.00000000000E+00 0. -1.
         11    1    3    3    0    0  0.75572617370E+00 -0.35196781999E+01  0.19800260658E+01  0.41084985290E+01  0.51100000000E-03 0. -1.
        -11    1    3    3    0    0 -0.10638487361E+02 -0.18247278501E+00  0.70062729958E+01  0.12739645646E+02  0.51100000000E-03 0.  1.
        -12    1    3    3    0    0 -0.78698492348E+01 -0.85796814460E+01  0.28665045038E+02  0.30939138122E+02  0.00000000000E+00 0.  1.
</event>
<event>
 7    1  0.2877927E-010  0.4778727E+02  0.7816164E-02  0.1312668E+00
        -11   -1    0    0    0    0  0.00000000000E+00  0.00000000000E+00  0.45593999997E+02  0.45594000000E+02  0.51100000000E-03 0.  1.
         11   -1    0    0    0    0 -0.00000000000E+00 -0.00000000000E+00 -0.45593999997E+02  0.45594000000E+02  0.51100000000E-03 0. -1.
    9900012    2    1    2    0    0  0.15212037416E+01 -0.40758963439E+02  0.14832929761E+02  0.47787274583E+02  0.20000016134E+02 0.  0.
         12    1    1    2    0    0 -0.15212037416E+01  0.40758963439E+02 -0.14832929761E+02  0.43400725417E+02  0.00000000000E+00 0. -1.
         11    1    3    3    0    0 -0.66857198023E+00 -0.84565487888E+01 -0.16102505773E+01  0.86344144615E+01  0.51100000000E-03 0.  1.
        -11    1    3    3    0    0 -0.14473238436E+01 -0.31363765384E+02  0.12756457573E+02  0.33889640533E+02  0.51100000000E-03 0. -1.
         12    1    3    3    0    0  0.36370995655E+01 -0.93864926625E+00  0.36867227649E+01  0.52632195888E+01  0.00000000000E+00 0. -1.
</event>
<event>
 7    1  0.2769403E-010  0.4778727E+02  0.7816164E-02  0.1312668E+00
        -11   -1    0    0    0    0  0.00000000000E+00  0.00000000000E+00  0.45593999997E+02  0.45594000000E+02  0.51100000000E-03 0.  1.
         11   -1    0    0    0    0 -0.00000000000E+00 -0.00000000000E+00 -0.45593999997E+02  0.45594000000E+02  0.51100000000E-03 0. -1.
    9900012    2    1    2    0    0  0.24553024344E+02 -0.19097672317E+02  0.30266341037E+02  0.47787268530E+02  0.19999988538E+02 0.  0.
         12    1    1    2    0    0 -0.24553024344E+02  0.19097672317E+02 -0.30266341037E+02  0.43400731470E+02  0.00000000000E+00 0. -1.
         11    1    3    3    0    0  0.29813729861E+01 -0.43456529046E+01  0.23001615766E+01  0.57501328323E+01  0.51100000000E-03 0. -1.
        -11    1    3    3    0    0  0.21426766330E+01 -0.10437446314E+02  0.14553737456E+02  0.18037256524E+02  0.51100000000E-03 0.  1.
         12    1    3    3    0    0  0.19428974724E+02 -0.43145730979E+01  0.13412442005E+02  0.23999879174E+02  0.00000000000E+00 0. -1.
</event>
<event>
 7    1  0.2769403E-010  0.4778727E+02  0.7816164E-02  0.1312668E+00
        -11   -1    0    0    0    0  0.00000000000E+00  0.00000000000E+00  0.45593999997E+02  0.45594000000E+02  0.51100000000E-03 0.  1.
         11   -1    0    0    0    0 -0.00000000000E+00 -0.00000000000E+00 -0.45593999997E+02  0.45594000000E+02  0.51100000000E-03 0. -1.
    9900012    2    1    2    0    0 -0.36759767527E+02  0.38507767892E+01  0.22748939203E+02  0.47787271604E+02  0.20000002549E+02 0.  0.
         12    1    1    2    0    0  0.36759767527E+02 -0.38507767892E+01 -0.22748939203E+02  0.43400728396E+02  0.00000000000E+00 0. -1.
         11    1    3    3    0    0 -0.26522737919E+02  0.27293450064E+01  0.68924469851E+01  0.27539258824E+02  0.51100000000E-03 0. -1.
        -11    1    3    3    0    0 -0.58427131999E+01 -0.10535275616E+01  0.33548485858E+01  0.68192541494E+01  0.51100000000E-03 0.  1.
        -12    1    3    3    0    0 -0.43943164075E+01  0.21749593444E+01  0.12501643632E+02  0.13428758630E+02  0.00000000000E+00 0.  1.
</event>
<event>
 7    1  0.2769403E-010  0.4778727E+02  0.7816164E-02  0.1312668E+00
        -11   -1    0    0    0    0  0.00000000000E+00  0.00000000000E+00  0.45593999997E+02  0.45594000000E+02  0.51100000000E-03 0.  1.
         11   -1    0    0    0    0 -0.00000000000E+00 -0.00000000000E+00 -0.45593999997E+02  0.45594000000E+02  0.51100000000E-03 0. -1.
    9900012    2    1    2    0    0  0.30473590034E+02  0.30383698774E+02 -0.56404226160E+01  0.47787271802E+02  0.20000003456E+02 0.  0.
         12    1    1    2    0    0 -0.30473590034E+02 -0.30383698774E+02  0.56404226160E+01  0.43400728198E+02  0.00000000000E+00 0. -1.
         11    1    3    3    0    0  0.10463704208E+02  0.49961960010E+01  0.42915714799E+00  0.11603243355E+02  0.51100000000E-03 0. -1.
        -11    1    3    3    0    0  0.20580591256E+02  0.26882574005E+02 -0.49156049200E+01  0.34211060983E+02  0.51100000000E-03 0.  1.
        -12    1    3    3    0    0 -0.57070542971E+00 -0.14950712318E+01 -0.11539748440E+01  0.19729674646E+01  0.00000000000E+00 0.  1.
</event>
<event>
 7    1  0.2769403E-010  0.4778727E+02  0.7816164E-02  0.1312668E+00
        -11   -1    0    0    0    0  0.00000000000E+00  0.00000000000E+00  0.45593999997E+02  0.45594000000E+02  0.51100000000E-03 0. -1.
         11   -1    0    0    0    0 -0.00000000000E+00 -0.00000000000E+00 -0.45593999997E+02  0.45594000000E+02  0.51100000000E-03 0.  1.
    9900012    2    1    2    0    0  0.38584809032E+02 -0.18854027545E+02  0.62738596284E+01  0.47787272387E+02  0.20000006120E+02 0.  0.
         12    1    1    2    0    0 -0.38584809032E+02  0.18854027545E+02 -0.62738596284E+01  0.43400727613E+02  0.00000000000E+00 0. -1.
         11    1    3    3    0    0  0.13773688841E+02 -0.45830092071E+01 -0.29002537853E+01  0.14803038538E+02  0.51100000000E-03 0. -1.
        -11    1    3    3    0    0  0.98640981984E+01 -0.15897245951E+00 -0.12355295522E+01  0.99424463310E+01  0.51100000000E-03 0.  1.
         12    1    3    3    0    0  0.14947021993E+02 -0.14112045878E+02  0.10409642966E+02  0.23041787517E+02  0.00000000000E+00 0. -1.
</event>
<event>
 7    1  0.2769403E-010  0.4778727E+02  0.7816164E-02  0.1312668E+00
        -11   -1    0    0    0    0  0.00000000000E+00  0.00000000000E+00  0.45593999997E+02  0.45594000000E+02  0.51100000000E-03 0.  1.
         11   -1    0    0    0    0 -0.00000000000E+00 -0.00000000000E+00 -0.45593999997E+02  0.45594000000E+02  0.51100000000E-03 0. -1.
    9900012    2    1    2    0    0  0.16556161483E+02 -0.11585716664E+02  0.38409479976E+02  0.47787268834E+02  0.19999989923E+02 0.  0.
         12    1    1    2    0    0 -0.16556161483E+02  0.11585716664E+02 -0.38409479976E+02  0.43400731166E+02  0.00000000000E+00 0. -1.
         11    1    3    3    0    0  0.46459523968E+01 -0.97965468981E+01  0.14318497052E+02  0.17960416557E+02  0.51100000000E-03 0. -1.
        -11    1    3    3    0    0  0.74878119661E+01 -0.31888202268E+00  0.24024093536E+02  0.25165970759E+02  0.51100000000E-03 0.  1.
        -12    1    3    3    0    0  0.44223971201E+01 -0.14702877432E+01  0.66889388362E-01  0.46608815181E+01  0.00000000000E+00 0.  1.
</event>
<event>
 7    1  0.2769403E-010  0.4778727E+02  0.7816164E-02  0.1312668E+00
        -11   -1    0    0    0    0  0.00000000000E+00  0.00000000000E+00  0.45593999997E+02  0.45594000000E+02  0.51100000000E-03 0.  1.
         11   -1    0    0    0    0 -0.00000000000E+00 -0.00000000000E+00 -0.45593999997E+02  0.45594000000E+02  0.51100000000E-03 0. -1.
    9900012    2    1    2    0    0  0.24691159812E+02  0.14885432825E+02  0.32440619941E+02  0.47787270681E+02  0.19999998345E+02 0.  0.
         12    1    1    2    0    0 -0.24691159812E+02 -0.14885432825E+02 -0.32440619941E+02  0.43400729319E+02  0.00000000000E+00 0. -1.
         11    1    3    3    0    0  0.22067791923E+01  0.35424400892E+01  0.63036653074E+00  0.42209144049E+01  0.51100000000E-03 0. -1.
        -11    1    3    3    0    0  0.61540554999E+01 -0.22866370732E+01  0.15269962323E+02  0.16621457752E+02  0.51100000000E-03 0.  1.
        -12    1    3    3    0    0  0.16330325119E+02  0.13629629809E+02  0.16540291087E+02  0.26944898524E+02  0.00000000000E+00 0.  1.
</event>
<event>
 7    1  0.3359490E-010  0.4778727E+02  0.7816164E-02  0.1312668E+00
        -11   -1    0    0    0    0  0.00000000000E+00  0.00000000000E+00  0.45593999997E+02  0.45594000000E+02  0.51100000000E-03 0.  1.
         11   -1    0    0    0    0 -0.00000000000E+00 -0.00000000000E+00 -0.45593999997E+02  0.45594000000E+02  0.51100000000E-03 0. -1.
    9900012    2    1    2    0    0 -0.47559867450E+01  0.40586037862E+02  0.14621126238E+02  0.47787271760E+02  0.20000003264E+02 0.  0.
         12    1    1    2    0    0  0.47559867450E+01 -0.40586037862E+02 -0.14621126238E+02  0.43400728240E+02  0.00000000000E+00 0. -1.
         11    1    3    3    0    0 -0.40796811875E+01  0.18883062056E+01  0.59540188133E+01  0.74605522053E+01  0.51100000000E-03 0. -1.
        -11    1    3    3    0    0 -0.48639164783E+00  0.14215224997E+02  0.68194927622E+01  0.15773860668E+02  0.51100000000E-03 0.  1.
         12    1    3    3    0    0 -0.18991390965E+00  0.24482506659E+02  0.18476146623E+01  0.24552858887E+02  0.00000000000E+00 0. -1.
</event>
<event>
 7    1  0.2769403E-010  0.4778727E+02  0.7816164E-02  0.1312668E+00
        -11   -1    0    0    0    0  0.00000000000E+00  0.00000000000E+00  0.45593999997E+02  0.45594000000E+02  0.51100000000E-03 0.  1.
         11   -1    0    0    0    0 -0.00000000000E+00 -0.00000000000E+00 -0.45593999997E+02  0.45594000000E+02  0.51100000000E-03 0. -1.
    9900012    2    1    2    0    0 -0.12644343322E+01  0.43367677772E+02  0.11265617926E+01  0.47787269465E+02  0.19999992798E+02 0.  0.
         12    1    1    2    0    0  0.12644343322E+01 -0.43367677772E+02 -0.11265617926E+01  0.43400730535E+02  0.00000000000E+00 0. -1.
         11    1    3    3    0    0 -0.33042436634E+01  0.11052722532E+02  0.43685679297E+00  0.11544329589E+02  0.51100000000E-03 0. -1.
        -11    1    3    3    0    0 -0.68764719006E+01  0.12952063778E+02 -0.18271981968E+01  0.14777701967E+02  0.51100000000E-03 0.  1.
         12    1    3    3    0    0  0.89162812317E+01  0.19362891462E+02  0.25169031964E+01  0.21465237908E+02  0.00000000000E+00 0. -1.
</event>
<event>
 7    1  0.2769403E-010  0.4778727E+02  0.7816164E-02  0.1312668E+00
        -11   -1    0    0    0    0  0.00000000000E+00  0.00000000000E+00  0.45593999997E+02  0.45594000000E+02  0.51100000000E-03 0.  1.
         11   -1    0    0    0    0 -0.00000000000E+00 -0.00000000000E+00 -0.45593999997E+02  0.45594000000E+02  0.51100000000E-03 0. -1.
    9900012    2    1    2    0    0  0.21971539935E+02 -0.37002032357E+02  0.56324050366E+01  0.47787274751E+02  0.20000016898E+02 0.  0.
         12    1    1    2    0    0 -0.21971539935E+02  0.37002032357E+02 -0.56324050366E+01  0.43400725249E+02  0.00000000000E+00 0. -1.
         11    1    3    3    0    0  0.50365590321E+01 -0.12234621892E+02  0.63829065664E+00  0.13246143399E+02  0.51100000000E-03 0. -1.
        -11    1    3    3    0    0  0.61448969122E+01 -0.21983644540E+02  0.15554620097E+01  0.22879244910E+02  0.51100000000E-03 0.  1.
         12    1    3    3    0    0  0.10790083991E+02 -0.27837659253E+01  0.34386523703E+01  0.11661886442E+02  0.00000000000E+00 0. -1.
</event>
<event>
 7    1  0.2769403E-010  0.4778727E+02  0.7816164E-02  0.1312668E+00
        -11   -1    0    0    0    0  0.00000000000E+00  0.00000000000E+00  0.45593999997E+02  0.45594000000E+02  0.51100000000E-03 0.  1.
         11   -1    0    0    0    0 -0.00000000000E+00 -0.00000000000E+00 -0.45593999997E+02  0.45594000000E+02  0.51100000000E-03 0. -1.
    9900012    2    1    2    0    0  0.16682164140E+02  0.47882118958E+01  0.39779414711E+02  0.47787269495E+02  0.19999992937E+02 0.  0.
         12    1    1    2    0    0 -0.16682164140E+02 -0.47882118958E+01 -0.39779414711E+02  0.43400730505E+02  0.00000000000E+00 0. -1.
         11    1    3    3    0    0 -0.11926862770E+01  0.50138851942E+01  0.58799620148E+01  0.78189192893E+01  0.51100000000E-03 0. -1.
        -11    1    3    3    0    0  0.17949276429E+01  0.23015072190E+01  0.71229542900E+00  0.30043411526E+01  0.51100000000E-03 0.  1.
        -12    1    3    3    0    0  0.16079922774E+02 -0.25271805174E+01  0.33187157268E+02  0.36964009053E+02  0.00000000000E+00 0.  1.
</event>
<event>
 7    1  0.2769403E-010  0.4778726E+02  0.7816164E-02  0.1312668E+00
        -11   -1    0    0    0    0  0.00000000000E+00  0.00000000000E+00  0.45593999997E+02  0.45594000000E+02  0.51100000000E-03 0. -1.
         11   -1    0    0    0    0 -0.00000000000E+00 -0.00000000000E+00 -0.45593999997E+02  0.45594000000E+02  0.51100000000E-03 0.  1.
    9900012    2    1    2    0    0  0.40755760137E+02 -0.10201537072E+02  0.10886710477E+02  0.47787264891E+02  0.19999971945E+02 0.  0.
         12    1    1    2    0    0 -0.40755760137E+02  0.10201537072E+02 -0.10886710477E+02  0.43400735109E+02  0.00000000000E+00 0. -1.
         11    1    3    3    0    0  0.30760263601E+02 -0.15699930643E+02  0.11339041093E+02  0.36349078285E+02  0.51100000000E-03 0. -1.
        -11    1    3    3    0    0  0.61833177527E+01  0.33145978267E+01  0.52657072110E-01  0.70158926882E+01  0.51100000000E-03 0.  1.
         12    1    3    3    0    0  0.38121787838E+01  0.21837957446E+01 -0.50498768856E+00  0.44222939182E+01  0.00000000000E+00 0. -1.
</event>
<event>
 7    1  0.2769403E-010  0.4778727E+02  0.7816164E-02  0.1312668E+00
        -11   -1    0    0    0    0  0.00000000000E+00  0.00000000000E+00  0.45593999997E+02  0.45594000000E+02  0.51100000000E-03 0.  1.
         11   -1    0    0    0    0 -0.00000000000E+00 -0.00000000000E+00 -0.45593999997E+02  0.45594000000E+02  0.51100000000E-03 0. -1.
    9900012    2    1    2    0    0  0.22730564721E+02  0.16579921794E+02  0.33046195103E+02  0.47787269707E+02  0.19999993900E+02 0.  0.
         12    1    1    2    0    0 -0.22730564721E+02 -0.16579921794E+02 -0.33046195103E+02  0.43400730293E+02  0.00000000000E+00 0. -1.
         11    1    3    3    0    0  0.27556605782E+01  0.24281537988E+01 -0.12730449470E+01  0.38871891890E+01  0.51100000000E-03 0. -1.
        -11    1    3    3    0    0  0.96505796084E+01  0.92115459786E+00  0.74748271860E+01  0.12241538069E+02  0.51100000000E-03 0.  1.
        -12    1    3    3    0    0  0.10324324534E+02  0.13230613397E+02  0.26844412864E+02  0.31658542449E+02  0.00000000000E+00 0.  1.
</event>
<event>
 7    1  0.2769403E-010  0.4778727E+02  0.7816164E-02  0.1312668E+00
        -11   -1    0    0    0    0  0.00000000000E+00  0.00000000000E+00  0.45593999997E+02  0.45594000000E+02  0.51100000000E-03 0.  1.
         11   -1    0    0    0    0 -0.00000000000E+00 -0.00000000000E+00 -0.45593999997E+02  0.45594000000E+02  0.51100000000E-03 0. -1.
    9900012    2    1    2    0    0  0.30910422462E+02 -0.15223876774E+02  0.26389446667E+02  0.47787268023E+02  0.19999986223E+02 0.  0.
         12    1    1    2    0    0 -0.30910422462E+02  0.15223876774E+02 -0.26389446667E+02  0.43400731977E+02  0.00000000000E+00 0. -1.
         11    1    3    3    0    0  0.35625542919E+01 -0.16711959106E+01  0.75287513649E+01  0.84951036621E+01  0.51100000000E-03 0. -1.
        -11    1    3    3    0    0  0.76493741047E-01 -0.31992470473E+01  0.71965994633E+01  0.78760445058E+01  0.51100000000E-03 0.  1.
         12    1    3    3    0    0  0.27271374429E+02 -0.10353433816E+02  0.11664095839E+02  0.31416119855E+02  0.00000000000E+00 0. -1.
</event>
<event>
 7    1  0.2769403E-010  0.4778727E+02  0.7816164E-02  0.1312668E+00
        -11   -1    0    0    0    0  0.00000000000E+00  0.00000000000E+00  0.45593999997E+02  0.45594000000E+02  0.51100000000E-03 0.  1.
         11   -1    0    0    0    0 -0.00000000000E+00 -0.00000000000E+00 -0.45593999997E+02  0.45594000000E+02  0.51100000000E-03 0. -1.
    9900012    2    1    2    0    0 -0.20454605611E+02 -0.16017175194E+02  0.34766108641E+02  0.47787273025E+02  0.20000009030E+02 0.  0.
         12    1    1    2    0    0  0.20454605611E+02  0.16017175194E+02 -0.34766108641E+02  0.43400726975E+02  0.00000000000E+00 0. -1.
         11    1    3    3    0    0  0.10422509759E+01 -0.33553977458E+01  0.19001893274E+01  0.39944587707E+01  0.51100000000E-03 0. -1.
        -11    1    3    3    0    0 -0.56754362025E+01  0.48780670508E+00  0.88252544868E+00  0.57643198123E+01  0.51100000000E-03 0.  1.
        -12    1    3    3    0    0 -0.15821420385E+02 -0.13149584153E+02  0.31983393865E+02  0.38028494442E+02  0.00000000000E+00 0.  1.
</event>
<event>
 7    1  0.2769403E-010  0.4778728E+02  0.7816164E-02  0.1312668E+00
        -11   -1    0    0    0    0  0.00000000000E+00  0.00000000000E+00  0.45593999997E+02  0.45594000000E+02  0.51100000000E-03 0. -1.
         11   -1    0    0    0    0 -0.00000000000E+00 -0.00000000000E+00 -0.45593999997E+02  0.45594000000E+02  0.51100000000E-03 0.  1.
    9900012    2    1    2    0    0  0.25782801402E+02  0.26095418254E+02 -0.23192651959E+02  0.47787276425E+02  0.20000024531E+02 0.  0.
         12    1    1    2    0    0 -0.25782801402E+02 -0.26095418254E+02  0.23192651959E+02  0.43400723575E+02  0.00000000000E+00 0. -1.
         11    1    3    3    0    0  0.33955676600E+01 -0.34195776982E+00 -0.32278817237E+01  0.46974498968E+01  0.51100000000E-03 0. -1.
        -11    1    3    3    0    0  0.57669396666E-01  0.75387799817E+01 -0.92562691842E+01  0.11937966696E+02  0.51100000000E-03 0.  1.
         12    1    3    3    0    0  0.22329564345E+02  0.18898596043E+02 -0.10708501051E+02  0.31151859832E+02  0.00000000000E+00 0. -1.
</event>
<event>
 7    1  0.2769403E-010  0.4778727E+02  0.7816164E-02  0.1312668E+00
        -11   -1    0    0    0    0  0.00000000000E+00  0.00000000000E+00  0.45593999997E+02  0.45594000000E+02  0.51100000000E-03 0. -1.
         11   -1    0    0    0    0 -0.00000000000E+00 -0.00000000000E+00 -0.45593999997E+02  0.45594000000E+02  0.51100000000E-03 0.  1.
    9900012    2    1    2    0    0 -0.35176559965E+02 -0.25419430133E+02  0.29225839185E+00  0.47787271732E+02  0.20000003134E+02 0.  0.
         12    1    1    2    0    0  0.35176559965E+02  0.25419430133E+02 -0.29225839185E+00  0.43400728268E+02  0.00000000000E+00 0. -1.
         11    1    3    3    0    0  0.77346600106E-03 -0.17965020293E+01 -0.15451361301E+01  0.23695708601E+01  0.51100000000E-03 0.  1.
        -11    1    3    3    0    0 -0.89466619297E+01 -0.54566788914E+01 -0.66371014435E+01  0.12404403252E+02  0.51100000000E-03 0. -1.
         12    1    3    3    0    0 -0.26230671501E+02 -0.18166249212E+02  0.84744959655E+01  0.33013297619E+02  0.00000000000E+00 0. -1.
</event>
<event>
 7    1  0.2769403E-010  0.4778727E+02  0.7816164E-02  0.1312668E+00
        -11   -1    0    0    0    0  0.00000000000E+00  0.00000000000E+00  0.45593999997E+02  0.45594000000E+02  0.51100000000E-03 0.  1.
         11   -1    0    0    0    0 -0.00000000000E+00 -0.00000000000E+00 -0.45593999997E+02  0.45594000000E+02  0.51100000000E-03 0. -1.
    9900012    2    1    2    0    0  0.19627083657E+02  0.23406343471E+02  0.30830891019E+02  0.47787272257E+02  0.20000005529E+02 0.  0.
         12    1    1    2    0    0 -0.19627083657E+02 -0.23406343471E+02 -0.30830891019E+02  0.43400727743E+02  0.00000000000E+00 0. -1.
         11    1    3    3    0    0  0.21278332770E+01  0.16823891002E+02  0.13086744458E+02  0.21420407645E+02  0.51100000000E-03 0.  1.
        -11    1    3    3    0    0  0.85398023917E+01  0.32080090133E+01  0.49244417485E+01  0.10366758101E+02  0.51100000000E-03 0. -1.
        -12    1    3    3    0    0  0.89594479881E+01  0.33744434554E+01  0.12819704813E+02  0.16000106512E+02  0.00000000000E+00 0.  1.
</event>
<event>
 7    1  0.2769403E-010  0.4778727E+02  0.7816164E-02  0.1312668E+00
        -11   -1    0    0    0    0  0.00000000000E+00  0.00000000000E+00  0.45593999997E+02  0.45594000000E+02  0.51100000000E-03 0.  1.
         11   -1    0    0    0    0 -0.00000000000E+00 -0.00000000000E+00 -0.45593999997E+02  0.45594000000E+02  0.51100000000E-03 0. -1.
    9900012    2    1    2    0    0  0.14895624979E+02  0.45769788636E+01  0.40506724179E+02  0.47787273246E+02  0.20000010037E+02 0.  0.
         12    1    1    2    0    0 -0.14895624979E+02 -0.45769788636E+01 -0.40506724179E+02  0.43400726754E+02  0.00000000000E+00 0. -1.
         11    1    3    3    0    0 -0.78288313911E+00  0.18959542300E+01  0.26508597928E+00  0.20682889762E+01  0.51100000000E-03 0. -1.
        -11    1    3    3    0    0  0.15448281877E+02  0.12697461734E+01  0.19416265938E+02  0.24844577910E+02  0.51100000000E-03 0.  1.
        -12    1    3    3    0    0  0.23022624132E+00  0.14112784602E+01  0.20825372262E+02  0.20874406359E+02  0.00000000000E+00 0.  1.
</event>
<event>
 7    1  0.2769403E-010  0.4778727E+02  0.7816164E-02  0.1312668E+00
        -11   -1    0    0    0    0  0.00000000000E+00  0.00000000000E+00  0.45593999997E+02  0.45594000000E+02  0.51100000000E-03 0.  1.
         11   -1    0    0    0    0 -0.00000000000E+00 -0.00000000000E+00 -0.45593999997E+02  0.45594000000E+02  0.51100000000E-03 0. -1.
    9900012    2    1    2    0    0 -0.20673025930E+02 -0.28796091005E+01  0.38052031682E+02  0.47787271149E+02  0.20000000476E+02 0.  0.
         12    1    1    2    0    0  0.20673025930E+02  0.28796091005E+01 -0.38052031682E+02  0.43400728851E+02  0.00000000000E+00 0. -1.
         11    1    3    3    0    0  0.81370781611E+00  0.92443143419E+00 -0.98817038424E+00  0.15789790549E+01  0.51100000000E-03 0. -1.
        -11    1    3    3    0    0 -0.28133260801E+01 -0.89275712709E+00  0.13378446520E+00  0.29546095284E+01  0.51100000000E-03 0.  1.
        -12    1    3    3    0    0 -0.18673407666E+02 -0.29112834076E+01  0.38906417601E+02  0.43253682566E+02  0.00000000000E+00 0.  1.
</event>
<event>
 7    1  0.2769403E-010  0.4778727E+02  0.7816164E-02  0.1312668E+00
        -11   -1    0    0    0    0  0.00000000000E+00  0.00000000000E+00  0.45593999997E+02  0.45594000000E+02  0.51100000000E-03 0.  1.
         11   -1    0    0    0    0 -0.00000000000E+00 -0.00000000000E+00 -0.45593999997E+02  0.45594000000E+02  0.51100000000E-03 0. -1.
    9900012    2    1    2    0    0 -0.16113703679E+02  0.51116301013E+01  0.39973035201E+02  0.47787265539E+02  0.19999974898E+02 0.  0.
         12    1    1    2    0    0  0.16113703679E+02 -0.51116301013E+01 -0.39973035201E+02  0.43400734461E+02  0.00000000000E+00 0. -1.
         11    1    3    3    0    0 -0.15720232081E+02  0.28645524636E+01  0.29462211206E+02  0.33516462327E+02  0.51100000000E-03 0. -1.
        -11    1    3    3    0    0 -0.33225194068E+00  0.28341314322E+01  0.12175065068E+02  0.12504995082E+02  0.51100000000E-03 0.  1.
         12    1    3    3    0    0 -0.61219658183E-01 -0.58705379450E+00 -0.16642410728E+01  0.17658081302E+01  0.00000000000E+00 0. -1.
</event>
<event>
 7    1  0.2769403E-010  0.4778726E+02  0.7816164E-02  0.1312668E+00
        -11   -1    0    0    0    0  0.00000000000E+00  0.00000000000E+00  0.45593999997E+02  0.45594000000E+02  0.51100000000E-03 0. -1.
         11   -1    0    0    0    0 -0.00000000000E+00 -0.00000000000E+00 -0.45593999997E+02  0.45594000000E+02  0.51100000000E-03 0.  1.
    9900012    2    1    2    0    0 -0.19452679998E+02 -0.28811475841E+02 -0.25983000951E+02  0.47787259941E+02  0.19999949376E+02 0.  0.
         12    1    1    2    0    0  0.19452679998E+02  0.28811475841E+02  0.25983000951E+02  0.43400740059E+02  0.00000000000E+00 0. -1.
         11    1    3    3    0    0 -0.19728562045E+01  0.14767907817E+01 -0.20346846549E+01  0.31957807376E+01  0.51100000000E-03 0. -1.
        -11    1    3    3    0    0  0.23780798802E+01 -0.42266491916E+01 -0.30446212365E+01  0.57262156823E+01  0.51100000000E-03 0.  1.
        -12    1    3    3    0    0 -0.19857903674E+02 -0.26061617431E+02 -0.20903695060E+02  0.38865263521E+02  0.00000000000E+00 0.  1.
</event>
<event>
 7    1  0.2769403E-010  0.4778727E+02  0.7816164E-02  0.1312668E+00
        -11   -1    0    0    0    0  0.00000000000E+00  0.00000000000E+00  0.45593999997E+02  0.45594000000E+02  0.51100000000E-03 0. -1.
         11   -1    0    0    0    0 -0.00000000000E+00 -0.00000000000E+00 -0.45593999997E+02  0.45594000000E+02  0.51100000000E-03 0.  1.
    9900012    2    1    2    0    0  0.36303031233E+02 -0.16582714158E+02 -0.17050710273E+02  0.47787271823E+02  0.20000003549E+02 0.  0.
         12    1    1    2    0    0 -0.36303031233E+02  0.16582714158E+02  0.17050710273E+02  0.43400728177E+02  0.00000000000E+00 0. -1.
         11    1    3    3    0    0  0.24305487984E+01 -0.64055198180E+01 -0.47693531126E+01  0.83477530494E+01  0.51100000000E-03 0. -1.
        -11    1    3    3    0    0  0.18494512846E+02 -0.10920692834E+02 -0.10602008418E+02  0.23952267536E+02  0.51100000000E-03 0.  1.
         12    1    3    3    0    0  0.15377969589E+02  0.74349849455E+00 -0.16793487423E+01  0.15487251237E+02  0.00000000000E+00 0. -1.
</event>
<event>
 7    1  0.2769403E-010  0.4778727E+02  0.7816164E-02  0.1312668E+00
        -11   -1    0    0    0    0  0.00000000000E+00  0.00000000000E+00  0.45593999997E+02  0.45594000000E+02  0.51100000000E-03 0.  1.
         11   -1    0    0    0    0 -0.00000000000E+00 -0.00000000000E+00 -0.45593999997E+02  0.45594000000E+02  0.51100000000E-03 0. -1.
    9900012    2    1    2    0    0  0.11006825733E+02 -0.37117263746E+02 -0.19615847555E+02  0.47787274707E+02  0.20000016697E+02 0.  0.
         12    1    1    2    0    0 -0.11006825733E+02  0.37117263746E+02  0.19615847555E+02  0.43400725293E+02  0.00000000000E+00 0. -1.
         11    1    3    3    0    0  0.84902770196E+01 -0.67620301552E+01 -0.34710200426E+01  0.11395518246E+02  0.51100000000E-03 0. -1.
        -11    1    3    3    0    0  0.66637934986E+01 -0.23945295015E+02 -0.13668114227E+02  0.28365483319E+02  0.51100000000E-03 0.  1.
        -12    1    3    3    0    0 -0.41472447848E+01 -0.64099385752E+01 -0.24767132857E+01  0.80262731415E+01  0.00000000000E+00 0.  1.
</event>
<event>
 7    1  0.2769403E-010  0.4778727E+02  0.7816164E-02  0.1312668E+00
        -11   -1    0    0    0    0  0.00000000000E+00  0.00000000000E+00  0.45593999997E+02  0.45594000000E+02  0.51100000000E-03 0.  1.
         11   -1    0    0    0    0 -0.00000000000E+00 -0.00000000000E+00 -0.45593999997E+02  0.45594000000E+02  0.51100000000E-03 0. -1.
    9900012    2    1    2    0    0  0.30055986890E+02  0.31049846987E+02 -0.40209326937E+01  0.47787271371E+02  0.20000001488E+02 0.  0.
         12    1    1    2    0    0 -0.30055986890E+02 -0.31049846987E+02  0.40209326937E+01  0.43400728629E+02  0.00000000000E+00 0. -1.
         11    1    3    3    0    0  0.93454939792E+01  0.31685359907E+01  0.13383068992E+01  0.99583604905E+01  0.51100000000E-03 0. -1.
        -11    1    3    3    0    0  0.22809428775E+02  0.24649312840E+02 -0.45404990724E+01  0.33889154557E+02  0.51100000000E-03 0.  1.
         12    1    3    3    0    0 -0.20989358646E+01  0.32319981561E+01 -0.81874052052E+00  0.39397563230E+01  0.00000000000E+00 0. -1.
</event>
<event>
 7    1  0.2769403E-010  0.4778729E+02  0.7816164E-02  0.1312668E+00
        -11   -1    0    0    0    0  0.00000000000E+00  0.00000000000E+00  0.45593999997E+02  0.45594000000E+02  0.51100000000E-03 0. -1.
         11   -1    0    0    0    0 -0.00000000000E+00 -0.00000000000E+00 -0.45593999997E+02  0.45594000000E+02  0.51100000000E-03 0.  1.
    9900012    2    1    2    0    0 -0.41716977863E+02  0.57372898037E+01 -0.10507082351E+02  0.47787291298E+02  0.20000092344E+02 0.  0.
         12    1    1    2    0    0  0.41716977863E+02 -0.57372898037E+01  0.10507082351E+02  0.43400708702E+02  0.00000000000E+00 0. -1.
         11    1    3    3    0    0 -0.20096270778E+02 -0.17377556740E+01 -0.13892691188E+02  0.24492585872E+02  0.51100000000E-03 0. -1.
        -11    1    3    3    0    0 -0.18495779312E+02  0.55572001041E+01  0.21808792342E+01  0.19435343059E+02  0.51100000000E-03 0.  1.
         12    1    3    3    0    0 -0.31249277730E+01  0.19178453737E+01  0.12047296028E+01  0.38593623670E+01  0.00000000000E+00 0. -1.
</event>
<event>
 7    1  0.2769403E-010  0.4778727E+02  0.7816164E-02  0.1312668E+00
        -11   -1    0    0    0    0  0.00000000000E+00  0.00000000000E+00  0.45593999997E+02  0.45594000000E+02  0.51100000000E-03 0.  1.
         11   -1    0    0    0    0 -0.00000000000E+00 -0.00000000000E+00 -0.45593999997E+02  0.45594000000E+02  0.51100000000E-03 0. -1.
    9900012    2    1    2    0    0  0.21296519991E+01  0.55942801796E+01  0.42985948947E+02  0.47787271951E+02  0.20000004131E+02 0.  0.
         12    1    1    2    0    0 -0.21296519991E+01 -0.55942801796E+01 -0.42985948947E+02  0.43400728049E+02  0.00000000000E+00 0. -1.
         11    1    3    3    0    0 -0.42063001264E+01 -0.30186725228E+00  0.26925141806E+01  0.50033706104E+01  0.51100000000E-03 0. -1.
        -11    1    3    3    0    0 -0.24880991690E+01  0.50601616684E+00  0.23600471980E+01  0.34664842238E+01  0.51100000000E-03 0.  1.
         12    1    3    3    0    0  0.88240512944E+01  0.53901312650E+01  0.37933387568E+02  0.39317417116E+02  0.00000000000E+00 0. -1.
</event>
<event>
 7    1  0.2769403E-010  0.4778727E+02  0.7816164E-02  0.1312668E+00
        -11   -1    0    0    0    0  0.00000000000E+00  0.00000000000E+00  0.45593999997E+02  0.45594000000E+02  0.51100000000E-03 0. -1.
         11   -1    0    0    0    0 -0.00000000000E+00 -0.00000000000E+00 -0.45593999997E+02  0.45594000000E+02  0.51100000000E-03 0.  1.
    9900012    2    1    2    0    0 -0.33407012506E+02 -0.23366292428E+02  0.14886608993E+02  0.47787271507E+02  0.20000002108E+02 0.  0.
         12    1    1    2    0    0  0.33407012506E+02  0.23366292428E+02 -0.14886608993E+02  0.43400728493E+02  0.00000000000E+00 0. -1.
         11    1    3    3    0    0 -0.10890917953E+02 -0.86650532457E+00  0.33917822900E+01  0.11439716460E+02  0.51100000000E-03 0. -1.
        -11    1    3    3    0    0 -0.11957304165E+02 -0.96347708637E+01 -0.12183950423E+01  0.15404233809E+02  0.51100000000E-03 0.  1.
         12    1    3    3    0    0 -0.10558790389E+02 -0.12865016240E+02  0.12713221745E+02  0.20943321238E+02  0.00000000000E+00 0. -1.
</event>
<event>
 7    1  0.2769403E-010  0.4778727E+02  0.7816164E-02  0.1312668E+00
        -11   -1    0    0    0    0  0.00000000000E+00  0.00000000000E+00  0.45593999997E+02  0.45594000000E+02  0.51100000000E-03 0.  1.
         11   -1    0    0    0    0 -0.00000000000E+00 -0.00000000000E+00 -0.45593999997E+02  0.45594000000E+02  0.51100000000E-03 0. -1.
    9900012    2    1    2    0    0  0.92379790595E+01 -0.39849094587E+02  0.14502846961E+02  0.47787272282E+02  0.20000005641E+02 0.  0.
         12    1    1    2    0    0 -0.92379790595E+01  0.39849094587E+02 -0.14502846961E+02  0.43400727718E+02  0.00000000000E+00 0. -1.
         11    1    3    3    0    0  0.49301791049E+01 -0.22737795132E+02  0.25946576395E+01  0.23410387481E+02  0.51100000000E-03 0. -1.
        -11    1    3    3    0    0  0.20140323316E+01 -0.17125284695E+02  0.63697031386E+01  0.18382187587E+02  0.51100000000E-03 0.  1.
         12    1    3    3    0    0  0.22937676230E+01  0.13985240496E-01  0.55384861827E+01  0.59946972143E+01  0.00000000000E+00 0. -1.
</event>
<event>
 7    1  0.2769403E-010  0.4778727E+02  0.7816164E-02  0.1312668E+00
        -11   -1    0    0    0    0  0.00000000000E+00  0.00000000000E+00  0.45593999997E+02  0.45594000000E+02  0.51100000000E-03 0. -1.
         11   -1    0    0    0    0 -0.00000000000E+00 -0.00000000000E+00 -0.45593999997E+02  0.45594000000E+02  0.51100000000E-03 0.  1.
    9900012    2    1    2    0    0 -0.22051917461E+02 -0.11690260220E+02 -0.35505972953E+02  0.47787270017E+02  0.19999995313E+02 0.  0.
         12    1    1    2    0    0  0.22051917461E+02  0.11690260220E+02  0.35505972953E+02  0.43400729983E+02  0.00000000000E+00 0. -1.
         11    1    3    3    0    0  0.23191898360E+00  0.20882183206E+01 -0.57787230426E+01  0.61488277284E+01  0.51100000000E-03 0. -1.
        -11    1    3    3    0    0 -0.36359942182E+01 -0.63483980811E+00  0.54592681543E+00  0.37311542297E+01  0.51100000000E-03 0.  1.
        -12    1    3    3    0    0 -0.18647842226E+02 -0.13143638733E+02 -0.30273176726E+02  0.37907288058E+02  0.00000000000E+00 0.  1.
</event>
<event>
 7    1  0.2769403E-010  0.4778727E+02  0.7816164E-02  0.1312668E+00
        -11   -1    0    0    0    0  0.00000000000E+00  0.00000000000E+00  0.45593999997E+02  0.45594000000E+02  0.51100000000E-03 0.  1.
         11   -1    0    0    0    0 -0.00000000000E+00 -0.00000000000E+00 -0.45593999997E+02  0.45594000000E+02  0.51100000000E-03 0. -1.
    9900012    2    1    2    0    0  0.29172753225E+02 -0.64421854648E+01  0.31481295842E+02  0.47787271064E+02  0.20000000090E+02 0.  0.
         12    1    1    2    0    0 -0.29172753225E+02  0.64421854648E+01 -0.31481295842E+02  0.43400728936E+02  0.00000000000E+00 0. -1.
         11    1    3    3    0    0  0.47057344598E+01  0.16224059229E+01  0.71354287658E+00  0.50284472238E+01  0.51100000000E-03 0. -1.
        -11    1    3    3    0    0  0.22356745877E+02 -0.64523777225E+01  0.17206396010E+02  0.28939891644E+02  0.51100000000E-03 0.  1.
        -12    1    3    3    0    0  0.21102728884E+01 -0.16122136652E+01  0.13561356955E+02  0.13818932196E+02  0.00000000000E+00 0.  1.
</event>
<event>
 7    1  0.2769403E-010  0.4778727E+02  0.7816164E-02  0.1312668E+00
        -11   -1    0    0    0    0  0.00000000000E+00  0.00000000000E+00  0.45593999997E+02  0.45594000000E+02  0.51100000000E-03 0.  1.
         11   -1    0    0    0    0 -0.00000000000E+00 -0.00000000000E+00 -0.45593999997E+02  0.45594000000E+02  0.51100000000E-03 0. -1.
    9900012    2    1    2    0    0  0.32794227121E+02  0.99634662246E+01  0.26625013649E+02  0.47787270242E+02  0.19999996342E+02 0.  0.
         12    1    1    2    0    0 -0.32794227121E+02 -0.99634662246E+01 -0.26625013649E+02  0.43400729758E+02  0.00000000000E+00 0. -1.
         11    1    3    3    0    0  0.43499397789E+01  0.93007376430E+01  0.66360186992E+01  0.12225483271E+02  0.51100000000E-03 0. -1.
        -11    1    3    3    0    0  0.13811861504E+02  0.38773247845E+01  0.84277443476E+01  0.16638150160E+02  0.51100000000E-03 0.  1.
        -12    1    3    3    0    0  0.14632425838E+02 -0.32145962029E+01  0.11561250603E+02  0.18923636811E+02  0.00000000000E+00 0.  1.
</event>
<event>
 7    1  0.2769403E-010  0.4778726E+02  0.7816164E-02  0.1312668E+00
        -11   -1    0    0    0    0  0.00000000000E+00  0.00000000000E+00  0.45593999997E+02  0.45594000000E+02  0.51100000000E-03 0.  1.
         11   -1    0    0    0    0 -0.00000000000E+00 -0.00000000000E+00 -0.45593999997E+02  0.45594000000E+02  0.51100000000E-03 0. -1.
    9900012    2    1    2    0    0  0.56606009978E+00  0.17972909120E+02  0.39500357418E+02  0.47787261269E+02  0.19999955429E+02 0.  0.
         12    1    1    2    0    0 -0.56606009978E+00 -0.17972909120E+02 -0.39500357418E+02  0.43400738731E+02  0.00000000000E+00 0. -1.
         11    1    3    3    0    0 -0.47275734894E+01  0.28602022317E+01  0.21458806497E+01  0.59275215671E+01  0.51100000000E-03 0.  1.
        -11    1    3    3    0    0 -0.16987256271E+01  0.94415203972E+00  0.92688580571E+00  0.21531858694E+01  0.51100000000E-03 0. -1.
        -12    1    3    3    0    0  0.69923592164E+01  0.14168554848E+02  0.36427590963E+02  0.39706553832E+02  0.00000000000E+00 0.  1.
</event>
<event>
 7    1  0.2769403E-010  0.4778727E+02  0.7816164E-02  0.1312668E+00
        -11   -1    0    0    0    0  0.00000000000E+00  0.00000000000E+00  0.45593999997E+02  0.45594000000E+02  0.51100000000E-03 0.  1.
         11   -1    0    0    0    0 -0.00000000000E+00 -0.00000000000E+00 -0.45593999997E+02  0.45594000000E+02  0.51100000000E-03 0. -1.
    9900012    2    1    2    0    0 -0.25107202531E+02  0.19723082644E+02  0.29398154274E+02  0.47787273247E+02  0.20000010044E+02 0.  0.
         12    1    1    2    0    0  0.25107202531E+02 -0.19723082644E+02 -0.29398154274E+02  0.43400726753E+02  0.00000000000E+00 0. -1.
         11    1    3    3    0    0 -0.14894881657E+02  0.13475726846E+02  0.81068728939E+01  0.21660427096E+02  0.51100000000E-03 0. -1.
        -11    1    3    3    0    0 -0.41074104725E+00  0.17966498222E+01 -0.42281991023E+00  0.18908822621E+01  0.51100000000E-03 0.  1.
        -12    1    3    3    0    0 -0.98015798265E+01  0.44507059760E+01  0.21714101291E+02  0.24235963889E+02  0.00000000000E+00 0.  1.
</event>
<event>
 7    1  0.2769403E-010  0.4778727E+02  0.7816164E-02  0.1312668E+00
        -11   -1    0    0    0    0  0.00000000000E+00  0.00000000000E+00  0.45593999997E+02  0.45594000000E+02  0.51100000000E-03 0.  1.
         11   -1    0    0    0    0 -0.00000000000E+00 -0.00000000000E+00 -0.45593999997E+02  0.45594000000E+02  0.51100000000E-03 0. -1.
    9900012    2    1    2    0    0  0.25345885854E+02 -0.61510834196E+01  0.34689670191E+02  0.47787274488E+02  0.20000015703E+02 0.  0.
         12    1    1    2    0    0 -0.25345885854E+02  0.61510834196E+01 -0.34689670191E+02  0.43400725512E+02  0.00000000000E+00 0. -1.
         11    1    3    3    0    0  0.10160224944E+02 -0.12565761323E+01  0.10682916019E+02  0.14796413397E+02  0.51100000000E-03 0. -1.
        -11    1    3    3    0    0  0.16433073389E+02 -0.67825273266E+01  0.24868500026E+02  0.30569443432E+02  0.51100000000E-03 0.  1.
         12    1    3    3    0    0 -0.12474124791E+01  0.18880200393E+01 -0.86174585418E+00  0.24214176589E+01  0.00000000000E+00 0. -1.
</event>
<event>
 7    1  0.2769403E-010  0.4778727E+02  0.7816164E-02  0.1312668E+00
        -11   -1    0    0    0    0  0.00000000000E+00  0.00000000000E+00  0.45593999997E+02  0.45594000000E+02  0.51100000000E-03 0.  1.
         11   -1    0    0    0    0 -0.00000000000E+00 -0.00000000000E+00 -0.45593999997E+02  0.45594000000E+02  0.51100000000E-03 0. -1.
    9900012    2    1    2    0    0 -0.54254227506E+01 -0.32172075639E+01  0.42939929480E+02  0.47787272123E+02  0.20000004917E+02 0.  0.
         12    1    1    2    0    0  0.54254227506E+01  0.32172075639E+01 -0.42939929480E+02  0.43400727877E+02  0.00000000000E+00 0. -1.
         11    1    3    3    0    0 -0.54367518819E+01 -0.44520574840E+01  0.98177519706E+01  0.12073414632E+02  0.51100000000E-03 0. -1.
        -11    1    3    3    0    0 -0.35200821748E+01 -0.49106587425E+01  0.12019502966E+02  0.13452657715E+02  0.51100000000E-03 0.  1.
         12    1    3    3    0    0  0.35314113061E+01  0.61455086626E+01  0.21102674544E+02  0.22261199775E+02  0.00000000000E+00 0. -1.
</event>
<event>
 7    1  0.2769403E-010  0.4778727E+02  0.7816164E-02  0.1312668E+00
        -11   -1    0    0    0    0  0.00000000000E+00  0.00000000000E+00  0.45593999997E+02  0.45594000000E+02  0.51100000000E-03 0.  1.
         11   -1    0    0    0    0 -0.00000000000E+00 -0.00000000000E+00 -0.45593999997E+02  0.45594000000E+02  0.51100000000E-03 0. -1.
    9900012    2    1    2    0    0  0.20339875156E+02  0.25907077723E+02  0.28261925795E+02  0.47787266744E+02  0.19999980394E+02 0.  0.
         12    1    1    2    0    0 -0.20339875156E+02 -0.25907077723E+02 -0.28261925795E+02  0.43400733256E+02  0.00000000000E+00 0. -1.
         11    1    3    3    0    0  0.40343959244E+01  0.87973318212E+01  0.98620109811E+01  0.13817693675E+02  0.51100000000E-03 0. -1.
        -11    1    3    3    0    0  0.10982613627E+02  0.14440362554E+02  0.42726209074E+01  0.18638593361E+02  0.51100000000E-03 0.  1.
        -12    1    3    3    0    0  0.53228656037E+01  0.26693833475E+01  0.14127293907E+02  0.15330979708E+02  0.00000000000E+00 0.  1.
</event>
<event>
 7    1  0.2769403E-010  0.4778727E+02  0.7816164E-02  0.1312668E+00
        -11   -1    0    0    0    0  0.00000000000E+00  0.00000000000E+00  0.45593999997E+02  0.45594000000E+02  0.51100000000E-03 0.  1.
         11   -1    0    0    0    0 -0.00000000000E+00 -0.00000000000E+00 -0.45593999997E+02  0.45594000000E+02  0.51100000000E-03 0. -1.
    9900012    2    1    2    0    0 -0.68808611802E+01 -0.14537385277E+02  0.40310564065E+02  0.47787269631E+02  0.19999993557E+02 0.  0.
         12    1    1    2    0    0  0.68808611802E+01  0.14537385277E+02 -0.40310564065E+02  0.43400730369E+02  0.00000000000E+00 0. -1.
         11    1    3    3    0    0 -0.24040581771E+01 -0.21191707314E+00  0.48549057261E+00  0.24617282389E+01  0.51100000000E-03 0. -1.
        -11    1    3    3    0    0 -0.18892041076E+00  0.32779144203E+01  0.88672902913E+01  0.94556465268E+01  0.51100000000E-03 0.  1.
        -12    1    3    3    0    0 -0.42878825923E+01 -0.17603382624E+02  0.30957783201E+02  0.35869894866E+02  0.00000000000E+00 0.  1.
</event>
<event>
 7    1  0.2769403E-010  0.4778727E+02  0.7816164E-02  0.1312668E+00
        -11   -1    0    0    0    0  0.00000000000E+00  0.00000000000E+00  0.45593999997E+02  0.45594000000E+02  0.51100000000E-03 0.  1.
         11   -1    0    0    0    0 -0.00000000000E+00 -0.00000000000E+00 -0.45593999997E+02  0.45594000000E+02  0.51100000000E-03 0. -1.
    9900012    2    1    2    0    0  0.10554331350E+02  0.42076880961E+02  0.13287848899E+01  0.47787268543E+02  0.19999988597E+02 0.  0.
         12    1    1    2    0    0 -0.10554331350E+02 -0.42076880961E+02 -0.13287848899E+01  0.43400731457E+02  0.00000000000E+00 0. -1.
         11    1    3    3    0    0 -0.53475542719E+00  0.18764666594E+01 -0.18681096428E+01  0.27012819900E+01  0.51100000000E-03 0. -1.
        -11    1    3    3    0    0  0.69020039811E+01  0.32869423374E+02 -0.42174190586E+01  0.33850011457E+02  0.51100000000E-03 0.  1.
         12    1    3    3    0    0  0.41870827963E+01  0.73309909283E+01  0.74143135913E+01  0.11235975096E+02  0.00000000000E+00 0. -1.
</event>
<event>
 7    1  0.2769403E-010  0.4778727E+02  0.7816164E-02  0.1312668E+00
        -11   -1    0    0    0    0  0.00000000000E+00  0.00000000000E+00  0.45593999997E+02  0.45594000000E+02  0.51100000000E-03 0.  1.
         11   -1    0    0    0    0 -0.00000000000E+00 -0.00000000000E+00 -0.45593999997E+02  0.45594000000E+02  0.51100000000E-03 0. -1.
    9900012    2    1    2    0    0  0.27859202458E+02 -0.18843266542E+02  0.27430264216E+02  0.47787271314E+02  0.20000001227E+02 0.  0.
         12    1    1    2    0    0 -0.27859202458E+02  0.18843266542E+02 -0.27430264216E+02  0.43400728686E+02  0.00000000000E+00 0. -1.
         11    1    3    3    0    0  0.74636487500E+00 -0.23577326048E+01  0.55069517501E+01  0.60367608368E+01  0.51100000000E-03 0. -1.
        -11    1    3    3    0    0  0.20208356112E+02 -0.42255826245E+01  0.17313283132E+02  0.26944071302E+02  0.51100000000E-03 0.  1.
        -12    1    3    3    0    0  0.69044814704E+01 -0.12259951313E+02  0.46100293341E+01  0.14806439175E+02  0.00000000000E+00 0.  1.
</event>
<event>
 7    1  0.2769403E-010  0.4778726E+02  0.7816164E-02  0.1312668E+00
        -11   -1    0    0    0    0  0.00000000000E+00  0.00000000000E+00  0.45593999997E+02  0.45594000000E+02  0.51100000000E-03 0.  1.
         11   -1    0    0    0    0 -0.00000000000E+00 -0.00000000000E+00 -0.45593999997E+02  0.45594000000E+02  0.51100000000E-03 0. -1.
    9900012    2    1    2    0    0 -0.12232176882E+02 -0.34421751733E+02  0.23433751008E+02  0.47787264639E+02  0.19999970794E+02 0.  0.
         12    1    1    2    0    0  0.12232176882E+02  0.34421751733E+02 -0.23433751008E+02  0.43400735361E+02  0.00000000000E+00 0. -1.
         11    1    3    3    0    0  0.86790930904E-03 -0.99756664958E+01 -0.36642665590E-01  0.99757338444E+01  0.51100000000E-03 0. -1.
        -11    1    3    3    0    0  0.75517038091E+00  0.78852082608E+00  0.19958608496E+00  0.11099019163E+01  0.51100000000E-03 0.  1.
        -12    1    3    3    0    0 -0.12988215172E+02 -0.25234606063E+02  0.23270807588E+02  0.36701628878E+02  0.00000000000E+00 0.  1.
</event>
<event>
 7    1  0.2769403E-010  0.4778727E+02  0.7816164E-02  0.1312668E+00
        -11   -1    0    0    0    0  0.00000000000E+00  0.00000000000E+00  0.45593999997E+02  0.45594000000E+02  0.51100000000E-03 0. -1.
         11   -1    0    0    0    0 -0.00000000000E+00 -0.00000000000E+00 -0.45593999997E+02  0.45594000000E+02  0.51100000000E-03 0.  1.
    9900012    2    1    2    0    0  0.33056003251E+02  0.22833045631E+02 -0.16418770713E+02  0.47787270105E+02  0.19999995716E+02 0.  0.
         12    1    1    2    0    0 -0.33056003251E+02 -0.22833045631E+02  0.16418770713E+02  0.43400729895E+02  0.00000000000E+00 0. -1.
         11    1    3    3    0    0  0.73921557718E+01 -0.94772829385E-01 -0.15615886574E+01  0.75558922861E+01  0.51100000000E-03 0. -1.
        -11    1    3    3    0    0  0.75016219239E+01  0.17173492617E+01 -0.87399311011E+01  0.11645171355E+02  0.51100000000E-03 0.  1.
         12    1    3    3    0    0  0.18162225556E+02  0.21210469198E+02 -0.61172509547E+01  0.28586206464E+02  0.00000000000E+00 0. -1.
</event>
<event>
 7    1  0.2769403E-010  0.4778724E+02  0.7816164E-02  0.1312668E+00
        -11   -1    0    0    0    0  0.00000000000E+00  0.00000000000E+00  0.45593999997E+02  0.45594000000E+02  0.51100000000E-03 0.  1.
         11   -1    0    0    0    0 -0.00000000000E+00 -0.00000000000E+00 -0.45593999997E+02  0.45594000000E+02  0.51100000000E-03 0. -1.
    9900012    2    1    2    0    0  0.16510996330E+02  0.20792635023E+02  0.34331902571E+02  0.47787237275E+02  0.19999846030E+02 0.  0.
         12    1    1    2    0    0 -0.16510996330E+02 -0.20792635023E+02 -0.34331902571E+02  0.43400762725E+02  0.00000000000E+00 0. -1.
         11    1    3    3    0    0  0.78692336858E+01  0.74863495175E+00  0.17147991265E+01  0.80886234551E+01  0.51100000000E-03 0. -1.
        -11    1    3    3    0    0  0.56065604530E+01  0.58208916417E+01  0.12032972595E+02  0.14495127780E+02  0.51100000000E-03 0.  1.
         12    1    3    3    0    0  0.30352021909E+01  0.14223108429E+02  0.20584130850E+02  0.25203486040E+02  0.00000000000E+00 0. -1.
</event>
<event>
 7    1  0.2769403E-010  0.4778728E+02  0.7816164E-02  0.1312668E+00
        -11   -1    0    0    0    0  0.00000000000E+00  0.00000000000E+00  0.45593999997E+02  0.45594000000E+02  0.51100000000E-03 0.  1.
         11   -1    0    0    0    0 -0.00000000000E+00 -0.00000000000E+00 -0.45593999997E+02  0.45594000000E+02  0.51100000000E-03 0. -1.
    9900012    2    1    2    0    0  0.26919688273E+01  0.70360728793E+01  0.42741893364E+02  0.47787280351E+02  0.20000042432E+02 0.  0.
         12    1    1    2    0    0 -0.26919688273E+01 -0.70360728793E+01 -0.42741893364E+02  0.43400719649E+02  0.00000000000E+00 0. -1.
         11    1    3    3    0    0 -0.31591586432E+01  0.14975551136E+01  0.66298038408E+00  0.35584403749E+01  0.51100000000E-03 0. -1.
        -11    1    3    3    0    0 -0.12792763834E+01 -0.48406970088E+00  0.27437067590E+00  0.13950451854E+01  0.51100000000E-03 0.  1.
        -12    1    3    3    0    0  0.71304038539E+01  0.60225874665E+01  0.41804542304E+02  0.42833794791E+02  0.00000000000E+00 0.  1.
</event>
<event>
 7    1  0.2769403E-010  0.4778727E+02  0.7816164E-02  0.1312668E+00
        -11   -1    0    0    0    0  0.00000000000E+00  0.00000000000E+00  0.45593999997E+02  0.45594000000E+02  0.51100000000E-03 0.  1.
         11   -1    0    0    0    0 -0.00000000000E+00 -0.00000000000E+00 -0.45593999997E+02  0.45594000000E+02  0.51100000000E-03 0. -1.
    9900012    2    1    2    0    0 -0.18341962172E+02  0.25801925557E+02  0.29689332468E+02  0.47787269578E+02  0.19999993312E+02 0.  0.
         12    1    1    2    0    0  0.18341962172E+02 -0.25801925557E+02 -0.29689332468E+02  0.43400730422E+02  0.00000000000E+00 0. -1.
         11    1    3    3    0    0 -0.95895948700E+01  0.53536630437E+00  0.60866848712E+01  0.11370781848E+02  0.51100000000E-03 0. -1.
        -11    1    3    3    0    0 -0.39582116298E+01  0.80173447221E+01  0.37843245181E+01  0.97090868788E+01  0.51100000000E-03 0.  1.
         12    1    3    3    0    0 -0.47941556722E+01  0.17249214531E+02  0.19818323079E+02  0.26707400851E+02  0.00000000000E+00 0. -1.
</event>
<event>
 7    1  0.2769403E-010  0.4778727E+02  0.7816164E-02  0.1312668E+00
        -11   -1    0    0    0    0  0.00000000000E+00  0.00000000000E+00  0.45593999997E+02  0.45594000000E+02  0.51100000000E-03 0.  1.
         11   -1    0    0    0    0 -0.00000000000E+00 -0.00000000000E+00 -0.45593999997E+02  0.45594000000E+02  0.51100000000E-03 0. -1.
    9900012    2    1    2    0    0  0.24907668661E+02 -0.32569040318E+02  0.14229863915E+02  0.47787269910E+02  0.19999994826E+02 0.  0.
         12    1    1    2    0    0 -0.24907668661E+02  0.32569040318E+02 -0.14229863915E+02  0.43400730090E+02  0.00000000000E+00 0. -1.
         11    1    3    3    0    0 -0.59122439111E-01 -0.16420166543E+01 -0.37657421900E+01  0.41085920531E+01  0.51100000000E-03 0. -1.
        -11    1    3    3    0    0  0.67416419833E+01 -0.73227454377E+01  0.51708878986E+01  0.11216524386E+02  0.51100000000E-03 0.  1.
         12    1    3    3    0    0  0.18225149117E+02 -0.23604278225E+02  0.12824718206E+02  0.32462153471E+02  0.00000000000E+00 0. -1.
</event>
<event>
 7    1  0.2769403E-010  0.4778727E+02  0.7816164E-02  0.1312668E+00
        -11   -1    0    0    0    0  0.00000000000E+00  0.00000000000E+00  0.45593999997E+02  0.45594000000E+02  0.51100000000E-03 0.  1.
         11   -1    0    0    0    0 -0.00000000000E+00 -0.00000000000E+00 -0.45593999997E+02  0.45594000000E+02  0.51100000000E-03 0. -1.
    9900012    2    1    2    0    0  0.98684154732E+01 -0.12087325241E+02  0.40498571639E+02  0.47787270050E+02  0.19999995466E+02 0.  0.
         12    1    1    2    0    0 -0.98684154732E+01  0.12087325241E+02 -0.40498571639E+02  0.43400729950E+02  0.00000000000E+00 0. -1.
         11    1    3    3    0    0  0.15134611771E+01 -0.32230886814E+01  0.22951384795E+01  0.42363340619E+01  0.51100000000E-03 0. -1.
        -11    1    3    3    0    0  0.39774382586E+01  0.49874700359E+01  0.11337951045E+02  0.13009381485E+02  0.51100000000E-03 0.  1.
        -12    1    3    3    0    0  0.43775160375E+01 -0.13851706595E+02  0.26865482114E+02  0.30541554503E+02  0.00000000000E+00 0.  1.
</event>
<event>
 7    1  0.2769403E-010  0.4778727E+02  0.7816164E-02  0.1312668E+00
        -11   -1    0    0    0    0  0.00000000000E+00  0.00000000000E+00  0.45593999997E+02  0.45594000000E+02  0.51100000000E-03 0.  1.
         11   -1    0    0    0    0 -0.00000000000E+00 -0.00000000000E+00 -0.45593999997E+02  0.45594000000E+02  0.51100000000E-03 0. -1.
    9900012    2    1    2    0    0  0.35165425136E+02 -0.19997948172E+02  0.15719357510E+02  0.47787271243E+02  0.20000000906E+02 0.  0.
         12    1    1    2    0    0 -0.35165425136E+02  0.19997948172E+02 -0.15719357510E+02  0.43400728757E+02  0.00000000000E+00 0. -1.
         11    1    3    3    0    0  0.11842630523E+02 -0.43064481713E+01  0.78031183205E+01  0.14821674984E+02  0.51100000000E-03 0. -1.
        -11    1    3    3    0    0  0.11034766414E+02 -0.38884471659E+01  0.10514445747E+02  0.15730214900E+02  0.51100000000E-03 0.  1.
         12    1    3    3    0    0  0.12288028200E+02 -0.11803052835E+02 -0.25982065582E+01  0.17235381359E+02  0.00000000000E+00 0. -1.
</event>
<event>
 7    1  0.2769403E-010  0.4778728E+02  0.7816164E-02  0.1312668E+00
        -11   -1    0    0    0    0  0.00000000000E+00  0.00000000000E+00  0.45593999997E+02  0.45594000000E+02  0.51100000000E-03 0.  1.
         11   -1    0    0    0    0 -0.00000000000E+00 -0.00000000000E+00 -0.45593999997E+02  0.45594000000E+02  0.51100000000E-03 0. -1.
    9900012    2    1    2    0    0 -0.17939403613E+01  0.34500311766E+02  0.26270382609E+02  0.47787277236E+02  0.20000028231E+02 0.  0.
         12    1    1    2    0    0  0.17939403613E+01 -0.34500311766E+02 -0.26270382609E+02  0.43400722764E+02  0.00000000000E+00 0. -1.
         11    1    3    3    0    0  0.15039664405E+01  0.23258543596E+02  0.26725346727E+02  0.35460765970E+02  0.51100000000E-03 0.  1.
        -11    1    3    3    0    0  0.58214338997E+00  0.19286261989E+01  0.78379856696E+00  0.21616730549E+01  0.51100000000E-03 0. -1.
        -12    1    3    3    0    0 -0.38800501917E+01  0.93131419717E+01 -0.12387626847E+01  0.10164838211E+02  0.00000000000E+00 0.  1.
</event>
<event>
 7    1  0.2769403E-010  0.4778727E+02  0.7816164E-02  0.1312668E+00
        -11   -1    0    0    0    0  0.00000000000E+00  0.00000000000E+00  0.45593999997E+02  0.45594000000E+02  0.51100000000E-03 0.  1.
         11   -1    0    0    0    0 -0.00000000000E+00 -0.00000000000E+00 -0.45593999997E+02  0.45594000000E+02  0.51100000000E-03 0. -1.
    9900012    2    1    2    0    0 -0.17593851369E+02 -0.67927608881E+01  0.39088845160E+02  0.47787273942E+02  0.20000013209E+02 0.  0.
         12    1    1    2    0    0  0.17593851369E+02  0.67927608881E+01 -0.39088845160E+02  0.43400726058E+02  0.00000000000E+00 0. -1.
         11    1    3    3    0    0  0.87483849024E+00 -0.28132474526E+01  0.47303903033E+01  0.55728176263E+01  0.51100000000E-03 0.  1.
        -11    1    3    3    0    0 -0.50834784490E+00 -0.54302981348E+01  0.14012909820E+02  0.15036894535E+02  0.51100000000E-03 0. -1.
         12    1    3    3    0    0 -0.17960342014E+02  0.14507846993E+01  0.20345545037E+02  0.27177561781E+02  0.00000000000E+00 0. -1.
</event>
<event>
 7    1  0.2769403E-010  0.4778727E+02  0.7816164E-02  0.1312668E+00
        -11   -1    0    0    0    0  0.00000000000E+00  0.00000000000E+00  0.45593999997E+02  0.45594000000E+02  0.51100000000E-03 0.  1.
         11   -1    0    0    0    0 -0.00000000000E+00 -0.00000000000E+00 -0.45593999997E+02  0.45594000000E+02  0.51100000000E-03 0. -1.
    9900012    2    1    2    0    0 -0.13507755376E+02 -0.38383729178E+02  0.15094800330E+02  0.47787272841E+02  0.20000008190E+02 0.  0.
         12    1    1    2    0    0  0.13507755376E+02  0.38383729178E+02 -0.15094800330E+02  0.43400727159E+02  0.00000000000E+00 0. -1.
         11    1    3    3    0    0 -0.37979532479E+01 -0.19378400096E+01 -0.18526454728E+00  0.42677858416E+01  0.51100000000E-03 0. -1.
        -11    1    3    3    0    0 -0.10502888996E+02 -0.11350103978E+02  0.78051694921E+01  0.17322130603E+02  0.51100000000E-03 0.  1.
        -12    1    3    3    0    0  0.79308686797E+00 -0.25095785191E+02  0.74748953856E+01  0.26197356396E+02  0.00000000000E+00 0.  1.
</event>
<event>
 7    1  0.2769403E-010  0.4778727E+02  0.7816164E-02  0.1312668E+00
        -11   -1    0    0    0    0  0.00000000000E+00  0.00000000000E+00  0.45593999997E+02  0.45594000000E+02  0.51100000000E-03 0.  1.
         11   -1    0    0    0    0 -0.00000000000E+00 -0.00000000000E+00 -0.45593999997E+02  0.45594000000E+02  0.51100000000E-03 0. -1.
    9900012    2    1    2    0    0 -0.37346965762E+02 -0.15530224295E+02  0.15736567638E+02  0.47787270982E+02  0.19999999714E+02 0.  0.
         12    1    1    2    0    0  0.37346965762E+02  0.15530224295E+02 -0.15736567638E+02  0.43400729018E+02  0.00000000000E+00 0. -1.
         11    1    3    3    0    0 -0.10734541072E+02 -0.74896839223E+01  0.59115697123E+01  0.14362186254E+02  0.51100000000E-03 0. -1.
        -11    1    3    3    0    0 -0.26494289706E+02 -0.87012629504E+01  0.47285145668E+01  0.28284593231E+02  0.51100000000E-03 0.  1.
         12    1    3    3    0    0 -0.11813498439E+00  0.66072257779E+00  0.50964833591E+01  0.51404914968E+01  0.00000000000E+00 0. -1.
</event>
<event>
 7    1  0.2769403E-010  0.4778727E+02  0.7816164E-02  0.1312668E+00
        -11   -1    0    0    0    0  0.00000000000E+00  0.00000000000E+00  0.45593999997E+02  0.45594000000E+02  0.51100000000E-03 0.  1.
         11   -1    0    0    0    0 -0.00000000000E+00 -0.00000000000E+00 -0.45593999997E+02  0.45594000000E+02  0.51100000000E-03 0. -1.
    9900012    2    1    2    0    0 -0.23239894499E+02  0.19130733471E+02  0.31265728850E+02  0.47787268900E+02  0.19999990221E+02 0.  0.
         12    1    1    2    0    0  0.23239894499E+02 -0.19130733471E+02 -0.31265728850E+02  0.43400731100E+02  0.00000000000E+00 0. -1.
         11    1    3    3    0    0 -0.45658493987E+01  0.68493436370E+01  0.19746119717E+01  0.84651982664E+01  0.51100000000E-03 0. -1.
        -11    1    3    3    0    0 -0.16015198502E+00  0.69609278015E+01  0.82267274840E+01  0.10777718213E+02  0.51100000000E-03 0.  1.
        -12    1    3    3    0    0 -0.18513893116E+02  0.53204620329E+01  0.21064389395E+02  0.28544352421E+02  0.00000000000E+00 0.  1.
</event>
<event>
 7    1  0.2769403E-010  0.4778726E+02  0.7816164E-02  0.1312668E+00
        -11   -1    0    0    0    0  0.00000000000E+00  0.00000000000E+00  0.45593999997E+02  0.45594000000E+02  0.51100000000E-03 0. -1.
         11   -1    0    0    0    0 -0.00000000000E+00 -0.00000000000E+00 -0.45593999997E+02  0.45594000000E+02  0.51100000000E-03 0.  1.
    9900012    2    1    2    0    0  0.10400496461E+02  0.12553909672E+02 -0.40222545388E+02  0.47787261157E+02  0.19999954918E+02 0.  0.
         12    1    1    2    0    0 -0.10400496461E+02 -0.12553909672E+02  0.40222545388E+02  0.43400738843E+02  0.00000000000E+00 0. -1.
         11    1    3    3    0    0  0.30644344789E+01  0.13328671266E+01 -0.14725851765E+01  0.36518215750E+01  0.51100000000E-03 0. -1.
        -11    1    3    3    0    0  0.10416663409E+02  0.10821531833E+02 -0.19386826722E+02  0.24524711587E+02  0.51100000000E-03 0.  1.
         12    1    3    3    0    0 -0.30806014274E+01  0.39951071181E+00 -0.19363133490E+02  0.19610727995E+02  0.00000000000E+00 0. -1.
</event>
<event>
 7    1  0.2769403E-010  0.4778727E+02  0.7816164E-02  0.1312668E+00
        -11   -1    0    0    0    0  0.00000000000E+00  0.00000000000E+00  0.45593999997E+02  0.45594000000E+02  0.51100000000E-03 0.  1.
         11   -1    0    0    0    0 -0.00000000000E+00 -0.00000000000E+00 -0.45593999997E+02  0.45594000000E+02  0.51100000000E-03 0. -1.
    9900012    2    1    2    0    0  0.18856532721E+02  0.36679604397E+02  0.13515214383E+02  0.47787271610E+02  0.20000002577E+02 0.  0.
         12    1    1    2    0    0 -0.18856532721E+02 -0.36679604397E+02 -0.13515214383E+02  0.43400728390E+02  0.00000000000E+00 0. -1.
         11    1    3    3    0    0  0.59700776861E+01  0.21214958565E+02  0.13910956553E+02  0.26062060682E+02  0.51100000000E-03 0. -1.
        -11    1    3    3    0    0  0.42405967590E+01  0.63211988776E+01  0.37375215292E+01  0.84799341722E+01  0.51100000000E-03 0.  1.
        -12    1    3    3    0    0  0.86458582759E+01  0.91434469542E+01 -0.41332636989E+01  0.13245276756E+02  0.00000000000E+00 0.  1.
</event>
<event>
 7    1  0.2769403E-010  0.4778727E+02  0.7816164E-02  0.1312668E+00
        -11   -1    0    0    0    0  0.00000000000E+00  0.00000000000E+00  0.45593999997E+02  0.45594000000E+02  0.51100000000E-03 0.  1.
         11   -1    0    0    0    0 -0.00000000000E+00 -0.00000000000E+00 -0.45593999997E+02  0.45594000000E+02  0.51100000000E-03 0. -1.
    9900012    2    1    2    0    0 -0.38746074927E+01  0.11957948682E+02  0.41540558590E+02  0.47787272726E+02  0.20000007668E+02 0.  0.
         12    1    1    2    0    0  0.38746074927E+01 -0.11957948682E+02 -0.41540558590E+02  0.43400727274E+02  0.00000000000E+00 0. -1.
         11    1    3    3    0    0  0.51302168973E+01 -0.20518467946E+01  0.15380777455E+02  0.16343118309E+02  0.51100000000E-03 0. -1.
        -11    1    3    3    0    0 -0.75854218051E+00  0.51933405565E+01  0.97424129300E+01  0.11066199995E+02  0.51100000000E-03 0.  1.
         12    1    3    3    0    0 -0.82462822095E+01  0.88164549204E+01  0.16417368205E+02  0.20377954422E+02  0.00000000000E+00 0. -1.
</event>
<event>
 7    1  0.2769403E-010  0.4778727E+02  0.7816164E-02  0.1312668E+00
        -11   -1    0    0    0    0  0.00000000000E+00  0.00000000000E+00  0.45593999997E+02  0.45594000000E+02  0.51100000000E-03 0.  1.
         11   -1    0    0    0    0 -0.00000000000E+00 -0.00000000000E+00 -0.45593999997E+02  0.45594000000E+02  0.51100000000E-03 0. -1.
    9900012    2    1    2    0    0  0.27951871632E+02 -0.14993225776E+02  0.29622950687E+02  0.47787272422E+02  0.20000006280E+02 0.  0.
         12    1    1    2    0    0 -0.27951871632E+02  0.14993225776E+02 -0.29622950687E+02  0.43400727578E+02  0.00000000000E+00 0. -1.
         11    1    3    3    0    0  0.11726561905E+02 -0.58556183457E+01  0.41267494729E+01  0.13741564023E+02  0.51100000000E-03 0. -1.
        -11    1    3    3    0    0  0.75052856315E+01 -0.27791039018E+01  0.20905784276E+01  0.82718347015E+01  0.51100000000E-03 0.  1.
         12    1    3    3    0    0  0.87200240959E+01 -0.63585035286E+01  0.23405622786E+02  0.25773873697E+02  0.00000000000E+00 0. -1.
</event>
<event>
 7    1  0.2769403E-010  0.4778728E+02  0.7816164E-02  0.1312668E+00
        -11   -1    0    0    0    0  0.00000000000E+00  0.00000000000E+00  0.45593999997E+02  0.45594000000E+02  0.51100000000E-03 0.  1.
         11   -1    0    0    0    0 -0.00000000000E+00 -0.00000000000E+00 -0.45593999997E+02  0.45594000000E+02  0.51100000000E-03 0. -1.
    9900012    2    1    2    0    0 -0.29107473157E+02 -0.13476692174E+02  0.29236208746E+02  0.47787284253E+02  0.20000060223E+02 0.  0.
         12    1    1    2    0    0  0.29107473157E+02  0.13476692174E+02 -0.29236208746E+02  0.43400715747E+02  0.00000000000E+00 0. -1.
         11    1    3    3    0    0  0.15828406034E+01  0.13826965178E+01  0.75406311033E+00  0.22329006855E+01  0.51100000000E-03 0. -1.
        -11    1    3    3    0    0 -0.94247296878E+01 -0.63458531095E+01  0.15520844861E+02  0.19235176288E+02  0.51100000000E-03 0.  1.
         12    1    3    3    0    0 -0.21265584072E+02 -0.85135355821E+01  0.12961300774E+02  0.26319207279E+02  0.00000000000E+00 0. -1.
</event>
<event>
 7    1  0.2769403E-010  0.4778730E+02  0.7816164E-02  0.1312668E+00
        -11   -1    0    0    0    0  0.00000000000E+00  0.00000000000E+00  0.45593999997E+02  0.45594000000E+02  0.51100000000E-03 0.  1.
         11   -1    0    0    0    0 -0.00000000000E+00 -0.00000000000E+00 -0.45593999997E+02  0.45594000000E+02  0.51100000000E-03 0. -1.
    9900012    2    1    2    0    0 -0.28384791199E+02  0.13206128454E+02  0.30058654034E+02  0.47787298594E+02  0.20000125610E+02 0.  0.
         12    1    1    2    0    0  0.28384791199E+02 -0.13206128454E+02 -0.30058654034E+02  0.43400701406E+02  0.00000000000E+00 0. -1.
         11    1    3    3    0    0 -0.49977291594E+01  0.67329248117E+01  0.11594081878E+02  0.14308469804E+02  0.51100000000E-03 0. -1.
        -11    1    3    3    0    0 -0.10033464173E+02  0.75066920226E+00  0.15764876113E+02  0.18702011301E+02  0.51100000000E-03 0.  1.
         12    1    3    3    0    0 -0.13353597867E+02  0.57225344402E+01  0.26996960429E+01  0.14776817490E+02  0.00000000000E+00 0. -1.
</event>
<event>
 7    1  0.2769403E-010  0.4778728E+02  0.7816164E-02  0.1312668E+00
        -11   -1    0    0    0    0  0.00000000000E+00  0.00000000000E+00  0.45593999997E+02  0.45594000000E+02  0.51100000000E-03 0. -1.
         11   -1    0    0    0    0 -0.00000000000E+00 -0.00000000000E+00 -0.45593999997E+02  0.45594000000E+02  0.51100000000E-03 0.  1.
    9900012    2    1    2    0    0 -0.19171218598E+02 -0.27136529769E+02 -0.27923037087E+02  0.47787275690E+02  0.20000021182E+02 0.  0.
         12    1    1    2    0    0  0.19171218598E+02  0.27136529769E+02  0.27923037087E+02  0.43400724310E+02  0.00000000000E+00 0. -1.
         11    1    3    3    0    0  0.67914632593E+00 -0.42403964272E+00 -0.42405420787E+01  0.43154659926E+01  0.51100000000E-03 0. -1.
        -11    1    3    3    0    0 -0.44809285169E+01 -0.10538306952E+02 -0.16398172613E+02  0.20000867458E+02  0.51100000000E-03 0.  1.
         12    1    3    3    0    0 -0.15369436407E+02 -0.16174183175E+02 -0.72843223956E+01  0.23470942239E+02  0.00000000000E+00 0. -1.
</event>
<event>
 7    1  0.2769403E-010  0.4778727E+02  0.7816164E-02  0.1312668E+00
        -11   -1    0    0    0    0  0.00000000000E+00  0.00000000000E+00  0.45593999997E+02  0.45594000000E+02  0.51100000000E-03 0.  1.
         11   -1    0    0    0    0 -0.00000000000E+00 -0.00000000000E+00 -0.45593999997E+02  0.45594000000E+02  0.51100000000E-03 0. -1.
    9900012    2    1    2    0    0  0.10416042766E+02  0.15662323535E+02  0.39112925898E+02  0.47787270770E+02  0.19999998748E+02 0.  0.
         12    1    1    2    0    0 -0.10416042766E+02 -0.15662323535E+02 -0.39112925898E+02  0.43400729230E+02  0.00000000000E+00 0. -1.
         11    1    3    3    0    0  0.72285637638E+01  0.80777518643E+01  0.35060343241E+02  0.36697818432E+02  0.51100000000E-03 0. -1.
        -11    1    3    3    0    0  0.88081295174E+00  0.38324264856E+01  0.52176102299E+01  0.65335121486E+01  0.51100000000E-03 0.  1.
        -12    1    3    3    0    0  0.23066660501E+01  0.37521451855E+01 -0.11650275730E+01  0.45559401890E+01  0.00000000000E+00 0.  1.
</event>
<event>
 7    1  0.2769403E-010  0.4778727E+02  0.7816164E-02  0.1312668E+00
        -11   -1    0    0    0    0  0.00000000000E+00  0.00000000000E+00  0.45593999997E+02  0.45594000000E+02  0.51100000000E-03 0.  1.
         11   -1    0    0    0    0 -0.00000000000E+00 -0.00000000000E+00 -0.45593999997E+02  0.45594000000E+02  0.51100000000E-03 0. -1.
    9900012    2    1    2    0    0  0.49626607664E+01  0.17764192724E+02  0.39286495786E+02  0.47787270788E+02  0.19999998829E+02 0.  0.
         12    1    1    2    0    0 -0.49626607664E+01 -0.17764192724E+02 -0.39286495786E+02  0.43400729212E+02  0.00000000000E+00 0. -1.
         11    1    3    3    0    0 -0.35573659559E+01  0.55581832531E+01  0.17072675910E+02  0.18303674948E+02  0.51100000000E-03 0. -1.
        -11    1    3    3    0    0  0.39625528209E+01  0.10342157785E+02  0.21910245425E+02  0.24550374892E+02  0.51100000000E-03 0.  1.
        -12    1    3    3    0    0  0.45574739014E+01  0.18638516858E+01  0.30357445167E+00  0.49332209474E+01  0.00000000000E+00 0.  1.
</event>
<event>
 7    1  0.2769403E-010  0.4778727E+02  0.7816164E-02  0.1312668E+00
        -11   -1    0    0    0    0  0.00000000000E+00  0.00000000000E+00  0.45593999997E+02  0.45594000000E+02  0.51100000000E-03 0.  1.
         11   -1    0    0    0    0 -0.00000000000E+00 -0.00000000000E+00 -0.45593999997E+02  0.45594000000E+02  0.51100000000E-03 0. -1.
    9900012    2    1    2    0    0 -0.21557645198E+02  0.12455913968E+02  0.35549137147E+02  0.47787274071E+02  0.20000013801E+02 0.  0.
         12    1    1    2    0    0  0.21557645198E+02 -0.12455913968E+02 -0.35549137147E+02  0.43400725929E+02  0.00000000000E+00 0. -1.
         11    1    3    3    0    0 -0.42916961796E+01 -0.17672298583E+00  0.17935820469E+01  0.46547635742E+01  0.51100000000E-03 0. -1.
        -11    1    3    3    0    0 -0.10100597887E+02 -0.69607309920E+00  0.21107801669E+02  0.23410379898E+02  0.51100000000E-03 0.  1.
         12    1    3    3    0    0 -0.71653511314E+01  0.13328710053E+02  0.12647753431E+02  0.19722130599E+02  0.00000000000E+00 0. -1.
</event>
<event>
 7    1  0.2769403E-010  0.4778727E+02  0.7816164E-02  0.1312668E+00
        -11   -1    0    0    0    0  0.00000000000E+00  0.00000000000E+00  0.45593999997E+02  0.45594000000E+02  0.51100000000E-03 0. -1.
         11   -1    0    0    0    0 -0.00000000000E+00 -0.00000000000E+00 -0.45593999997E+02  0.45594000000E+02  0.51100000000E-03 0.  1.
    9900012    2    1    2    0    0 -0.38832441711E+01 -0.40089549429E+02 -0.16167001318E+02  0.47787268551E+02  0.19999988631E+02 0.  0.
         12    1    1    2    0    0  0.38832441711E+01  0.40089549429E+02  0.16167001318E+02  0.43400731449E+02  0.00000000000E+00 0. -1.
         11    1    3    3    0    0  0.33149099076E+01 -0.21524590124E+02 -0.48607199770E+01  0.22314192942E+02  0.51100000000E-03 0. -1.
        -11    1    3    3    0    0 -0.13356249408E+00 -0.10917123330E+02 -0.10305792082E+02  0.15013686137E+02  0.51100000000E-03 0.  1.
         12    1    3    3    0    0 -0.70645915846E+01 -0.76478359750E+01 -0.10004892597E+01  0.10459389472E+02  0.00000000000E+00 0. -1.
</event>
<event>
 7    1  0.2769403E-010  0.4778727E+02  0.7816164E-02  0.1312668E+00
        -11   -1    0    0    0    0  0.00000000000E+00  0.00000000000E+00  0.45593999997E+02  0.45594000000E+02  0.51100000000E-03 0. -1.
         11   -1    0    0    0    0 -0.00000000000E+00 -0.00000000000E+00 -0.45593999997E+02  0.45594000000E+02  0.51100000000E-03 0.  1.
    9900012    2    1    2    0    0  0.11658868779E+02  0.21279568033E+02 -0.35984358114E+02  0.47787271138E+02  0.20000000427E+02 0.  0.
         12    1    1    2    0    0 -0.11658868779E+02 -0.21279568033E+02  0.35984358114E+02  0.43400728862E+02  0.00000000000E+00 0. -1.
         11    1    3    3    0    0 -0.38209373269E+00  0.37019080990E+01 -0.13313996170E+02  0.13824348573E+02  0.51100000000E-03 0. -1.
        -11    1    3    3    0    0  0.52709333736E+01 -0.71512092215E+00 -0.24115272225E+01  0.58403424873E+01  0.51100000000E-03 0.  1.
        -12    1    3    3    0    0  0.67700291383E+01  0.18292780856E+02 -0.20258834722E+02  0.28122580078E+02  0.00000000000E+00 0.  1.
</event>
<event>
 7    1  0.2769403E-010  0.4778727E+02  0.7816164E-02  0.1312668E+00
        -11   -1    0    0    0    0  0.00000000000E+00  0.00000000000E+00  0.45593999997E+02  0.45594000000E+02  0.51100000000E-03 0.  1.
         11   -1    0    0    0    0 -0.00000000000E+00 -0.00000000000E+00 -0.45593999997E+02  0.45594000000E+02  0.51100000000E-03 0. -1.
    9900012    2    1    2    0    0  0.36906404392E+02  0.22449467541E+02  0.41906640208E+01  0.47787274857E+02  0.20000017383E+02 0.  0.
         12    1    1    2    0    0 -0.36906404392E+02 -0.22449467541E+02 -0.41906640208E+01  0.43400725143E+02  0.00000000000E+00 0. -1.
         11    1    3    3    0    0  0.70570298408E+01  0.48523074737E+00 -0.35261692836E+01  0.79038591289E+01  0.51100000000E-03 0. -1.
        -11    1    3    3    0    0  0.97019098958E+01  0.39265796798E+01 -0.28541430681E+01  0.10848558269E+02  0.51100000000E-03 0.  1.
         12    1    3    3    0    0  0.20147464655E+02  0.18037657113E+02  0.10570976372E+02  0.29034857459E+02  0.00000000000E+00 0. -1.
</event>
<event>
 7    1  0.2769403E-010  0.4778727E+02  0.7816164E-02  0.1312668E+00
        -11   -1    0    0    0    0  0.00000000000E+00  0.00000000000E+00  0.45593999997E+02  0.45594000000E+02  0.51100000000E-03 0.  1.
         11   -1    0    0    0    0 -0.00000000000E+00 -0.00000000000E+00 -0.45593999997E+02  0.45594000000E+02  0.51100000000E-03 0. -1.
    9900012    2    1    2    0    0  0.18512129842E+02  0.22814327254E+01  0.39188256273E+02  0.47787270556E+02  0.19999997772E+02 0.  0.
         12    1    1    2    0    0 -0.18512129842E+02 -0.22814327254E+01 -0.39188256273E+02  0.43400729444E+02  0.00000000000E+00 0. -1.
         11    1    3    3    0    0  0.15488581228E+01 -0.40436668280E+01  0.13408083897E+01  0.45329869071E+01  0.51100000000E-03 0. -1.
        -11    1    3    3    0    0  0.63625000156E+00  0.31660528961E+01  0.12710469974E+02  0.13114295720E+02  0.51100000000E-03 0.  1.
        -12    1    3    3    0    0  0.16327021717E+02  0.31590466573E+01  0.25136977909E+02  0.30139987929E+02  0.00000000000E+00 0.  1.
</event>
<event>
 7    1  0.2769403E-010  0.4778727E+02  0.7816164E-02  0.1312668E+00
        -11   -1    0    0    0    0  0.00000000000E+00  0.00000000000E+00  0.45593999997E+02  0.45594000000E+02  0.51100000000E-03 0. -1.
         11   -1    0    0    0    0 -0.00000000000E+00 -0.00000000000E+00 -0.45593999997E+02  0.45594000000E+02  0.51100000000E-03 0.  1.
    9900012    2    1    2    0    0 -0.41586819215E+02  0.62518075931E+01 -0.10727301287E+02  0.47787267016E+02  0.19999981634E+02 0.  0.
         12    1    1    2    0    0  0.41586819215E+02 -0.62518075931E+01  0.10727301287E+02  0.43400732984E+02  0.00000000000E+00 0. -1.
         11    1    3    3    0    0 -0.24499637426E+02  0.31498512132E+00 -0.32216614689E+01  0.24712558600E+02  0.51100000000E-03 0. -1.
        -11    1    3    3    0    0 -0.15863059095E+02  0.78749636171E+01 -0.29217804235E+01  0.17949609938E+02  0.51100000000E-03 0.  1.
         12    1    3    3    0    0 -0.12241226942E+01 -0.19381411454E+01 -0.45838593945E+01  0.51250984789E+01  0.00000000000E+00 0. -1.
</event>
<event>
 7    1  0.2769403E-010  0.4778727E+02  0.7816164E-02  0.1312668E+00
        -11   -1    0    0    0    0  0.00000000000E+00  0.00000000000E+00  0.45593999997E+02  0.45594000000E+02  0.51100000000E-03 0.  1.
         11   -1    0    0    0    0 -0.00000000000E+00 -0.00000000000E+00 -0.45593999997E+02  0.45594000000E+02  0.51100000000E-03 0. -1.
    9900012    2    1    2    0    0 -0.17418813307E+02  0.21676542842E+02  0.33321705217E+02  0.47787267228E+02  0.19999982598E+02 0.  0.
         12    1    1    2    0    0  0.17418813307E+02 -0.21676542842E+02 -0.33321705217E+02  0.43400732772E+02  0.00000000000E+00 0. -1.
         11    1    3    3    0    0 -0.38305771890E+01 -0.20779286234E+01  0.16329350222E+01  0.46537711603E+01  0.51100000000E-03 0. -1.
        -11    1    3    3    0    0 -0.76173567480E+01  0.50977495922E+01  0.14038598941E+02  0.16765841322E+02  0.51100000000E-03 0.  1.
        -12    1    3    3    0    0 -0.59708793699E+01  0.18656721874E+02  0.17650171254E+02  0.26367654746E+02  0.00000000000E+00 0.  1.
</event>
<event>
 7    1  0.2769403E-010  0.4778727E+02  0.7816164E-02  0.1312668E+00
        -11   -1    0    0    0    0  0.00000000000E+00  0.00000000000E+00  0.45593999997E+02  0.45594000000E+02  0.51100000000E-03 0.  1.
         11   -1    0    0    0    0 -0.00000000000E+00 -0.00000000000E+00 -0.45593999997E+02  0.45594000000E+02  0.51100000000E-03 0. -1.
    9900012    2    1    2    0    0 -0.41362281538E+02  0.79608389623E+01  0.10459910207E+02  0.47787274055E+02  0.20000013727E+02 0.  0.
         12    1    1    2    0    0  0.41362281538E+02 -0.79608389623E+01 -0.10459910207E+02  0.43400725945E+02  0.00000000000E+00 0. -1.
         11    1    3    3    0    0 -0.16413881537E+02 -0.33789917116E+01 -0.11974284035E+01  0.16800801384E+02  0.51100000000E-03 0. -1.
        -11    1    3    3    0    0 -0.81711613639E+00  0.30914406408E+01  0.10394724473E+01  0.33623187305E+01  0.51100000000E-03 0.  1.
        -12    1    3    3    0    0 -0.24131283865E+02  0.82483900331E+01  0.10617866163E+02  0.27624153941E+02  0.00000000000E+00 0.  1.
</event>
<event>
 7    1  0.2769403E-010  0.4778727E+02  0.7816164E-02  0.1312668E+00
        -11   -1    0    0    0    0  0.00000000000E+00  0.00000000000E+00  0.45593999997E+02  0.45594000000E+02  0.51100000000E-03 0.  1.
         11   -1    0    0    0    0 -0.00000000000E+00 -0.00000000000E+00 -0.45593999997E+02  0.45594000000E+02  0.51100000000E-03 0. -1.
    9900012    2    1    2    0    0  0.16358316981E+02 -0.11307139520E+02  0.38576906846E+02  0.47787266361E+02  0.19999978647E+02 0.  0.
         12    1    1    2    0    0 -0.16358316981E+02  0.11307139520E+02 -0.38576906846E+02  0.43400733639E+02  0.00000000000E+00 0. -1.
         11    1    3    3    0    0  0.90598510941E+01  0.39190026622E+01  0.11123278345E+02  0.14871677952E+02  0.51100000000E-03 0. -1.
        -11    1    3    3    0    0  0.16492521761E+01 -0.96306900946E+00  0.62322830903E+00  0.20089670091E+01  0.51100000000E-03 0.  1.
         12    1    3    3    0    0  0.56492137107E+01 -0.14263073173E+02  0.26830400192E+02  0.30906621400E+02  0.00000000000E+00 0. -1.
</event>
<event>
 7    1  0.2769403E-010  0.4778727E+02  0.7816164E-02  0.1312668E+00
        -11   -1    0    0    0    0  0.00000000000E+00  0.00000000000E+00  0.45593999997E+02  0.45594000000E+02  0.51100000000E-03 0.  1.
         11   -1    0    0    0    0 -0.00000000000E+00 -0.00000000000E+00 -0.45593999997E+02  0.45594000000E+02  0.51100000000E-03 0. -1.
    9900012    2    1    2    0    0 -0.25228677401E+02  0.26289716981E+02  0.23579391983E+02  0.47787272948E+02  0.20000008677E+02 0.  0.
         12    1    1    2    0    0  0.25228677401E+02 -0.26289716981E+02 -0.23579391983E+02  0.43400727052E+02  0.00000000000E+00 0. -1.
         11    1    3    3    0    0 -0.71155935034E+01  0.15573957794E+02  0.20067534791E+02  0.26379647176E+02  0.51100000000E-03 0. -1.
        -11    1    3    3    0    0 -0.15697272724E+01  0.11530020556E+01  0.80921476849E+00  0.21090960748E+01  0.51100000000E-03 0.  1.
        -12    1    3    3    0    0 -0.16543356625E+02  0.95627571319E+01  0.27026424242E+01  0.19298529697E+02  0.00000000000E+00 0.  1.
</event>
<event>
 7    1  0.2769403E-010  0.4778726E+02  0.7816164E-02  0.1312668E+00
        -11   -1    0    0    0    0  0.00000000000E+00  0.00000000000E+00  0.45593999997E+02  0.45594000000E+02  0.51100000000E-03 0. -1.
         11   -1    0    0    0    0 -0.00000000000E+00 -0.00000000000E+00 -0.45593999997E+02  0.45594000000E+02  0.51100000000E-03 0.  1.
    9900012    2    1    2    0    0  0.31913321103E+02 -0.21773556561E+02  0.19775659236E+02  0.47787256604E+02  0.19999934159E+02 0.  0.
         12    1    1    2    0    0 -0.31913321103E+02  0.21773556561E+02 -0.19775659236E+02  0.43400743396E+02  0.00000000000E+00 0. -1.
         11    1    3    3    0    0  0.75232026028E+01 -0.72132625490E+01  0.12594186232E+02  0.16347576613E+02  0.51100000000E-03 0. -1.
        -11    1    3    3    0    0  0.24873694609E+00 -0.14274569230E+01 -0.19951208506E+01  0.24657677922E+01  0.51100000000E-03 0.  1.
        -12    1    3    3    0    0  0.24141381554E+02 -0.13132837089E+02  0.91765938548E+01  0.28973912199E+02  0.00000000000E+00 0.  1.
</event>
<event>
 7    1  0.2769403E-010  0.4778727E+02  0.7816164E-02  0.1312668E+00
        -11   -1    0    0    0    0  0.00000000000E+00  0.00000000000E+00  0.45593999997E+02  0.45594000000E+02  0.51100000000E-03 0.  1.
         11   -1    0    0    0    0 -0.00000000000E+00 -0.00000000000E+00 -0.45593999997E+02  0.45594000000E+02  0.51100000000E-03 0. -1.
    9900012    2    1    2    0    0 -0.20360292428E+02  0.33875094083E+02  0.17932084245E+02  0.47787272446E+02  0.20000006389E+02 0.  0.
         12    1    1    2    0    0  0.20360292428E+02 -0.33875094083E+02 -0.17932084245E+02  0.43400727554E+02  0.00000000000E+00 0. -1.
         11    1    3    3    0    0 -0.67527948981E+01  0.10945286069E+02  0.83030604563E+01  0.15308178836E+02  0.51100000000E-03 0. -1.
        -11    1    3    3    0    0 -0.11513690966E+02  0.22843480002E+02  0.12857218733E+02  0.28630363813E+02  0.51100000000E-03 0.  1.
         12    1    3    3    0    0 -0.20938065641E+01  0.86328011515E-01 -0.32281949438E+01  0.38487297968E+01  0.00000000000E+00 0. -1.
</event>
<event>
 7    1  0.2769403E-010  0.4778727E+02  0.7816164E-02  0.1312668E+00
        -11   -1    0    0    0    0  0.00000000000E+00  0.00000000000E+00  0.45593999997E+02  0.45594000000E+02  0.51100000000E-03 0.  1.
         11   -1    0    0    0    0 -0.00000000000E+00 -0.00000000000E+00 -0.45593999997E+02  0.45594000000E+02  0.51100000000E-03 0. -1.
    9900012    2    1    2    0    0  0.19979241509E+02  0.37005632376E+02  0.10725503297E+02  0.47787270286E+02  0.19999996540E+02 0.  0.
         12    1    1    2    0    0 -0.19979241509E+02 -0.37005632376E+02 -0.10725503297E+02  0.43400729714E+02  0.00000000000E+00 0. -1.
         11    1    3    3    0    0  0.12678892961E+01  0.34683025399E+01 -0.14740894831E+01  0.39761295050E+01  0.51100000000E-03 0. -1.
        -11    1    3    3    0    0  0.17828424660E+02  0.17293610081E+02  0.27287382449E+01  0.24987350563E+02  0.51100000000E-03 0.  1.
         12    1    3    3    0    0  0.88292755293E+00  0.16243719755E+02  0.94708545350E+01  0.18823790218E+02  0.00000000000E+00 0. -1.
</event>
<event>
 7    1  0.2769403E-010  0.4778730E+02  0.7816164E-02  0.1312668E+00
        -11   -1    0    0    0    0  0.00000000000E+00  0.00000000000E+00  0.45593999997E+02  0.45594000000E+02  0.51100000000E-03 0.  1.
         11   -1    0    0    0    0 -0.00000000000E+00 -0.00000000000E+00 -0.45593999997E+02  0.45594000000E+02  0.51100000000E-03 0. -1.
    9900012    2    1    2    0    0 -0.41822585648E+01  0.20109785528E+01  0.43151892797E+02  0.47787295243E+02  0.20000110331E+02 0.  0.
         12    1    1    2    0    0  0.41822585648E+01 -0.20109785528E+01 -0.43151892797E+02  0.43400704757E+02  0.00000000000E+00 0. -1.
         11    1    3    3    0    0  0.16866557062E+01  0.73924041340E-02 -0.28796655594E+00  0.17110777648E+01  0.51100000000E-03 0. -1.
        -11    1    3    3    0    0 -0.74857471956E+01 -0.11492583238E+01  0.10499902453E+02  0.12946241059E+02  0.51100000000E-03 0.  1.
        -12    1    3    3    0    0  0.16168329246E+01  0.31528444724E+01  0.32939956900E+02  0.33129976420E+02  0.00000000000E+00 0.  1.
</event>
<event>
 7    1  0.2769403E-010  0.4778727E+02  0.7816164E-02  0.1312668E+00
        -11   -1    0    0    0    0  0.00000000000E+00  0.00000000000E+00  0.45593999997E+02  0.45594000000E+02  0.51100000000E-03 0.  1.
         11   -1    0    0    0    0 -0.00000000000E+00 -0.00000000000E+00 -0.45593999997E+02  0.45594000000E+02  0.51100000000E-03 0. -1.
    9900012    2    1    2    0    0 -0.29917354061E+02 -0.30594797447E+02  0.72480148469E+01  0.47787269314E+02  0.19999992110E+02 0.  0.
         12    1    1    2    0    0  0.29917354061E+02  0.30594797447E+02 -0.72480148469E+01  0.43400730686E+02  0.00000000000E+00 0. -1.
         11    1    3    3    0    0 -0.14194095999E+02 -0.61863030962E+01  0.14534984717E+01  0.15551699756E+02  0.51100000000E-03 0. -1.
        -11    1    3    3    0    0 -0.11943354020E+02 -0.72858909763E+01  0.43045555958E+01  0.14637524098E+02  0.51100000000E-03 0.  1.
        -12    1    3    3    0    0 -0.37799040416E+01 -0.17122603375E+02  0.14899607795E+01  0.17598045460E+02  0.00000000000E+00 0.  1.
</event>
<event>
 7    1  0.2769403E-010  0.4778725E+02  0.7816164E-02  0.1312668E+00
        -11   -1    0    0    0    0  0.00000000000E+00  0.00000000000E+00  0.45593999997E+02  0.45594000000E+02  0.51100000000E-03 0. -1.
         11   -1    0    0    0    0 -0.00000000000E+00 -0.00000000000E+00 -0.45593999997E+02  0.45594000000E+02  0.51100000000E-03 0.  1.
    9900012    2    1    2    0    0 -0.26416189720E+02  0.32694409546E+02 -0.10811346367E+02  0.47787254555E+02  0.19999924819E+02 0.  0.
         12    1    1    2    0    0  0.26416189720E+02 -0.32694409546E+02  0.10811346367E+02  0.43400745445E+02  0.00000000000E+00 0. -1.
         11    1    3    3    0    0 -0.42434356613E+01  0.16457480743E+02 -0.20831674002E+01  0.17122937987E+02  0.51100000000E-03 0.  1.
        -11    1    3    3    0    0 -0.11766030863E+01 -0.28840141901E+00  0.16098252444E+01  0.20147227551E+01  0.51100000000E-03 0. -1.
        -12    1    3    3    0    0 -0.20996150972E+02  0.16525330223E+02 -0.10338004211E+02  0.28649593814E+02  0.00000000000E+00 0.  1.
</event>
<event>
 7    1  0.2769403E-010  0.4778727E+02  0.7816164E-02  0.1312668E+00
        -11   -1    0    0    0    0  0.00000000000E+00  0.00000000000E+00  0.45593999997E+02  0.45594000000E+02  0.51100000000E-03 0.  1.
         11   -1    0    0    0    0 -0.00000000000E+00 -0.00000000000E+00 -0.45593999997E+02  0.45594000000E+02  0.51100000000E-03 0. -1.
    9900012    2    1    2    0    0  0.13236919220E+02 -0.22827214529E+02  0.34457590038E+02  0.47787271149E+02  0.20000000475E+02 0.  0.
         12    1    1    2    0    0 -0.13236919220E+02  0.22827214529E+02 -0.34457590038E+02  0.43400728851E+02  0.00000000000E+00 0. -1.
         11    1    3    3    0    0  0.58601432175E+01 -0.37566815899E+01  0.31093227653E+01  0.76237670097E+01  0.51100000000E-03 0. -1.
        -11    1    3    3    0    0  0.11570296609E+02 -0.16427400740E+02  0.26186030113E+02  0.33006657390E+02  0.51100000000E-03 0.  1.
         12    1    3    3    0    0 -0.41935206065E+01 -0.26431321987E+01  0.51622371598E+01  0.71568467492E+01  0.00000000000E+00 0. -1.
</event>
<event>
 7    1  0.2769403E-010  0.4778727E+02  0.7816164E-02  0.1312668E+00
        -11   -1    0    0    0    0  0.00000000000E+00  0.00000000000E+00  0.45593999997E+02  0.45594000000E+02  0.51100000000E-03 0.  1.
         11   -1    0    0    0    0 -0.00000000000E+00 -0.00000000000E+00 -0.45593999997E+02  0.45594000000E+02  0.51100000000E-03 0. -1.
    9900012    2    1    2    0    0 -0.38744221870E+02 -0.18787205504E+02  0.54359356730E+01  0.47787271716E+02  0.20000003062E+02 0.  0.
         12    1    1    2    0    0  0.38744221870E+02  0.18787205504E+02 -0.54359356730E+01  0.43400728284E+02  0.00000000000E+00 0. -1.
         11    1    3    3    0    0 -0.66711760306E+01 -0.58967900902E+00 -0.94736622916E+00  0.67638608796E+01  0.51100000000E-03 0. -1.
        -11    1    3    3    0    0 -0.26187149505E+02 -0.68689041612E+01  0.78112729097E+01  0.28177377953E+02  0.51100000000E-03 0.  1.
         12    1    3    3    0    0 -0.58858963342E+01 -0.11328622334E+02 -0.14279710075E+01  0.12846032884E+02  0.00000000000E+00 0. -1.
</event>
<event>
 7    1  0.2769403E-010  0.4778727E+02  0.7816164E-02  0.1312668E+00
        -11   -1    0    0    0    0  0.00000000000E+00  0.00000000000E+00  0.45593999997E+02  0.45594000000E+02  0.51100000000E-03 0.  1.
         11   -1    0    0    0    0 -0.00000000000E+00 -0.00000000000E+00 -0.45593999997E+02  0.45594000000E+02  0.51100000000E-03 0. -1.
    9900012    2    1    2    0    0 -0.38239961198E+02 -0.20418496799E+02  0.21008762132E+01  0.47787270458E+02  0.19999997324E+02 0.  0.
         12    1    1    2    0    0  0.38239961198E+02  0.20418496799E+02 -0.21008762132E+01  0.43400729542E+02  0.00000000000E+00 0. -1.
         11    1    3    3    0    0 -0.53125655206E+01 -0.10747596667E+02 -0.18884672841E+01  0.12136741551E+02  0.51100000000E-03 0. -1.
        -11    1    3    3    0    0 -0.12050730084E+02 -0.68952323581E+01  0.44665929305E+01  0.14584744684E+02  0.51100000000E-03 0.  1.
         12    1    3    3    0    0 -0.20876665593E+02 -0.27756677737E+01 -0.47724943329E+00  0.21065784222E+02  0.00000000000E+00 0. -1.
</event>
<event>
 7    1  0.2769403E-010  0.4778727E+02  0.7816164E-02  0.1312668E+00
        -11   -1    0    0    0    0  0.00000000000E+00  0.00000000000E+00  0.45593999997E+02  0.45594000000E+02  0.51100000000E-03 0.  1.
         11   -1    0    0    0    0 -0.00000000000E+00 -0.00000000000E+00 -0.45593999997E+02  0.45594000000E+02  0.51100000000E-03 0. -1.
    9900012    2    1    2    0    0  0.65131303228E+01  0.26571239364E+02  0.33692308354E+02  0.47787271087E+02  0.20000000196E+02 0.  0.
         12    1    1    2    0    0 -0.65131303228E+01 -0.26571239364E+02 -0.33692308354E+02  0.43400728913E+02  0.00000000000E+00 0. -1.
         11    1    3    3    0    0 -0.14649969051E+01 -0.14151465055E-01 -0.36745339564E-01  0.14655260752E+01  0.51100000000E-03 0. -1.
        -11    1    3    3    0    0 -0.15940030102E+00  0.22649163137E+02  0.25372458727E+02  0.34011346069E+02  0.51100000000E-03 0.  1.
        -12    1    3    3    0    0  0.81375275290E+01  0.39362276916E+01  0.83565949661E+01  0.12310398944E+02  0.00000000000E+00 0.  1.
</event>
<event>
 7    1  0.2769403E-010  0.4778727E+02  0.7816164E-02  0.1312668E+00
        -11   -1    0    0    0    0  0.00000000000E+00  0.00000000000E+00  0.45593999997E+02  0.45594000000E+02  0.51100000000E-03 0. -1.
         11   -1    0    0    0    0 -0.00000000000E+00 -0.00000000000E+00 -0.45593999997E+02  0.45594000000E+02  0.51100000000E-03 0.  1.
    9900012    2    1    2    0    0  0.32892456582E+02  0.20270711368E+02 -0.19768858566E+02  0.47787271799E+02  0.20000003443E+02 0.  0.
         12    1    1    2    0    0 -0.32892456582E+02 -0.20270711368E+02  0.19768858566E+02  0.43400728201E+02  0.00000000000E+00 0. -1.
         11    1    3    3    0    0  0.74399546053E+01  0.26698873190E+01  0.12562736109E+01  0.80037145422E+01  0.51100000000E-03 0. -1.
        -11    1    3    3    0    0  0.67613729980E+01 -0.90536787941E+00 -0.77364471430E+01  0.10314478682E+02  0.51100000000E-03 0.  1.
        -12    1    3    3    0    0  0.18691128978E+02  0.18506191929E+02 -0.13288685033E+02  0.29469078576E+02  0.00000000000E+00 0.  1.
</event>
<event>
 7    1  0.2769403E-010  0.4778727E+02  0.7816164E-02  0.1312668E+00
        -11   -1    0    0    0    0  0.00000000000E+00  0.00000000000E+00  0.45593999997E+02  0.45594000000E+02  0.51100000000E-03 0.  1.
         11   -1    0    0    0    0 -0.00000000000E+00 -0.00000000000E+00 -0.45593999997E+02  0.45594000000E+02  0.51100000000E-03 0. -1.
    9900012    2    1    2    0    0  0.39881374728E+02  0.47069339429E+01  0.16460372395E+02  0.47787272625E+02  0.20000007207E+02 0.  0.
         12    1    1    2    0    0 -0.39881374728E+02 -0.47069339429E+01 -0.16460372395E+02  0.43400727375E+02  0.00000000000E+00 0. -1.
         11    1    3    3    0    0  0.85727744397E+01 -0.36380156883E+01  0.80059299757E+01  0.12280982647E+02  0.51100000000E-03 0. -1.
        -11    1    3    3    0    0  0.21561350209E+02  0.95876371019E+00  0.87101080798E+01  0.23273956125E+02  0.51100000000E-03 0.  1.
        -12    1    3    3    0    0  0.97472500791E+01  0.73861859211E+01 -0.25566566078E+00  0.12232333853E+02  0.00000000000E+00 0.  1.
</event>
<event>
 7    1  0.2769403E-010  0.4778727E+02  0.7816164E-02  0.1312668E+00
        -11   -1    0    0    0    0  0.00000000000E+00  0.00000000000E+00  0.45593999997E+02  0.45594000000E+02  0.51100000000E-03 0. -1.
         11   -1    0    0    0    0 -0.00000000000E+00 -0.00000000000E+00 -0.45593999997E+02  0.45594000000E+02  0.51100000000E-03 0.  1.
    9900012    2    1    2    0    0 -0.16526045085E+01  0.11775080496E+02 -0.41740142321E+02  0.47787273009E+02  0.20000008958E+02 0.  0.
         12    1    1    2    0    0  0.16526045085E+01 -0.11775080496E+02  0.41740142321E+02  0.43400726991E+02  0.00000000000E+00 0. -1.
         11    1    3    3    0    0 -0.57386868496E+01  0.12700957435E+02 -0.14483533133E+02  0.20100238277E+02  0.51100000000E-03 0. -1.
        -11    1    3    3    0    0  0.14178860667E+01 -0.15079125940E+01 -0.13987034543E+02  0.14139354188E+02  0.51100000000E-03 0.  1.
         12    1    3    3    0    0  0.26681962743E+01  0.58203565540E+00 -0.13269574645E+02  0.13547680544E+02  0.00000000000E+00 0. -1.
</event>
<event>
 7    1  0.2769403E-010  0.4778727E+02  0.7816164E-02  0.1312668E+00
        -11   -1    0    0    0    0  0.00000000000E+00  0.00000000000E+00  0.45593999997E+02  0.45594000000E+02  0.51100000000E-03 0. -1.
         11   -1    0    0    0    0 -0.00000000000E+00 -0.00000000000E+00 -0.45593999997E+02  0.45594000000E+02  0.51100000000E-03 0.  1.
    9900012    2    1    2    0    0  0.87214873033E+01 -0.35022752961E+02 -0.24103223644E+02  0.47787274709E+02  0.20000016710E+02 0.  0.
         12    1    1    2    0    0 -0.87214873033E+01  0.35022752961E+02  0.24103223644E+02  0.43400725291E+02  0.00000000000E+00 0. -1.
         11    1    3    3    0    0  0.42666606861E+01 -0.76329085545E+01 -0.10532609580E+01  0.88076696871E+01  0.51100000000E-03 0.  1.
        -11    1    3    3    0    0 -0.28962200138E+01 -0.23529518349E+00 -0.55168859652E+00  0.29576704956E+01  0.51100000000E-03 0. -1.
        -12    1    3    3    0    0  0.73510466310E+01 -0.27154549223E+02 -0.22498274089E+02  0.36021934527E+02  0.00000000000E+00 0.  1.
</event>
<event>
 7    1  0.2769403E-010  0.4778727E+02  0.7816164E-02  0.1312668E+00
        -11   -1    0    0    0    0  0.00000000000E+00  0.00000000000E+00  0.45593999997E+02  0.45594000000E+02  0.51100000000E-03 0. -1.
         11   -1    0    0    0    0 -0.00000000000E+00 -0.00000000000E+00 -0.45593999997E+02  0.45594000000E+02  0.51100000000E-03 0.  1.
    9900012    2    1    2    0    0  0.28789476429E+02 -0.32126451029E+02  0.47623879411E+01  0.47787272498E+02  0.20000006627E+02 0.  0.
         12    1    1    2    0    0 -0.28789476429E+02  0.32126451029E+02 -0.47623879411E+01  0.43400727502E+02  0.00000000000E+00 0. -1.
         11    1    3    3    0    0  0.23559080983E+01 -0.58193810029E+01 -0.35232186606E+01  0.71992060823E+01  0.51100000000E-03 0. -1.
        -11    1    3    3    0    0  0.28041957033E+02 -0.23938368843E+02  0.76548321151E+01  0.37656251965E+02  0.51100000000E-03 0.  1.
        -12    1    3    3    0    0 -0.16083887025E+01 -0.23687011839E+01  0.63077448658E+00  0.29318144501E+01  0.00000000000E+00 0.  1.
</event>
<event>
 7    1  0.2769403E-010  0.4778727E+02  0.7816164E-02  0.1312668E+00
        -11   -1    0    0    0    0  0.00000000000E+00  0.00000000000E+00  0.45593999997E+02  0.45594000000E+02  0.51100000000E-03 0.  1.
         11   -1    0    0    0    0 -0.00000000000E+00 -0.00000000000E+00 -0.45593999997E+02  0.45594000000E+02  0.51100000000E-03 0. -1.
    9900012    2    1    2    0    0 -0.12972204093E+02 -0.18250991488E+02  0.37178574316E+02  0.47787272385E+02  0.20000006113E+02 0.  0.
         12    1    1    2    0    0  0.12972204093E+02  0.18250991488E+02 -0.37178574316E+02  0.43400727615E+02  0.00000000000E+00 0. -1.
         11    1    3    3    0    0 -0.33001168485E+01 -0.12077746412E+02  0.61807585282E+01  0.13962969092E+02  0.51100000000E-03 0. -1.
        -11    1    3    3    0    0 -0.70002352189E+01 -0.75320183876E+01  0.20926302226E+02  0.23316190067E+02  0.51100000000E-03 0.  1.
        -12    1    3    3    0    0 -0.26718520256E+01  0.13587733119E+01  0.10071513562E+02  0.10508113227E+02  0.00000000000E+00 0.  1.
</event>
<event>
 7    1  0.2769403E-010  0.4778727E+02  0.7816164E-02  0.1312668E+00
        -11   -1    0    0    0    0  0.00000000000E+00  0.00000000000E+00  0.45593999997E+02  0.45594000000E+02  0.51100000000E-03 0.  1.
         11   -1    0    0    0    0 -0.00000000000E+00 -0.00000000000E+00 -0.45593999997E+02  0.45594000000E+02  0.51100000000E-03 0. -1.
    9900012    2    1    2    0    0 -0.33706530666E+02 -0.23305637123E+02  0.14294760724E+02  0.47787272870E+02  0.20000008322E+02 0.  0.
         12    1    1    2    0    0  0.33706530666E+02  0.23305637123E+02 -0.14294760724E+02  0.43400727130E+02  0.00000000000E+00 0. -1.
         11    1    3    3    0    0 -0.13676885067E+02 -0.98592097179E+01  0.98738185236E+01  0.19538513093E+02  0.51100000000E-03 0. -1.
        -11    1    3    3    0    0 -0.17139149340E+02 -0.16424547586E+02  0.40564109707E+01  0.24082580296E+02  0.51100000000E-03 0.  1.
        -12    1    3    3    0    0 -0.28904962596E+01  0.29781201811E+01  0.36453122972E+00  0.41661794798E+01  0.00000000000E+00 0.  1.
</event>
<event>
 7    1  0.2769403E-010  0.4778727E+02  0.7816164E-02  0.1312668E+00
        -11   -1    0    0    0    0  0.00000000000E+00  0.00000000000E+00  0.45593999997E+02  0.45594000000E+02  0.51100000000E-03 0.  1.
         11   -1    0    0    0    0 -0.00000000000E+00 -0.00000000000E+00 -0.45593999997E+02  0.45594000000E+02  0.51100000000E-03 0. -1.
    9900012    2    1    2    0    0 -0.21159701113E+02 -0.36218875528E+02  0.11139291130E+02  0.47787266106E+02  0.19999977484E+02 0.  0.
         12    1    1    2    0    0  0.21159701113E+02  0.36218875528E+02 -0.11139291130E+02  0.43400733894E+02  0.00000000000E+00 0. -1.
         11    1    3    3    0    0  0.18726382000E+01 -0.89811101545E+01  0.56200701031E+01  0.10758824362E+02  0.51100000000E-03 0. -1.
        -11    1    3    3    0    0 -0.66176760883E+01 -0.14146475396E+02  0.22065178618E+01  0.15772923771E+02  0.51100000000E-03 0.  1.
        -12    1    3    3    0    0 -0.16414663224E+02 -0.13091289977E+02  0.33127031646E+01  0.21255517973E+02  0.00000000000E+00 0.  1.
</event>
<event>
 7    1  0.2769403E-010  0.4778727E+02  0.7816164E-02  0.1312668E+00
        -11   -1    0    0    0    0  0.00000000000E+00  0.00000000000E+00  0.45593999997E+02  0.45594000000E+02  0.51100000000E-03 0.  1.
         11   -1    0    0    0    0 -0.00000000000E+00 -0.00000000000E+00 -0.45593999997E+02  0.45594000000E+02  0.51100000000E-03 0. -1.
    9900012    2    1    2    0    0  0.35155372613E+02  0.15053074219E+02  0.20521398472E+02  0.47787273483E+02  0.20000011117E+02 0.  0.
         12    1    1    2    0    0 -0.35155372613E+02 -0.15053074219E+02 -0.20521398472E+02  0.43400726517E+02  0.00000000000E+00 0. -1.
         11    1    3    3    0    0  0.20590857017E+02  0.10518198475E+02  0.64525570573E+01  0.24005236610E+02  0.51100000000E-03 0.  1.
        -11    1    3    3    0    0  0.65983613954E+00  0.33842419972E+01 -0.64186395562E+00  0.35072021934E+01  0.51100000000E-03 0. -1.
         12    1    3    3    0    0  0.13904679456E+02  0.11506337468E+01  0.14710705370E+02  0.20274834679E+02  0.00000000000E+00 0. -1.
</event>
<event>
 7    1  0.2769403E-010  0.4778729E+02  0.7816164E-02  0.1312668E+00
        -11   -1    0    0    0    0  0.00000000000E+00  0.00000000000E+00  0.45593999997E+02  0.45594000000E+02  0.51100000000E-03 0.  1.
         11   -1    0    0    0    0 -0.00000000000E+00 -0.00000000000E+00 -0.45593999997E+02  0.45594000000E+02  0.51100000000E-03 0. -1.
    9900012    2    1    2    0    0  0.39928656238E+02  0.90296106082E+01  0.14414942516E+02  0.47787285438E+02  0.20000065628E+02 0.  0.
         12    1    1    2    0    0 -0.39928656238E+02 -0.90296106082E+01 -0.14414942516E+02  0.43400714562E+02  0.00000000000E+00 0. -1.
         11    1    3    3    0    0  0.37050019905E+01 -0.23356458798E+01  0.36935556976E+01  0.57292787834E+01  0.51100000000E-03 0. -1.
        -11    1    3    3    0    0  0.30216221239E+02  0.31176722846E+01  0.68110661159E+01  0.31130861349E+02  0.51100000000E-03 0.  1.
         12    1    3    3    0    0  0.60074330087E+01  0.82475842034E+01  0.39103207028E+01  0.10927145306E+02  0.00000000000E+00 0. -1.
</event>
<event>
 7    1  0.2953515E-010  0.4778727E+02  0.7816164E-02  0.1312668E+00
        -11   -1    0    0    0    0  0.00000000000E+00  0.00000000000E+00  0.45593999997E+02  0.45594000000E+02  0.51100000000E-03 0. -1.
         11   -1    0    0    0    0 -0.00000000000E+00 -0.00000000000E+00 -0.45593999997E+02  0.45594000000E+02  0.51100000000E-03 0.  1.
    9900012    2    1    2    0    0  0.18984365778E+02  0.18544863317E+02 -0.34341012699E+02  0.47787271289E+02  0.20000001113E+02 0.  0.
         12    1    1    2    0    0 -0.18984365778E+02 -0.18544863317E+02  0.34341012699E+02  0.43400728711E+02  0.00000000000E+00 0. -1.
         11    1    3    3    0    0 -0.10765624096E+01  0.52784681393E+01 -0.40435618877E+01  0.67358448260E+01  0.51100000000E-03 0. -1.
        -11    1    3    3    0    0  0.71069505179E+01  0.12095881044E+02 -0.20158424941E+02  0.24559747154E+02  0.51100000000E-03 0.  1.
         12    1    3    3    0    0  0.12953977670E+02  0.11705141335E+01 -0.10139025871E+02  0.16491679309E+02  0.00000000000E+00 0. -1.
</event>
<event>
 7    1  0.2769403E-010  0.4778727E+02  0.7816164E-02  0.1312668E+00
        -11   -1    0    0    0    0  0.00000000000E+00  0.00000000000E+00  0.45593999997E+02  0.45594000000E+02  0.51100000000E-03 0. -1.
         11   -1    0    0    0    0 -0.00000000000E+00 -0.00000000000E+00 -0.45593999997E+02  0.45594000000E+02  0.51100000000E-03 0.  1.
    9900012    2    1    2    0    0  0.36793266806E+02  0.15818803695E+02 -0.16722579684E+02  0.47787266090E+02  0.19999977412E+02 0.  0.
         12    1    1    2    0    0 -0.36793266806E+02 -0.15818803695E+02  0.16722579684E+02  0.43400733910E+02  0.00000000000E+00 0. -1.
         11    1    3    3    0    0  0.15957167718E+01  0.50758404154E+01 -0.21890646010E+01  0.57534747785E+01  0.51100000000E-03 0. -1.
        -11    1    3    3    0    0  0.18822016712E+01 -0.20154065655E+01  0.12447632768E+01  0.30255549296E+01  0.51100000000E-03 0.  1.
        -12    1    3    3    0    0  0.33315348363E+02  0.12758369845E+02 -0.15778278359E+02  0.39008236382E+02  0.00000000000E+00 0.  1.
</event>
<event>
 7    1  0.2769403E-010  0.4778727E+02  0.7816164E-02  0.1312668E+00
        -11   -1    0    0    0    0  0.00000000000E+00  0.00000000000E+00  0.45593999997E+02  0.45594000000E+02  0.51100000000E-03 0. -1.
         11   -1    0    0    0    0 -0.00000000000E+00 -0.00000000000E+00 -0.45593999997E+02  0.45594000000E+02  0.51100000000E-03 0.  1.
    9900012    2    1    2    0    0 -0.30136682978E+02  0.19514074756E+02 -0.24384513061E+02  0.47787271300E+02  0.20000001164E+02 0.  0.
         12    1    1    2    0    0  0.30136682978E+02 -0.19514074756E+02  0.24384513061E+02  0.43400728700E+02  0.00000000000E+00 0. -1.
         11    1    3    3    0    0 -0.91600745576E+01 -0.41292999675E+00 -0.44946519255E+01  0.10211727243E+02  0.51100000000E-03 0. -1.
        -11    1    3    3    0    0  0.10658724041E+01  0.11880834034E+01 -0.45652741898E+01  0.48362542163E+01  0.51100000000E-03 0.  1.
        -12    1    3    3    0    0 -0.22042480824E+02  0.18738921350E+02 -0.15324586945E+02  0.32739289841E+02  0.00000000000E+00 0.  1.
</event>
<event>
 7    1  0.2769403E-010  0.4778727E+02  0.7816164E-02  0.1312668E+00
        -11   -1    0    0    0    0  0.00000000000E+00  0.00000000000E+00  0.45593999997E+02  0.45594000000E+02  0.51100000000E-03 0. -1.
         11   -1    0    0    0    0 -0.00000000000E+00 -0.00000000000E+00 -0.45593999997E+02  0.45594000000E+02  0.51100000000E-03 0.  1.
    9900012    2    1    2    0    0  0.26685486228E+02 -0.23479789787E+02 -0.24903961488E+02  0.47787274182E+02  0.20000014307E+02 0.  0.
         12    1    1    2    0    0 -0.26685486228E+02  0.23479789787E+02  0.24903961488E+02  0.43400725818E+02  0.00000000000E+00 0. -1.
         11    1    3    3    0    0  0.51707789444E+01 -0.16423096339E+02 -0.93005773148E+01  0.19569256166E+02  0.51100000000E-03 0. -1.
        -11    1    3    3    0    0  0.10905868510E+01  0.10716177525E+01 -0.97406234887E+00  0.18128822377E+01  0.51100000000E-03 0.  1.
         12    1    3    3    0    0  0.20424120433E+02 -0.81283112008E+01 -0.14629321824E+02  0.26405135778E+02  0.00000000000E+00 0. -1.
</event>
<event>
 7    1  0.2769403E-010  0.4778727E+02  0.7816164E-02  0.1312668E+00
        -11   -1    0    0    0    0  0.00000000000E+00  0.00000000000E+00  0.45593999997E+02  0.45594000000E+02  0.51100000000E-03 0.  1.
         11   -1    0    0    0    0 -0.00000000000E+00 -0.00000000000E+00 -0.45593999997E+02  0.45594000000E+02  0.51100000000E-03 0. -1.
    9900012    2    1    2    0    0 -0.12638384485E+02 -0.34688093713E+01  0.41374650279E+02  0.47787273203E+02  0.20000009841E+02 0.  0.
         12    1    1    2    0    0  0.12638384485E+02  0.34688093713E+01 -0.41374650279E+02  0.43400726797E+02  0.00000000000E+00 0. -1.
         11    1    3    3    0    0 -0.38849036515E+01 -0.31389742588E+01  0.13527134663E+02  0.14419743695E+02  0.51100000000E-03 0. -1.
        -11    1    3    3    0    0 -0.80391776940E+01  0.36282618377E+01  0.27986161199E+02  0.29343106190E+02  0.51100000000E-03 0.  1.
         12    1    3    3    0    0 -0.71430313924E+00 -0.39580969502E+01 -0.13864558360E+00  0.40244233177E+01  0.00000000000E+00 0. -1.
</event>
<event>
 7    1  0.2769403E-010  0.4778727E+02  0.7816164E-02  0.1312668E+00
        -11   -1    0    0    0    0  0.00000000000E+00  0.00000000000E+00  0.45593999997E+02  0.45594000000E+02  0.51100000000E-03 0. -1.
         11   -1    0    0    0    0 -0.00000000000E+00 -0.00000000000E+00 -0.45593999997E+02  0.45594000000E+02  0.51100000000E-03 0.  1.
    9900012    2    1    2    0    0  0.37013483512E+02 -0.19772695387E+02 -0.11075460776E+02  0.47787271020E+02  0.19999999891E+02 0.  0.
         12    1    1    2    0    0 -0.37013483512E+02  0.19772695387E+02  0.11075460776E+02  0.43400728980E+02  0.00000000000E+00 0. -1.
         11    1    3    3    0    0  0.93452727342E+01 -0.83655439171E+01  0.30018187862E+01  0.12896796649E+02  0.51100000000E-03 0. -1.
        -11    1    3    3    0    0  0.16960955049E+01 -0.41633914647E+01 -0.42660637125E+01  0.61975695487E+01  0.51100000000E-03 0.  1.
        -12    1    3    3    0    0  0.25972115273E+02 -0.72437600054E+01 -0.98112158494E+01  0.28692904823E+02  0.00000000000E+00 0.  1.
</event>
<event>
 7    1  0.2769403E-010  0.4778728E+02  0.7816164E-02  0.1312668E+00
        -11   -1    0    0    0    0  0.00000000000E+00  0.00000000000E+00  0.45593999997E+02  0.45594000000E+02  0.51100000000E-03 0.  1.
         11   -1    0    0    0    0 -0.00000000000E+00 -0.00000000000E+00 -0.45593999997E+02  0.45594000000E+02  0.51100000000E-03 0. -1.
    9900012    2    1    2    0    0  0.36170867588E+02 -0.12627058326E+02  0.20392365131E+02  0.47787276277E+02  0.20000023857E+02 0.  0.
         12    1    1    2    0    0 -0.36170867588E+02  0.12627058326E+02 -0.20392365131E+02  0.43400723723E+02  0.00000000000E+00 0. -1.
         11    1    3    3    0    0  0.43735359407E+00 -0.41518038404E-01 -0.25654525141E+01  0.26027963379E+01  0.51100000000E-03 0. -1.
        -11    1    3    3    0    0  0.15395309469E+02 -0.21177864776E+01  0.12900695770E+02  0.20197240524E+02  0.51100000000E-03 0.  1.
        -12    1    3    3    0    0  0.20338204525E+02 -0.10467753810E+02  0.10057121876E+02  0.24987239415E+02  0.00000000000E+00 0.  1.
</event>
<event>
 7    1  0.2769403E-010  0.4778725E+02  0.7816164E-02  0.1312668E+00
        -11   -1    0    0    0    0  0.00000000000E+00  0.00000000000E+00  0.45593999997E+02  0.45594000000E+02  0.51100000000E-03 0.  1.
         11   -1    0    0    0    0 -0.00000000000E+00 -0.00000000000E+00 -0.45593999997E+02  0.45594000000E+02  0.51100000000E-03 0. -1.
    9900012    2    1    2    0    0  0.32862940183E+02 -0.96986681231E+01  0.26638099755E+02  0.47787247018E+02  0.19999890453E+02 0.  0.
         12    1    1    2    0    0 -0.32862940183E+02  0.96986681231E+01 -0.26638099755E+02  0.43400752982E+02  0.00000000000E+00 0. -1.
         11    1    3    3    0    0 -0.45214968363E+00 -0.47168643129E+00  0.10861118902E+01  0.12675041321E+01  0.51100000000E-03 0. -1.
        -11    1    3    3    0    0  0.14744844655E+02 -0.12987638203E+02  0.15779220608E+02  0.25200654620E+02  0.51100000000E-03 0.  1.
         12    1    3    3    0    0  0.18570245212E+02  0.37606565115E+01  0.97727672570E+01  0.21319088266E+02  0.00000000000E+00 0. -1.
</event>
<event>
 7    1  0.2769403E-010  0.4778727E+02  0.7816164E-02  0.1312668E+00
        -11   -1    0    0    0    0  0.00000000000E+00  0.00000000000E+00  0.45593999997E+02  0.45594000000E+02  0.51100000000E-03 0.  1.
         11   -1    0    0    0    0 -0.00000000000E+00 -0.00000000000E+00 -0.45593999997E+02  0.45594000000E+02  0.51100000000E-03 0. -1.
    9900012    2    1    2    0    0 -0.21719754287E+02  0.33954499052E+02  0.16092469991E+02  0.47787270484E+02  0.19999997443E+02 0.  0.
         12    1    1    2    0    0  0.21719754287E+02 -0.33954499052E+02 -0.16092469991E+02  0.43400729516E+02  0.00000000000E+00 0. -1.
         11    1    3    3    0    0 -0.40447797662E+01  0.33810752874E+01  0.17387360120E+01  0.55511365176E+01  0.51100000000E-03 0. -1.
        -11    1    3    3    0    0  0.10201789865E+01  0.10505709671E+02  0.98594788498E+01  0.14443684582E+02  0.51100000000E-03 0.  1.
        -12    1    3    3    0    0 -0.18695153507E+02  0.20067714094E+02  0.44942551297E+01  0.27792449384E+02  0.00000000000E+00 0.  1.
</event>
<event>
 7    1  0.2769403E-010  0.4778727E+02  0.7816164E-02  0.1312668E+00
        -11   -1    0    0    0    0  0.00000000000E+00  0.00000000000E+00  0.45593999997E+02  0.45594000000E+02  0.51100000000E-03 0.  1.
         11   -1    0    0    0    0 -0.00000000000E+00 -0.00000000000E+00 -0.45593999997E+02  0.45594000000E+02  0.51100000000E-03 0. -1.
    9900012    2    1    2    0    0 -0.15682497347E+02  0.14973292580E+02  0.37596316761E+02  0.47787271346E+02  0.20000001376E+02 0.  0.
         12    1    1    2    0    0  0.15682497347E+02 -0.14973292580E+02 -0.37596316761E+02  0.43400728654E+02  0.00000000000E+00 0. -1.
         11    1    3    3    0    0 -0.96802209228E+01  0.76782224119E+01  0.62278190674E+01  0.13836455728E+02  0.51100000000E-03 0. -1.
        -11    1    3    3    0    0 -0.72234801564E+01  0.22972455945E+01  0.15228962374E+02  0.17011093385E+02  0.51100000000E-03 0.  1.
        -12    1    3    3    0    0  0.12212037325E+01  0.49978245733E+01  0.16139535319E+02  0.16939722233E+02  0.00000000000E+00 0.  1.
</event>
<event>
 7    1  0.3045091E-010  0.4778727E+02  0.7816164E-02  0.1312668E+00
        -11   -1    0    0    0    0  0.00000000000E+00  0.00000000000E+00  0.45593999997E+02  0.45594000000E+02  0.51100000000E-03 0. -1.
         11   -1    0    0    0    0 -0.00000000000E+00 -0.00000000000E+00 -0.45593999997E+02  0.45594000000E+02  0.51100000000E-03 0.  1.
    9900012    2    1    2    0    0 -0.11377417624E+02 -0.39337258013E+02 -0.14379073783E+02  0.47787271174E+02  0.20000000591E+02 0.  0.
         12    1    1    2    0    0  0.11377417624E+02  0.39337258013E+02  0.14379073783E+02  0.43400728826E+02  0.00000000000E+00 0. -1.
         11    1    3    3    0    0 -0.21624170971E+01 -0.18265300943E+02 -0.95618939553E+01  0.20729859684E+02  0.51100000000E-03 0. -1.
        -11    1    3    3    0    0 -0.71660490556E+01 -0.21882014927E+02 -0.68880098704E+01  0.24033716246E+02  0.51100000000E-03 0.  1.
         12    1    3    3    0    0 -0.20489514718E+01  0.81005785696E+00  0.20708300430E+01  0.30236952446E+01  0.00000000000E+00 0. -1.
</event>
<event>
 7    1  0.2769403E-010  0.4778727E+02  0.7816164E-02  0.1312668E+00
        -11   -1    0    0    0    0  0.00000000000E+00  0.00000000000E+00  0.45593999997E+02  0.45594000000E+02  0.51100000000E-03 0.  1.
         11   -1    0    0    0    0 -0.00000000000E+00 -0.00000000000E+00 -0.45593999997E+02  0.45594000000E+02  0.51100000000E-03 0. -1.
    9900012    2    1    2    0    0  0.35141694066E+02  0.13493783415E+02  0.21600984495E+02  0.47787269778E+02  0.19999994224E+02 0.  0.
         12    1    1    2    0    0 -0.35141694066E+02 -0.13493783415E+02 -0.21600984495E+02  0.43400730222E+02  0.00000000000E+00 0. -1.
         11    1    3    3    0    0  0.46333894698E-01  0.78011906469E+00  0.64230802165E+00  0.10115791816E+01  0.51100000000E-03 0. -1.
        -11    1    3    3    0    0  0.17611696512E+02  0.16229315543E+02  0.12952343236E+02  0.27227297564E+02  0.51100000000E-03 0.  1.
        -12    1    3    3    0    0  0.17483663659E+02 -0.35156511928E+01  0.80063332372E+01  0.19548393032E+02  0.00000000000E+00 0.  1.
</event>
<event>
 7    1  0.2769403E-010  0.4778731E+02  0.7816164E-02  0.1312668E+00
        -11   -1    0    0    0    0  0.00000000000E+00  0.00000000000E+00  0.45593999997E+02  0.45594000000E+02  0.51100000000E-03 0.  1.
         11   -1    0    0    0    0 -0.00000000000E+00 -0.00000000000E+00 -0.45593999997E+02  0.45594000000E+02  0.51100000000E-03 0. -1.
    9900012    2    1    2    0    0  0.25534521689E+02 -0.22246738300E+02  0.27142041296E+02  0.47787313732E+02  0.20000194628E+02 0.  0.
         12    1    1    2    0    0 -0.25534521689E+02  0.22246738300E+02 -0.27142041296E+02  0.43400686268E+02  0.00000000000E+00 0. -1.
         11    1    3    3    0    0 -0.41316853263E+00 -0.65745015355E+01  0.32938679233E+01  0.73650760237E+01  0.51100000000E-03 0. -1.
        -11    1    3    3    0    0  0.43109250786E+01 -0.25931503945E+01  0.10926268596E+02  0.12028792528E+02  0.51100000000E-03 0.  1.
        -12    1    3    3    0    0  0.21636765143E+02 -0.13079086369E+02  0.12921904777E+02  0.28393445180E+02  0.00000000000E+00 0.  1.
</event>
<event>
 7    1  0.2769403E-010  0.4778724E+02  0.7816164E-02  0.1312668E+00
        -11   -1    0    0    0    0  0.00000000000E+00  0.00000000000E+00  0.45593999997E+02  0.45594000000E+02  0.51100000000E-03 0.  1.
         11   -1    0    0    0    0 -0.00000000000E+00 -0.00000000000E+00 -0.45593999997E+02  0.45594000000E+02  0.51100000000E-03 0. -1.
    9900012    2    1    2    0    0 -0.19068455207E+02  0.97075818507E+01  0.37759544001E+02  0.47787236268E+02  0.19999841440E+02 0.  0.
         12    1    1    2    0    0  0.19068455207E+02 -0.97075818507E+01 -0.37759544001E+02  0.43400763732E+02  0.00000000000E+00 0. -1.
         11    1    3    3    0    0 -0.13569325954E+02  0.94733581052E+01  0.25193790145E+02  0.30142962409E+02  0.51100000000E-03 0. -1.
        -11    1    3    3    0    0 -0.80500412608E+01  0.27164070917E+01  0.68617624065E+01  0.10920888946E+02  0.51100000000E-03 0.  1.
         12    1    3    3    0    0  0.25509120080E+01 -0.24821833462E+01  0.57039914493E+01  0.67233849132E+01  0.00000000000E+00 0. -1.
</event>
<event>
 7    1  0.2769403E-010  0.4778727E+02  0.7816164E-02  0.1312668E+00
        -11   -1    0    0    0    0  0.00000000000E+00  0.00000000000E+00  0.45593999997E+02  0.45594000000E+02  0.51100000000E-03 0. -1.
         11   -1    0    0    0    0 -0.00000000000E+00 -0.00000000000E+00 -0.45593999997E+02  0.45594000000E+02  0.51100000000E-03 0.  1.
    9900012    2    1    2    0    0  0.18080021079E+02  0.37951514164E+02 -0.10789745292E+02  0.47787271975E+02  0.20000004244E+02 0.  0.
         12    1    1    2    0    0 -0.18080021079E+02 -0.37951514164E+02  0.10789745292E+02  0.43400728025E+02  0.00000000000E+00 0. -1.
         11    1    3    3    0    0  0.17182190775E+01 -0.22132133118E+00  0.30665608736E+00  0.17593459429E+01  0.51100000000E-03 0. -1.
        -11    1    3    3    0    0  0.19256813484E+01 -0.52774828072E+00 -0.35004636754E+01  0.40298899622E+01  0.51100000000E-03 0.  1.
        -12    1    3    3    0    0  0.14436120654E+02  0.38700583776E+02 -0.75959377043E+01  0.41998036070E+02  0.00000000000E+00 0.  1.
</event>
<event>
 7    1  0.2769403E-010  0.4778727E+02  0.7816164E-02  0.1312668E+00
        -11   -1    0    0    0    0  0.00000000000E+00  0.00000000000E+00  0.45593999997E+02  0.45594000000E+02  0.51100000000E-03 0. -1.
         11   -1    0    0    0    0 -0.00000000000E+00 -0.00000000000E+00 -0.45593999997E+02  0.45594000000E+02  0.51100000000E-03 0.  1.
    9900012    2    1    2    0    0 -0.32398084049E+02 -0.23866431888E+02  0.16259788690E+02  0.47787272479E+02  0.20000006540E+02 0.  0.
         12    1    1    2    0    0  0.32398084049E+02  0.23866431888E+02 -0.16259788690E+02  0.43400727521E+02  0.00000000000E+00 0. -1.
         11    1    3    3    0    0 -0.76931610783E+01 -0.67420539291E+01  0.37754381968E+01  0.10903850347E+02  0.51100000000E-03 0.  1.
        -11    1    3    3    0    0 -0.70033397062E+01 -0.13897402643E+02  0.11216037991E+01  0.15602646013E+02  0.51100000000E-03 0. -1.
         12    1    3    3    0    0 -0.17701583264E+02 -0.32269753158E+01  0.11362746694E+02  0.21280776118E+02  0.00000000000E+00 0. -1.
</event>
<event>
 7    1  0.2769403E-010  0.4778727E+02  0.7816164E-02  0.1312668E+00
        -11   -1    0    0    0    0  0.00000000000E+00  0.00000000000E+00  0.45593999997E+02  0.45594000000E+02  0.51100000000E-03 0.  1.
         11   -1    0    0    0    0 -0.00000000000E+00 -0.00000000000E+00 -0.45593999997E+02  0.45594000000E+02  0.51100000000E-03 0. -1.
    9900012    2    1    2    0    0  0.27857891296E+02 -0.10553336536E+02  0.31562451039E+02  0.47787270339E+02  0.19999996784E+02 0.  0.
         12    1    1    2    0    0 -0.27857891296E+02  0.10553336536E+02 -0.31562451039E+02  0.43400729661E+02  0.00000000000E+00 0. -1.
         11    1    3    3    0    0  0.18196575126E+02 -0.13235764009E+02  0.29466896707E+02  0.37075582221E+02  0.51100000000E-03 0.  1.
        -11    1    3    3    0    0  0.15574112900E+01 -0.13077155620E+00 -0.66736509388E+00  0.16994138860E+01  0.51100000000E-03 0. -1.
        -12    1    3    3    0    0  0.81039048799E+01  0.28131990288E+01  0.27629194254E+01  0.90122742319E+01  0.00000000000E+00 0.  1.
</event>
<event>
 7    1  0.2769403E-010  0.4778728E+02  0.7816164E-02  0.1312668E+00
        -11   -1    0    0    0    0  0.00000000000E+00  0.00000000000E+00  0.45593999997E+02  0.45594000000E+02  0.51100000000E-03 0.  1.
         11   -1    0    0    0    0 -0.00000000000E+00 -0.00000000000E+00 -0.45593999997E+02  0.45594000000E+02  0.51100000000E-03 0. -1.
    9900012    2    1    2    0    0 -0.22764665791E+01  0.15837481969E+02  0.40343707878E+02  0.47787275345E+02  0.20000019609E+02 0.  0.
         12    1    1    2    0    0  0.22764665791E+01 -0.15837481969E+02 -0.40343707878E+02  0.43400724655E+02  0.00000000000E+00 0. -1.
         11    1    3    3    0    0 -0.45007647155E+01  0.31499662611E+01  0.14038173649E+02  0.15074796521E+02  0.51100000000E-03 0. -1.
        -11    1    3    3    0    0 -0.59977645769E+01  0.30875038572E+01  0.10401089336E+02  0.12397117392E+02  0.51100000000E-03 0.  1.
        -12    1    3    3    0    0  0.82220627132E+01  0.96000118509E+01  0.15904444893E+02  0.20315361433E+02  0.00000000000E+00 0.  1.
</event>
<event>
 7    1  0.2769403E-010  0.4778727E+02  0.7816164E-02  0.1312668E+00
        -11   -1    0    0    0    0  0.00000000000E+00  0.00000000000E+00  0.45593999997E+02  0.45594000000E+02  0.51100000000E-03 0.  1.
         11   -1    0    0    0    0 -0.00000000000E+00 -0.00000000000E+00 -0.45593999997E+02  0.45594000000E+02  0.51100000000E-03 0. -1.
    9900012    2    1    2    0    0 -0.12664137215E+02  0.33166112134E+02  0.24965011661E+02  0.47787272210E+02  0.20000005314E+02 0.  0.
         12    1    1    2    0    0  0.12664137215E+02 -0.33166112134E+02 -0.24965011661E+02  0.43400727790E+02  0.00000000000E+00 0. -1.
         11    1    3    3    0    0 -0.43355626768E+01  0.13718415149E+02  0.19225286685E+02  0.24012573088E+02  0.51100000000E-03 0. -1.
        -11    1    3    3    0    0  0.14350604538E+01  0.71591442211E+01  0.27198602276E+01  0.77916868779E+01  0.51100000000E-03 0.  1.
        -12    1    3    3    0    0 -0.97636349921E+01  0.12288552764E+02  0.30198647485E+01  0.15983012244E+02  0.00000000000E+00 0.  1.
</event>
<event>
 7    1  0.2769403E-010  0.4778727E+02  0.7816164E-02  0.1312668E+00
        -11   -1    0    0    0    0  0.00000000000E+00  0.00000000000E+00  0.45593999997E+02  0.45594000000E+02  0.51100000000E-03 0.  1.
         11   -1    0    0    0    0 -0.00000000000E+00 -0.00000000000E+00 -0.45593999997E+02  0.45594000000E+02  0.51100000000E-03 0. -1.
    9900012    2    1    2    0    0  0.22669740193E+02  0.32182870542E+02  0.18274818789E+02  0.47787270991E+02  0.19999999757E+02 0.  0.
         12    1    1    2    0    0 -0.22669740193E+02 -0.32182870542E+02 -0.18274818789E+02  0.43400729009E+02  0.00000000000E+00 0. -1.
         11    1    3    3    0    0  0.12589250729E+02  0.16981356196E+02  0.13037497013E-02  0.21138961520E+02  0.51100000000E-03 0. -1.
        -11    1    3    3    0    0  0.24109115480E+01  0.73185994611E+01  0.41639929558E+01  0.87586089170E+01  0.51100000000E-03 0.  1.
        -12    1    3    3    0    0  0.76695779152E+01  0.78829148849E+01  0.14109522084E+02  0.17889700554E+02  0.00000000000E+00 0.  1.
</event>
<event>
 7    1  0.2769403E-010  0.4778728E+02  0.7816164E-02  0.1312668E+00
        -11   -1    0    0    0    0  0.00000000000E+00  0.00000000000E+00  0.45593999997E+02  0.45594000000E+02  0.51100000000E-03 0.  1.
         11   -1    0    0    0    0 -0.00000000000E+00 -0.00000000000E+00 -0.45593999997E+02  0.45594000000E+02  0.51100000000E-03 0. -1.
    9900012    2    1    2    0    0 -0.29717986282E+02 -0.97015800011E+01  0.30105539914E+02  0.47787275389E+02  0.20000019810E+02 0.  0.
         12    1    1    2    0    0  0.29717986282E+02  0.97015800011E+01 -0.30105539914E+02  0.43400724611E+02  0.00000000000E+00 0. -1.
         11    1    3    3    0    0 -0.67980292059E+01 -0.29819502735E+01  0.11637957859E-01  0.74232987425E+01  0.51100000000E-03 0. -1.
        -11    1    3    3    0    0 -0.40026898577E+01 -0.26064589639E+01  0.23997311502E+00  0.47825455339E+01  0.51100000000E-03 0.  1.
        -12    1    3    3    0    0 -0.18917267219E+02 -0.41131707637E+01  0.29853928841E+02  0.35581431113E+02  0.00000000000E+00 0.  1.
</event>
<event>
 7    1  0.2861203E-010  0.4778727E+02  0.7816164E-02  0.1312668E+00
        -11   -1    0    0    0    0  0.00000000000E+00  0.00000000000E+00  0.45593999997E+02  0.45594000000E+02  0.51100000000E-03 0. -1.
         11   -1    0    0    0    0 -0.00000000000E+00 -0.00000000000E+00 -0.45593999997E+02  0.45594000000E+02  0.51100000000E-03 0.  1.
    9900012    2    1    2    0    0  0.33357513759E+02  0.25432914855E+02 -0.11138510683E+02  0.47787270716E+02  0.19999998502E+02 0.  0.
         12    1    1    2    0    0 -0.33357513759E+02 -0.25432914855E+02  0.11138510683E+02  0.43400729284E+02  0.00000000000E+00 0. -1.
         11    1    3    3    0    0  0.10039679139E+02  0.16117735788E+02 -0.11568470743E+01  0.19024060018E+02  0.51100000000E-03 0. -1.
        -11    1    3    3    0    0  0.13425219004E+02  0.10259638475E+02 -0.76927019809E+01  0.18565407374E+02  0.51100000000E-03 0.  1.
         12    1    3    3    0    0  0.98926156159E+01 -0.94445940855E+00 -0.22889616276E+01  0.10197803324E+02  0.00000000000E+00 0. -1.
</event>
<event>
 7    1  0.2769403E-010  0.4778727E+02  0.7816164E-02  0.1312668E+00
        -11   -1    0    0    0    0  0.00000000000E+00  0.00000000000E+00  0.45593999997E+02  0.45594000000E+02  0.51100000000E-03 0.  1.
         11   -1    0    0    0    0 -0.00000000000E+00 -0.00000000000E+00 -0.45593999997E+02  0.45594000000E+02  0.51100000000E-03 0. -1.
    9900012    2    1    2    0    0  0.10232613084E+02  0.50753713858E+01  0.41870725061E+02  0.47787269794E+02  0.19999994301E+02 0.  0.
         12    1    1    2    0    0 -0.10232613084E+02 -0.50753713858E+01 -0.41870725061E+02  0.43400730206E+02  0.00000000000E+00 0. -1.
         11    1    3    3    0    0 -0.12663709831E+01  0.64718262051E-01 -0.10008551627E+01  0.16154241666E+01  0.51100000000E-03 0. -1.
        -11    1    3    3    0    0  0.76679170645E+01  0.15193613481E+01  0.90638112759E+01  0.11969047001E+02  0.51100000000E-03 0.  1.
        -12    1    3    3    0    0  0.38310670027E+01  0.34912917757E+01  0.33807768948E+02  0.34202798626E+02  0.00000000000E+00 0.  1.
</event>
<event>
 7    1  0.2769403E-010  0.4778727E+02  0.7816164E-02  0.1312668E+00
        -11   -1    0    0    0    0  0.00000000000E+00  0.00000000000E+00  0.45593999997E+02  0.45594000000E+02  0.51100000000E-03 0.  1.
         11   -1    0    0    0    0 -0.00000000000E+00 -0.00000000000E+00 -0.45593999997E+02  0.45594000000E+02  0.51100000000E-03 0. -1.
    9900012    2    1    2    0    0  0.47852108174E+01 -0.42063171665E+02  0.95611018416E+01  0.47787270495E+02  0.19999997496E+02 0.  0.
         12    1    1    2    0    0 -0.47852108174E+01  0.42063171665E+02 -0.95611018416E+01  0.43400729505E+02  0.00000000000E+00 0. -1.
         11    1    3    3    0    0 -0.37227579408E+00 -0.58641703465E+01  0.27096587445E+01  0.64706517363E+01  0.51100000000E-03 0. -1.
        -11    1    3    3    0    0  0.95432998882E+01 -0.34044116409E+02  0.81013554380E+01  0.36272694896E+02  0.51100000000E-03 0.  1.
         12    1    3    3    0    0 -0.43858132767E+01 -0.21548849093E+01 -0.12499123409E+01  0.50439238625E+01  0.00000000000E+00 0. -1.
</event>
<event>
 7    1  0.2769403E-010  0.4778728E+02  0.7816164E-02  0.1312668E+00
        -11   -1    0    0    0    0  0.00000000000E+00  0.00000000000E+00  0.45593999997E+02  0.45594000000E+02  0.51100000000E-03 0. -1.
         11   -1    0    0    0    0 -0.00000000000E+00 -0.00000000000E+00 -0.45593999997E+02  0.45594000000E+02  0.51100000000E-03 0.  1.
    9900012    2    1    2    0    0 -0.13002130583E+02  0.31066121336E+02 -0.27376331081E+02  0.47787276527E+02  0.20000024995E+02 0.  0.
         12    1    1    2    0    0  0.13002130583E+02 -0.31066121336E+02  0.27376331081E+02  0.43400723473E+02  0.00000000000E+00 0. -1.
         11    1    3    3    0    0 -0.12663874465E+02  0.14601010670E+02 -0.14643315019E+02  0.24248503130E+02  0.51100000000E-03 0.  1.
        -11    1    3    3    0    0 -0.32713391675E+01  0.19968057837E+01  0.30262953250E+00  0.38445387475E+01  0.51100000000E-03 0. -1.
         12    1    3    3    0    0  0.29330830490E+01  0.14468304883E+02 -0.13035645594E+02  0.19694234649E+02  0.00000000000E+00 0. -1.
</event>
<event>
 7    1  0.2769403E-010  0.4778729E+02  0.7816164E-02  0.1312668E+00
        -11   -1    0    0    0    0  0.00000000000E+00  0.00000000000E+00  0.45593999997E+02  0.45594000000E+02  0.51100000000E-03 0. -1.
         11   -1    0    0    0    0 -0.00000000000E+00 -0.00000000000E+00 -0.45593999997E+02  0.45594000000E+02  0.51100000000E-03 0.  1.
    9900012    2    1    2    0    0  0.43353327796E+01 -0.42962790264E+02 -0.43617998729E+01  0.47787288535E+02  0.20000079746E+02 0.  0.
         12    1    1    2    0    0 -0.43353327796E+01  0.42962790264E+02  0.43617998729E+01  0.43400711465E+02  0.00000000000E+00 0. -1.
         11    1    3    3    0    0 -0.72166080317E+00 -0.24488851116E+01 -0.46061057481E+01  0.52663120899E+01  0.51100000000E-03 0. -1.
        -11    1    3    3    0    0 -0.17494320400E+01 -0.40409619660E+01 -0.29201550614E+01  0.52836722001E+01  0.51100000000E-03 0.  1.
        -12    1    3    3    0    0  0.68064256228E+01 -0.36472943186E+02  0.31644609367E+01  0.37237304245E+02  0.00000000000E+00 0.  1.
</event>
<event>
 7    1  0.2769403E-010  0.4778727E+02  0.7816164E-02  0.1312668E+00
        -11   -1    0    0    0    0  0.00000000000E+00  0.00000000000E+00  0.45593999997E+02  0.45594000000E+02  0.51100000000E-03 0. -1.
         11   -1    0    0    0    0 -0.00000000000E+00 -0.00000000000E+00 -0.45593999997E+02  0.45594000000E+02  0.51100000000E-03 0.  1.
    9900012    2    1    2    0    0 -0.35116736795E+02  0.19917749483E+02 -0.15928632107E+02  0.47787271107E+02  0.20000000286E+02 0.  0.
         12    1    1    2    0    0  0.35116736795E+02 -0.19917749483E+02  0.15928632107E+02  0.43400728893E+02  0.00000000000E+00 0. -1.
         11    1    3    3    0    0 -0.20705803695E+02  0.19752183504E+02 -0.96506280348E+01  0.30199564261E+02  0.51100000000E-03 0. -1.
        -11    1    3    3    0    0 -0.20114032050E+01  0.13998863629E+01 -0.43302429002E+01  0.49755832339E+01  0.51100000000E-03 0.  1.
        -12    1    3    3    0    0 -0.12399529895E+02 -0.12343203834E+01 -0.19477611724E+01  0.12612123612E+02  0.00000000000E+00 0.  1.
</event>
<event>
 7    1  0.2769403E-010  0.4778727E+02  0.7816164E-02  0.1312668E+00
        -11   -1    0    0    0    0  0.00000000000E+00  0.00000000000E+00  0.45593999997E+02  0.45594000000E+02  0.51100000000E-03 0.  1.
         11   -1    0    0    0    0 -0.00000000000E+00 -0.00000000000E+00 -0.45593999997E+02  0.45594000000E+02  0.51100000000E-03 0. -1.
    9900012    2    1    2    0    0  0.22055513059E+02  0.70938687627E+01  0.36699518636E+02  0.47787270761E+02  0.19999998707E+02 0.  0.
         12    1    1    2    0    0 -0.22055513059E+02 -0.70938687627E+01 -0.36699518636E+02  0.43400729239E+02  0.00000000000E+00 0. -1.
         11    1    3    3    0    0 -0.25231031698E+01  0.18070909928E+01  0.54647714992E+01  0.62845330186E+01  0.51100000000E-03 0. -1.
        -11    1    3    3    0    0  0.99988760457E+00  0.12777123066E+01  0.79822400199E+01  0.81454576272E+01  0.51100000000E-03 0.  1.
         12    1    3    3    0    0  0.23578728625E+02  0.40090654633E+01  0.23252507117E+02  0.33357280115E+02  0.00000000000E+00 0. -1.
</event>
<event>
 7    1  0.2769403E-010  0.4778727E+02  0.7816164E-02  0.1312668E+00
        -11   -1    0    0    0    0  0.00000000000E+00  0.00000000000E+00  0.45593999997E+02  0.45594000000E+02  0.51100000000E-03 0.  1.
         11   -1    0    0    0    0 -0.00000000000E+00 -0.00000000000E+00 -0.45593999997E+02  0.45594000000E+02  0.51100000000E-03 0. -1.
    9900012    2    1    2    0    0  0.32900152913E+01 -0.17719109555E+02  0.39482049254E+02  0.47787271235E+02  0.20000000868E+02 0.  0.
         12    1    1    2    0    0 -0.32900152913E+01  0.17719109555E+02 -0.39482049254E+02  0.43400728765E+02  0.00000000000E+00 0. -1.
         11    1    3    3    0    0  0.12896963127E+01 -0.39092976551E+01  0.89261322760E+01  0.98296369416E+01  0.51100000000E-03 0.  1.
        -11    1    3    3    0    0 -0.22490786070E+01 -0.94109706183E+01  0.36118555580E+01  0.10328127778E+02  0.51100000000E-03 0. -1.
         12    1    3    3    0    0  0.42493975856E+01 -0.43988412812E+01  0.26944061420E+02  0.27629506515E+02  0.00000000000E+00 0. -1.
</event>
<event>
 7    1  0.2769403E-010  0.4778727E+02  0.7816164E-02  0.1312668E+00
        -11   -1    0    0    0    0  0.00000000000E+00  0.00000000000E+00  0.45593999997E+02  0.45594000000E+02  0.51100000000E-03 0.  1.
         11   -1    0    0    0    0 -0.00000000000E+00 -0.00000000000E+00 -0.45593999997E+02  0.45594000000E+02  0.51100000000E-03 0. -1.
    9900012    2    1    2    0    0 -0.13165798740E+02  0.41227738335E+02  0.32494331126E+01  0.47787268667E+02  0.19999989160E+02 0.  0.
         12    1    1    2    0    0  0.13165798740E+02 -0.41227738335E+02 -0.32494331126E+01  0.43400731333E+02  0.00000000000E+00 0. -1.
         11    1    3    3    0    0  0.51208434426E-01  0.12826638546E+02  0.10239329473E+01  0.12867545128E+02  0.51100000000E-03 0. -1.
        -11    1    3    3    0    0  0.10872164080E+01  0.14390982942E+02  0.35217168419E+01  0.14855467658E+02  0.51100000000E-03 0.  1.
         12    1    3    3    0    0 -0.14304223583E+02  0.14010116847E+02 -0.12962166766E+01  0.20064255881E+02  0.00000000000E+00 0. -1.
</event>
<event>
 7    1  0.2769403E-010  0.4778727E+02  0.7816164E-02  0.1312668E+00
        -11   -1    0    0    0    0  0.00000000000E+00  0.00000000000E+00  0.45593999997E+02  0.45594000000E+02  0.51100000000E-03 0.  1.
         11   -1    0    0    0    0 -0.00000000000E+00 -0.00000000000E+00 -0.45593999997E+02  0.45594000000E+02  0.51100000000E-03 0. -1.
    9900012    2    1    2    0    0  0.34466720853E+02 -0.14637789324E+02  0.21940905538E+02  0.47787273526E+02  0.20000011314E+02 0.  0.
         12    1    1    2    0    0 -0.34466720853E+02  0.14637789324E+02 -0.21940905538E+02  0.43400726474E+02  0.00000000000E+00 0. -1.
         11    1    3    3    0    0  0.13512693767E+02 -0.32496972473E+00  0.88043944942E+01  0.16131207668E+02  0.51100000000E-03 0. -1.
        -11    1    3    3    0    0  0.13111993075E+02 -0.55515266893E+01  0.13866395575E+02  0.19875128615E+02  0.51100000000E-03 0.  1.
         12    1    3    3    0    0  0.78420340115E+01 -0.87612929097E+01 -0.72988453083E+00  0.11780937243E+02  0.00000000000E+00 0. -1.
</event>
<event>
 7    1  0.2769403E-010  0.4778727E+02  0.7816164E-02  0.1312668E+00
        -11   -1    0    0    0    0  0.00000000000E+00  0.00000000000E+00  0.45593999997E+02  0.45594000000E+02  0.51100000000E-03 0.  1.
         11   -1    0    0    0    0 -0.00000000000E+00 -0.00000000000E+00 -0.45593999997E+02  0.45594000000E+02  0.51100000000E-03 0. -1.
    9900012    2    1    2    0    0  0.32535249158E+02 -0.25734452269E+02  0.12760044801E+02  0.47787271727E+02  0.20000003110E+02 0.  0.
         12    1    1    2    0    0 -0.32535249158E+02  0.25734452269E+02 -0.12760044801E+02  0.43400728273E+02  0.00000000000E+00 0. -1.
         11    1    3    3    0    0  0.50721615166E+01 -0.11693668104E+02  0.71540618623E+01  0.14616747161E+02  0.51100000000E-03 0. -1.
        -11    1    3    3    0    0  0.14128692292E+02 -0.12000720739E+02  0.65185088079E+01  0.19650145075E+02  0.51100000000E-03 0.  1.
         12    1    3    3    0    0  0.13334395349E+02 -0.20400634267E+01 -0.91252586948E+00  0.13520379491E+02  0.00000000000E+00 0. -1.
</event>
<event>
 7    1  0.2769403E-010  0.4778726E+02  0.7816164E-02  0.1312668E+00
        -11   -1    0    0    0    0  0.00000000000E+00  0.00000000000E+00  0.45593999997E+02  0.45594000000E+02  0.51100000000E-03 0.  1.
         11   -1    0    0    0    0 -0.00000000000E+00 -0.00000000000E+00 -0.45593999997E+02  0.45594000000E+02  0.51100000000E-03 0. -1.
    9900012    2    1    2    0    0  0.30737877633E+02 -0.18785575615E+02  0.24205562478E+02  0.47787260059E+02  0.19999949913E+02 0.  0.
         12    1    1    2    0    0 -0.30737877633E+02  0.18785575615E+02 -0.24205562478E+02  0.43400739941E+02  0.00000000000E+00 0. -1.
         11    1    3    3    0    0  0.77190285467E+01 -0.17013569095E+01 -0.18322046150E+01  0.81138764503E+01  0.51100000000E-03 0. -1.
        -11    1    3    3    0    0  0.31733034642E+01 -0.52619856310E+00  0.65724302499E+01  0.73173478430E+01  0.51100000000E-03 0.  1.
         12    1    3    3    0    0  0.19845545622E+02 -0.16558020142E+02  0.19465336843E+02  0.32356035766E+02  0.00000000000E+00 0. -1.
</event>
<event>
 7    1  0.2769403E-010  0.4778728E+02  0.7816164E-02  0.1312668E+00
        -11   -1    0    0    0    0  0.00000000000E+00  0.00000000000E+00  0.45593999997E+02  0.45594000000E+02  0.51100000000E-03 0.  1.
         11   -1    0    0    0    0 -0.00000000000E+00 -0.00000000000E+00 -0.45593999997E+02  0.45594000000E+02  0.51100000000E-03 0. -1.
    9900012    2    1    2    0    0 -0.10537573119E+02 -0.42095247608E+02 -0.75666318438E+00  0.47787275840E+02  0.20000021864E+02 0.  0.
         12    1    1    2    0    0  0.10537573119E+02  0.42095247608E+02  0.75666318438E+00  0.43400724160E+02  0.00000000000E+00 0. -1.
         11    1    3    3    0    0 -0.74371635557E+00  0.79388519701E+00 -0.22331532151E+01  0.24840171632E+01  0.51100000000E-03 0. -1.
        -11    1    3    3    0    0 -0.20693896373E+01 -0.10193065045E+02  0.49672619020E+01  0.11526258697E+02  0.51100000000E-03 0.  1.
        -12    1    3    3    0    0 -0.77244671261E+01 -0.32696067761E+02 -0.34907718713E+01  0.33776999980E+02  0.00000000000E+00 0.  1.
</event>
<event>
 7    1  0.2769403E-010  0.4778727E+02  0.7816164E-02  0.1312668E+00
        -11   -1    0    0    0    0  0.00000000000E+00  0.00000000000E+00  0.45593999997E+02  0.45594000000E+02  0.51100000000E-03 0.  1.
         11   -1    0    0    0    0 -0.00000000000E+00 -0.00000000000E+00 -0.45593999997E+02  0.45594000000E+02  0.51100000000E-03 0. -1.
    9900012    2    1    2    0    0  0.20517960126E+02  0.30219003687E+02  0.23440317579E+02  0.47787270055E+02  0.19999995489E+02 0.  0.
         12    1    1    2    0    0 -0.20517960126E+02 -0.30219003687E+02 -0.23440317579E+02  0.43400729945E+02  0.00000000000E+00 0. -1.
         11    1    3    3    0    0  0.11651169176E+02  0.15636021131E+02  0.95063882941E+01  0.21693462578E+02  0.51100000000E-03 0. -1.
        -11    1    3    3    0    0  0.94778675260E+01  0.16634510132E+02  0.99622858282E+01  0.21582030474E+02  0.51100000000E-03 0.  1.
        -12    1    3    3    0    0 -0.61107657569E+00 -0.20515275768E+01  0.39716434563E+01  0.45117770029E+01  0.00000000000E+00 0.  1.
</event>
<event>
 7    1  0.2769403E-010  0.4778727E+02  0.7816164E-02  0.1312668E+00
        -11   -1    0    0    0    0  0.00000000000E+00  0.00000000000E+00  0.45593999997E+02  0.45594000000E+02  0.51100000000E-03 0.  1.
         11   -1    0    0    0    0 -0.00000000000E+00 -0.00000000000E+00 -0.45593999997E+02  0.45594000000E+02  0.51100000000E-03 0. -1.
    9900012    2    1    2    0    0 -0.28916357797E+02  0.31410712185E+02  0.77996552438E+01  0.47787271779E+02  0.20000003348E+02 0.  0.
         12    1    1    2    0    0  0.28916357797E+02 -0.31410712185E+02 -0.77996552438E+01  0.43400728221E+02  0.00000000000E+00 0. -1.
         11    1    3    3    0    0  0.12091854722E+01  0.38287334677E+01 -0.20561124671E+00  0.40203987015E+01  0.51100000000E-03 0. -1.
        -11    1    3    3    0    0 -0.47555615092E+01  0.49087364392E+01  0.69174711119E+01  0.97243233977E+01  0.51100000000E-03 0.  1.
        -12    1    3    3    0    0 -0.25369981760E+02  0.22673242278E+02  0.10877953786E+01  0.34042549680E+02  0.00000000000E+00 0.  1.
</event>
<event>
 7    1  0.2769403E-010  0.4778727E+02  0.7816164E-02  0.1312668E+00
        -11   -1    0    0    0    0  0.00000000000E+00  0.00000000000E+00  0.45593999997E+02  0.45594000000E+02  0.51100000000E-03 0. -1.
         11   -1    0    0    0    0 -0.00000000000E+00 -0.00000000000E+00 -0.45593999997E+02  0.45594000000E+02  0.51100000000E-03 0.  1.
    9900012    2    1    2    0    0  0.19288245888E+02 -0.99119383980E+01 -0.37594422935E+02  0.47787267425E+02  0.19999983496E+02 0.  0.
         12    1    1    2    0    0 -0.19288245888E+02  0.99119383980E+01  0.37594422935E+02  0.43400732575E+02  0.00000000000E+00 0. -1.
         11    1    3    3    0    0  0.82796801900E+01 -0.66145055911E+01 -0.13980646382E+02  0.17543182772E+02  0.51100000000E-03 0.  1.
        -11    1    3    3    0    0 -0.44146898608E+00 -0.32466720603E+01 -0.16370655850E+02  0.16695333107E+02  0.51100000000E-03 0. -1.
         12    1    3    3    0    0  0.11450034684E+02 -0.50760746611E-01 -0.72431207034E+01  0.13548751545E+02  0.00000000000E+00 0. -1.
</event>
<event>
 7    1  0.2769403E-010  0.4778727E+02  0.7816164E-02  0.1312668E+00
        -11   -1    0    0    0    0  0.00000000000E+00  0.00000000000E+00  0.45593999997E+02  0.45594000000E+02  0.51100000000E-03 0.  1.
         11   -1    0    0    0    0 -0.00000000000E+00 -0.00000000000E+00 -0.45593999997E+02  0.45594000000E+02  0.51100000000E-03 0. -1.
    9900012    2    1    2    0    0  0.17990745099E+02  0.39015248091E+02  0.61454797754E+01  0.47787269424E+02  0.19999992614E+02 0.  0.
         12    1    1    2    0    0 -0.17990745099E+02 -0.39015248091E+02 -0.61454797754E+01  0.43400730576E+02  0.00000000000E+00 0. -1.
         11    1    3    3    0    0  0.34323383991E+01  0.12561344890E+02 -0.47026700173E+01  0.13844978797E+02  0.51100000000E-03 0. -1.
        -11    1    3    3    0    0  0.92374709222E+01  0.22673751675E+02  0.46096907936E+01  0.24913432793E+02  0.51100000000E-03 0.  1.
         12    1    3    3    0    0  0.53209357779E+01  0.37801515256E+01  0.62384589991E+01  0.90288578343E+01  0.00000000000E+00 0. -1.
</event>
<event>
 7    1  0.2769403E-010  0.4778727E+02  0.7816164E-02  0.1312668E+00
        -11   -1    0    0    0    0  0.00000000000E+00  0.00000000000E+00  0.45593999997E+02  0.45594000000E+02  0.51100000000E-03 0. -1.
         11   -1    0    0    0    0 -0.00000000000E+00 -0.00000000000E+00 -0.45593999997E+02  0.45594000000E+02  0.51100000000E-03 0.  1.
    9900012    2    1    2    0    0 -0.40363208519E+02  0.14550990067E+02  0.65347750980E+01  0.47787271901E+02  0.20000003907E+02 0.  0.
         12    1    1    2    0    0  0.40363208519E+02 -0.14550990067E+02 -0.65347750980E+01  0.43400728099E+02  0.00000000000E+00 0. -1.
         11    1    3    3    0    0 -0.15442041115E+02  0.55949961850E+01  0.56763422811E+01  0.17377614280E+02  0.51100000000E-03 0. -1.
        -11    1    3    3    0    0 -0.25135366306E+02  0.73148542748E+01  0.43580674912E+01  0.26538396427E+02  0.51100000000E-03 0.  1.
        -12    1    3    3    0    0  0.21419890188E+00  0.16411396075E+01 -0.34996346743E+01  0.38712611943E+01  0.00000000000E+00 0.  1.
</event>
<event>
 7    1  0.2769403E-010  0.4778727E+02  0.7816164E-02  0.1312668E+00
        -11   -1    0    0    0    0  0.00000000000E+00  0.00000000000E+00  0.45593999997E+02  0.45594000000E+02  0.51100000000E-03 0.  1.
         11   -1    0    0    0    0 -0.00000000000E+00 -0.00000000000E+00 -0.45593999997E+02  0.45594000000E+02  0.51100000000E-03 0. -1.
    9900012    2    1    2    0    0  0.47770307216E+01  0.34151919666E+02  0.26352408802E+02  0.47787273174E+02  0.20000009707E+02 0.  0.
         12    1    1    2    0    0 -0.47770307216E+01 -0.34151919666E+02 -0.26352408802E+02  0.43400726826E+02  0.00000000000E+00 0. -1.
         11    1    3    3    0    0  0.36449802445E+01  0.62189703293E+01  0.54026102967E+01  0.90083112301E+01  0.51100000000E-03 0. -1.
        -11    1    3    3    0    0 -0.91630403630E+00  0.71395662411E+01 -0.22650895169E+01  0.75461016411E+01  0.51100000000E-03 0.  1.
        -12    1    3    3    0    0  0.20483545134E+01  0.20793383096E+02  0.23214888022E+02  0.31232860302E+02  0.00000000000E+00 0.  1.
</event>
<event>
 7    1  0.2769403E-010  0.4778726E+02  0.7816164E-02  0.1312668E+00
        -11   -1    0    0    0    0  0.00000000000E+00  0.00000000000E+00  0.45593999997E+02  0.45594000000E+02  0.51100000000E-03 0.  1.
         11   -1    0    0    0    0 -0.00000000000E+00 -0.00000000000E+00 -0.45593999997E+02  0.45594000000E+02  0.51100000000E-03 0. -1.
    9900012    2    1    2    0    0 -0.20185204351E+02 -0.12684158529E+02  0.36266980093E+02  0.47787260406E+02  0.19999951495E+02 0.  0.
         12    1    1    2    0    0  0.20185204351E+02  0.12684158529E+02 -0.36266980093E+02  0.43400739594E+02  0.00000000000E+00 0. -1.
         11    1    3    3    0    0 -0.17413094701E+01 -0.12328092583E+01 -0.16005822616E+01  0.26671785046E+01  0.51100000000E-03 0. -1.
        -11    1    3    3    0    0 -0.81055047983E+01 -0.26291344191E+01  0.24968137928E+02  0.26382180874E+02  0.51100000000E-03 0.  1.
         12    1    3    3    0    0 -0.10338390082E+02 -0.88222148512E+01  0.12899424426E+02  0.18737901027E+02  0.00000000000E+00 0. -1.
</event>
<event>
 7    1  0.2769403E-010  0.4778727E+02  0.7816164E-02  0.1312668E+00
        -11   -1    0    0    0    0  0.00000000000E+00  0.00000000000E+00  0.45593999997E+02  0.45594000000E+02  0.51100000000E-03 0.  1.
         11   -1    0    0    0    0 -0.00000000000E+00 -0.00000000000E+00 -0.45593999997E+02  0.45594000000E+02  0.51100000000E-03 0. -1.
    9900012    2    1    2    0    0 -0.16765077297E+01  0.21927393439E+01  0.43312868957E+02  0.47787269576E+02  0.19999993306E+02 0.  0.
         12    1    1    2    0    0  0.16765077297E+01 -0.21927393439E+01 -0.43312868957E+02  0.43400730424E+02  0.00000000000E+00 0. -1.
         11    1    3    3    0    0  0.12799429229E+01  0.16473639861E+01 -0.42017287974E+00  0.21280525131E+01  0.51100000000E-03 0. -1.
        -11    1    3    3    0    0  0.37192051029E+01 -0.22675399059E+01  0.72018391205E+01  0.84166923908E+01  0.51100000000E-03 0.  1.
         12    1    3    3    0    0 -0.66756557555E+01  0.28129152638E+01  0.36531202717E+02  0.37242524672E+02  0.00000000000E+00 0. -1.
</event>
<event>
 7    1  0.2769403E-010  0.4778726E+02  0.7816164E-02  0.1312668E+00
        -11   -1    0    0    0    0  0.00000000000E+00  0.00000000000E+00  0.45593999997E+02  0.45594000000E+02  0.51100000000E-03 0.  1.
         11   -1    0    0    0    0 -0.00000000000E+00 -0.00000000000E+00 -0.45593999997E+02  0.45594000000E+02  0.51100000000E-03 0. -1.
    9900012    2    1    2    0    0  0.23750203944E+02 -0.11501542174E+02  0.34456729168E+02  0.47787264468E+02  0.19999970015E+02 0.  0.
         12    1    1    2    0    0 -0.23750203944E+02  0.11501542174E+02 -0.34456729168E+02  0.43400735532E+02  0.00000000000E+00 0. -1.
         11    1    3    3    0    0  0.32447580036E+01  0.36109572390E+01  0.48074955114E+01  0.68322382890E+01  0.51100000000E-03 0. -1.
        -11    1    3    3    0    0  0.12642955546E+02 -0.17769810355E+01  0.13014577010E+02  0.18231324734E+02  0.51100000000E-03 0.  1.
         12    1    3    3    0    0  0.78624903940E+01 -0.13335518378E+02  0.16634656647E+02  0.22723701445E+02  0.00000000000E+00 0. -1.
</event>
<event>
 7    1  0.2769403E-010  0.4778727E+02  0.7816164E-02  0.1312668E+00
        -11   -1    0    0    0    0  0.00000000000E+00  0.00000000000E+00  0.45593999997E+02  0.45594000000E+02  0.51100000000E-03 0. -1.
         11   -1    0    0    0    0 -0.00000000000E+00 -0.00000000000E+00 -0.45593999997E+02  0.45594000000E+02  0.51100000000E-03 0.  1.
    9900012    2    1    2    0    0  0.36909672629E+02 -0.21257084680E+02 -0.83328017915E+01  0.47787272260E+02  0.20000005542E+02 0.  0.
         12    1    1    2    0    0 -0.36909672629E+02  0.21257084680E+02  0.83328017915E+01  0.43400727740E+02  0.00000000000E+00 0. -1.
         11    1    3    3    0    0  0.16543818997E+02 -0.15795621394E+02 -0.56065400049E+01  0.23550645285E+02  0.51100000000E-03 0. -1.
        -11    1    3    3    0    0  0.11236687906E+02 -0.23714666994E+01 -0.72589926112E+01  0.13586021618E+02  0.51100000000E-03 0.  1.
         12    1    3    3    0    0  0.91291657259E+01 -0.30899965862E+01  0.45327308246E+01  0.10650605358E+02  0.00000000000E+00 0. -1.
</event>
<event>
 7    1  0.2769403E-010  0.4778727E+02  0.7816164E-02  0.1312668E+00
        -11   -1    0    0    0    0  0.00000000000E+00  0.00000000000E+00  0.45593999997E+02  0.45594000000E+02  0.51100000000E-03 0.  1.
         11   -1    0    0    0    0 -0.00000000000E+00 -0.00000000000E+00 -0.45593999997E+02  0.45594000000E+02  0.51100000000E-03 0. -1.
    9900012    2    1    2    0    0 -0.31301403568E+02 -0.28266140342E+02  0.10240639619E+02  0.47787271262E+02  0.20000000991E+02 0.  0.
         12    1    1    2    0    0  0.31301403568E+02  0.28266140342E+02 -0.10240639619E+02  0.43400728738E+02  0.00000000000E+00 0. -1.
         11    1    3    3    0    0  0.12238109404E+01 -0.31582834921E+01  0.76757432655E+00  0.34729869626E+01  0.51100000000E-03 0. -1.
        -11    1    3    3    0    0 -0.16775325973E+01  0.16381638240E+01  0.12833432221E+01  0.26729508817E+01  0.51100000000E-03 0.  1.
        -12    1    3    3    0    0 -0.30847681911E+02 -0.26746020674E+02  0.81897220703E+01  0.41641333418E+02  0.00000000000E+00 0.  1.
</event>
<event>
 7    1  0.2769403E-010  0.4778727E+02  0.7816164E-02  0.1312668E+00
        -11   -1    0    0    0    0  0.00000000000E+00  0.00000000000E+00  0.45593999997E+02  0.45594000000E+02  0.51100000000E-03 0. -1.
         11   -1    0    0    0    0 -0.00000000000E+00 -0.00000000000E+00 -0.45593999997E+02  0.45594000000E+02  0.51100000000E-03 0.  1.
    9900012    2    1    2    0    0  0.24727412226E+02 -0.32861418822E+01 -0.35515902537E+02  0.47787274466E+02  0.20000015600E+02 0.  0.
         12    1    1    2    0    0 -0.24727412226E+02  0.32861418822E+01  0.35515902537E+02  0.43400725534E+02  0.00000000000E+00 0. -1.
         11    1    3    3    0    0  0.25329595983E+01 -0.12722351216E+01 -0.13194582362E+02  0.13495609304E+02  0.51100000000E-03 0. -1.
        -11    1    3    3    0    0  0.14799589667E+02 -0.66571076761E+01 -0.18906660406E+02  0.24915993757E+02  0.51100000000E-03 0.  1.
         12    1    3    3    0    0  0.73948629608E+01  0.46432009155E+01 -0.34146597692E+01  0.93756714048E+01  0.00000000000E+00 0. -1.
</event>
<event>
 7    1  0.2769403E-010  0.4778727E+02  0.7816164E-02  0.1312668E+00
        -11   -1    0    0    0    0  0.00000000000E+00  0.00000000000E+00  0.45593999997E+02  0.45594000000E+02  0.51100000000E-03 0.  1.
         11   -1    0    0    0    0 -0.00000000000E+00 -0.00000000000E+00 -0.45593999997E+02  0.45594000000E+02  0.51100000000E-03 0. -1.
    9900012    2    1    2    0    0 -0.40591485803E+02 -0.63914740894E+01  0.13967957010E+02  0.47787268627E+02  0.19999988977E+02 0.  0.
         12    1    1    2    0    0  0.40591485803E+02  0.63914740894E+01 -0.13967957010E+02  0.43400731373E+02  0.00000000000E+00 0. -1.
         11    1    3    3    0    0 -0.96667531299E+01 -0.10256574094E+02  0.64663821967E+01  0.15506692981E+02  0.51100000000E-03 0. -1.
        -11    1    3    3    0    0 -0.82846169948E+01  0.48516124761E+00  0.36574498601E+01  0.90690241993E+01  0.51100000000E-03 0.  1.
        -12    1    3    3    0    0 -0.22640115678E+02  0.33799387571E+01  0.38441249535E+01  0.23211551447E+02  0.00000000000E+00 0.  1.
</event>
<event>
 7    1  0.2769403E-010  0.4778727E+02  0.7816164E-02  0.1312668E+00
        -11   -1    0    0    0    0  0.00000000000E+00  0.00000000000E+00  0.45593999997E+02  0.45594000000E+02  0.51100000000E-03 0.  1.
         11   -1    0    0    0    0 -0.00000000000E+00 -0.00000000000E+00 -0.45593999997E+02  0.45594000000E+02  0.51100000000E-03 0. -1.
    9900012    2    1    2    0    0 -0.47648922192E+01  0.17420813776E+02  0.39464340964E+02  0.47787272378E+02  0.20000006078E+02 0.  0.
         12    1    1    2    0    0  0.47648922192E+01 -0.17420813776E+02 -0.39464340964E+02  0.43400727622E+02  0.00000000000E+00 0. -1.
         11    1    3    3    0    0 -0.35613246671E+01 -0.80645449114E+00  0.14816010183E+01  0.39406273701E+01  0.51100000000E-03 0. -1.
        -11    1    3    3    0    0  0.14721178668E+01 -0.31882787749E+00  0.14511914380E-01  0.15063177242E+01  0.51100000000E-03 0.  1.
        -12    1    3    3    0    0 -0.26756854189E+01  0.18546096144E+02  0.37968228031E+02  0.42340327283E+02  0.00000000000E+00 0.  1.
</event>
<event>
 7    1  0.2769403E-010  0.4778728E+02  0.7816164E-02  0.1312668E+00
        -11   -1    0    0    0    0  0.00000000000E+00  0.00000000000E+00  0.45593999997E+02  0.45594000000E+02  0.51100000000E-03 0.  1.
         11   -1    0    0    0    0 -0.00000000000E+00 -0.00000000000E+00 -0.45593999997E+02  0.45594000000E+02  0.51100000000E-03 0. -1.
    9900012    2    1    2    0    0 -0.39666576609E+02  0.16412148293E+02  0.63896016889E+01  0.47787275107E+02  0.20000018524E+02 0.  0.
         12    1    1    2    0    0  0.39666576609E+02 -0.16412148293E+02 -0.63896016889E+01  0.43400724893E+02  0.00000000000E+00 0. -1.
         11    1    3    3    0    0 -0.17125147310E+02  0.13043890698E+02  0.39000391141E+01  0.21877478381E+02  0.51100000000E-03 0. -1.
        -11    1    3    3    0    0 -0.12311648082E+01  0.23206608066E+00  0.41220329164E+01  0.43082220319E+01  0.51100000000E-03 0.  1.
        -12    1    3    3    0    0 -0.21310264491E+02  0.31361915141E+01 -0.16324703417E+01  0.21601574695E+02  0.00000000000E+00 0.  1.
</event>
<event>
 7    1  0.2769403E-010  0.4778727E+02  0.7816164E-02  0.1312668E+00
        -11   -1    0    0    0    0  0.00000000000E+00  0.00000000000E+00  0.45593999997E+02  0.45594000000E+02  0.51100000000E-03 0. -1.
         11   -1    0    0    0    0 -0.00000000000E+00 -0.00000000000E+00 -0.45593999997E+02  0.45594000000E+02  0.51100000000E-03 0.  1.
    9900012    2    1    2    0    0 -0.35683317679E+02 -0.23359974829E+02  0.80396286383E+01  0.47787271743E+02  0.20000003184E+02 0.  0.
         12    1    1    2    0    0  0.35683317679E+02  0.23359974829E+02 -0.80396286383E+01  0.43400728257E+02  0.00000000000E+00 0. -1.
         11    1    3    3    0    0 -0.51244777536E+01 -0.30360601999E+01 -0.14576894902E+00  0.59581190515E+01  0.51100000000E-03 0. -1.
        -11    1    3    3    0    0 -0.21710824822E+02 -0.61523344481E+01 -0.13257385493E+01  0.22604617152E+02  0.51100000000E-03 0.  1.
         12    1    3    3    0    0 -0.88480151035E+01 -0.14171580181E+02  0.95111361366E+01  0.19224535539E+02  0.00000000000E+00 0. -1.
</event>
<event>
 7    1  0.2769403E-010  0.4778727E+02  0.7816164E-02  0.1312668E+00
        -11   -1    0    0    0    0  0.00000000000E+00  0.00000000000E+00  0.45593999997E+02  0.45594000000E+02  0.51100000000E-03 0.  1.
         11   -1    0    0    0    0 -0.00000000000E+00 -0.00000000000E+00 -0.45593999997E+02  0.45594000000E+02  0.51100000000E-03 0. -1.
    9900012    2    1    2    0    0 -0.17459982919E+02  0.15955397292E+02  0.36389525230E+02  0.47787271288E+02  0.20000001112E+02 0.  0.
         12    1    1    2    0    0  0.17459982919E+02 -0.15955397292E+02 -0.36389525230E+02  0.43400728712E+02  0.00000000000E+00 0. -1.
         11    1    3    3    0    0 -0.10722617162E+02  0.33358814242E+01  0.45238057957E+01  0.12106504154E+02  0.51100000000E-03 0. -1.
        -11    1    3    3    0    0  0.12992195346E+01  0.49426509300E+00  0.41954048542E+01  0.44196936017E+01  0.51100000000E-03 0.  1.
        -12    1    3    3    0    0 -0.80365852908E+01  0.12125250775E+02  0.27670314580E+02  0.31261073533E+02  0.00000000000E+00 0.  1.
</event>
<event>
 7    1  0.2769403E-010  0.4778725E+02  0.7816164E-02  0.1312668E+00
        -11   -1    0    0    0    0  0.00000000000E+00  0.00000000000E+00  0.45593999997E+02  0.45594000000E+02  0.51100000000E-03 0.  1.
         11   -1    0    0    0    0 -0.00000000000E+00 -0.00000000000E+00 -0.45593999997E+02  0.45594000000E+02  0.51100000000E-03 0. -1.
    9900012    2    1    2    0    0 -0.36398627049E+02 -0.21296960474E+02  0.10256917116E+02  0.47787252020E+02  0.19999913260E+02 0.  0.
         12    1    1    2    0    0  0.36398627049E+02  0.21296960474E+02 -0.10256917116E+02  0.43400747980E+02  0.00000000000E+00 0. -1.
         11    1    3    3    0    0 -0.12650069476E+01  0.25648342793E+01  0.28703774775E+01  0.40518742061E+01  0.51100000000E-03 0. -1.
        -11    1    3    3    0    0 -0.11552358670E+02 -0.65299087097E+01  0.56365011322E+01  0.14417588005E+02  0.51100000000E-03 0.  1.
        -12    1    3    3    0    0 -0.23581261432E+02 -0.17331886043E+02  0.17500385060E+01  0.29317789809E+02  0.00000000000E+00 0.  1.
</event>
<event>
 7    1  0.2769403E-010  0.4778727E+02  0.7816164E-02  0.1312668E+00
        -11   -1    0    0    0    0  0.00000000000E+00  0.00000000000E+00  0.45593999997E+02  0.45594000000E+02  0.51100000000E-03 0.  1.
         11   -1    0    0    0    0 -0.00000000000E+00 -0.00000000000E+00 -0.45593999997E+02  0.45594000000E+02  0.51100000000E-03 0. -1.
    9900012    2    1    2    0    0  0.12423528824E+02 -0.30952762231E+02  0.27770586679E+02  0.47787273708E+02  0.20000012145E+02 0.  0.
         12    1    1    2    0    0 -0.12423528824E+02  0.30952762231E+02 -0.27770586679E+02  0.43400726292E+02  0.00000000000E+00 0. -1.
         11    1    3    3    0    0  0.13676416959E+01 -0.16104544642E+01 -0.45723315321E+00  0.21617284305E+01  0.51100000000E-03 0. -1.
        -11    1    3    3    0    0  0.62748861674E+01 -0.29076896695E+02  0.19194352672E+02  0.35401458905E+02  0.51100000000E-03 0.  1.
        -12    1    3    3    0    0  0.47810009608E+01 -0.26541107152E+00  0.90334671600E+01  0.10224086373E+02  0.00000000000E+00 0.  1.
</event>
<event>
 7    1  0.2769403E-010  0.4778727E+02  0.7816164E-02  0.1312668E+00
        -11   -1    0    0    0    0  0.00000000000E+00  0.00000000000E+00  0.45593999997E+02  0.45594000000E+02  0.51100000000E-03 0.  1.
         11   -1    0    0    0    0 -0.00000000000E+00 -0.00000000000E+00 -0.45593999997E+02  0.45594000000E+02  0.51100000000E-03 0. -1.
    9900012    2    1    2    0    0 -0.11162987209E+01  0.30576913956E+02  0.30780343507E+02  0.47787270325E+02  0.19999996720E+02 0.  0.
         12    1    1    2    0    0  0.11162987209E+01 -0.30576913956E+02 -0.30780343507E+02  0.43400729675E+02  0.00000000000E+00 0. -1.
         11    1    3    3    0    0 -0.50906058344E+01  0.71819559912E+01  0.14549746566E+02  0.17005583936E+02  0.51100000000E-03 0. -1.
        -11    1    3    3    0    0  0.68806124306E+01  0.96481395898E+01  0.95711347608E+01  0.15232729428E+02  0.51100000000E-03 0.  1.
         12    1    3    3    0    0 -0.29063053171E+01  0.13746818375E+02  0.66594621802E+01  0.15548956961E+02  0.00000000000E+00 0. -1.
</event>
<event>
 7    1  0.2769403E-010  0.4778728E+02  0.7816164E-02  0.1312668E+00
        -11   -1    0    0    0    0  0.00000000000E+00  0.00000000000E+00  0.45593999997E+02  0.45594000000E+02  0.51100000000E-03 0. -1.
         11   -1    0    0    0    0 -0.00000000000E+00 -0.00000000000E+00 -0.45593999997E+02  0.45594000000E+02  0.51100000000E-03 0.  1.
    9900012    2    1    2    0    0 -0.10995243217E+02  0.19944394820E+02 -0.36945210679E+02  0.47787275925E+02  0.20000022252E+02 0.  0.
         12    1    1    2    0    0  0.10995243217E+02 -0.19944394820E+02  0.36945210679E+02  0.43400724075E+02  0.00000000000E+00 0. -1.
         11    1    3    3    0    0 -0.48289116001E+01  0.14406113493E+02 -0.19955777849E+02  0.25081618031E+02  0.51100000000E-03 0. -1.
        -11    1    3    3    0    0  0.16636477659E+01  0.62767300251E+01 -0.43388698903E+01  0.78096642619E+01  0.51100000000E-03 0.  1.
         12    1    3    3    0    0 -0.78299793826E+01 -0.73844869804E+00 -0.12650562939E+02  0.14895993632E+02  0.00000000000E+00 0. -1.
</event>
<event>
 7    1  0.2769403E-010  0.4778727E+02  0.7816164E-02  0.1312668E+00
        -11   -1    0    0    0    0  0.00000000000E+00  0.00000000000E+00  0.45593999997E+02  0.45594000000E+02  0.51100000000E-03 0.  1.
         11   -1    0    0    0    0 -0.00000000000E+00 -0.00000000000E+00 -0.45593999997E+02  0.45594000000E+02  0.51100000000E-03 0. -1.
    9900012    2    1    2    0    0  0.26090524811E+02  0.34517052943E+02 -0.33883388554E+01  0.47787271100E+02  0.20000000254E+02 0.  0.
         12    1    1    2    0    0 -0.26090524811E+02 -0.34517052943E+02  0.33883388554E+01  0.43400728900E+02  0.00000000000E+00 0. -1.
         11    1    3    3    0    0  0.13299352828E+02  0.13458138312E+02  0.33360624774E+01  0.19212589247E+02  0.51100000000E-03 0. -1.
        -11    1    3    3    0    0  0.13183271856E+02  0.18667610014E+02 -0.16037644879E+01  0.22909613294E+02  0.51100000000E-03 0.  1.
        -12    1    3    3    0    0 -0.39209987281E+00  0.23913046173E+01 -0.51206368449E+01  0.56650685592E+01  0.00000000000E+00 0.  1.
</event>
<event>
 7    1  0.2769403E-010  0.4778727E+02  0.7816164E-02  0.1312668E+00
        -11   -1    0    0    0    0  0.00000000000E+00  0.00000000000E+00  0.45593999997E+02  0.45594000000E+02  0.51100000000E-03 0. -1.
         11   -1    0    0    0    0 -0.00000000000E+00 -0.00000000000E+00 -0.45593999997E+02  0.45594000000E+02  0.51100000000E-03 0.  1.
    9900012    2    1    2    0    0 -0.80806152513E+00  0.33607112972E+02 -0.27450538188E+02  0.47787273594E+02  0.20000011625E+02 0.  0.
         12    1    1    2    0    0  0.80806152513E+00 -0.33607112972E+02  0.27450538188E+02  0.43400726406E+02  0.00000000000E+00 0. -1.
         11    1    3    3    0    0 -0.29453001838E+01  0.40697706041E+01  0.60820800780E+00  0.50604093890E+01  0.51100000000E-03 0. -1.
        -11    1    3    3    0    0 -0.22893822148E+01  0.70359165093E+01 -0.13980331398E+02  0.15817555384E+02  0.51100000000E-03 0.  1.
        -12    1    3    3    0    0  0.44266208735E+01  0.22501425859E+02 -0.14078414797E+02  0.26909308821E+02  0.00000000000E+00 0.  1.
</event>
<event>
 7    1  0.2769403E-010  0.4778727E+02  0.7816164E-02  0.1312668E+00
        -11   -1    0    0    0    0  0.00000000000E+00  0.00000000000E+00  0.45593999997E+02  0.45594000000E+02  0.51100000000E-03 0.  1.
         11   -1    0    0    0    0 -0.00000000000E+00 -0.00000000000E+00 -0.45593999997E+02  0.45594000000E+02  0.51100000000E-03 0. -1.
    9900012    2    1    2    0    0 -0.29097883084E+02  0.32757517105E+01  0.32034449004E+02  0.47787271064E+02  0.20000000089E+02 0.  0.
         12    1    1    2    0    0  0.29097883084E+02 -0.32757517105E+01 -0.32034449004E+02  0.43400728936E+02  0.00000000000E+00 0. -1.
         11    1    3    3    0    0 -0.52797807390E+01  0.37966947350E+01  0.34917891344E+01  0.73812984754E+01  0.51100000000E-03 0.  1.
        -11    1    3    3    0    0  0.75576455002E+00 -0.68637632120E+00  0.88661900303E+01  0.89247755391E+01  0.51100000000E-03 0. -1.
        -12    1    3    3    0    0 -0.24573866895E+02  0.16543329669E+00  0.19676469839E+02  0.31481197049E+02  0.00000000000E+00 0.  1.
</event>
<event>
 7    1  0.2769403E-010  0.4778729E+02  0.7816164E-02  0.1312668E+00
        -11   -1    0    0    0    0  0.00000000000E+00  0.00000000000E+00  0.45593999997E+02  0.45594000000E+02  0.51100000000E-03 0. -1.
         11   -1    0    0    0    0 -0.00000000000E+00 -0.00000000000E+00 -0.45593999997E+02  0.45594000000E+02  0.51100000000E-03 0.  1.
    9900012    2    1    2    0    0  0.15648907390E+02  0.23938257712E+02 -0.32644957119E+02  0.47787289060E+02  0.20000082141E+02 0.  0.
         12    1    1    2    0    0 -0.15648907390E+02 -0.23938257712E+02  0.32644957119E+02  0.43400710940E+02  0.00000000000E+00 0. -1.
         11    1    3    3    0    0  0.37344605857E+00  0.84625865793E+00  0.71010468535E+00  0.11661323253E+01  0.51100000000E-03 0. -1.
        -11    1    3    3    0    0  0.18781682412E+01  0.15062519672E+02 -0.24052115155E+02  0.28441365271E+02  0.51100000000E-03 0.  1.
        -12    1    3    3    0    0  0.13397293090E+02  0.80294793817E+01 -0.93029466495E+01  0.18179791464E+02  0.00000000000E+00 0.  1.
</event>
<event>
 7    1  0.2769403E-010  0.4778727E+02  0.7816164E-02  0.1312668E+00
        -11   -1    0    0    0    0  0.00000000000E+00  0.00000000000E+00  0.45593999997E+02  0.45594000000E+02  0.51100000000E-03 0.  1.
         11   -1    0    0    0    0 -0.00000000000E+00 -0.00000000000E+00 -0.45593999997E+02  0.45594000000E+02  0.51100000000E-03 0. -1.
    9900012    2    1    2    0    0 -0.11845609136E+02 -0.37230849145E+02  0.18898900055E+02  0.47787274117E+02  0.20000014009E+02 0.  0.
         12    1    1    2    0    0  0.11845609136E+02  0.37230849145E+02 -0.18898900055E+02  0.43400725883E+02  0.00000000000E+00 0. -1.
         11    1    3    3    0    0 -0.89874030485E+01 -0.30693735842E+02  0.60127796302E+01  0.32542777273E+02  0.51100000000E-03 0. -1.
        -11    1    3    3    0    0 -0.20864722495E+01 -0.41311211220E+01  0.43840346303E+01  0.63748951422E+01  0.51100000000E-03 0.  1.
         12    1    3    3    0    0 -0.77173383831E+00 -0.24059921813E+01  0.85020857945E+01  0.88696017019E+01  0.00000000000E+00 0. -1.
</event>
<event>
 7    1  0.2769403E-010  0.4778728E+02  0.7816164E-02  0.1312668E+00
        -11   -1    0    0    0    0  0.00000000000E+00  0.00000000000E+00  0.45593999997E+02  0.45594000000E+02  0.51100000000E-03 0.  1.
         11   -1    0    0    0    0 -0.00000000000E+00 -0.00000000000E+00 -0.45593999997E+02  0.45594000000E+02  0.51100000000E-03 0. -1.
    9900012    2    1    2    0    0 -0.88944192745E+01 -0.11265193748E+01  0.42464601179E+02  0.47787284644E+02  0.20000062004E+02 0.  0.
         12    1    1    2    0    0  0.88944192745E+01  0.11265193748E+01 -0.42464601179E+02  0.43400715356E+02  0.00000000000E+00 0. -1.
         11    1    3    3    0    0 -0.38594588486E+01 -0.60483418545E+00  0.25127854356E+02  0.25429713168E+02  0.51100000000E-03 0. -1.
        -11    1    3    3    0    0 -0.43914409259E+01 -0.60764745666E+01  0.13902732747E+02  0.15795387765E+02  0.51100000000E-03 0.  1.
         12    1    3    3    0    0 -0.64351949996E+00  0.55547893772E+01  0.34340140765E+01  0.65621837105E+01  0.00000000000E+00 0. -1.
</event>
<event>
 7    1  0.2769403E-010  0.4778727E+02  0.7816164E-02  0.1312668E+00
        -11   -1    0    0    0    0  0.00000000000E+00  0.00000000000E+00  0.45593999997E+02  0.45594000000E+02  0.51100000000E-03 0.  1.
         11   -1    0    0    0    0 -0.00000000000E+00 -0.00000000000E+00 -0.45593999997E+02  0.45594000000E+02  0.51100000000E-03 0. -1.
    9900012    2    1    2    0    0  0.62248216421E+01  0.17367458584E+02  0.39284175385E+02  0.47787268925E+02  0.19999990336E+02 0.  0.
         12    1    1    2    0    0 -0.62248216421E+01 -0.17367458584E+02 -0.39284175385E+02  0.43400731075E+02  0.00000000000E+00 0. -1.
         11    1    3    3    0    0  0.51922883620E+01  0.94320907386E+01  0.78393549774E+01  0.13318396332E+02  0.51100000000E-03 0. -1.
        -11    1    3    3    0    0 -0.21187063210E+01  0.10047615846E+02  0.24267885019E+02  0.26350972358E+02  0.51100000000E-03 0.  1.
         12    1    3    3    0    0  0.31512396011E+01 -0.21122480004E+01  0.71769353892E+01  0.81179002347E+01  0.00000000000E+00 0. -1.
</event>
<event>
 7    1  0.2769403E-010  0.4778727E+02  0.7816164E-02  0.1312668E+00
        -11   -1    0    0    0    0  0.00000000000E+00  0.00000000000E+00  0.45593999997E+02  0.45594000000E+02  0.51100000000E-03 0. -1.
         11   -1    0    0    0    0 -0.00000000000E+00 -0.00000000000E+00 -0.45593999997E+02  0.45594000000E+02  0.51100000000E-03 0.  1.
    9900012    2    1    2    0    0  0.34155804567E+02  0.24164819804E+01 -0.26667673976E+02  0.47787271826E+02  0.20000003563E+02 0.  0.
         12    1    1    2    0    0 -0.34155804567E+02 -0.24164819804E+01  0.26667673976E+02  0.43400728174E+02  0.00000000000E+00 0. -1.
         11    1    3    3    0    0  0.97234124934E+01 -0.26819876425E+01 -0.63005695670E+01  0.11892644170E+02  0.51100000000E-03 0. -1.
        -11    1    3    3    0    0  0.25644878170E+02  0.72131832766E+01 -0.20234593386E+02  0.33453378888E+02  0.51100000000E-03 0.  1.
         12    1    3    3    0    0 -0.12124860965E+01 -0.21147136537E+01 -0.13251102372E+00  0.24412487671E+01  0.00000000000E+00 0. -1.
</event>
<event>
 7    1  0.2769403E-010  0.4778728E+02  0.7816164E-02  0.1312668E+00
        -11   -1    0    0    0    0  0.00000000000E+00  0.00000000000E+00  0.45593999997E+02  0.45594000000E+02  0.51100000000E-03 0.  1.
         11   -1    0    0    0    0 -0.00000000000E+00 -0.00000000000E+00 -0.45593999997E+02  0.45594000000E+02  0.51100000000E-03 0. -1.
    9900012    2    1    2    0    0  0.92317823277E+01 -0.32200645380E+02  0.27595560519E+02  0.47787281939E+02  0.20000049674E+02 0.  0.
         12    1    1    2    0    0 -0.92317823277E+01  0.32200645380E+02 -0.27595560519E+02  0.43400718061E+02  0.00000000000E+00 0. -1.
         11    1    3    3    0    0  0.29972883763E+01 -0.12422399306E+01  0.64064430338E+01  0.71811844610E+01  0.51100000000E-03 0. -1.
        -11    1    3    3    0    0 -0.41481737645E+01 -0.71288951645E+01  0.25934861854E+01  0.86460778797E+01  0.51100000000E-03 0.  1.
        -12    1    3    3    0    0  0.10382667716E+02 -0.23829510285E+02  0.18595631299E+02  0.31960019599E+02  0.00000000000E+00 0.  1.
</event>
<event>
 7    1  0.2769403E-010  0.4778727E+02  0.7816164E-02  0.1312668E+00
        -11   -1    0    0    0    0  0.00000000000E+00  0.00000000000E+00  0.45593999997E+02  0.45594000000E+02  0.51100000000E-03 0.  1.
         11   -1    0    0    0    0 -0.00000000000E+00 -0.00000000000E+00 -0.45593999997E+02  0.45594000000E+02  0.51100000000E-03 0. -1.
    9900012    2    1    2    0    0  0.24790248715E+02  0.27756789013E+02  0.22329966939E+02  0.47787271997E+02  0.20000004344E+02 0.  0.
         12    1    1    2    0    0 -0.24790248715E+02 -0.27756789013E+02 -0.22329966939E+02  0.43400728003E+02  0.00000000000E+00 0. -1.
         11    1    3    3    0    0 -0.61086647921E+00 -0.14318124926E+01  0.38999059207E+01  0.41991083960E+01  0.51100000000E-03 0. -1.
        -11    1    3    3    0    0  0.29423049433E+01  0.55516854266E+01  0.32068155421E+00  0.62913596603E+01  0.51100000000E-03 0.  1.
        -12    1    3    3    0    0  0.22458810251E+02  0.23636916079E+02  0.18109379464E+02  0.37296803941E+02  0.00000000000E+00 0.  1.
</event>
<event>
 7    1  0.2769403E-010  0.4778727E+02  0.7816164E-02  0.1312668E+00
        -11   -1    0    0    0    0  0.00000000000E+00  0.00000000000E+00  0.45593999997E+02  0.45594000000E+02  0.51100000000E-03 0. -1.
         11   -1    0    0    0    0 -0.00000000000E+00 -0.00000000000E+00 -0.45593999997E+02  0.45594000000E+02  0.51100000000E-03 0.  1.
    9900012    2    1    2    0    0 -0.14980491767E+02 -0.40084299137E+02 -0.72427111984E+01  0.47787273781E+02  0.20000012476E+02 0.  0.
         12    1    1    2    0    0  0.14980491767E+02  0.40084299137E+02  0.72427111984E+01  0.43400726219E+02  0.00000000000E+00 0. -1.
         11    1    3    3    0    0 -0.83030190856E+00 -0.43175813190E+01  0.31295862189E+01  0.53967786566E+01  0.51100000000E-03 0. -1.
        -11    1    3    3    0    0 -0.10896776909E+02 -0.19488406760E+02  0.86452659979E+00  0.22344689561E+02  0.51100000000E-03 0.  1.
        -12    1    3    3    0    0 -0.32534129496E+01 -0.16278311057E+02 -0.11236824017E+02  0.20045805563E+02  0.00000000000E+00 0.  1.
</event>
<event>
 7    1  0.2769403E-010  0.4778727E+02  0.7816164E-02  0.1312668E+00
        -11   -1    0    0    0    0  0.00000000000E+00  0.00000000000E+00  0.45593999997E+02  0.45594000000E+02  0.51100000000E-03 0.  1.
         11   -1    0    0    0    0 -0.00000000000E+00 -0.00000000000E+00 -0.45593999997E+02  0.45594000000E+02  0.51100000000E-03 0. -1.
    9900012    2    1    2    0    0 -0.16348514699E+02 -0.32166096667E+02  0.24118276226E+02  0.47787274709E+02  0.20000016710E+02 0.  0.
         12    1    1    2    0    0  0.16348514699E+02  0.32166096667E+02 -0.24118276226E+02  0.43400725291E+02  0.00000000000E+00 0. -1.
         11    1    3    3    0    0  0.84230582312E+00 -0.10030291594E+02  0.12074535424E+02  0.15719753004E+02  0.51100000000E-03 0. -1.
        -11    1    3    3    0    0 -0.68779606697E+00  0.98606250215E+00  0.10860950135E+01  0.16201806465E+01  0.51100000000E-03 0.  1.
        -12    1    3    3    0    0 -0.16503024455E+02 -0.23121867575E+02  0.10957645789E+02  0.30447341058E+02  0.00000000000E+00 0.  1.
</event>
<event>
 7    1  0.2769403E-010  0.4778727E+02  0.7816164E-02  0.1312668E+00
        -11   -1    0    0    0    0  0.00000000000E+00  0.00000000000E+00  0.45593999997E+02  0.45594000000E+02  0.51100000000E-03 0.  1.
         11   -1    0    0    0    0 -0.00000000000E+00 -0.00000000000E+00 -0.45593999997E+02  0.45594000000E+02  0.51100000000E-03 0. -1.
    9900012    2    1    2    0    0  0.19189747385E+02 -0.32092141416E+02  0.22033418723E+02  0.47787268601E+02  0.19999988859E+02 0.  0.
         12    1    1    2    0    0 -0.19189747385E+02  0.32092141416E+02 -0.22033418723E+02  0.43400731399E+02  0.00000000000E+00 0. -1.
         11    1    3    3    0    0  0.83323261458E+01 -0.98872998228E+01  0.14855061468E+02  0.19694141471E+02  0.51100000000E-03 0. -1.
        -11    1    3    3    0    0  0.46282364026E+01 -0.16982578972E+02  0.89903256540E+01  0.19764982073E+02  0.51100000000E-03 0.  1.
        -12    1    3    3    0    0  0.62291848363E+01 -0.52222626215E+01 -0.18119683991E+01  0.83281450571E+01  0.00000000000E+00 0.  1.
</event>
<event>
 7    1  0.2769403E-010  0.4778728E+02  0.7816164E-02  0.1312668E+00
        -11   -1    0    0    0    0  0.00000000000E+00  0.00000000000E+00  0.45593999997E+02  0.45594000000E+02  0.51100000000E-03 0. -1.
         11   -1    0    0    0    0 -0.00000000000E+00 -0.00000000000E+00 -0.45593999997E+02  0.45594000000E+02  0.51100000000E-03 0.  1.
    9900012    2    1    2    0    0  0.54818828689E+01 -0.38616512095E+02 -0.19035142382E+02  0.47787277752E+02  0.20000030580E+02 0.  0.
         12    1    1    2    0    0 -0.54818828689E+01  0.38616512095E+02  0.19035142382E+02  0.43400722248E+02  0.00000000000E+00 0. -1.
         11    1    3    3    0    0 -0.57390727305E+01 -0.11644307806E+02 -0.51638768211E+01  0.13971130383E+02  0.51100000000E-03 0. -1.
        -11    1    3    3    0    0 -0.79898901839E-01 -0.35742938544E+01  0.12077890538E+01  0.37736871958E+01  0.51100000000E-03 0.  1.
        -12    1    3    3    0    0  0.11300854501E+02 -0.23397910435E+02 -0.15079054615E+02  0.30042460173E+02  0.00000000000E+00 0.  1.
</event>
<event>
 7    1  0.2769403E-010  0.4778727E+02  0.7816164E-02  0.1312668E+00
        -11   -1    0    0    0    0  0.00000000000E+00  0.00000000000E+00  0.45593999997E+02  0.45594000000E+02  0.51100000000E-03 0.  1.
         11   -1    0    0    0    0 -0.00000000000E+00 -0.00000000000E+00 -0.45593999997E+02  0.45594000000E+02  0.51100000000E-03 0. -1.
    9900012    2    1    2    0    0  0.17948673195E+02 -0.16272861122E+02  0.36009203736E+02  0.47787266916E+02  0.19999981176E+02 0.  0.
         12    1    1    2    0    0 -0.17948673195E+02  0.16272861122E+02 -0.36009203736E+02  0.43400733084E+02  0.00000000000E+00 0. -1.
         11    1    3    3    0    0 -0.15903258099E+01 -0.47927187552E+01  0.56783031717E+01  0.75988430974E+01  0.51100000000E-03 0. -1.
        -11    1    3    3    0    0  0.34410732183E+01 -0.70462518872E+01  0.35023252958E+01  0.85881856810E+01  0.51100000000E-03 0.  1.
        -12    1    3    3    0    0  0.16097925787E+02 -0.44338904800E+01  0.26828575268E+02  0.31600238137E+02  0.00000000000E+00 0.  1.
</event>
<event>
 7    1  0.2769403E-010  0.4778726E+02  0.7816164E-02  0.1312668E+00
        -11   -1    0    0    0    0  0.00000000000E+00  0.00000000000E+00  0.45593999997E+02  0.45594000000E+02  0.51100000000E-03 0.  1.
         11   -1    0    0    0    0 -0.00000000000E+00 -0.00000000000E+00 -0.45593999997E+02  0.45594000000E+02  0.51100000000E-03 0. -1.
    9900012    2    1    2    0    0  0.34862579647E+02  0.61855751953E+01  0.25099064839E+02  0.47787264339E+02  0.19999969425E+02 0.  0.
         12    1    1    2    0    0 -0.34862579647E+02 -0.61855751953E+01 -0.25099064839E+02  0.43400735661E+02  0.00000000000E+00 0. -1.
         11    1    3    3    0    0 -0.10802375348E+01 -0.29393951986E+01  0.23573128326E+00  0.31404660107E+01  0.51100000000E-03 0. -1.
        -11    1    3    3    0    0  0.12663295055E+02  0.32184491836E+01  0.87609107235E+01  0.15731211452E+02  0.51100000000E-03 0.  1.
         12    1    3    3    0    0  0.23279522127E+02  0.59065212104E+01  0.16102422832E+02  0.28915586876E+02  0.00000000000E+00 0. -1.
</event>
<event>
 7    1  0.2769403E-010  0.4778727E+02  0.7816164E-02  0.1312668E+00
        -11   -1    0    0    0    0  0.00000000000E+00  0.00000000000E+00  0.45593999997E+02  0.45594000000E+02  0.51100000000E-03 0.  1.
         11   -1    0    0    0    0 -0.00000000000E+00 -0.00000000000E+00 -0.45593999997E+02  0.45594000000E+02  0.51100000000E-03 0. -1.
    9900012    2    1    2    0    0 -0.16369963054E+02  0.39665132428E+02  0.65057695682E+01  0.47787268916E+02  0.19999990298E+02 0.  0.
         12    1    1    2    0    0  0.16369963054E+02 -0.39665132428E+02 -0.65057695682E+01  0.43400731084E+02  0.00000000000E+00 0. -1.
         11    1    3    3    0    0 -0.16033225353E+01  0.28623828393E+01 -0.18393248335E+01  0.37612490977E+01  0.51100000000E-03 0. -1.
        -11    1    3    3    0    0 -0.18054639545E+02  0.30125734674E+02  0.97545064659E+01  0.36451067137E+02  0.51100000000E-03 0.  1.
        -12    1    3    3    0    0  0.32879990265E+01  0.66770149145E+01 -0.14094120642E+01  0.75749526819E+01  0.00000000000E+00 0.  1.
</event>
<event>
 7    1  0.2769403E-010  0.4778727E+02  0.7816164E-02  0.1312668E+00
        -11   -1    0    0    0    0  0.00000000000E+00  0.00000000000E+00  0.45593999997E+02  0.45594000000E+02  0.51100000000E-03 0.  1.
         11   -1    0    0    0    0 -0.00000000000E+00 -0.00000000000E+00 -0.45593999997E+02  0.45594000000E+02  0.51100000000E-03 0. -1.
    9900012    2    1    2    0    0  0.20022643504E+02 -0.23061713253E+02  0.30836253614E+02  0.47787269500E+02  0.19999992956E+02 0.  0.
         12    1    1    2    0    0 -0.20022643504E+02  0.23061713253E+02 -0.30836253614E+02  0.43400730500E+02  0.00000000000E+00 0. -1.
         11    1    3    3    0    0  0.88821136782E+01 -0.82771689397E+01  0.85334995023E+01  0.14839948890E+02  0.51100000000E-03 0. -1.
        -11    1    3    3    0    0  0.99775057012E+01 -0.14283316302E+02  0.90483173100E+01  0.19632518712E+02  0.51100000000E-03 0.  1.
         12    1    3    3    0    0  0.11630241243E+01 -0.50122801191E+00  0.13254436801E+02  0.13314801897E+02  0.00000000000E+00 0. -1.
</event>
<event>
 7    1  0.2970453E-010  0.4778727E+02  0.7816164E-02  0.1312668E+00
        -11   -1    0    0    0    0  0.00000000000E+00  0.00000000000E+00  0.45593999997E+02  0.45594000000E+02  0.51100000000E-03 0.  1.
         11   -1    0    0    0    0 -0.00000000000E+00 -0.00000000000E+00 -0.45593999997E+02  0.45594000000E+02  0.51100000000E-03 0. -1.
    9900012    2    1    2    0    0 -0.34391166363E+02  0.21878401930E+02 -0.14906587410E+02  0.47787272552E+02  0.20000006872E+02 0.  0.
         12    1    1    2    0    0  0.34391166363E+02 -0.21878401930E+02  0.14906587410E+02  0.43400727448E+02  0.00000000000E+00 0. -1.
         11    1    3    3    0    0 -0.78049410772E+01  0.27567509756E+01 -0.94098001577E+01  0.12532402819E+02  0.51100000000E-03 0. -1.
        -11    1    3    3    0    0 -0.12924866053E+02  0.13199666733E+02 -0.80434783811E+01  0.20148967941E+02  0.51100000000E-03 0.  1.
         12    1    3    3    0    0 -0.13661359234E+02  0.59219842209E+01  0.25466911288E+01  0.15105901791E+02  0.00000000000E+00 0. -1.
</event>
<event>
 7    1  0.2769403E-010  0.4778727E+02  0.7816164E-02  0.1312668E+00
        -11   -1    0    0    0    0  0.00000000000E+00  0.00000000000E+00  0.45593999997E+02  0.45594000000E+02  0.51100000000E-03 0.  1.
         11   -1    0    0    0    0 -0.00000000000E+00 -0.00000000000E+00 -0.45593999997E+02  0.45594000000E+02  0.51100000000E-03 0. -1.
    9900012    2    1    2    0    0 -0.14954797049E+02  0.31219008036E+02  0.26179208887E+02  0.47787269644E+02  0.19999993614E+02 0.  0.
         12    1    1    2    0    0  0.14954797049E+02 -0.31219008036E+02 -0.26179208887E+02  0.43400730356E+02  0.00000000000E+00 0. -1.
         11    1    3    3    0    0  0.11886114507E+01 -0.80113313154E+00  0.53080415116E-01  0.14343741725E+01  0.51100000000E-03 0. -1.
        -11    1    3    3    0    0  0.93918727838E+00 -0.43391941368E+00 -0.37967921648E+00  0.11020505297E+01  0.51100000000E-03 0.  1.
        -12    1    3    3    0    0 -0.17082595778E+02  0.32454060581E+02  0.26505807689E+02  0.45250844941E+02  0.00000000000E+00 0.  1.
</event>
<event>
 7    1  0.2769403E-010  0.4778727E+02  0.7816164E-02  0.1312668E+00
        -11   -1    0    0    0    0  0.00000000000E+00  0.00000000000E+00  0.45593999997E+02  0.45594000000E+02  0.51100000000E-03 0.  1.
         11   -1    0    0    0    0 -0.00000000000E+00 -0.00000000000E+00 -0.45593999997E+02  0.45594000000E+02  0.51100000000E-03 0. -1.
    9900012    2    1    2    0    0 -0.11641950737E+02 -0.25050486763E+02  0.33474787293E+02  0.47787270878E+02  0.19999999240E+02 0.  0.
         12    1    1    2    0    0  0.11641950737E+02  0.25050486763E+02 -0.33474787293E+02  0.43400729122E+02  0.00000000000E+00 0. -1.
         11    1    3    3    0    0 -0.56333249942E+01 -0.75304104431E+01  0.33297867736E+01  0.99764178015E+01  0.51100000000E-03 0. -1.
        -11    1    3    3    0    0 -0.50670687684E+01 -0.54895581527E+01  0.29013218119E+01  0.80142437655E+01  0.51100000000E-03 0.  1.
        -12    1    3    3    0    0 -0.94155697419E+00 -0.12030518168E+02  0.27243678707E+02  0.29796609311E+02  0.00000000000E+00 0.  1.
</event>
<event>
 7    1  0.2769403E-010  0.4778727E+02  0.7816164E-02  0.1312668E+00
        -11   -1    0    0    0    0  0.00000000000E+00  0.00000000000E+00  0.45593999997E+02  0.45594000000E+02  0.51100000000E-03 0. -1.
         11   -1    0    0    0    0 -0.00000000000E+00 -0.00000000000E+00 -0.45593999997E+02  0.45594000000E+02  0.51100000000E-03 0.  1.
    9900012    2    1    2    0    0  0.23567731228E+02  0.98082892258E+01 -0.35099614150E+02  0.47787269520E+02  0.19999993047E+02 0.  0.
         12    1    1    2    0    0 -0.23567731228E+02 -0.98082892258E+01  0.35099614150E+02  0.43400730480E+02  0.00000000000E+00 0. -1.
         11    1    3    3    0    0  0.31321384995E+01  0.88543617899E+01 -0.12239757155E+02  0.15427950925E+02  0.51100000000E-03 0. -1.
        -11    1    3    3    0    0  0.44360364519E+01  0.26276524217E+01 -0.10553712924E+01  0.52627735537E+01  0.51100000000E-03 0.  1.
        -12    1    3    3    0    0  0.15999556277E+02 -0.16737249857E+01 -0.21804485703E+02  0.27096545041E+02  0.00000000000E+00 0.  1.
</event>
<event>
 7    1  0.2769403E-010  0.4778727E+02  0.7816164E-02  0.1312668E+00
        -11   -1    0    0    0    0  0.00000000000E+00  0.00000000000E+00  0.45593999997E+02  0.45594000000E+02  0.51100000000E-03 0.  1.
         11   -1    0    0    0    0 -0.00000000000E+00 -0.00000000000E+00 -0.45593999997E+02  0.45594000000E+02  0.51100000000E-03 0. -1.
    9900012    2    1    2    0    0  0.78524543833E+01  0.40280022300E+02  0.14123809421E+02  0.47787271563E+02  0.20000002363E+02 0.  0.
         12    1    1    2    0    0 -0.78524543833E+01 -0.40280022300E+02 -0.14123809421E+02  0.43400728437E+02  0.00000000000E+00 0. -1.
         11    1    3    3    0    0  0.67374264917E+01  0.19781143347E+02  0.28102249044E+01  0.21085158574E+02  0.51100000000E-03 0. -1.
        -11    1    3    3    0    0  0.17823257154E+01  0.21433820619E+02  0.75937968221E+01  0.22809013606E+02  0.51100000000E-03 0.  1.
         12    1    3    3    0    0 -0.66729782371E+00 -0.93494166525E+00  0.37197876946E+01  0.38930993817E+01  0.00000000000E+00 0. -1.
</event>
<event>
 7    1  0.2769403E-010  0.4778727E+02  0.7816164E-02  0.1312668E+00
        -11   -1    0    0    0    0  0.00000000000E+00  0.00000000000E+00  0.45593999997E+02  0.45594000000E+02  0.51100000000E-03 0.  1.
         11   -1    0    0    0    0 -0.00000000000E+00 -0.00000000000E+00 -0.45593999997E+02  0.45594000000E+02  0.51100000000E-03 0. -1.
    9900012    2    1    2    0    0 -0.38561633483E+02  0.12023902244E+01 -0.19879084396E+02  0.47787270564E+02  0.19999997811E+02 0.  0.
         12    1    1    2    0    0  0.38561633483E+02 -0.12023902244E+01  0.19879084396E+02  0.43400729436E+02  0.00000000000E+00 0. -1.
         11    1    3    3    0    0 -0.52012854465E+01  0.41610826395E+01 -0.24987718268E+01  0.71141998800E+01  0.51100000000E-03 0. -1.
        -11    1    3    3    0    0 -0.16442650062E+02  0.59977181211E+01 -0.99973386851E+01  0.20156392157E+02  0.51100000000E-03 0.  1.
         12    1    3    3    0    0 -0.16917697974E+02 -0.89564105361E+01 -0.73829738840E+01  0.20516678528E+02  0.00000000000E+00 0. -1.
</event>
<event>
 7    1  0.2769403E-010  0.4778725E+02  0.7816164E-02  0.1312668E+00
        -11   -1    0    0    0    0  0.00000000000E+00  0.00000000000E+00  0.45593999997E+02  0.45594000000E+02  0.51100000000E-03 0.  1.
         11   -1    0    0    0    0 -0.00000000000E+00 -0.00000000000E+00 -0.45593999997E+02  0.45594000000E+02  0.51100000000E-03 0. -1.
    9900012    2    1    2    0    0  0.30930049352E+02 -0.98220200993E+01  0.28818131152E+02  0.47787254444E+02  0.19999924311E+02 0.  0.
         12    1    1    2    0    0 -0.30930049352E+02  0.98220200993E+01 -0.28818131152E+02  0.43400745556E+02  0.00000000000E+00 0. -1.
         11    1    3    3    0    0  0.82910655158E+01 -0.10055718343E+02  0.14223957308E+02  0.19291972438E+02  0.51100000000E-03 0. -1.
        -11    1    3    3    0    0  0.49652128447E+01 -0.37717090456E+01  0.25535328483E+01  0.67379268315E+01  0.51100000000E-03 0.  1.
        -12    1    3    3    0    0  0.17673770991E+02  0.40054072890E+01  0.12040640996E+02  0.21757355174E+02  0.00000000000E+00 0.  1.
</event>
<event>
 7    1  0.2769403E-010  0.4778727E+02  0.7816164E-02  0.1312668E+00
        -11   -1    0    0    0    0  0.00000000000E+00  0.00000000000E+00  0.45593999997E+02  0.45594000000E+02  0.51100000000E-03 0.  1.
         11   -1    0    0    0    0 -0.00000000000E+00 -0.00000000000E+00 -0.45593999997E+02  0.45594000000E+02  0.51100000000E-03 0. -1.
    9900012    2    1    2    0    0 -0.23348242012E+02  0.23080402684E+01  0.36512406657E+02  0.47787270803E+02  0.19999998901E+02 0.  0.
         12    1    1    2    0    0  0.23348242012E+02 -0.23080402684E+01 -0.36512406657E+02  0.43400729197E+02  0.00000000000E+00 0. -1.
         11    1    3    3    0    0 -0.21985064950E+02 -0.51841200339E+01  0.23857371117E+02  0.32854106871E+02  0.51100000000E-03 0.  1.
        -11    1    3    3    0    0  0.59867165393E+00  0.22793161886E+01  0.38891176497E+01  0.45474087557E+01  0.51100000000E-03 0. -1.
        -12    1    3    3    0    0 -0.19618487152E+01  0.52128441137E+01  0.87659178906E+01  0.10385755177E+02  0.00000000000E+00 0.  1.
</event>
<event>
 7    1  0.2769403E-010  0.4778727E+02  0.7816164E-02  0.1312668E+00
        -11   -1    0    0    0    0  0.00000000000E+00  0.00000000000E+00  0.45593999997E+02  0.45594000000E+02  0.51100000000E-03 0.  1.
         11   -1    0    0    0    0 -0.00000000000E+00 -0.00000000000E+00 -0.45593999997E+02  0.45594000000E+02  0.51100000000E-03 0. -1.
    9900012    2    1    2    0    0 -0.98625847532E+01  0.68584935835E+01  0.41705080239E+02  0.47787271550E+02  0.20000002304E+02 0.  0.
         12    1    1    2    0    0  0.98625847532E+01 -0.68584935835E+01 -0.41705080239E+02  0.43400728450E+02  0.00000000000E+00 0. -1.
         11    1    3    3    0    0  0.29468672531E+01 -0.47125463204E+00  0.13481647570E+02  0.13808002354E+02  0.51100000000E-03 0.  1.
        -11    1    3    3    0    0 -0.23552797846E+01 -0.32662304428E+01  0.55714813094E+01  0.68743733105E+01  0.51100000000E-03 0. -1.
        -12    1    3    3    0    0 -0.10454172222E+02  0.10595978658E+02  0.22651951359E+02  0.27104895885E+02  0.00000000000E+00 0.  1.
</event>
<event>
 7    1  0.2769403E-010  0.4778727E+02  0.7816164E-02  0.1312668E+00
        -11   -1    0    0    0    0  0.00000000000E+00  0.00000000000E+00  0.45593999997E+02  0.45594000000E+02  0.51100000000E-03 0.  1.
         11   -1    0    0    0    0 -0.00000000000E+00 -0.00000000000E+00 -0.45593999997E+02  0.45594000000E+02  0.51100000000E-03 0. -1.
    9900012    2    1    2    0    0 -0.93955212367E+01  0.10796576274E+02  0.40972933729E+02  0.47787272162E+02  0.20000005095E+02 0.  0.
         12    1    1    2    0    0  0.93955212367E+01 -0.10796576274E+02 -0.40972933729E+02  0.43400727838E+02  0.00000000000E+00 0. -1.
         11    1    3    3    0    0 -0.15882099409E+01  0.12167609240E+01  0.22154907221E+02  0.22245063097E+02  0.51100000000E-03 0.  1.
        -11    1    3    3    0    0 -0.44564980658E+01 -0.20751210041E+01  0.74116033400E+01  0.88937262451E+01  0.51100000000E-03 0. -1.
         12    1    3    3    0    0 -0.33508132300E+01  0.11654936354E+02  0.11406423168E+02  0.16648482820E+02  0.00000000000E+00 0. -1.
</event>
<event>
 7    1  0.2769403E-010  0.4778724E+02  0.7816164E-02  0.1312668E+00
        -11   -1    0    0    0    0  0.00000000000E+00  0.00000000000E+00  0.45593999997E+02  0.45594000000E+02  0.51100000000E-03 0. -1.
         11   -1    0    0    0    0 -0.00000000000E+00 -0.00000000000E+00 -0.45593999997E+02  0.45594000000E+02  0.51100000000E-03 0.  1.
    9900012    2    1    2    0    0 -0.35912336432E+02  0.22383825419E+02 -0.96381758941E+01  0.47787239835E+02  0.19999857701E+02 0.  0.
         12    1    1    2    0    0  0.35912336432E+02 -0.22383825419E+02  0.96381758941E+01  0.43400760165E+02  0.00000000000E+00 0. -1.
         11    1    3    3    0    0 -0.78156290235E+01  0.20469391873E+01  0.24171650395E+01  0.84330720475E+01  0.51100000000E-03 0. -1.
        -11    1    3    3    0    0 -0.26323509224E+01  0.14499471919E+01  0.30093352843E+01  0.42529657126E+01  0.51100000000E-03 0.  1.
        -12    1    3    3    0    0 -0.25464356486E+02  0.18886939039E+02 -0.15064676218E+02  0.35101202075E+02  0.00000000000E+00 0.  1.
</event>
<event>
 7    1  0.2769403E-010  0.4778727E+02  0.7816164E-02  0.1312668E+00
        -11   -1    0    0    0    0  0.00000000000E+00  0.00000000000E+00  0.45593999997E+02  0.45594000000E+02  0.51100000000E-03 0.  1.
         11   -1    0    0    0    0 -0.00000000000E+00 -0.00000000000E+00 -0.45593999997E+02  0.45594000000E+02  0.51100000000E-03 0. -1.
    9900012    2    1    2    0    0 -0.22722882190E+01  0.43336089024E+02  0.66574319454E+00  0.47787272821E+02  0.20000008099E+02 0.  0.
         12    1    1    2    0    0  0.22722882190E+01 -0.43336089024E+02 -0.66574319454E+00  0.43400727179E+02  0.00000000000E+00 0. -1.
         11    1    3    3    0    0  0.39315741776E+01  0.45521308320E+01 -0.45929004337E+01  0.75679525157E+01  0.51100000000E-03 0. -1.
        -11    1    3    3    0    0  0.47570353947E+00  0.12759942910E+02  0.37559996608E+01  0.13309769744E+02  0.51100000000E-03 0.  1.
         12    1    3    3    0    0 -0.66795659361E+01  0.26024015282E+02  0.15026439674E+01  0.26909550561E+02  0.00000000000E+00 0. -1.
</event>
<event>
 7    1  0.2769403E-010  0.4778727E+02  0.7816164E-02  0.1312668E+00
        -11   -1    0    0    0    0  0.00000000000E+00  0.00000000000E+00  0.45593999997E+02  0.45594000000E+02  0.51100000000E-03 0.  1.
         11   -1    0    0    0    0 -0.00000000000E+00 -0.00000000000E+00 -0.45593999997E+02  0.45594000000E+02  0.51100000000E-03 0. -1.
    9900012    2    1    2    0    0 -0.17449197604E+02  0.39736927833E+02 -0.35369755882E+00  0.47787273825E+02  0.20000012675E+02 0.  0.
         12    1    1    2    0    0  0.17449197604E+02 -0.39736927833E+02  0.35369755882E+00  0.43400726175E+02  0.00000000000E+00 0. -1.
         11    1    3    3    0    0  0.17132624741E+01  0.49609745502E+01  0.14498641963E+01  0.54450567712E+01  0.51100000000E-03 0. -1.
        -11    1    3    3    0    0 -0.74367108879E+01  0.20376790374E+02 -0.74467858760E+01  0.22934098520E+02  0.51100000000E-03 0.  1.
        -12    1    3    3    0    0 -0.11725749190E+02  0.14399162909E+02  0.56432241210E+01  0.19408118534E+02  0.00000000000E+00 0.  1.
</event>
<event>
 7    1  0.2769403E-010  0.4778726E+02  0.7816164E-02  0.1312668E+00
        -11   -1    0    0    0    0  0.00000000000E+00  0.00000000000E+00  0.45593999997E+02  0.45594000000E+02  0.51100000000E-03 0.  1.
         11   -1    0    0    0    0 -0.00000000000E+00 -0.00000000000E+00 -0.45593999997E+02  0.45594000000E+02  0.51100000000E-03 0. -1.
    9900012    2    1    2    0    0 -0.18668735551E+02  0.22810994275E+02  0.31855308596E+02  0.47787264607E+02  0.19999970650E+02 0.  0.
         12    1    1    2    0    0  0.18668735551E+02 -0.22810994275E+02 -0.31855308596E+02  0.43400735393E+02  0.00000000000E+00 0. -1.
         11    1    3    3    0    0 -0.19348336609E+01  0.76656480502E+01  0.59410738320E+01  0.98894944190E+01  0.51100000000E-03 0. -1.
        -11    1    3    3    0    0 -0.17241374834E+02  0.17703659845E+02  0.21427965044E+02  0.32708443318E+02  0.51100000000E-03 0.  1.
         12    1    3    3    0    0  0.50747294384E+00 -0.25583136201E+01  0.44862697199E+01  0.51893268703E+01  0.00000000000E+00 0. -1.
</event>
<event>
 7    1  0.2769403E-010  0.4778727E+02  0.7816164E-02  0.1312668E+00
        -11   -1    0    0    0    0  0.00000000000E+00  0.00000000000E+00  0.45593999997E+02  0.45594000000E+02  0.51100000000E-03 0.  1.
         11   -1    0    0    0    0 -0.00000000000E+00 -0.00000000000E+00 -0.45593999997E+02  0.45594000000E+02  0.51100000000E-03 0. -1.
    9900012    2    1    2    0    0 -0.94545399419E+01 -0.31988326746E+02  0.27766559439E+02  0.47787271935E+02  0.20000004060E+02 0.  0.
         12    1    1    2    0    0  0.94545399419E+01  0.31988326746E+02 -0.27766559439E+02  0.43400728065E+02  0.00000000000E+00 0. -1.
         11    1    3    3    0    0 -0.25669801194E+01 -0.58252773480E+00  0.82345589811E+01  0.86450383093E+01  0.51100000000E-03 0. -1.
        -11    1    3    3    0    0 -0.20940276627E+01 -0.10403090247E+02  0.12683114334E+02  0.16536947360E+02  0.51100000000E-03 0.  1.
        -12    1    3    3    0    0 -0.47935321597E+01 -0.21002708764E+02  0.68488861245E+01  0.22605286265E+02  0.00000000000E+00 0.  1.
</event>
<event>
 7    1  0.2769403E-010  0.4778727E+02  0.7816164E-02  0.1312668E+00
        -11   -1    0    0    0    0  0.00000000000E+00  0.00000000000E+00  0.45593999997E+02  0.45594000000E+02  0.51100000000E-03 0.  1.
         11   -1    0    0    0    0 -0.00000000000E+00 -0.00000000000E+00 -0.45593999997E+02  0.45594000000E+02  0.51100000000E-03 0. -1.
    9900012    2    1    2    0    0 -0.17886840408E+02 -0.34736753779E+02  0.18895561302E+02  0.47787270055E+02  0.19999995487E+02 0.  0.
         12    1    1    2    0    0  0.17886840408E+02  0.34736753779E+02 -0.18895561302E+02  0.43400729945E+02  0.00000000000E+00 0. -1.
         11    1    3    3    0    0 -0.85723277456E+01 -0.17027526553E+02  0.54168523219E+01  0.19818268159E+02  0.51100000000E-03 0. -1.
        -11    1    3    3    0    0 -0.93666995966E+01 -0.50743243168E+01  0.18799654814E+01  0.10817490424E+02  0.51100000000E-03 0.  1.
         12    1    3    3    0    0  0.52186934623E-01 -0.12634902909E+02  0.11598743499E+02  0.17151511471E+02  0.00000000000E+00 0. -1.
</event>
<event>
 7    1  0.2769403E-010  0.4778727E+02  0.7816164E-02  0.1312668E+00
        -11   -1    0    0    0    0  0.00000000000E+00  0.00000000000E+00  0.45593999997E+02  0.45594000000E+02  0.51100000000E-03 0. -1.
         11   -1    0    0    0    0 -0.00000000000E+00 -0.00000000000E+00 -0.45593999997E+02  0.45594000000E+02  0.51100000000E-03 0.  1.
    9900012    2    1    2    0    0  0.36557268634E+02 -0.22852830813E+02 -0.49937667092E+01  0.47787268761E+02  0.19999989590E+02 0.  0.
         12    1    1    2    0    0 -0.36557268634E+02  0.22852830813E+02  0.49937667092E+01  0.43400731239E+02  0.00000000000E+00 0. -1.
         11    1    3    3    0    0  0.13592526490E+02 -0.14419094754E+02 -0.50943097304E+01  0.20460182350E+02  0.51100000000E-03 0. -1.
        -11    1    3    3    0    0 -0.12988025715E+01 -0.16446714520E+01  0.38125059902E+00  0.21300668030E+01  0.51100000000E-03 0.  1.
        -12    1    3    3    0    0  0.24263544715E+02 -0.67890646069E+01 -0.28070757779E+00  0.25197019608E+02  0.00000000000E+00 0.  1.
</event>
<event>
 7    1  0.2769403E-010  0.4778727E+02  0.7816164E-02  0.1312668E+00
        -11   -1    0    0    0    0  0.00000000000E+00  0.00000000000E+00  0.45593999997E+02  0.45594000000E+02  0.51100000000E-03 0.  1.
         11   -1    0    0    0    0 -0.00000000000E+00 -0.00000000000E+00 -0.45593999997E+02  0.45594000000E+02  0.51100000000E-03 0. -1.
    9900012    2    1    2    0    0  0.23928365929E+02  0.14888165933E+02  0.33006047026E+02  0.47787270499E+02  0.19999997515E+02 0.  0.
         12    1    1    2    0    0 -0.23928365929E+02 -0.14888165933E+02 -0.33006047026E+02  0.43400729501E+02  0.00000000000E+00 0. -1.
         11    1    3    3    0    0  0.72422513492E+01  0.15484048358E+01  0.29300771926E+01  0.79644908661E+01  0.51100000000E-03 0. -1.
        -11    1    3    3    0    0  0.10880203371E+02  0.99079019576E+00  0.20244095271E+02  0.23003997136E+02  0.51100000000E-03 0.  1.
        -12    1    3    3    0    0  0.58059112086E+01  0.12348970901E+02  0.98318745624E+01  0.16818782497E+02  0.00000000000E+00 0.  1.
</event>
<event>
 7    1 -0.2769403E-010  0.4778727E+02  0.7816164E-02  0.1312668E+00
        -11   -1    0    0    0    0  0.00000000000E+00  0.00000000000E+00  0.45593999997E+02  0.45594000000E+02  0.51100000000E-03 0.  1.
         11   -1    0    0    0    0 -0.00000000000E+00 -0.00000000000E+00 -0.45593999997E+02  0.45594000000E+02  0.51100000000E-03 0. -1.
    9900012    2    1    2    0    0  0.25225174695E+02  0.62775512714E+01  0.34754943543E+02  0.47787272021E+02  0.20000004454E+02 0.  0.
         12    1    1    2    0    0 -0.25225174695E+02 -0.62775512714E+01 -0.34754943543E+02  0.43400727979E+02  0.00000000000E+00 0. -1.
         11    1    3    3    0    0  0.56731786630E+01  0.27814994369E+01  0.16881471702E+01  0.65399951368E+01  0.51100000000E-03 0. -1.
        -11    1    3    3    0    0  0.69396245780E+01  0.78300667173E+01  0.20027448263E+02  0.22595730090E+02  0.51100000000E-03 0.  1.
        -12    1    3    3    0    0  0.12612371455E+02 -0.43340148827E+01  0.13039348110E+02  0.18651546795E+02  0.00000000000E+00 0.  1.
</event>
<event>
 7    1  0.2769403E-010  0.4778727E+02  0.7816164E-02  0.1312668E+00
        -11   -1    0    0    0    0  0.00000000000E+00  0.00000000000E+00  0.45593999997E+02  0.45594000000E+02  0.51100000000E-03 0.  1.
         11   -1    0    0    0    0 -0.00000000000E+00 -0.00000000000E+00 -0.45593999997E+02  0.45594000000E+02  0.51100000000E-03 0. -1.
    9900012    2    1    2    0    0 -0.34690777847E+02 -0.22099595487E+02 -0.13848519803E+02  0.47787266262E+02  0.19999978193E+02 0.  0.
         12    1    1    2    0    0  0.34690777847E+02  0.22099595487E+02  0.13848519803E+02  0.43400733738E+02  0.00000000000E+00 0. -1.
         11    1    3    3    0    0 -0.64554552929E+01  0.12459212437E+01 -0.79347623324E+01  0.10304643435E+02  0.51100000000E-03 0. -1.
        -11    1    3    3    0    0 -0.40702582070E+01 -0.12766125317E+01 -0.10926239587E+01  0.44034723576E+01  0.51100000000E-03 0.  1.
         12    1    3    3    0    0 -0.24165064347E+02 -0.22068904199E+02 -0.48211335117E+01  0.33079150469E+02  0.00000000000E+00 0. -1.
</event>
<event>
 7    1  0.2769403E-010  0.4778727E+02  0.7816164E-02  0.1312668E+00
        -11   -1    0    0    0    0  0.00000000000E+00  0.00000000000E+00  0.45593999997E+02  0.45594000000E+02  0.51100000000E-03 0.  1.
         11   -1    0    0    0    0 -0.00000000000E+00 -0.00000000000E+00 -0.45593999997E+02  0.45594000000E+02  0.51100000000E-03 0. -1.
    9900012    2    1    2    0    0  0.31239712529E+02  0.26184508722E+02  0.14902193493E+02  0.47787268361E+02  0.19999987766E+02 0.  0.
         12    1    1    2    0    0 -0.31239712529E+02 -0.26184508722E+02 -0.14902193493E+02  0.43400731639E+02  0.00000000000E+00 0. -1.
         11    1    3    3    0    0  0.47924147591E+01 -0.14001604013E+01 -0.95163925635E+00  0.50826475294E+01  0.51100000000E-03 0. -1.
        -11    1    3    3    0    0  0.71382474734E+01  0.68534972580E+01 -0.65076785003E+00  0.99170812597E+01  0.51100000000E-03 0.  1.
        -12    1    3    3    0    0  0.19309050296E+02  0.20731171865E+02  0.16504600600E+02  0.32787539572E+02  0.00000000000E+00 0.  1.
</event>
<event>
 7    1  0.2769403E-010  0.4778727E+02  0.7816164E-02  0.1312668E+00
        -11   -1    0    0    0    0  0.00000000000E+00  0.00000000000E+00  0.45593999997E+02  0.45594000000E+02  0.51100000000E-03 0. -1.
         11   -1    0    0    0    0 -0.00000000000E+00 -0.00000000000E+00 -0.45593999997E+02  0.45594000000E+02  0.51100000000E-03 0.  1.
    9900012    2    1    2    0    0 -0.23888118164E+02 -0.43125221165E+01 -0.35977536264E+02  0.47787272448E+02  0.20000006399E+02 0.  0.
         12    1    1    2    0    0  0.23888118164E+02  0.43125221165E+01  0.35977536264E+02  0.43400727552E+02  0.00000000000E+00 0. -1.
         11    1    3    3    0    0  0.26791530007E+00  0.11628668643E+00  0.80775018062E+00  0.85893062401E+00  0.51100000000E-03 0. -1.
        -11    1    3    3    0    0 -0.68538170566E+01 -0.42150907321E+01 -0.24281336283E+02  0.25579778929E+02  0.51100000000E-03 0.  1.
        -12    1    3    3    0    0 -0.17302216407E+02 -0.21371807087E+00 -0.12503950162E+02  0.21348562895E+02  0.00000000000E+00 0.  1.
</event>
<event>
 7    1  0.2769403E-010  0.4778727E+02  0.7816164E-02  0.1312668E+00
        -11   -1    0    0    0    0  0.00000000000E+00  0.00000000000E+00  0.45593999997E+02  0.45594000000E+02  0.51100000000E-03 0. -1.
         11   -1    0    0    0    0 -0.00000000000E+00 -0.00000000000E+00 -0.45593999997E+02  0.45594000000E+02  0.51100000000E-03 0.  1.
    9900012    2    1    2    0    0 -0.32870563604E+02 -0.28220501267E+02 -0.25985972324E+01  0.47787270156E+02  0.19999995950E+02 0.  0.
         12    1    1    2    0    0  0.32870563604E+02  0.28220501267E+02  0.25985972324E+01  0.43400729844E+02  0.00000000000E+00 0. -1.
         11    1    3    3    0    0 -0.10377408547E+02 -0.28191043429E+01  0.17694155423E+01  0.10898109426E+02  0.51100000000E-03 0. -1.
        -11    1    3    3    0    0 -0.18757476829E+02 -0.12697590413E+02 -0.62912603183E+01  0.23508545168E+02  0.51100000000E-03 0.  1.
         12    1    3    3    0    0 -0.37356782283E+01 -0.12703806511E+02  0.19232475435E+01  0.13380615562E+02  0.00000000000E+00 0. -1.
</event>
<event>
 7    1  0.2769403E-010  0.4778725E+02  0.7816164E-02  0.1312668E+00
        -11   -1    0    0    0    0  0.00000000000E+00  0.00000000000E+00  0.45593999997E+02  0.45594000000E+02  0.51100000000E-03 0.  1.
         11   -1    0    0    0    0 -0.00000000000E+00 -0.00000000000E+00 -0.45593999997E+02  0.45594000000E+02  0.51100000000E-03 0. -1.
    9900012    2    1    2    0    0  0.31034533042E+02  0.27505981357E+02  0.12802485258E+02  0.47787252537E+02  0.19999915618E+02 0.  0.
         12    1    1    2    0    0 -0.31034533042E+02 -0.27505981357E+02 -0.12802485258E+02  0.43400747463E+02  0.00000000000E+00 0. -1.
         11    1    3    3    0    0  0.30527030346E+01  0.12598633088E+02  0.83483622762E+01  0.15418810086E+02  0.51100000000E-03 0. -1.
        -11    1    3    3    0    0  0.93023240949E+01  0.52980496840E+01 -0.73595101256E+00  0.10730525997E+02  0.51100000000E-03 0.  1.
        -12    1    3    3    0    0  0.18679505912E+02  0.96092985855E+01  0.51900739943E+01  0.21637916454E+02  0.00000000000E+00 0.  1.
</event>
<event>
 7    1  0.2769403E-010  0.4778727E+02  0.7816164E-02  0.1312668E+00
        -11   -1    0    0    0    0  0.00000000000E+00  0.00000000000E+00  0.45593999997E+02  0.45594000000E+02  0.51100000000E-03 0. -1.
         11   -1    0    0    0    0 -0.00000000000E+00 -0.00000000000E+00 -0.45593999997E+02  0.45594000000E+02  0.51100000000E-03 0.  1.
    9900012    2    1    2    0    0  0.38763689847E+02  0.19265913629E+02 -0.31343655930E+01  0.47787270442E+02  0.19999997253E+02 0.  0.
         12    1    1    2    0    0 -0.38763689847E+02 -0.19265913629E+02  0.31343655930E+01  0.43400729558E+02  0.00000000000E+00 0. -1.
         11    1    3    3    0    0  0.47200730924E+01  0.59416914560E+01  0.13127330537E+01  0.77010425065E+01  0.51100000000E-03 0. -1.
        -11    1    3    3    0    0  0.21818742746E+02  0.11943735157E+02 -0.97143087927E+01  0.26703522991E+02  0.51100000000E-03 0.  1.
         12    1    3    3    0    0  0.12224874008E+02  0.13804870153E+01  0.52672101461E+01  0.13382704945E+02  0.00000000000E+00 0. -1.
</event>
<event>
 7    1  0.2769403E-010  0.4778728E+02  0.7816164E-02  0.1312668E+00
        -11   -1    0    0    0    0  0.00000000000E+00  0.00000000000E+00  0.45593999997E+02  0.45594000000E+02  0.51100000000E-03 0. -1.
         11   -1    0    0    0    0 -0.00000000000E+00 -0.00000000000E+00 -0.45593999997E+02  0.45594000000E+02  0.51100000000E-03 0.  1.
    9900012    2    1    2    0    0 -0.40908686899E+02  0.85060317866E+01  0.11736649504E+02  0.47787283622E+02  0.20000057345E+02 0.  0.
         12    1    1    2    0    0  0.40908686899E+02 -0.85060317866E+01 -0.11736649504E+02  0.43400716378E+02  0.00000000000E+00 0. -1.
         11    1    3    3    0    0 -0.13923574295E+02 -0.17127475874E+00  0.22126584204E+01  0.14099330258E+02  0.51100000000E-03 0. -1.
        -11    1    3    3    0    0 -0.20233626062E+02 -0.44440408658E+00  0.26276909486E+01  0.20408377657E+02  0.51100000000E-03 0.  1.
         12    1    3    3    0    0 -0.67514865421E+01  0.91217106319E+01  0.68963001350E+01  0.13279575706E+02  0.00000000000E+00 0. -1.
</event>
<event>
 7    1  0.2769403E-010  0.4778727E+02  0.7816164E-02  0.1312668E+00
        -11   -1    0    0    0    0  0.00000000000E+00  0.00000000000E+00  0.45593999997E+02  0.45594000000E+02  0.51100000000E-03 0. -1.
         11   -1    0    0    0    0 -0.00000000000E+00 -0.00000000000E+00 -0.45593999997E+02  0.45594000000E+02  0.51100000000E-03 0.  1.
    9900012    2    1    2    0    0 -0.91196511061E+00  0.42276004724E+02  0.97740012987E+01  0.47787270085E+02  0.19999995624E+02 0.  0.
         12    1    1    2    0    0  0.91196511061E+00 -0.42276004724E+02 -0.97740012987E+01  0.43400729915E+02  0.00000000000E+00 0. -1.
         11    1    3    3    0    0 -0.93969317667E+01  0.23674978552E+02  0.98156920734E+01  0.27297522730E+02  0.51100000000E-03 0. -1.
        -11    1    3    3    0    0  0.95944641191E+00  0.33176400893E+01 -0.55464868789E-01  0.34540338435E+01  0.51100000000E-03 0.  1.
         12    1    3    3    0    0  0.75255202442E+01  0.15283386083E+02  0.13774094053E-01  0.17035713511E+02  0.00000000000E+00 0. -1.
</event>
<event>
 7    1  0.2769403E-010  0.4778727E+02  0.7816164E-02  0.1312668E+00
        -11   -1    0    0    0    0  0.00000000000E+00  0.00000000000E+00  0.45593999997E+02  0.45594000000E+02  0.51100000000E-03 0. -1.
         11   -1    0    0    0    0 -0.00000000000E+00 -0.00000000000E+00 -0.45593999997E+02  0.45594000000E+02  0.51100000000E-03 0.  1.
    9900012    2    1    2    0    0  0.25603536757E+02 -0.30007579417E+02 -0.18100476581E+02  0.47787272248E+02  0.20000005489E+02 0.  0.
         12    1    1    2    0    0 -0.25603536757E+02  0.30007579417E+02  0.18100476581E+02  0.43400727752E+02  0.00000000000E+00 0. -1.
         11    1    3    3    0    0  0.17087532552E+02 -0.21463996775E+02 -0.85582244100E+01  0.28739000184E+02  0.51100000000E-03 0. -1.
        -11    1    3    3    0    0  0.98335847189E+01 -0.78964020234E+01 -0.38742573015E+01  0.13193271893E+02  0.51100000000E-03 0.  1.
         12    1    3    3    0    0 -0.13175805142E+01 -0.64718061820E+00 -0.56679948693E+01  0.58550001710E+01  0.00000000000E+00 0. -1.
</event>
<event>
 7    1  0.2769403E-010  0.4778727E+02  0.7816164E-02  0.1312668E+00
        -11   -1    0    0    0    0  0.00000000000E+00  0.00000000000E+00  0.45593999997E+02  0.45594000000E+02  0.51100000000E-03 0. -1.
         11   -1    0    0    0    0 -0.00000000000E+00 -0.00000000000E+00 -0.45593999997E+02  0.45594000000E+02  0.51100000000E-03 0.  1.
    9900012    2    1    2    0    0  0.28082089786E+02  0.25597872288E+02 -0.20970648574E+02  0.47787274959E+02  0.20000017848E+02 0.  0.
         12    1    1    2    0    0 -0.28082089786E+02 -0.25597872288E+02  0.20970648574E+02  0.43400725041E+02  0.00000000000E+00 0. -1.
         11    1    3    3    0    0  0.15606723983E+02  0.14906659760E+02 -0.34088221543E+01  0.21849448675E+02  0.51100000000E-03 0. -1.
        -11    1    3    3    0    0  0.10739057923E+02  0.11457354958E+02 -0.11171812863E+02  0.19271942056E+02  0.51100000000E-03 0.  1.
         12    1    3    3    0    0  0.17363078805E+01 -0.76614242955E+00 -0.63900135564E+01  0.66658842271E+01  0.00000000000E+00 0. -1.
</event>
<event>
 7    1  0.2769403E-010  0.4778727E+02  0.7816164E-02  0.1312668E+00
        -11   -1    0    0    0    0  0.00000000000E+00  0.00000000000E+00  0.45593999997E+02  0.45594000000E+02  0.51100000000E-03 0. -1.
         11   -1    0    0    0    0 -0.00000000000E+00 -0.00000000000E+00 -0.45593999997E+02  0.45594000000E+02  0.51100000000E-03 0.  1.
    9900012    2    1    2    0    0 -0.15645042646E+02  0.34802118722E+02 -0.20680157613E+02  0.47787265607E+02  0.19999975210E+02 0.  0.
         12    1    1    2    0    0  0.15645042646E+02 -0.34802118722E+02  0.20680157613E+02  0.43400734393E+02  0.00000000000E+00 0. -1.
         11    1    3    3    0    0 -0.90432887065E+01  0.12317788566E+02 -0.11177190744E+02  0.18932474190E+02  0.51100000000E-03 0. -1.
        -11    1    3    3    0    0 -0.10331277226E+02  0.18865050911E+02 -0.98278676524E+01  0.23647672568E+02  0.51100000000E-03 0.  1.
         12    1    3    3    0    0  0.37295232864E+01  0.36192792442E+01  0.32490078266E+00  0.52071188492E+01  0.00000000000E+00 0. -1.
</event>
<event>
 7    1  0.2769403E-010  0.4778727E+02  0.7816164E-02  0.1312668E+00
        -11   -1    0    0    0    0  0.00000000000E+00  0.00000000000E+00  0.45593999997E+02  0.45594000000E+02  0.51100000000E-03 0.  1.
         11   -1    0    0    0    0 -0.00000000000E+00 -0.00000000000E+00 -0.45593999997E+02  0.45594000000E+02  0.51100000000E-03 0. -1.
    9900012    2    1    2    0    0  0.81322105576E+01  0.25908308270E+02  0.33856319791E+02  0.47787266414E+02  0.19999978889E+02 0.  0.
         12    1    1    2    0    0 -0.81322105576E+01 -0.25908308270E+02 -0.33856319791E+02  0.43400733586E+02  0.00000000000E+00 0. -1.
         11    1    3    3    0    0 -0.22004871183E+01 -0.46464156724E+00  0.30617438864E+00  0.22697529296E+01  0.51100000000E-03 0. -1.
        -11    1    3    3    0    0 -0.31764671524E+00  0.86397432818E+01  0.16824799698E+02  0.18916129322E+02  0.51100000000E-03 0.  1.
         12    1    3    3    0    0  0.10650344391E+02  0.17733206556E+02  0.16725345705E+02  0.26601384162E+02  0.00000000000E+00 0. -1.
</event>
<event>
 7    1  0.2769403E-010  0.4778727E+02  0.7816164E-02  0.1312668E+00
        -11   -1    0    0    0    0  0.00000000000E+00  0.00000000000E+00  0.45593999997E+02  0.45594000000E+02  0.51100000000E-03 0.  1.
         11   -1    0    0    0    0 -0.00000000000E+00 -0.00000000000E+00 -0.45593999997E+02  0.45594000000E+02  0.51100000000E-03 0. -1.
    9900012    2    1    2    0    0 -0.70968722353E+01  0.38994838269E+02  0.17682205221E+02  0.47787269722E+02  0.19999993970E+02 0.  0.
         12    1    1    2    0    0  0.70968722353E+01 -0.38994838269E+02 -0.17682205221E+02  0.43400730278E+02  0.00000000000E+00 0. -1.
         11    1    3    3    0    0 -0.38833358103E+01  0.51145564877E+01  0.24893851559E+01  0.68873814906E+01  0.51100000000E-03 0. -1.
        -11    1    3    3    0    0 -0.16464763557E+01  0.28344237555E+02  0.18852415184E+02  0.34081083397E+02  0.51100000000E-03 0.  1.
         12    1    3    3    0    0 -0.15670600693E+01  0.55360442263E+01 -0.36595951187E+01  0.68188048343E+01  0.00000000000E+00 0. -1.
</event>
<event>
 7    1  0.2769403E-010  0.4778728E+02  0.7816164E-02  0.1312668E+00
        -11   -1    0    0    0    0  0.00000000000E+00  0.00000000000E+00  0.45593999997E+02  0.45594000000E+02  0.51100000000E-03 0.  1.
         11   -1    0    0    0    0 -0.00000000000E+00 -0.00000000000E+00 -0.45593999997E+02  0.45594000000E+02  0.51100000000E-03 0. -1.
    9900012    2    1    2    0    0 -0.30951648102E+01  0.40184838393E+02  0.16100353687E+02  0.47787277993E+02  0.20000031681E+02 0.  0.
         12    1    1    2    0    0  0.30951648102E+01 -0.40184838393E+02 -0.16100353687E+02  0.43400722007E+02  0.00000000000E+00 0. -1.
         11    1    3    3    0    0  0.15757934977E+01  0.20985561675E+01 -0.19499457522E+01  0.32694574219E+01  0.51100000000E-03 0. -1.
        -11    1    3    3    0    0 -0.57822317419E+00  0.36062698328E+02  0.16773921731E+02  0.39777091437E+02  0.51100000000E-03 0.  1.
         12    1    3    3    0    0 -0.40927351337E+01  0.20235838978E+01  0.12763777089E+01  0.47407291340E+01  0.00000000000E+00 0. -1.
</event>
<event>
 7    1  0.2769403E-010  0.4778727E+02  0.7816164E-02  0.1312668E+00
        -11   -1    0    0    0    0  0.00000000000E+00  0.00000000000E+00  0.45593999997E+02  0.45594000000E+02  0.51100000000E-03 0.  1.
         11   -1    0    0    0    0 -0.00000000000E+00 -0.00000000000E+00 -0.45593999997E+02  0.45594000000E+02  0.51100000000E-03 0. -1.
    9900012    2    1    2    0    0  0.41958449638E+02  0.93101236103E+01 -0.60360054988E+01  0.47787271204E+02  0.20000000727E+02 0.  0.
         12    1    1    2    0    0 -0.41958449638E+02 -0.93101236103E+01  0.60360054988E+01  0.43400728796E+02  0.00000000000E+00 0. -1.
         11    1    3    3    0    0  0.23757253383E+01  0.20748459781E+01  0.17142199428E+01  0.35899313348E+01  0.51100000000E-03 0. -1.
        -11    1    3    3    0    0  0.36987216095E+02  0.22092376594E+01 -0.36942708912E+01  0.37236843625E+02  0.51100000000E-03 0.  1.
        -12    1    3    3    0    0  0.25955082048E+01  0.50260399729E+01 -0.40559545504E+01  0.69604962441E+01  0.00000000000E+00 0.  1.
</event>
<event>
 7    1  0.2769403E-010  0.4778727E+02  0.7816164E-02  0.1312668E+00
        -11   -1    0    0    0    0  0.00000000000E+00  0.00000000000E+00  0.45593999997E+02  0.45594000000E+02  0.51100000000E-03 0. -1.
         11   -1    0    0    0    0 -0.00000000000E+00 -0.00000000000E+00 -0.45593999997E+02  0.45594000000E+02  0.51100000000E-03 0.  1.
    9900012    2    1    2    0    0 -0.16352447766E+02  0.39268230878E+02  0.86154901492E+01  0.47787272187E+02  0.20000005208E+02 0.  0.
         12    1    1    2    0    0  0.16352447766E+02 -0.39268230878E+02 -0.86154901492E+01  0.43400727813E+02  0.00000000000E+00 0. -1.
         11    1    3    3    0    0  0.48109114466E+00  0.53479340175E+00  0.28752916898E+01  0.29639087763E+01  0.51100000000E-03 0. -1.
        -11    1    3    3    0    0  0.14116112700E+01  0.12880356156E+01 -0.16431005817E+01  0.25202106870E+01  0.51100000000E-03 0.  1.
        -12    1    3    3    0    0 -0.18245150181E+02  0.37445401860E+02  0.73832990411E+01  0.42303152723E+02  0.00000000000E+00 0.  1.
</event>
<event>
 7    1  0.2769403E-010  0.4778726E+02  0.7816164E-02  0.1312668E+00
        -11   -1    0    0    0    0  0.00000000000E+00  0.00000000000E+00  0.45593999997E+02  0.45594000000E+02  0.51100000000E-03 0.  1.
         11   -1    0    0    0    0 -0.00000000000E+00 -0.00000000000E+00 -0.45593999997E+02  0.45594000000E+02  0.51100000000E-03 0. -1.
    9900012    2    1    2    0    0  0.23805275867E+02  0.28239082228E+02  0.22792255323E+02  0.47787264673E+02  0.19999970952E+02 0.  0.
         12    1    1    2    0    0 -0.23805275867E+02 -0.28239082228E+02 -0.22792255323E+02  0.43400735327E+02  0.00000000000E+00 0. -1.
         11    1    3    3    0    0  0.10491502869E+02  0.10752353778E+02  0.59209157667E+01  0.16147507176E+02  0.51100000000E-03 0. -1.
        -11    1    3    3    0    0  0.13596236645E+02  0.95255060936E+01  0.16877286577E+02  0.23673523602E+02  0.51100000000E-03 0.  1.
         12    1    3    3    0    0 -0.28246364745E+00  0.79612223557E+01 -0.59470207698E-02  0.79662338954E+01  0.00000000000E+00 0. -1.
</event>
<event>
 7    1  0.2769403E-010  0.4778727E+02  0.7816164E-02  0.1312668E+00
        -11   -1    0    0    0    0  0.00000000000E+00  0.00000000000E+00  0.45593999997E+02  0.45594000000E+02  0.51100000000E-03 0.  1.
         11   -1    0    0    0    0 -0.00000000000E+00 -0.00000000000E+00 -0.45593999997E+02  0.45594000000E+02  0.51100000000E-03 0. -1.
    9900012    2    1    2    0    0 -0.20755888895E+02 -0.79575907352E+01  0.37275904222E+02  0.47787271784E+02  0.20000003372E+02 0.  0.
         12    1    1    2    0    0  0.20755888895E+02  0.79575907352E+01 -0.37275904222E+02  0.43400728216E+02  0.00000000000E+00 0. -1.
         11    1    3    3    0    0 -0.10997636803E+02 -0.37672141862E+01  0.11266487144E+02  0.16188688977E+02  0.51100000000E-03 0.  1.
        -11    1    3    3    0    0 -0.15636242845E-01 -0.10095576652E+01 -0.17429583338E+01  0.20142877615E+01  0.51100000000E-03 0. -1.
         12    1    3    3    0    0 -0.97426158499E+01 -0.31808188837E+01  0.27752375411E+02  0.29584295045E+02  0.00000000000E+00 0. -1.
</event>
<event>
 7    1  0.2769403E-010  0.4778727E+02  0.7816164E-02  0.1312668E+00
        -11   -1    0    0    0    0  0.00000000000E+00  0.00000000000E+00  0.45593999997E+02  0.45594000000E+02  0.51100000000E-03 0.  1.
         11   -1    0    0    0    0 -0.00000000000E+00 -0.00000000000E+00 -0.45593999997E+02  0.45594000000E+02  0.51100000000E-03 0. -1.
    9900012    2    1    2    0    0 -0.30042566173E+02  0.27417159681E+02  0.15144875399E+02  0.47787266388E+02  0.19999978770E+02 0.  0.
         12    1    1    2    0    0  0.30042566173E+02 -0.27417159681E+02 -0.15144875399E+02  0.43400733612E+02  0.00000000000E+00 0. -1.
         11    1    3    3    0    0 -0.94263572778E+01  0.13727455519E+02  0.51996612362E+01  0.17445220657E+02  0.51100000000E-03 0. -1.
        -11    1    3    3    0    0 -0.16064144079E+02  0.13762464959E+02  0.13028480919E+02  0.24843580299E+02  0.51100000000E-03 0.  1.
        -12    1    3    3    0    0 -0.45520648154E+01 -0.72760797369E-01 -0.30832667558E+01  0.54984654318E+01  0.00000000000E+00 0.  1.
</event>
<event>
 7    1  0.2769403E-010  0.4778728E+02  0.7816164E-02  0.1312668E+00
        -11   -1    0    0    0    0  0.00000000000E+00  0.00000000000E+00  0.45593999997E+02  0.45594000000E+02  0.51100000000E-03 0.  1.
         11   -1    0    0    0    0 -0.00000000000E+00 -0.00000000000E+00 -0.45593999997E+02  0.45594000000E+02  0.51100000000E-03 0. -1.
    9900012    2    1    2    0    0 -0.14586631884E+02 -0.38187294590E+02 -0.14580245945E+02  0.47787275701E+02  0.20000021233E+02 0.  0.
         12    1    1    2    0    0  0.14586631884E+02  0.38187294590E+02  0.14580245945E+02  0.43400724299E+02  0.00000000000E+00 0. -1.
         11    1    3    3    0    0 -0.47841273303E+01 -0.40407499231E+01 -0.50907244116E+01  0.80703785258E+01  0.51100000000E-03 0. -1.
        -11    1    3    3    0    0  0.15172450218E+01  0.42613078958E+00 -0.20492895521E+01  0.25851900966E+01  0.51100000000E-03 0.  1.
        -12    1    3    3    0    0 -0.11319749576E+02 -0.34572675456E+02 -0.74402319812E+01  0.37131707079E+02  0.00000000000E+00 0.  1.
</event>
<event>
 7    1  0.2769403E-010  0.4778727E+02  0.7816164E-02  0.1312668E+00
        -11   -1    0    0    0    0  0.00000000000E+00  0.00000000000E+00  0.45593999997E+02  0.45594000000E+02  0.51100000000E-03 0.  1.
         11   -1    0    0    0    0 -0.00000000000E+00 -0.00000000000E+00 -0.45593999997E+02  0.45594000000E+02  0.51100000000E-03 0. -1.
    9900012    2    1    2    0    0  0.15732585213E+02 -0.23234648352E+02  0.33109822183E+02  0.47787269056E+02  0.19999990933E+02 0.  0.
         12    1    1    2    0    0 -0.15732585213E+02  0.23234648352E+02 -0.33109822183E+02  0.43400730944E+02  0.00000000000E+00 0. -1.
         11    1    3    3    0    0  0.42829031909E+01 -0.25219413849E+01  0.49745598768E+01  0.70320476620E+01  0.51100000000E-03 0. -1.
        -11    1    3    3    0    0 -0.93502977501E+00 -0.16104260109E+02  0.17424901104E+02  0.23745497533E+02  0.51100000000E-03 0.  1.
        -12    1    3    3    0    0  0.12384711798E+02 -0.46084468582E+01  0.10710361201E+02  0.17009723861E+02  0.00000000000E+00 0.  1.
</event>
<event>
 7    1  0.2769403E-010  0.4778727E+02  0.7816164E-02  0.1312668E+00
        -11   -1    0    0    0    0  0.00000000000E+00  0.00000000000E+00  0.45593999997E+02  0.45594000000E+02  0.51100000000E-03 0.  1.
         11   -1    0    0    0    0 -0.00000000000E+00 -0.00000000000E+00 -0.45593999997E+02  0.45594000000E+02  0.51100000000E-03 0. -1.
    9900012    2    1    2    0    0  0.21130722881E+02  0.33042140733E+02  0.18583131964E+02  0.47787270659E+02  0.19999998243E+02 0.  0.
         12    1    1    2    0    0 -0.21130722881E+02 -0.33042140733E+02 -0.18583131964E+02  0.43400729341E+02  0.00000000000E+00 0. -1.
         11    1    3    3    0    0  0.73922213648E+01  0.32512784182E+01  0.34154757272E+01  0.87681938142E+01  0.51100000000E-03 0.  1.
        -11    1    3    3    0    0  0.64629607333E+01  0.17546528619E+02  0.69251328557E+00  0.18711763758E+02  0.51100000000E-03 0. -1.
         12    1    3    3    0    0  0.72755407831E+01  0.12244333696E+02  0.14475142951E+02  0.20307313087E+02  0.00000000000E+00 0. -1.
</event>
<event>
 7    1  0.2769403E-010  0.4778726E+02  0.7816164E-02  0.1312668E+00
        -11   -1    0    0    0    0  0.00000000000E+00  0.00000000000E+00  0.45593999997E+02  0.45594000000E+02  0.51100000000E-03 0.  1.
         11   -1    0    0    0    0 -0.00000000000E+00 -0.00000000000E+00 -0.45593999997E+02  0.45594000000E+02  0.51100000000E-03 0. -1.
    9900012    2    1    2    0    0 -0.27171453827E+02 -0.13565236819E+02  0.31005166801E+02  0.47787263584E+02  0.19999965987E+02 0.  0.
         12    1    1    2    0    0  0.27171453827E+02  0.13565236819E+02 -0.31005166801E+02  0.43400736416E+02  0.00000000000E+00 0. -1.
         11    1    3    3    0    0 -0.22552209897E+02 -0.79495790553E+01  0.23782304383E+02  0.33725301784E+02  0.51100000000E-03 0.  1.
        -11    1    3    3    0    0 -0.37426603765E+01  0.19722096195E+01  0.38198886568E+01  0.56998830768E+01  0.51100000000E-03 0. -1.
        -12    1    3    3    0    0 -0.87658355378E+00 -0.75878673837E+01  0.34029737611E+01  0.83620787235E+01  0.00000000000E+00 0.  1.
</event>
<event>
 7    1  0.2769403E-010  0.4778724E+02  0.7816164E-02  0.1312668E+00
        -11   -1    0    0    0    0  0.00000000000E+00  0.00000000000E+00  0.45593999997E+02  0.45594000000E+02  0.51100000000E-03 0.  1.
         11   -1    0    0    0    0 -0.00000000000E+00 -0.00000000000E+00 -0.45593999997E+02  0.45594000000E+02  0.51100000000E-03 0. -1.
    9900012    2    1    2    0    0  0.10580643323E+02 -0.16582263112E+02  0.38687261907E+02  0.47787243130E+02  0.19999872724E+02 0.  0.
         12    1    1    2    0    0 -0.10580643323E+02  0.16582263112E+02 -0.38687261907E+02  0.43400756870E+02  0.00000000000E+00 0. -1.
         11    1    3    3    0    0 -0.32712341621E+01  0.10659448356E+00  0.49387465256E+01  0.59248251310E+01  0.51100000000E-03 0. -1.
        -11    1    3    3    0    0  0.27545297625E+01 -0.12256988920E+02  0.20292074835E+02  0.23866074519E+02  0.51100000000E-03 0.  1.
         12    1    3    3    0    0  0.11097347723E+02 -0.44318686761E+01  0.13456440547E+02  0.17996343480E+02  0.00000000000E+00 0. -1.
</event>
<event>
 7    1  0.2769403E-010  0.4778728E+02  0.7816164E-02  0.1312668E+00
        -11   -1    0    0    0    0  0.00000000000E+00  0.00000000000E+00  0.45593999997E+02  0.45594000000E+02  0.51100000000E-03 0. -1.
         11   -1    0    0    0    0 -0.00000000000E+00 -0.00000000000E+00 -0.45593999997E+02  0.45594000000E+02  0.51100000000E-03 0.  1.
    9900012    2    1    2    0    0  0.22147492414E+02 -0.26166974488E+02 -0.26615792866E+02  0.47787281066E+02  0.20000045694E+02 0.  0.
         12    1    1    2    0    0 -0.22147492414E+02  0.26166974488E+02  0.26615792866E+02  0.43400718934E+02  0.00000000000E+00 0. -1.
         11    1    3    3    0    0  0.55964816275E+00  0.18241240049E+01 -0.10118932687E+01  0.21597598708E+01  0.51100000000E-03 0. -1.
        -11    1    3    3    0    0  0.11457783614E+02 -0.94922906537E+01 -0.17654675870E+02  0.23088351339E+02  0.51100000000E-03 0.  1.
        -12    1    3    3    0    0  0.10130060637E+02 -0.18498807839E+02 -0.79492237271E+01  0.22539169857E+02  0.00000000000E+00 0.  1.
</event>
<event>
 7    1  0.2769403E-010  0.4778728E+02  0.7816164E-02  0.1312668E+00
        -11   -1    0    0    0    0  0.00000000000E+00  0.00000000000E+00  0.45593999997E+02  0.45594000000E+02  0.51100000000E-03 0.  1.
         11   -1    0    0    0    0 -0.00000000000E+00 -0.00000000000E+00 -0.45593999997E+02  0.45594000000E+02  0.51100000000E-03 0. -1.
    9900012    2    1    2    0    0 -0.38187002221E+02  0.94324074143E+01  0.18341358201E+02  0.47787275710E+02  0.20000021272E+02 0.  0.
         12    1    1    2    0    0  0.38187002221E+02 -0.94324074143E+01 -0.18341358201E+02  0.43400724290E+02  0.00000000000E+00 0. -1.
         11    1    3    3    0    0 -0.28401401925E+01  0.31130871961E+01 -0.21130291624E+01  0.47140853520E+01  0.51100000000E-03 0. -1.
        -11    1    3    3    0    0 -0.12885256552E+02 -0.28407736525E+01  0.40982462134E+01  0.13816492089E+02  0.51100000000E-03 0.  1.
        -12    1    3    3    0    0 -0.22461605476E+02  0.91600938707E+01  0.16356141150E+02  0.29256698269E+02  0.00000000000E+00 0.  1.
</event>
<event>
 7    1  0.2769403E-010  0.4778727E+02  0.7816164E-02  0.1312668E+00
        -11   -1    0    0    0    0  0.00000000000E+00  0.00000000000E+00  0.45593999997E+02  0.45594000000E+02  0.51100000000E-03 0.  1.
         11   -1    0    0    0    0 -0.00000000000E+00 -0.00000000000E+00 -0.45593999997E+02  0.45594000000E+02  0.51100000000E-03 0. -1.
    9900012    2    1    2    0    0  0.22907284687E+02 -0.36836034479E+02 -0.14093300772E+01  0.47787270292E+02  0.19999996570E+02 0.  0.
         12    1    1    2    0    0 -0.22907284687E+02  0.36836034479E+02  0.14093300772E+01  0.43400729708E+02  0.00000000000E+00 0. -1.
         11    1    3    3    0    0  0.65440777173E+01 -0.13026685105E+01 -0.93643334116E+00  0.67378636141E+01  0.51100000000E-03 0. -1.
        -11    1    3    3    0    0  0.12736042006E+02 -0.18539426568E+02  0.45774513663E+01  0.22953652536E+02  0.51100000000E-03 0.  1.
        -12    1    3    3    0    0  0.36271649636E+01 -0.16993939400E+02 -0.50503481024E+01  0.18095754142E+02  0.00000000000E+00 0.  1.
</event>
<event>
 7    1  0.2769403E-010  0.4778727E+02  0.7816164E-02  0.1312668E+00
        -11   -1    0    0    0    0  0.00000000000E+00  0.00000000000E+00  0.45593999997E+02  0.45594000000E+02  0.51100000000E-03 0.  1.
         11   -1    0    0    0    0 -0.00000000000E+00 -0.00000000000E+00 -0.45593999997E+02  0.45594000000E+02  0.51100000000E-03 0. -1.
    9900012    2    1    2    0    0 -0.36415294277E+02  0.12066818969E+02  0.20296346182E+02  0.47787269066E+02  0.19999990978E+02 0.  0.
         12    1    1    2    0    0  0.36415294277E+02 -0.12066818969E+02 -0.20296346182E+02  0.43400730934E+02  0.00000000000E+00 0. -1.
         11    1    3    3    0    0 -0.51020586017E+01 -0.44783253317E+01  0.31050744342E+01  0.74651113358E+01  0.51100000000E-03 0.  1.
        -11    1    3    3    0    0 -0.92733890968E+01  0.19815925506E+01  0.15118138547E+01  0.96025015371E+01  0.51100000000E-03 0. -1.
        -12    1    3    3    0    0 -0.22039846578E+02  0.14563551750E+02  0.15679457893E+02  0.30719656193E+02  0.00000000000E+00 0.  1.
</event>
<event>
 7    1  0.2829141E-010  0.4778724E+02  0.7816164E-02  0.1312668E+00
        -11   -1    0    0    0    0  0.00000000000E+00  0.00000000000E+00  0.45593999997E+02  0.45594000000E+02  0.51100000000E-03 0. -1.
         11   -1    0    0    0    0 -0.00000000000E+00 -0.00000000000E+00 -0.45593999997E+02  0.45594000000E+02  0.51100000000E-03 0.  1.
    9900012    2    1    2    0    0  0.10396220741E+02 -0.62736492226E+00 -0.42132544296E+02  0.47787236398E+02  0.19999842030E+02 0.  0.
         12    1    1    2    0    0 -0.10396220741E+02  0.62736492226E+00  0.42132544296E+02  0.43400763602E+02  0.00000000000E+00 0. -1.
         11    1    3    3    0    0  0.13198032339E+00 -0.27953158218E+01 -0.13927561942E+02  0.14205920993E+02  0.51100000000E-03 0. -1.
        -11    1    3    3    0    0  0.65387017586E+01 -0.51718754519E+01 -0.21173566119E+02  0.22755720574E+02  0.51100000000E-03 0.  1.
         12    1    3    3    0    0  0.37255386588E+01  0.73398263515E+01 -0.70314162346E+01  0.10825594830E+02  0.00000000000E+00 0. -1.
</event>
<event>
 7    1  0.2769403E-010  0.4778727E+02  0.7816164E-02  0.1312668E+00
        -11   -1    0    0    0    0  0.00000000000E+00  0.00000000000E+00  0.45593999997E+02  0.45594000000E+02  0.51100000000E-03 0. -1.
         11   -1    0    0    0    0 -0.00000000000E+00 -0.00000000000E+00 -0.45593999997E+02  0.45594000000E+02  0.51100000000E-03 0.  1.
    9900012    2    1    2    0    0  0.30455415798E+02 -0.30913584276E+02 -0.66460109706E+00  0.47787265688E+02  0.19999975576E+02 0.  0.
         12    1    1    2    0    0 -0.30455415798E+02  0.30913584276E+02  0.66460109706E+00  0.43400734312E+02  0.00000000000E+00 0. -1.
         11    1    3    3    0    0  0.47163590055E+01 -0.60689410160E+01  0.43524032919E+01  0.88328648807E+01  0.51100000000E-03 0. -1.
        -11    1    3    3    0    0  0.13684837939E+02 -0.22171043785E+02 -0.14158598102E+01  0.26092808036E+02  0.51100000000E-03 0.  1.
        -12    1    3    3    0    0  0.12054218854E+02 -0.26735994748E+01 -0.36011445788E+01  0.12861592771E+02  0.00000000000E+00 0.  1.
</event>
<event>
 7    1  0.2769403E-010  0.4778727E+02  0.7816164E-02  0.1312668E+00
        -11   -1    0    0    0    0  0.00000000000E+00  0.00000000000E+00  0.45593999997E+02  0.45594000000E+02  0.51100000000E-03 0.  1.
         11   -1    0    0    0    0 -0.00000000000E+00 -0.00000000000E+00 -0.45593999997E+02  0.45594000000E+02  0.51100000000E-03 0. -1.
    9900012    2    1    2    0    0  0.36087850719E+02 -0.19907339564E+02  0.13601038456E+02  0.47787269763E+02  0.19999994159E+02 0.  0.
         12    1    1    2    0    0 -0.36087850719E+02  0.19907339564E+02 -0.13601038456E+02  0.43400730237E+02  0.00000000000E+00 0. -1.
         11    1    3    3    0    0  0.18321714413E+02 -0.51144187796E+01  0.25999512908E+01  0.19199016784E+02  0.51100000000E-03 0. -1.
        -11    1    3    3    0    0  0.14477405504E+02 -0.38789385141E+01  0.62789371972E+01  0.16250122668E+02  0.51100000000E-03 0.  1.
         12    1    3    3    0    0  0.32887308014E+01 -0.10913982270E+02  0.47221499679E+01  0.12338130312E+02  0.00000000000E+00 0. -1.
</event>
<event>
 7    1  0.2769403E-010  0.4778727E+02  0.7816164E-02  0.1312668E+00
        -11   -1    0    0    0    0  0.00000000000E+00  0.00000000000E+00  0.45593999997E+02  0.45594000000E+02  0.51100000000E-03 0. -1.
         11   -1    0    0    0    0 -0.00000000000E+00 -0.00000000000E+00 -0.45593999997E+02  0.45594000000E+02  0.51100000000E-03 0.  1.
    9900012    2    1    2    0    0 -0.30045062657E+02  0.67647534547E+01 -0.30580316345E+02  0.47787269279E+02  0.19999991950E+02 0.  0.
         12    1    1    2    0    0  0.30045062657E+02 -0.67647534547E+01  0.30580316345E+02  0.43400730721E+02  0.00000000000E+00 0. -1.
         11    1    3    3    0    0 -0.99478533916E+01  0.19373093476E+01 -0.11655920964E+01  0.10201546932E+02  0.51100000000E-03 0. -1.
        -11    1    3    3    0    0 -0.17780040960E+02  0.32068152270E+01 -0.16843980579E+02  0.24700874528E+02  0.51100000000E-03 0.  1.
        -12    1    3    3    0    0 -0.23171683062E+01  0.16206288800E+01 -0.12570743669E+02  0.12884847819E+02  0.00000000000E+00 0.  1.
</event>
<event>
 7    1  0.2769403E-010  0.4778727E+02  0.7816164E-02  0.1312668E+00
        -11   -1    0    0    0    0  0.00000000000E+00  0.00000000000E+00  0.45593999997E+02  0.45594000000E+02  0.51100000000E-03 0.  1.
         11   -1    0    0    0    0 -0.00000000000E+00 -0.00000000000E+00 -0.45593999997E+02  0.45594000000E+02  0.51100000000E-03 0. -1.
    9900012    2    1    2    0    0  0.18237859541E+02 -0.11031840893E+02  0.37806112570E+02  0.47787272106E+02  0.20000004838E+02 0.  0.
         12    1    1    2    0    0 -0.18237859541E+02  0.11031840893E+02 -0.37806112570E+02  0.43400727894E+02  0.00000000000E+00 0. -1.
         11    1    3    3    0    0  0.22700729777E+01  0.23068404860E+01  0.13202176826E+02  0.13593094481E+02  0.51100000000E-03 0. -1.
        -11    1    3    3    0    0  0.10130982955E+02 -0.50579705365E+01  0.20178915219E+02  0.23138895852E+02  0.51100000000E-03 0.  1.
        -12    1    3    3    0    0  0.58368036083E+01 -0.82807108429E+01  0.44250205243E+01  0.11055281772E+02  0.00000000000E+00 0.  1.
</event>
<event>
 7    1  0.2769403E-010  0.4778729E+02  0.7816164E-02  0.1312668E+00
        -11   -1    0    0    0    0  0.00000000000E+00  0.00000000000E+00  0.45593999997E+02  0.45594000000E+02  0.51100000000E-03 0. -1.
         11   -1    0    0    0    0 -0.00000000000E+00 -0.00000000000E+00 -0.45593999997E+02  0.45594000000E+02  0.51100000000E-03 0.  1.
    9900012    2    1    2    0    0  0.41881873613E+02 -0.49108748376E+01 -0.10267110146E+02  0.47787290562E+02  0.20000088988E+02 0.  0.
         12    1    1    2    0    0 -0.41881873613E+02  0.49108748376E+01  0.10267110146E+02  0.43400709438E+02  0.00000000000E+00 0. -1.
         11    1    3    3    0    0  0.23810987971E+01 -0.39050072001E+01 -0.47373598712E+00  0.45981668914E+01  0.51100000000E-03 0. -1.
        -11    1    3    3    0    0  0.61455395773E+01  0.33349917926E+01  0.24272416502E+01  0.74014410248E+01  0.51100000000E-03 0.  1.
        -12    1    3    3    0    0  0.33355235238E+02 -0.43408594301E+01 -0.12220615809E+02  0.35787682646E+02  0.00000000000E+00 0.  1.
</event>
<event>
 7    1  0.2769403E-010  0.4778729E+02  0.7816164E-02  0.1312668E+00
        -11   -1    0    0    0    0  0.00000000000E+00  0.00000000000E+00  0.45593999997E+02  0.45594000000E+02  0.51100000000E-03 0.  1.
         11   -1    0    0    0    0 -0.00000000000E+00 -0.00000000000E+00 -0.45593999997E+02  0.45594000000E+02  0.51100000000E-03 0. -1.
    9900012    2    1    2    0    0 -0.30948979353E+02  0.25098094109E+02  0.17200822590E+02  0.47787286311E+02  0.20000069607E+02 0.  0.
         12    1    1    2    0    0  0.30948979353E+02 -0.25098094109E+02 -0.17200822590E+02  0.43400713689E+02  0.00000000000E+00 0. -1.
         11    1    3    3    0    0 -0.86539645889E+01  0.15980287650E+02  0.95935116280E+01  0.20549845792E+02  0.51100000000E-03 0.  1.
        -11    1    3    3    0    0 -0.61036067644E+01  0.76413462634E+01  0.41023554257E+01  0.10605352825E+02  0.51100000000E-03 0. -1.
        -12    1    3    3    0    0 -0.16191408000E+02  0.14764601962E+01  0.35049555359E+01  0.16632087694E+02  0.00000000000E+00 0.  1.
</event>
<event>
 7    1  0.2769403E-010  0.4778727E+02  0.7816164E-02  0.1312668E+00
        -11   -1    0    0    0    0  0.00000000000E+00  0.00000000000E+00  0.45593999997E+02  0.45594000000E+02  0.51100000000E-03 0.  1.
         11   -1    0    0    0    0 -0.00000000000E+00 -0.00000000000E+00 -0.45593999997E+02  0.45594000000E+02  0.51100000000E-03 0. -1.
    9900012    2    1    2    0    0 -0.42872195225E+02  0.41071145032E+01  0.53600184704E+01  0.47787270617E+02  0.19999998051E+02 0.  0.
         12    1    1    2    0    0  0.42872195225E+02 -0.41071145032E+01 -0.53600184704E+01  0.43400729383E+02  0.00000000000E+00 0. -1.
         11    1    3    3    0    0 -0.95001310523E+01  0.60761144584E+01  0.39270953497E+01  0.11941261871E+02  0.51100000000E-03 0. -1.
        -11    1    3    3    0    0 -0.26021626720E+02  0.37361635712E+01 -0.70861278933E+00  0.26298024788E+02  0.51100000000E-03 0.  1.
        -12    1    3    3    0    0 -0.73504374532E+01 -0.57051635265E+01  0.21415359101E+01  0.95479839584E+01  0.00000000000E+00 0.  1.
</event>
<event>
 7    1  0.2769403E-010  0.4778727E+02  0.7816164E-02  0.1312668E+00
        -11   -1    0    0    0    0  0.00000000000E+00  0.00000000000E+00  0.45593999997E+02  0.45594000000E+02  0.51100000000E-03 0.  1.
         11   -1    0    0    0    0 -0.00000000000E+00 -0.00000000000E+00 -0.45593999997E+02  0.45594000000E+02  0.51100000000E-03 0. -1.
    9900012    2    1    2    0    0 -0.39727123375E+02  0.17447386713E+02  0.98367195011E+00  0.47787271374E+02  0.20000001501E+02 0.  0.
         12    1    1    2    0    0  0.39727123375E+02 -0.17447386713E+02 -0.98367195011E+00  0.43400728626E+02  0.00000000000E+00 0. -1.
         11    1    3    3    0    0  0.91847303848E+00 -0.48363536308E+00  0.10722164092E+00  0.10435480958E+01  0.51100000000E-03 0. -1.
        -11    1    3    3    0    0 -0.90274205611E+01 -0.38375299113E+00  0.43712616446E+01  0.10037405889E+02  0.51100000000E-03 0.  1.
        -12    1    3    3    0    0 -0.31618175853E+02  0.18314775067E+02 -0.34948113354E+01  0.36706317389E+02  0.00000000000E+00 0.  1.
</event>
<event>
 7    1  0.2769403E-010  0.4778728E+02  0.7816164E-02  0.1312668E+00
        -11   -1    0    0    0    0  0.00000000000E+00  0.00000000000E+00  0.45593999997E+02  0.45594000000E+02  0.51100000000E-03 0.  1.
         11   -1    0    0    0    0 -0.00000000000E+00 -0.00000000000E+00 -0.45593999997E+02  0.45594000000E+02  0.51100000000E-03 0. -1.
    9900012    2    1    2    0    0  0.15453706586E+02 -0.57408729233E+01  0.40147822828E+02  0.47787281722E+02  0.20000048685E+02 0.  0.
         12    1    1    2    0    0 -0.15453706586E+02  0.57408729233E+01 -0.40147822828E+02  0.43400718278E+02  0.00000000000E+00 0. -1.
         11    1    3    3    0    0  0.16198275312E+02 -0.34216094981E+01  0.18059396123E+02  0.24499659655E+02  0.51100000000E-03 0. -1.
        -11    1    3    3    0    0  0.62261157698E+00  0.23400726519E+01  0.56506369894E+01  0.61476242435E+01  0.51100000000E-03 0.  1.
        -12    1    3    3    0    0 -0.13671803026E+01 -0.46593360771E+01  0.16437789716E+02  0.17139997824E+02  0.00000000000E+00 0.  1.
</event>
<event>
 7    1  0.2769403E-010  0.4778725E+02  0.7816164E-02  0.1312668E+00
        -11   -1    0    0    0    0  0.00000000000E+00  0.00000000000E+00  0.45593999997E+02  0.45594000000E+02  0.51100000000E-03 0.  1.
         11   -1    0    0    0    0 -0.00000000000E+00 -0.00000000000E+00 -0.45593999997E+02  0.45594000000E+02  0.51100000000E-03 0. -1.
    9900012    2    1    2    0    0  0.44274729687E+01 -0.28618105937E+02  0.32326873717E+02  0.47787248064E+02  0.19999895222E+02 0.  0.
         12    1    1    2    0    0 -0.44274729687E+01  0.28618105937E+02 -0.32326873717E+02  0.43400751936E+02  0.00000000000E+00 0. -1.
         11    1    3    3    0    0 -0.53931683136E+01 -0.49321628213E+01  0.65580468069E+01  0.98193926868E+01  0.51100000000E-03 0. -1.
        -11    1    3    3    0    0  0.19531095590E+01 -0.18146007837E+02  0.17377203922E+02  0.25200385985E+02  0.51100000000E-03 0.  1.
        -12    1    3    3    0    0  0.78675317233E+01 -0.55399352785E+01  0.83916229882E+01  0.12767469392E+02  0.00000000000E+00 0.  1.
</event>
<event>
 7    1  0.2769403E-010  0.4778727E+02  0.7816164E-02  0.1312668E+00
        -11   -1    0    0    0    0  0.00000000000E+00  0.00000000000E+00  0.45593999997E+02  0.45594000000E+02  0.51100000000E-03 0.  1.
         11   -1    0    0    0    0 -0.00000000000E+00 -0.00000000000E+00 -0.45593999997E+02  0.45594000000E+02  0.51100000000E-03 0. -1.
    9900012    2    1    2    0    0 -0.33797121110E+02  0.74336038735E+01  0.26193883005E+02  0.47787269951E+02  0.19999995016E+02 0.  0.
         12    1    1    2    0    0  0.33797121110E+02 -0.74336038735E+01 -0.26193883005E+02  0.43400730049E+02  0.00000000000E+00 0. -1.
         11    1    3    3    0    0 -0.14308332053E+02  0.69345421721E+01  0.15841378689E+01  0.15978915305E+02  0.51100000000E-03 0. -1.
        -11    1    3    3    0    0 -0.88858063555E+01  0.13644353270E+01  0.77317972302E+01  0.11857484009E+02  0.51100000000E-03 0.  1.
        -12    1    3    3    0    0 -0.10602982702E+02 -0.86537362570E+00  0.16877947906E+02  0.19950870637E+02  0.00000000000E+00 0.  1.
</event>
<event>
 7    1  0.2769403E-010  0.4778727E+02  0.7816164E-02  0.1312668E+00
        -11   -1    0    0    0    0  0.00000000000E+00  0.00000000000E+00  0.45593999997E+02  0.45594000000E+02  0.51100000000E-03 0. -1.
         11   -1    0    0    0    0 -0.00000000000E+00 -0.00000000000E+00 -0.45593999997E+02  0.45594000000E+02  0.51100000000E-03 0.  1.
    9900012    2    1    2    0    0  0.35128872218E+02  0.78046605795E+01 -0.24262576656E+02  0.47787274015E+02  0.20000013542E+02 0.  0.
         12    1    1    2    0    0 -0.35128872218E+02 -0.78046605795E+01  0.24262576656E+02  0.43400725985E+02  0.00000000000E+00 0. -1.
         11    1    3    3    0    0  0.28987941536E+01 -0.26290600622E+01 -0.43742432471E+01  0.58693243735E+01  0.51100000000E-03 0. -1.
        -11    1    3    3    0    0  0.61000433189E+01  0.36768451514E+00  0.19417959954E+01  0.64121987137E+01  0.51100000000E-03 0.  1.
        -12    1    3    3    0    0  0.26130034746E+02  0.10066036127E+02 -0.21830129404E+02  0.35505750927E+02  0.00000000000E+00 0.  1.
</event>
<event>
 7    1  0.2769403E-010  0.4778727E+02  0.7816164E-02  0.1312668E+00
        -11   -1    0    0    0    0  0.00000000000E+00  0.00000000000E+00  0.45593999997E+02  0.45594000000E+02  0.51100000000E-03 0.  1.
         11   -1    0    0    0    0 -0.00000000000E+00 -0.00000000000E+00 -0.45593999997E+02  0.45594000000E+02  0.51100000000E-03 0. -1.
    9900012    2    1    2    0    0  0.42265086723E+02 -0.86496264765E+01  0.47402269602E+01  0.47787270219E+02  0.19999996238E+02 0.  0.
         12    1    1    2    0    0 -0.42265086723E+02  0.86496264765E+01 -0.47402269602E+01  0.43400729781E+02  0.00000000000E+00 0. -1.
         11    1    3    3    0    0  0.39896448214E+01 -0.19336574684E+01  0.42913976781E+01  0.61702829188E+01  0.51100000000E-03 0. -1.
        -11    1    3    3    0    0  0.24080482327E+02 -0.16941783918E+01  0.70910441905E+01  0.25159943908E+02  0.51100000000E-03 0.  1.
        -12    1    3    3    0    0  0.14194959575E+02 -0.50217906163E+01 -0.66422149084E+01  0.16457043392E+02  0.00000000000E+00 0.  1.
</event>
<event>
 7    1  0.2769403E-010  0.4778727E+02  0.7816164E-02  0.1312668E+00
        -11   -1    0    0    0    0  0.00000000000E+00  0.00000000000E+00  0.45593999997E+02  0.45594000000E+02  0.51100000000E-03 0.  1.
         11   -1    0    0    0    0 -0.00000000000E+00 -0.00000000000E+00 -0.45593999997E+02  0.45594000000E+02  0.51100000000E-03 0. -1.
    9900012    2    1    2    0    0  0.27210273236E+02  0.21950387241E+02  0.25717793684E+02  0.47787269804E+02  0.19999994342E+02 0.  0.
         12    1    1    2    0    0 -0.27210273236E+02 -0.21950387241E+02 -0.25717793684E+02  0.43400730196E+02  0.00000000000E+00 0. -1.
         11    1    3    3    0    0  0.83848609594E+01  0.14054475219E+02  0.38412893366E+01  0.16810403655E+02  0.51100000000E-03 0. -1.
        -11    1    3    3    0    0  0.90104680211E+01 -0.33577407601E+00  0.75663548085E+01  0.11770769029E+02  0.51100000000E-03 0.  1.
        -12    1    3    3    0    0  0.98149442557E+01  0.82316860977E+01  0.14310149539E+02  0.19206097120E+02  0.00000000000E+00 0.  1.
</event>
<event>
 7    1  0.2769403E-010  0.4778727E+02  0.7816164E-02  0.1312668E+00
        -11   -1    0    0    0    0  0.00000000000E+00  0.00000000000E+00  0.45593999997E+02  0.45594000000E+02  0.51100000000E-03 0. -1.
         11   -1    0    0    0    0 -0.00000000000E+00 -0.00000000000E+00 -0.45593999997E+02  0.45594000000E+02  0.51100000000E-03 0.  1.
    9900012    2    1    2    0    0 -0.31813747158E+02 -0.91507144765E+01 -0.28067292726E+02  0.47787274147E+02  0.20000014144E+02 0.  0.
         12    1    1    2    0    0  0.31813747158E+02  0.91507144765E+01  0.28067292726E+02  0.43400725853E+02  0.00000000000E+00 0. -1.
         11    1    3    3    0    0 -0.84646589236E+01 -0.24566924147E+01 -0.37736718063E+01  0.95878249606E+01  0.51100000000E-03 0. -1.
        -11    1    3    3    0    0  0.24622248111E+01 -0.17525622792E+01 -0.39042877971E+01  0.49373564816E+01  0.51100000000E-03 0.  1.
         12    1    3    3    0    0 -0.25811313045E+02 -0.49414597826E+01 -0.20389333122E+02  0.33262092704E+02  0.00000000000E+00 0. -1.
</event>
<event>
 7    1  0.2769403E-010  0.4778727E+02  0.7816164E-02  0.1312668E+00
        -11   -1    0    0    0    0  0.00000000000E+00  0.00000000000E+00  0.45593999997E+02  0.45594000000E+02  0.51100000000E-03 0. -1.
         11   -1    0    0    0    0 -0.00000000000E+00 -0.00000000000E+00 -0.45593999997E+02  0.45594000000E+02  0.51100000000E-03 0.  1.
    9900012    2    1    2    0    0  0.12238270952E+02 -0.40927947125E+02  0.76649251008E+01  0.47787271797E+02  0.20000003432E+02 0.  0.
         12    1    1    2    0    0 -0.12238270952E+02  0.40927947125E+02 -0.76649251008E+01  0.43400728203E+02  0.00000000000E+00 0. -1.
         11    1    3    3    0    0  0.37690335626E+01 -0.20227638990E+02  0.78104320333E+01  0.22008313018E+02  0.51100000000E-03 0.  1.
        -11    1    3    3    0    0  0.11204049498E+02 -0.14275843299E+02  0.24865232949E+01  0.18317020102E+02  0.51100000000E-03 0. -1.
         12    1    3    3    0    0 -0.27348121093E+01 -0.64244648364E+01 -0.26320302274E+01  0.74619386774E+01  0.00000000000E+00 0. -1.
</event>
<event>
 7    1  0.2769403E-010  0.4778727E+02  0.7816164E-02  0.1312668E+00
        -11   -1    0    0    0    0  0.00000000000E+00  0.00000000000E+00  0.45593999997E+02  0.45594000000E+02  0.51100000000E-03 0.  1.
         11   -1    0    0    0    0 -0.00000000000E+00 -0.00000000000E+00 -0.45593999997E+02  0.45594000000E+02  0.51100000000E-03 0. -1.
    9900012    2    1    2    0    0 -0.23769232019E+02  0.20270750947E+01  0.36256554928E+02  0.47787271902E+02  0.20000003909E+02 0.  0.
         12    1    1    2    0    0  0.23769232019E+02 -0.20270750947E+01 -0.36256554928E+02  0.43400728098E+02  0.00000000000E+00 0. -1.
         11    1    3    3    0    0 -0.24794028155E+01  0.20287139478E+01  0.82731772103E+00  0.33087117548E+01  0.51100000000E-03 0. -1.
        -11    1    3    3    0    0 -0.23127263670E+02  0.30484525195E+01  0.30523824239E+02  0.38417017506E+02  0.51100000000E-03 0.  1.
         12    1    3    3    0    0  0.18374344669E+01 -0.30500913726E+01  0.49054129685E+01  0.60615426414E+01  0.00000000000E+00 0. -1.
</event>
<event>
 7    1  0.2769403E-010  0.4778727E+02  0.7816164E-02  0.1312668E+00
        -11   -1    0    0    0    0  0.00000000000E+00  0.00000000000E+00  0.45593999997E+02  0.45594000000E+02  0.51100000000E-03 0.  1.
         11   -1    0    0    0    0 -0.00000000000E+00 -0.00000000000E+00 -0.45593999997E+02  0.45594000000E+02  0.51100000000E-03 0. -1.
    9900012    2    1    2    0    0 -0.81489400346E+01  0.55340644718E+01  0.42268100365E+02  0.47787269572E+02  0.19999993285E+02 0.  0.
         12    1    1    2    0    0  0.81489400346E+01 -0.55340644718E+01 -0.42268100365E+02  0.43400730428E+02  0.00000000000E+00 0. -1.
         11    1    3    3    0    0 -0.14139092977E+01  0.72849163946E+00  0.26966773180E+01  0.31307999600E+01  0.51100000000E-03 0. -1.
        -11    1    3    3    0    0 -0.10755260011E+02 -0.16468630281E+01  0.32502787920E+02  0.34275632723E+02  0.51100000000E-03 0.  1.
        -12    1    3    3    0    0  0.40202292739E+01  0.64524358604E+01  0.70686351267E+01  0.10380836888E+02  0.00000000000E+00 0.  1.
</event>
<event>
 7    1  0.2769403E-010  0.4778728E+02  0.7816164E-02  0.1312668E+00
        -11   -1    0    0    0    0  0.00000000000E+00  0.00000000000E+00  0.45593999997E+02  0.45594000000E+02  0.51100000000E-03 0.  1.
         11   -1    0    0    0    0 -0.00000000000E+00 -0.00000000000E+00 -0.45593999997E+02  0.45594000000E+02  0.51100000000E-03 0. -1.
    9900012    2    1    2    0    0  0.38956460144E+02  0.24583186161E+01  0.18972974646E+02  0.47787275532E+02  0.20000020462E+02 0.  0.
         12    1    1    2    0    0 -0.38956460144E+02 -0.24583186161E+01 -0.18972974646E+02  0.43400724468E+02  0.00000000000E+00 0. -1.
         11    1    3    3    0    0  0.39267880727E+01  0.48535947799E+01  0.37958216381E+01  0.73065250992E+01  0.51100000000E-03 0. -1.
        -11    1    3    3    0    0  0.14572208040E+02  0.55335257011E+01  0.63733007371E+01  0.16840074715E+02  0.51100000000E-03 0.  1.
        -12    1    3    3    0    0  0.20457464031E+02 -0.79288018649E+01  0.88038522713E+01  0.23640675718E+02  0.00000000000E+00 0.  1.
</event>
<event>
 7    1  0.2769403E-010  0.4778727E+02  0.7816164E-02  0.1312668E+00
        -11   -1    0    0    0    0  0.00000000000E+00  0.00000000000E+00  0.45593999997E+02  0.45594000000E+02  0.51100000000E-03 0.  1.
         11   -1    0    0    0    0 -0.00000000000E+00 -0.00000000000E+00 -0.45593999997E+02  0.45594000000E+02  0.51100000000E-03 0. -1.
    9900012    2    1    2    0    0  0.25094027596E+01 -0.36975946963E+01  0.43170057485E+02  0.47787272218E+02  0.20000005350E+02 0.  0.
         12    1    1    2    0    0 -0.25094027596E+01  0.36975946963E+01 -0.43170057485E+02  0.43400727782E+02  0.00000000000E+00 0. -1.
         11    1    3    3    0    0 -0.44169287073E+01 -0.29204753588E+01  0.84341653086E+01  0.99585932862E+01  0.51100000000E-03 0. -1.
        -11    1    3    3    0    0 -0.18819624256E+01 -0.14303841060E+01  0.23097968531E+02  0.23218611754E+02  0.51100000000E-03 0.  1.
        -12    1    3    3    0    0  0.88082938926E+01  0.65326476850E+00  0.11637923646E+02  0.14610067178E+02  0.00000000000E+00 0.  1.
</event>
<event>
 7    1  0.2769403E-010  0.4778727E+02  0.7816164E-02  0.1312668E+00
        -11   -1    0    0    0    0  0.00000000000E+00  0.00000000000E+00  0.45593999997E+02  0.45594000000E+02  0.51100000000E-03 0.  1.
         11   -1    0    0    0    0 -0.00000000000E+00 -0.00000000000E+00 -0.45593999997E+02  0.45594000000E+02  0.51100000000E-03 0. -1.
    9900012    2    1    2    0    0 -0.37023513861E+02 -0.76725507581E+01  0.21307617340E+02  0.47787272236E+02  0.20000005434E+02 0.  0.
         12    1    1    2    0    0  0.37023513861E+02  0.76725507581E+01 -0.21307617340E+02  0.43400727764E+02  0.00000000000E+00 0. -1.
         11    1    3    3    0    0 -0.11766655482E+02  0.32172062872E+01  0.10765110096E+02  0.16269363638E+02  0.51100000000E-03 0. -1.
        -11    1    3    3    0    0 -0.11590562610E+02 -0.57237129249E+01  0.10891745504E+02  0.16903613567E+02  0.51100000000E-03 0.  1.
         12    1    3    3    0    0 -0.13666295769E+02 -0.51660441205E+01 -0.34923826026E+00  0.14614295031E+02  0.00000000000E+00 0. -1.
</event>
<event>
 7    1  0.2769403E-010  0.4778727E+02  0.7816164E-02  0.1312668E+00
        -11   -1    0    0    0    0  0.00000000000E+00  0.00000000000E+00  0.45593999997E+02  0.45594000000E+02  0.51100000000E-03 0.  1.
         11   -1    0    0    0    0 -0.00000000000E+00 -0.00000000000E+00 -0.45593999997E+02  0.45594000000E+02  0.51100000000E-03 0. -1.
    9900012    2    1    2    0    0 -0.22010603489E+02  0.31492510581E+02  0.20183623889E+02  0.47787267727E+02  0.19999984872E+02 0.  0.
         12    1    1    2    0    0  0.22010603489E+02 -0.31492510581E+02 -0.20183623889E+02  0.43400732273E+02  0.00000000000E+00 0. -1.
         11    1    3    3    0    0 -0.14370222766E+02  0.97052862572E+01  0.51028520472E+01  0.18075812097E+02  0.51100000000E-03 0. -1.
        -11    1    3    3    0    0 -0.92191514536E+01  0.19677541795E+02  0.15929189429E+02  0.26943226992E+02  0.51100000000E-03 0.  1.
         12    1    3    3    0    0  0.15787707308E+01  0.21096825283E+01 -0.84841758729E+00  0.27682286381E+01  0.00000000000E+00 0. -1.
</event>
<event>
 7    1  0.2769403E-010  0.4778727E+02  0.7816164E-02  0.1312668E+00
        -11   -1    0    0    0    0  0.00000000000E+00  0.00000000000E+00  0.45593999997E+02  0.45594000000E+02  0.51100000000E-03 0.  1.
         11   -1    0    0    0    0 -0.00000000000E+00 -0.00000000000E+00 -0.45593999997E+02  0.45594000000E+02  0.51100000000E-03 0. -1.
    9900012    2    1    2    0    0 -0.14501664818E+02  0.32846671280E+02  0.24380757019E+02  0.47787269482E+02  0.19999992878E+02 0.  0.
         12    1    1    2    0    0  0.14501664818E+02 -0.32846671280E+02 -0.24380757019E+02  0.43400730518E+02  0.00000000000E+00 0. -1.
         11    1    3    3    0    0 -0.43178477723E+01  0.52699848728E+01 -0.60516570710E-01  0.68132380306E+01  0.51100000000E-03 0. -1.
        -11    1    3    3    0    0 -0.11513328201E+02  0.10594298694E+02  0.94216241615E+01  0.18263704257E+02  0.51100000000E-03 0.  1.
         12    1    3    3    0    0  0.13295111556E+01  0.16982387713E+02  0.15019649429E+02  0.22710327195E+02  0.00000000000E+00 0. -1.
</event>
<event>
 7    1  0.2769403E-010  0.4778728E+02  0.7816164E-02  0.1312668E+00
        -11   -1    0    0    0    0  0.00000000000E+00  0.00000000000E+00  0.45593999997E+02  0.45594000000E+02  0.51100000000E-03 0.  1.
         11   -1    0    0    0    0 -0.00000000000E+00 -0.00000000000E+00 -0.45593999997E+02  0.45594000000E+02  0.51100000000E-03 0. -1.
    9900012    2    1    2    0    0  0.41117529919E+01  0.17982619294E+02  0.39285385776E+02  0.47787278291E+02  0.20000033039E+02 0.  0.
         12    1    1    2    0    0 -0.41117529919E+01 -0.17982619294E+02 -0.39285385776E+02  0.43400721709E+02  0.00000000000E+00 0. -1.
         11    1    3    3    0    0 -0.58693903883E+01  0.13712920186E+02  0.15288353684E+02  0.21359486937E+02  0.51100000000E-03 0. -1.
        -11    1    3    3    0    0  0.11648626991E+01  0.12381428400E+01  0.46667420527E+01  0.49667277404E+01  0.51100000000E-03 0.  1.
         12    1    3    3    0    0  0.88162806810E+01  0.30315562680E+01  0.19330290039E+02  0.21461063614E+02  0.00000000000E+00 0. -1.
</event>
<event>
 7    1  0.2769403E-010  0.4778727E+02  0.7816164E-02  0.1312668E+00
        -11   -1    0    0    0    0  0.00000000000E+00  0.00000000000E+00  0.45593999997E+02  0.45594000000E+02  0.51100000000E-03 0.  1.
         11   -1    0    0    0    0 -0.00000000000E+00 -0.00000000000E+00 -0.45593999997E+02  0.45594000000E+02  0.51100000000E-03 0. -1.
    9900012    2    1    2    0    0 -0.54801399758E+01 -0.13484992337E+02  0.40886999555E+02  0.47787266307E+02  0.19999978400E+02 0.  0.
         12    1    1    2    0    0  0.54801399758E+01  0.13484992337E+02 -0.40886999555E+02  0.43400733693E+02  0.00000000000E+00 0. -1.
         11    1    3    3    0    0 -0.62641512490E+00 -0.76191475630E+00 -0.11768032803E+01  0.15355052023E+01  0.51100000000E-03 0. -1.
        -11    1    3    3    0    0 -0.74669003701E+01 -0.69904787191E+01  0.13150562742E+02  0.16660092874E+02  0.51100000000E-03 0.  1.
        -12    1    3    3    0    0  0.26131755192E+01 -0.57325988612E+01  0.28913240093E+02  0.29591668231E+02  0.00000000000E+00 0.  1.
</event>
<event>
 7    1  0.2769403E-010  0.4778727E+02  0.7816164E-02  0.1312668E+00
        -11   -1    0    0    0    0  0.00000000000E+00  0.00000000000E+00  0.45593999997E+02  0.45594000000E+02  0.51100000000E-03 0.  1.
         11   -1    0    0    0    0 -0.00000000000E+00 -0.00000000000E+00 -0.45593999997E+02  0.45594000000E+02  0.51100000000E-03 0. -1.
    9900012    2    1    2    0    0  0.34087984000E+02 -0.13388564675E+02  0.23289028223E+02  0.47787272439E+02  0.20000006359E+02 0.  0.
         12    1    1    2    0    0 -0.34087984000E+02  0.13388564675E+02 -0.23289028223E+02  0.43400727561E+02  0.00000000000E+00 0. -1.
         11    1    3    3    0    0  0.33841573650E+01 -0.97248095129E+00  0.14712310782E+00  0.35241858267E+01  0.51100000000E-03 0. -1.
        -11    1    3    3    0    0  0.26960226603E+02 -0.67696367872E+01  0.24840009084E+02  0.37278785552E+02  0.51100000000E-03 0.  1.
        -12    1    3    3    0    0  0.37436000327E+01 -0.56464469363E+01 -0.16981039693E+01  0.69843010603E+01  0.00000000000E+00 0.  1.
</event>
<event>
 7    1  0.2769403E-010  0.4778727E+02  0.7816164E-02  0.1312668E+00
        -11   -1    0    0    0    0  0.00000000000E+00  0.00000000000E+00  0.45593999997E+02  0.45594000000E+02  0.51100000000E-03 0. -1.
         11   -1    0    0    0    0 -0.00000000000E+00 -0.00000000000E+00 -0.45593999997E+02  0.45594000000E+02  0.51100000000E-03 0.  1.
    9900012    2    1    2    0    0 -0.39714971164E+02 -0.11994685319E+02  0.12746444499E+02  0.47787271229E+02  0.20000000842E+02 0.  0.
         12    1    1    2    0    0  0.39714971164E+02  0.11994685319E+02 -0.12746444499E+02  0.43400728771E+02  0.00000000000E+00 0. -1.
         11    1    3    3    0    0 -0.16886276009E+02  0.35543342109E+00  0.42112307396E+01  0.17407099557E+02  0.51100000000E-03 0. -1.
        -11    1    3    3    0    0 -0.82921332926E+01 -0.29030786591E+01 -0.33043885557E+01  0.93864969095E+01  0.51100000000E-03 0.  1.
         12    1    3    3    0    0 -0.14536561863E+02 -0.94470400815E+01  0.11839602315E+02  0.20993674763E+02  0.00000000000E+00 0. -1.
</event>
<event>
 7    1  0.2769403E-010  0.4778727E+02  0.7816164E-02  0.1312668E+00
        -11   -1    0    0    0    0  0.00000000000E+00  0.00000000000E+00  0.45593999997E+02  0.45594000000E+02  0.51100000000E-03 0.  1.
         11   -1    0    0    0    0 -0.00000000000E+00 -0.00000000000E+00 -0.45593999997E+02  0.45594000000E+02  0.51100000000E-03 0. -1.
    9900012    2    1    2    0    0 -0.31051428201E+02  0.12135811636E+02  0.27787662561E+02  0.47787270651E+02  0.19999998207E+02 0.  0.
         12    1    1    2    0    0  0.31051428201E+02 -0.12135811636E+02 -0.27787662561E+02  0.43400729349E+02  0.00000000000E+00 0. -1.
         11    1    3    3    0    0 -0.23113431438E+02  0.51759342147E+01  0.18733998334E+02  0.30199067894E+02  0.51100000000E-03 0. -1.
        -11    1    3    3    0    0 -0.10390493146E+02  0.39014544980E+01  0.73618872544E+01  0.13318448829E+02  0.51100000000E-03 0.  1.
         12    1    3    3    0    0  0.24524963821E+01  0.30584229231E+01  0.16917769731E+01  0.42697539282E+01  0.00000000000E+00 0. -1.
</event>
<event>
 7    1  0.2769403E-010  0.4778727E+02  0.7816164E-02  0.1312668E+00
        -11   -1    0    0    0    0  0.00000000000E+00  0.00000000000E+00  0.45593999997E+02  0.45594000000E+02  0.51100000000E-03 0. -1.
         11   -1    0    0    0    0 -0.00000000000E+00 -0.00000000000E+00 -0.45593999997E+02  0.45594000000E+02  0.51100000000E-03 0.  1.
    9900012    2    1    2    0    0 -0.17320161310E+02  0.34995404541E+02 -0.18946162366E+02  0.47787269647E+02  0.19999993627E+02 0.  0.
         12    1    1    2    0    0  0.17320161310E+02 -0.34995404541E+02  0.18946162366E+02  0.43400730353E+02  0.00000000000E+00 0. -1.
         11    1    3    3    0    0 -0.16674024124E+00 -0.20882023870E+00  0.10756949478E+01  0.11083898601E+01  0.51100000000E-03 0. -1.
        -11    1    3    3    0    0 -0.62432524653E+01  0.27244127845E+02 -0.93723843879E+01  0.29479862496E+02  0.51100000000E-03 0.  1.
         12    1    3    3    0    0 -0.10910168603E+02  0.79600969347E+01 -0.10649472926E+02  0.17199017291E+02  0.00000000000E+00 0. -1.
</event>
<event>
 7    1  0.2769403E-010  0.4778727E+02  0.7816164E-02  0.1312668E+00
        -11   -1    0    0    0    0  0.00000000000E+00  0.00000000000E+00  0.45593999997E+02  0.45594000000E+02  0.51100000000E-03 0.  1.
         11   -1    0    0    0    0 -0.00000000000E+00 -0.00000000000E+00 -0.45593999997E+02  0.45594000000E+02  0.51100000000E-03 0. -1.
    9900012    2    1    2    0    0 -0.56297026385E+01  0.22720045108E+02  0.36547630558E+02  0.47787270733E+02  0.19999998579E+02 0.  0.
         12    1    1    2    0    0  0.56297026385E+01 -0.22720045108E+02 -0.36547630558E+02  0.43400729267E+02  0.00000000000E+00 0. -1.
         11    1    3    3    0    0 -0.74492356558E+01  0.82171906838E+00  0.56784236288E+01  0.94027032949E+01  0.51100000000E-03 0. -1.
        -11    1    3    3    0    0 -0.18395728515E+01  0.76484202181E+01  0.13471954622E+02  0.15600510302E+02  0.51100000000E-03 0.  1.
        -12    1    3    3    0    0  0.36591058687E+01  0.14249905822E+02  0.17397252308E+02  0.22784057135E+02  0.00000000000E+00 0.  1.
</event>
<event>
 7    1  0.2769403E-010  0.4778727E+02  0.7816164E-02  0.1312668E+00
        -11   -1    0    0    0    0  0.00000000000E+00  0.00000000000E+00  0.45593999997E+02  0.45594000000E+02  0.51100000000E-03 0.  1.
         11   -1    0    0    0    0 -0.00000000000E+00 -0.00000000000E+00 -0.45593999997E+02  0.45594000000E+02  0.51100000000E-03 0. -1.
    9900012    2    1    2    0    0  0.42268325717E+02  0.46378660861E+01  0.86891938261E+01  0.47787271319E+02  0.20000001251E+02 0.  0.
         12    1    1    2    0    0 -0.42268325717E+02 -0.46378660861E+01 -0.86891938261E+01  0.43400728681E+02  0.00000000000E+00 0. -1.
         11    1    3    3    0    0  0.15665176905E+02 -0.85051246109E-01  0.11942676793E+02  0.19698541327E+02  0.51100000000E-03 0. -1.
        -11    1    3    3    0    0  0.77431589630E+01 -0.17027757614E+00  0.18171104165E+01  0.79553375608E+01  0.51100000000E-03 0.  1.
        -12    1    3    3    0    0  0.18859989849E+02  0.48931949084E+01 -0.50705933835E+01  0.20133392431E+02  0.00000000000E+00 0.  1.
</event>
<event>
 7    1  0.2769403E-010  0.4778727E+02  0.7816164E-02  0.1312668E+00
        -11   -1    0    0    0    0  0.00000000000E+00  0.00000000000E+00  0.45593999997E+02  0.45594000000E+02  0.51100000000E-03 0.  1.
         11   -1    0    0    0    0 -0.00000000000E+00 -0.00000000000E+00 -0.45593999997E+02  0.45594000000E+02  0.51100000000E-03 0. -1.
    9900012    2    1    2    0    0  0.11645871559E+02  0.13979701686E+02  0.39402599776E+02  0.47787271288E+02  0.20000001111E+02 0.  0.
         12    1    1    2    0    0 -0.11645871559E+02 -0.13979701686E+02 -0.39402599776E+02  0.43400728712E+02  0.00000000000E+00 0. -1.
         11    1    3    3    0    0  0.45177991074E+01 -0.74390322631E+00  0.23546610532E+01  0.51486240610E+01  0.51100000000E-03 0. -1.
        -11    1    3    3    0    0  0.57552386688E+01  0.24683396757E+01  0.23493700207E+02  0.24313975869E+02  0.51100000000E-03 0.  1.
        -12    1    3    3    0    0  0.13728337825E+01  0.12255265237E+02  0.13554238516E+02  0.18324671358E+02  0.00000000000E+00 0.  1.
</event>
<event>
 7    1  0.2769403E-010  0.4778727E+02  0.7816164E-02  0.1312668E+00
        -11   -1    0    0    0    0  0.00000000000E+00  0.00000000000E+00  0.45593999997E+02  0.45594000000E+02  0.51100000000E-03 0. -1.
         11   -1    0    0    0    0 -0.00000000000E+00 -0.00000000000E+00 -0.45593999997E+02  0.45594000000E+02  0.51100000000E-03 0.  1.
    9900012    2    1    2    0    0  0.29522260533E+01 -0.42072338604E+02 -0.10238442658E+02  0.47787273942E+02  0.20000013212E+02 0.  0.
         12    1    1    2    0    0 -0.29522260533E+01  0.42072338604E+02  0.10238442658E+02  0.43400726058E+02  0.00000000000E+00 0. -1.
         11    1    3    3    0    0  0.35890368512E+01 -0.24196322066E+02 -0.80588398667E+01  0.25754379964E+02  0.51100000000E-03 0. -1.
        -11    1    3    3    0    0 -0.56247483752E+01 -0.12401011529E+02 -0.43840816277E+01  0.14305350510E+02  0.51100000000E-03 0.  1.
         12    1    3    3    0    0  0.49879375773E+01 -0.54750050091E+01  0.22044788368E+01  0.77275434691E+01  0.00000000000E+00 0. -1.
</event>
<event>
 7    1  0.2769403E-010  0.4778726E+02  0.7816164E-02  0.1312668E+00
        -11   -1    0    0    0    0  0.00000000000E+00  0.00000000000E+00  0.45593999997E+02  0.45594000000E+02  0.51100000000E-03 0.  1.
         11   -1    0    0    0    0 -0.00000000000E+00 -0.00000000000E+00 -0.45593999997E+02  0.45594000000E+02  0.51100000000E-03 0. -1.
    9900012    2    1    2    0    0  0.21450132298E+02  0.25746104519E+02  0.27579955479E+02  0.47787262474E+02  0.19999960926E+02 0.  0.
         12    1    1    2    0    0 -0.21450132298E+02 -0.25746104519E+02 -0.27579955479E+02  0.43400737526E+02  0.00000000000E+00 0. -1.
         11    1    3    3    0    0  0.17447992624E+02  0.22950803834E+02  0.14879350138E+02  0.32443287503E+02  0.51100000000E-03 0.  1.
        -11    1    3    3    0    0  0.48996416391E+01  0.37360147901E+01  0.12616997529E+02  0.14041115398E+02  0.51100000000E-03 0. -1.
        -12    1    3    3    0    0 -0.89750196429E+00 -0.94071410434E+00  0.83607811406E-01  0.13028595735E+01  0.00000000000E+00 0.  1.
</event>
<event>
 7    1  0.2769403E-010  0.4778727E+02  0.7816164E-02  0.1312668E+00
        -11   -1    0    0    0    0  0.00000000000E+00  0.00000000000E+00  0.45593999997E+02  0.45594000000E+02  0.51100000000E-03 0.  1.
         11   -1    0    0    0    0 -0.00000000000E+00 -0.00000000000E+00 -0.45593999997E+02  0.45594000000E+02  0.51100000000E-03 0. -1.
    9900012    2    1    2    0    0 -0.14015184619E+02  0.40951620703E+02 -0.31878492478E+01  0.47787273959E+02  0.20000013288E+02 0.  0.
         12    1    1    2    0    0  0.14015184619E+02 -0.40951620703E+02  0.31878492478E+01  0.43400726041E+02  0.00000000000E+00 0. -1.
         11    1    3    3    0    0 -0.30301960897E+01 -0.29441584744E+00  0.21627787790E+01  0.37344854186E+01  0.51100000000E-03 0. -1.
        -11    1    3    3    0    0 -0.38890526740E+01  0.11654092178E+02  0.26914780627E+01  0.12577227421E+02  0.51100000000E-03 0.  1.
        -12    1    3    3    0    0 -0.70959358548E+01  0.29591944372E+02 -0.80421060895E+01  0.31475561119E+02  0.00000000000E+00 0.  1.
</event>
<event>
 7    1  0.2769403E-010  0.4778727E+02  0.7816164E-02  0.1312668E+00
        -11   -1    0    0    0    0  0.00000000000E+00  0.00000000000E+00  0.45593999997E+02  0.45594000000E+02  0.51100000000E-03 0. -1.
         11   -1    0    0    0    0 -0.00000000000E+00 -0.00000000000E+00 -0.45593999997E+02  0.45594000000E+02  0.51100000000E-03 0.  1.
    9900012    2    1    2    0    0  0.37924063586E+02  0.13890954019E+02 -0.15888042331E+02  0.47787273145E+02  0.20000009578E+02 0.  0.
         12    1    1    2    0    0 -0.37924063586E+02 -0.13890954019E+02  0.15888042331E+02  0.43400726855E+02  0.00000000000E+00 0. -1.
         11    1    3    3    0    0  0.10125515951E+02  0.10182017110E+02 -0.73313743510E+01  0.16122921443E+02  0.51100000000E-03 0. -1.
        -11    1    3    3    0    0  0.12514140500E+02  0.76885201473E+01 -0.44096062429E+01  0.15334982295E+02  0.51100000000E-03 0.  1.
         12    1    3    3    0    0  0.15284407134E+02 -0.39795832382E+01 -0.41470617368E+01  0.16329369407E+02  0.00000000000E+00 0. -1.
</event>
<event>
 7    1  0.2769403E-010  0.4778727E+02  0.7816164E-02  0.1312668E+00
        -11   -1    0    0    0    0  0.00000000000E+00  0.00000000000E+00  0.45593999997E+02  0.45594000000E+02  0.51100000000E-03 0.  1.
         11   -1    0    0    0    0 -0.00000000000E+00 -0.00000000000E+00 -0.45593999997E+02  0.45594000000E+02  0.51100000000E-03 0. -1.
    9900012    2    1    2    0    0 -0.20964379247E+02  0.11590038836E+02  0.36191006276E+02  0.47787272671E+02  0.20000007416E+02 0.  0.
         12    1    1    2    0    0  0.20964379247E+02 -0.11590038836E+02 -0.36191006276E+02  0.43400727329E+02  0.00000000000E+00 0. -1.
         11    1    3    3    0    0 -0.51729509841E+01  0.41138282993E+01  0.21046091183E+02  0.22059486837E+02  0.51100000000E-03 0. -1.
        -11    1    3    3    0    0 -0.48561772224E+01 -0.40230615112E+00  0.10319686954E+02  0.11412284896E+02  0.51100000000E-03 0.  1.
         12    1    3    3    0    0 -0.10935251041E+02  0.78785166882E+01  0.48252281388E+01  0.14315500938E+02  0.00000000000E+00 0. -1.
</event>
<event>
 7    1  0.2769403E-010  0.4778726E+02  0.7816164E-02  0.1312668E+00
        -11   -1    0    0    0    0  0.00000000000E+00  0.00000000000E+00  0.45593999997E+02  0.45594000000E+02  0.51100000000E-03 0.  1.
         11   -1    0    0    0    0 -0.00000000000E+00 -0.00000000000E+00 -0.45593999997E+02  0.45594000000E+02  0.51100000000E-03 0. -1.
    9900012    2    1    2    0    0  0.11982614599E+02  0.41541002914E+02 -0.37929190213E+01  0.47787260254E+02  0.19999950804E+02 0.  0.
         12    1    1    2    0    0 -0.11982614599E+02 -0.41541002914E+02  0.37929190213E+01  0.43400739746E+02  0.00000000000E+00 0. -1.
         11    1    3    3    0    0  0.51189382707E+01  0.27146548002E+02 -0.35899039072E+01  0.27857243363E+02  0.51100000000E-03 0. -1.
        -11    1    3    3    0    0 -0.89833527333E+00  0.10878250388E+02  0.20721244068E+01  0.11110222211E+02  0.51100000000E-03 0.  1.
         12    1    3    3    0    0  0.77620116020E+01  0.35162045247E+01 -0.22751395210E+01  0.88197946807E+01  0.00000000000E+00 0. -1.
</event>
<event>
 7    1  0.2769403E-010  0.4778727E+02  0.7816164E-02  0.1312668E+00
        -11   -1    0    0    0    0  0.00000000000E+00  0.00000000000E+00  0.45593999997E+02  0.45594000000E+02  0.51100000000E-03 0. -1.
         11   -1    0    0    0    0 -0.00000000000E+00 -0.00000000000E+00 -0.45593999997E+02  0.45594000000E+02  0.51100000000E-03 0.  1.
    9900012    2    1    2    0    0 -0.27330001053E+02 -0.27527843354E+02 -0.19465669431E+02  0.47787269550E+02  0.19999993185E+02 0.  0.
         12    1    1    2    0    0  0.27330001053E+02  0.27527843354E+02  0.19465669431E+02  0.43400730450E+02  0.00000000000E+00 0. -1.
         11    1    3    3    0    0 -0.45101957902E+01 -0.32197199020E+00 -0.17428575894E+01  0.48459348806E+01  0.51100000000E-03 0. -1.
        -11    1    3    3    0    0 -0.13292405517E+02 -0.13147705834E+02 -0.42584465504E+00  0.18701111118E+02  0.51100000000E-03 0.  1.
         12    1    3    3    0    0 -0.95273997458E+01 -0.14058165529E+02 -0.17296967186E+02  0.24240223551E+02  0.00000000000E+00 0. -1.
</event>
<event>
 7    1  0.2769403E-010  0.4778727E+02  0.7816164E-02  0.1312668E+00
        -11   -1    0    0    0    0  0.00000000000E+00  0.00000000000E+00  0.45593999997E+02  0.45594000000E+02  0.51100000000E-03 0.  1.
         11   -1    0    0    0    0 -0.00000000000E+00 -0.00000000000E+00 -0.45593999997E+02  0.45594000000E+02  0.51100000000E-03 0. -1.
    9900012    2    1    2    0    0  0.35834763304E+01  0.39178081843E+02  0.18326486269E+02  0.47787268456E+02  0.19999988200E+02 0.  0.
         12    1    1    2    0    0 -0.35834763304E+01 -0.39178081843E+02 -0.18326486269E+02  0.43400731544E+02  0.00000000000E+00 0. -1.
         11    1    3    3    0    0  0.25664087187E+01  0.64381497215E+01  0.13191690228E+01  0.70552415068E+01  0.51100000000E-03 0. -1.
        -11    1    3    3    0    0  0.27937647657E+01  0.29474841422E+02  0.75266478096E+01  0.30548679610E+02  0.51100000000E-03 0.  1.
         12    1    3    3    0    0 -0.17766971540E+01  0.32650906998E+01  0.94806694370E+01  0.10183347339E+02  0.00000000000E+00 0. -1.
</event>
<event>
 7    1  0.2769403E-010  0.4778727E+02  0.7816164E-02  0.1312668E+00
        -11   -1    0    0    0    0  0.00000000000E+00  0.00000000000E+00  0.45593999997E+02  0.45594000000E+02  0.51100000000E-03 0. -1.
         11   -1    0    0    0    0 -0.00000000000E+00 -0.00000000000E+00 -0.45593999997E+02  0.45594000000E+02  0.51100000000E-03 0.  1.
    9900012    2    1    2    0    0  0.22107417174E+02  0.25725326095E+02 -0.27075688131E+02  0.47787272073E+02  0.20000004691E+02 0.  0.
         12    1    1    2    0    0 -0.22107417174E+02 -0.25725326095E+02  0.27075688131E+02  0.43400727927E+02  0.00000000000E+00 0. -1.
         11    1    3    3    0    0  0.13704828691E+02  0.78838760978E+01 -0.30430308509E+01  0.16100865468E+02  0.51100000000E-03 0. -1.
        -11    1    3    3    0    0  0.56754997759E+01  0.99762946753E+01 -0.93331981996E+01  0.14793456055E+02  0.51100000000E-03 0.  1.
         12    1    3    3    0    0  0.27270887067E+01  0.78651553222E+01 -0.14699459080E+02  0.16892950551E+02  0.00000000000E+00 0. -1.
</event>
<event>
 7    1  0.2769403E-010  0.4778727E+02  0.7816164E-02  0.1312668E+00
        -11   -1    0    0    0    0  0.00000000000E+00  0.00000000000E+00  0.45593999997E+02  0.45594000000E+02  0.51100000000E-03 0.  1.
         11   -1    0    0    0    0 -0.00000000000E+00 -0.00000000000E+00 -0.45593999997E+02  0.45594000000E+02  0.51100000000E-03 0. -1.
    9900012    2    1    2    0    0 -0.31220359801E+02 -0.11538449231E+02  0.27852760587E+02  0.47787274786E+02  0.20000017061E+02 0.  0.
         12    1    1    2    0    0  0.31220359801E+02  0.11538449231E+02 -0.27852760587E+02  0.43400725214E+02  0.00000000000E+00 0. -1.
         11    1    3    3    0    0 -0.22464247592E+01 -0.27952916888E+01 -0.10641542640E+01  0.37406556087E+01  0.51100000000E-03 0. -1.
        -11    1    3    3    0    0 -0.20167811368E+01  0.29906775259E+01  0.48951632243E+01  0.60806398899E+01  0.51100000000E-03 0.  1.
        -12    1    3    3    0    0 -0.26957153905E+02 -0.11733835068E+02  0.24021751626E+02  0.37965979288E+02  0.00000000000E+00 0.  1.
</event>
<event>
 7    1  0.2769403E-010  0.4778727E+02  0.7816164E-02  0.1312668E+00
        -11   -1    0    0    0    0  0.00000000000E+00  0.00000000000E+00  0.45593999997E+02  0.45594000000E+02  0.51100000000E-03 0.  1.
         11   -1    0    0    0    0 -0.00000000000E+00 -0.00000000000E+00 -0.45593999997E+02  0.45594000000E+02  0.51100000000E-03 0. -1.
    9900012    2    1    2    0    0 -0.31680171125E+02  0.29639374864E+02 -0.12237516044E+01  0.47787270135E+02  0.19999995852E+02 0.  0.
         12    1    1    2    0    0  0.31680171125E+02 -0.29639374864E+02  0.12237516044E+01  0.43400729865E+02  0.00000000000E+00 0. -1.
         11    1    3    3    0    0 -0.59929983521E+00 -0.10271565497E+01  0.17272455807E+01  0.20970427815E+01  0.51100000000E-03 0. -1.
        -11    1    3    3    0    0 -0.16929503395E+02  0.24836381776E+02 -0.41284666372E+01  0.30339712951E+02  0.51100000000E-03 0.  1.
        -12    1    3    3    0    0 -0.14151367895E+02  0.58301496372E+01  0.11774694520E+01  0.15350514402E+02  0.00000000000E+00 0.  1.
</event>
<event>
 7    1  0.2769403E-010  0.4778729E+02  0.7816164E-02  0.1312668E+00
        -11   -1    0    0    0    0  0.00000000000E+00  0.00000000000E+00  0.45593999997E+02  0.45594000000E+02  0.51100000000E-03 0.  1.
         11   -1    0    0    0    0 -0.00000000000E+00 -0.00000000000E+00 -0.45593999997E+02  0.45594000000E+02  0.51100000000E-03 0. -1.
    9900012    2    1    2    0    0 -0.32181931332E+02 -0.22742956639E+02  0.18185241437E+02  0.47787288174E+02  0.20000078098E+02 0.  0.
         12    1    1    2    0    0  0.32181931332E+02  0.22742956639E+02 -0.18185241437E+02  0.43400711826E+02  0.00000000000E+00 0. -1.
         11    1    3    3    0    0 -0.12537237942E+02 -0.11447437289E+02  0.34945463359E+01  0.17333147725E+02  0.51100000000E-03 0. -1.
        -11    1    3    3    0    0 -0.89000883960E+01 -0.12973938648E+02  0.76081169375E+01  0.17476215296E+02  0.51100000000E-03 0.  1.
         12    1    3    3    0    0 -0.10744604993E+02  0.16784192978E+01  0.70825781639E+01  0.12977925152E+02  0.00000000000E+00 0. -1.
</event>
<event>
 7    1  0.2769403E-010  0.4778726E+02  0.7816164E-02  0.1312668E+00
        -11   -1    0    0    0    0  0.00000000000E+00  0.00000000000E+00  0.45593999997E+02  0.45594000000E+02  0.51100000000E-03 0. -1.
         11   -1    0    0    0    0 -0.00000000000E+00 -0.00000000000E+00 -0.45593999997E+02  0.45594000000E+02  0.51100000000E-03 0.  1.
    9900012    2    1    2    0    0 -0.97523789034E+01  0.40604199612E+02  0.11824296457E+02  0.47787263749E+02  0.19999966739E+02 0.  0.
         12    1    1    2    0    0  0.97523789034E+01 -0.40604199612E+02 -0.11824296457E+02  0.43400736251E+02  0.00000000000E+00 0. -1.
         11    1    3    3    0    0 -0.43741265516E+01  0.33694908498E+01  0.36831862841E+01  0.66371916607E+01  0.51100000000E-03 0. -1.
        -11    1    3    3    0    0 -0.31321666163E+01  0.51012327799E+01  0.65871038227E+01  0.89007292184E+01  0.51100000000E-03 0.  1.
         12    1    3    3    0    0 -0.22460857356E+01  0.32133475982E+02  0.15540063500E+01  0.32249342870E+02  0.00000000000E+00 0. -1.
</event>
<event>
 7    1  0.2769403E-010  0.4778728E+02  0.7816164E-02  0.1312668E+00
        -11   -1    0    0    0    0  0.00000000000E+00  0.00000000000E+00  0.45593999997E+02  0.45594000000E+02  0.51100000000E-03 0.  1.
         11   -1    0    0    0    0 -0.00000000000E+00 -0.00000000000E+00 -0.45593999997E+02  0.45594000000E+02  0.51100000000E-03 0. -1.
    9900012    2    1    2    0    0  0.18947295294E+02  0.34876872631E+02  0.17556385237E+02  0.47787275282E+02  0.20000019320E+02 0.  0.
         12    1    1    2    0    0 -0.18947295294E+02 -0.34876872631E+02 -0.17556385237E+02  0.43400724718E+02  0.00000000000E+00 0. -1.
         11    1    3    3    0    0  0.37909047649E+01  0.96429320999E+01 -0.33348710144E+01  0.10884781273E+02  0.51100000000E-03 0. -1.
        -11    1    3    3    0    0  0.76984391323E-01  0.57294671525E+01  0.46548529203E+01  0.73824370244E+01  0.51100000000E-03 0.  1.
        -12    1    3    3    0    0  0.15079406137E+02  0.19504473379E+02  0.16236403331E+02  0.29520056984E+02  0.00000000000E+00 0.  1.
</event>
<event>
 7    1  0.2769403E-010  0.4778734E+02  0.7816164E-02  0.1312667E+00
        -11   -1    0    0    0    0  0.00000000000E+00  0.00000000000E+00  0.45593999997E+02  0.45594000000E+02  0.51100000000E-03 0.  1.
         11   -1    0    0    0    0 -0.00000000000E+00 -0.00000000000E+00 -0.45593999997E+02  0.45594000000E+02  0.51100000000E-03 0. -1.
    9900012    2    1    2    0    0  0.32317962473E+02 -0.19743855454E+02  0.21197808937E+02  0.47787336061E+02  0.20000296436E+02 0.  0.
         12    1    1    2    0    0 -0.32317962473E+02  0.19743855454E+02 -0.21197808937E+02  0.43400663939E+02  0.00000000000E+00 0. -1.
         11    1    3    3    0    0  0.48766410234E+01  0.14840861446E+01  0.19429887992E+01  0.54552126531E+01  0.51100000000E-03 0. -1.
        -11    1    3    3    0    0  0.16313739184E+02 -0.41430692831E+01  0.12078397968E+02  0.20716920789E+02  0.51100000000E-03 0.  1.
         12    1    3    3    0    0  0.11127582266E+02 -0.17084872316E+02  0.71764221690E+01  0.21615202619E+02  0.00000000000E+00 0. -1.
</event>
<event>
 7    1  0.2769403E-010  0.4778727E+02  0.7816164E-02  0.1312668E+00
        -11   -1    0    0    0    0  0.00000000000E+00  0.00000000000E+00  0.45593999997E+02  0.45594000000E+02  0.51100000000E-03 0. -1.
         11   -1    0    0    0    0 -0.00000000000E+00 -0.00000000000E+00 -0.45593999997E+02  0.45594000000E+02  0.51100000000E-03 0.  1.
    9900012    2    1    2    0    0  0.15028330751E+02  0.35885715108E+02 -0.19235072317E+02  0.47787270962E+02  0.19999999624E+02 0.  0.
         12    1    1    2    0    0 -0.15028330751E+02 -0.35885715108E+02  0.19235072317E+02  0.43400729038E+02  0.00000000000E+00 0. -1.
         11    1    3    3    0    0  0.67600216768E+00  0.97295673437E+01 -0.23426501210E+01  0.10030427183E+02  0.51100000000E-03 0. -1.
        -11    1    3    3    0    0  0.11840260368E+01  0.22175542776E+01 -0.89617595655E+01  0.93076634770E+01  0.51100000000E-03 0.  1.
        -12    1    3    3    0    0  0.13168302547E+02  0.23938593487E+02 -0.79306626303E+01  0.28449180302E+02  0.00000000000E+00 0.  1.
</event>
<event>
 7    1  0.2769403E-010  0.4778727E+02  0.7816164E-02  0.1312668E+00
        -11   -1    0    0    0    0  0.00000000000E+00  0.00000000000E+00  0.45593999997E+02  0.45594000000E+02  0.51100000000E-03 0.  1.
         11   -1    0    0    0    0 -0.00000000000E+00 -0.00000000000E+00 -0.45593999997E+02  0.45594000000E+02  0.51100000000E-03 0. -1.
    9900012    2    1    2    0    0 -0.12088461369E+02  0.28601894090E+02  0.30322003916E+02  0.47787272295E+02  0.20000005703E+02 0.  0.
         12    1    1    2    0    0  0.12088461369E+02 -0.28601894090E+02 -0.30322003916E+02  0.43400727705E+02  0.00000000000E+00 0. -1.
         11    1    3    3    0    0  0.33864538755E+00  0.17821298353E+02  0.13058755260E+02  0.22096254092E+02  0.51100000000E-03 0.  1.
        -11    1    3    3    0    0 -0.40358053213E+01  0.70804358988E+00  0.10654829539E+00  0.40988294813E+01  0.51100000000E-03 0. -1.
        -12    1    3    3    0    0 -0.83913014352E+01  0.10072552147E+02  0.17156700361E+02  0.21592188722E+02  0.00000000000E+00 0.  1.
</event>
<event>
 7    1  0.2769403E-010  0.4778725E+02  0.7816164E-02  0.1312668E+00
        -11   -1    0    0    0    0  0.00000000000E+00  0.00000000000E+00  0.45593999997E+02  0.45594000000E+02  0.51100000000E-03 0.  1.
         11   -1    0    0    0    0 -0.00000000000E+00 -0.00000000000E+00 -0.45593999997E+02  0.45594000000E+02  0.51100000000E-03 0. -1.
    9900012    2    1    2    0    0 -0.73280063494E+01  0.37259398866E+02 -0.21015769445E+02  0.47787250625E+02  0.19999906901E+02 0.  0.
         12    1    1    2    0    0  0.73280063494E+01 -0.37259398866E+02  0.21015769445E+02  0.43400749375E+02  0.00000000000E+00 0. -1.
         11    1    3    3    0    0 -0.20994858488E+01 -0.23039802679E+00 -0.16891636609E+00  0.21188338962E+01  0.51100000000E-03 0. -1.
        -11    1    3    3    0    0  0.17798994852E+01 -0.18893562505E+00  0.41962222765E+00  0.18384291999E+01  0.51100000000E-03 0.  1.
        -12    1    3    3    0    0 -0.70084199859E+01  0.37678732518E+02 -0.21266475307E+02  0.43829987529E+02  0.00000000000E+00 0.  1.
</event>
<event>
 7    1  0.2769403E-010  0.4778727E+02  0.7816164E-02  0.1312668E+00
        -11   -1    0    0    0    0  0.00000000000E+00  0.00000000000E+00  0.45593999997E+02  0.45594000000E+02  0.51100000000E-03 0.  1.
         11   -1    0    0    0    0 -0.00000000000E+00 -0.00000000000E+00 -0.45593999997E+02  0.45594000000E+02  0.51100000000E-03 0. -1.
    9900012    2    1    2    0    0  0.42016306418E+02 -0.10866806405E+02  0.40703032830E+00  0.47787272355E+02  0.20000005976E+02 0.  0.
         12    1    1    2    0    0 -0.42016306418E+02  0.10866806405E+02 -0.40703032830E+00  0.43400727645E+02  0.00000000000E+00 0. -1.
         11    1    3    3    0    0  0.83503594601E+01 -0.16901426463E+01  0.36032178442E+01  0.92503115824E+01  0.51100000000E-03 0. -1.
        -11    1    3    3    0    0  0.40664882658E+01 -0.32779546780E+01  0.50332734649E+01  0.72536305200E+01  0.51100000000E-03 0.  1.
         12    1    3    3    0    0  0.29599458692E+02 -0.58987090802E+01 -0.82294609808E+01  0.31283330253E+02  0.00000000000E+00 0. -1.
</event>
<event>
 7    1  0.2769403E-010  0.4778727E+02  0.7816164E-02  0.1312668E+00
        -11   -1    0    0    0    0  0.00000000000E+00  0.00000000000E+00  0.45593999997E+02  0.45594000000E+02  0.51100000000E-03 0.  1.
         11   -1    0    0    0    0 -0.00000000000E+00 -0.00000000000E+00 -0.45593999997E+02  0.45594000000E+02  0.51100000000E-03 0. -1.
    9900012    2    1    2    0    0 -0.21994048441E+02  0.16971764224E+02  0.33344330714E+02  0.47787270301E+02  0.19999996608E+02 0.  0.
         12    1    1    2    0    0  0.21994048441E+02 -0.16971764224E+02 -0.33344330714E+02  0.43400729699E+02  0.00000000000E+00 0. -1.
         11    1    3    3    0    0 -0.47609255134E+01  0.10912814415E+01  0.10249959303E+02  0.11354249112E+02  0.51100000000E-03 0. -1.
        -11    1    3    3    0    0 -0.35082143037E+01 -0.11239793268E+01  0.10686759684E+02  0.11303881189E+02  0.51100000000E-03 0.  1.
        -12    1    3    3    0    0 -0.13724908624E+02  0.17004462109E+02  0.12407611727E+02  0.25129140000E+02  0.00000000000E+00 0.  1.
</event>
<event>
 7    1  0.2769403E-010  0.4778726E+02  0.7816164E-02  0.1312668E+00
        -11   -1    0    0    0    0  0.00000000000E+00  0.00000000000E+00  0.45593999997E+02  0.45594000000E+02  0.51100000000E-03 0.  1.
         11   -1    0    0    0    0 -0.00000000000E+00 -0.00000000000E+00 -0.45593999997E+02  0.45594000000E+02  0.51100000000E-03 0. -1.
    9900012    2    1    2    0    0 -0.16852165601E+01 -0.15898340942E+02  0.40348822271E+02  0.47787255096E+02  0.19999927284E+02 0.  0.
         12    1    1    2    0    0  0.16852165601E+01  0.15898340942E+02 -0.40348822271E+02  0.43400744904E+02  0.00000000000E+00 0. -1.
         11    1    3    3    0    0 -0.20212990905E+01 -0.26762561095E+01  0.15118036350E+02  0.15485574582E+02  0.51100000000E-03 0. -1.
        -11    1    3    3    0    0  0.37316367449E+01  0.22297658812E+01  0.52608731717E+01  0.68244967192E+01  0.51100000000E-03 0.  1.
        -12    1    3    3    0    0 -0.33955542145E+01 -0.15451850714E+02  0.19969912749E+02  0.25477183795E+02  0.00000000000E+00 0.  1.
</event>
<event>
 7    1  0.2769403E-010  0.4778727E+02  0.7816164E-02  0.1312668E+00
        -11   -1    0    0    0    0  0.00000000000E+00  0.00000000000E+00  0.45593999997E+02  0.45594000000E+02  0.51100000000E-03 0.  1.
         11   -1    0    0    0    0 -0.00000000000E+00 -0.00000000000E+00 -0.45593999997E+02  0.45594000000E+02  0.51100000000E-03 0. -1.
    9900012    2    1    2    0    0 -0.24051452471E+01  0.35895317441E+02  0.24276830325E+02  0.47787273872E+02  0.20000012891E+02 0.  0.
         12    1    1    2    0    0  0.24051452471E+01 -0.35895317441E+02 -0.24276830325E+02  0.43400726128E+02  0.00000000000E+00 0. -1.
         11    1    3    3    0    0  0.63033032806E+00 -0.11976121338E+01 -0.94672389568E+00  0.16516287541E+01  0.51100000000E-03 0. -1.
        -11    1    3    3    0    0  0.30947128258E+01  0.11273812875E+02  0.47503462815E+01  0.12619108299E+02  0.51100000000E-03 0.  1.
         12    1    3    3    0    0 -0.61301884009E+01  0.25819116700E+02  0.20473207939E+02  0.33516536819E+02  0.00000000000E+00 0. -1.
</event>
<event>
 7    1  0.2769403E-010  0.4778727E+02  0.7816164E-02  0.1312668E+00
        -11   -1    0    0    0    0  0.00000000000E+00  0.00000000000E+00  0.45593999997E+02  0.45594000000E+02  0.51100000000E-03 0.  1.
         11   -1    0    0    0    0 -0.00000000000E+00 -0.00000000000E+00 -0.45593999997E+02  0.45594000000E+02  0.51100000000E-03 0. -1.
    9900012    2    1    2    0    0 -0.25282888231E+02 -0.33712686755E+02  0.10385248011E+02  0.47787273488E+02  0.20000011143E+02 0.  0.
         12    1    1    2    0    0  0.25282888231E+02  0.33712686755E+02 -0.10385248011E+02  0.43400726512E+02  0.00000000000E+00 0. -1.
         11    1    3    3    0    0 -0.11814544985E+02 -0.27292711214E+02  0.12762283010E+02  0.32362809311E+02  0.51100000000E-03 0.  1.
        -11    1    3    3    0    0 -0.18444786513E+01 -0.48968900645E-01  0.38390398877E+00  0.18846437282E+01  0.51100000000E-03 0. -1.
        -12    1    3    3    0    0 -0.11623864594E+02 -0.63710066398E+01 -0.27609389871E+01  0.13539820449E+02  0.00000000000E+00 0.  1.
</event>
<event>
 7    1  0.2769403E-010  0.4778727E+02  0.7816164E-02  0.1312668E+00
        -11   -1    0    0    0    0  0.00000000000E+00  0.00000000000E+00  0.45593999997E+02  0.45594000000E+02  0.51100000000E-03 0.  1.
         11   -1    0    0    0    0 -0.00000000000E+00 -0.00000000000E+00 -0.45593999997E+02  0.45594000000E+02  0.51100000000E-03 0. -1.
    9900012    2    1    2    0    0  0.12348577984E+02  0.26898207638E+02  0.31743064743E+02  0.47787272913E+02  0.20000008521E+02 0.  0.
         12    1    1    2    0    0 -0.12348577984E+02 -0.26898207638E+02 -0.31743064743E+02  0.43400727087E+02  0.00000000000E+00 0. -1.
         11    1    3    3    0    0 -0.12737443796E+01  0.30132178711E+01  0.55151133944E-01  0.32718417737E+01  0.51100000000E-03 0. -1.
        -11    1    3    3    0    0 -0.23151812469E+01  0.95382846261E+01  0.95454794845E+01  0.13691424932E+02  0.51100000000E-03 0.  1.
        -12    1    3    3    0    0  0.15937503610E+02  0.14346705141E+02  0.22142434125E+02  0.30824006208E+02  0.00000000000E+00 0.  1.
</event>
<event>
 7    1  0.2769403E-010  0.4778726E+02  0.7816164E-02  0.1312668E+00
        -11   -1    0    0    0    0  0.00000000000E+00  0.00000000000E+00  0.45593999997E+02  0.45594000000E+02  0.51100000000E-03 0.  1.
         11   -1    0    0    0    0 -0.00000000000E+00 -0.00000000000E+00 -0.45593999997E+02  0.45594000000E+02  0.51100000000E-03 0. -1.
    9900012    2    1    2    0    0 -0.33525551446E+02 -0.87914153580E+01  0.26122256126E+02  0.47787264420E+02  0.19999969797E+02 0.  0.
         12    1    1    2    0    0  0.33525551446E+02  0.87914153580E+01 -0.26122256126E+02  0.43400735580E+02  0.00000000000E+00 0. -1.
         11    1    3    3    0    0  0.66127527733E+00 -0.60251836822E+00  0.32901428391E+01  0.34095972693E+01  0.51100000000E-03 0. -1.
        -11    1    3    3    0    0 -0.32317808866E+01  0.36265259458E+01  0.20958362111E+01  0.52904279430E+01  0.51100000000E-03 0.  1.
        -12    1    3    3    0    0 -0.30955045837E+02 -0.11815422936E+02  0.20736277076E+02  0.39087239208E+02  0.00000000000E+00 0.  1.
</event>
<event>
 7    1  0.2769403E-010  0.4778727E+02  0.7816164E-02  0.1312668E+00
        -11   -1    0    0    0    0  0.00000000000E+00  0.00000000000E+00  0.45593999997E+02  0.45594000000E+02  0.51100000000E-03 0.  1.
         11   -1    0    0    0    0 -0.00000000000E+00 -0.00000000000E+00 -0.45593999997E+02  0.45594000000E+02  0.51100000000E-03 0. -1.
    9900012    2    1    2    0    0 -0.84849683322E-01  0.32058215917E+00  0.43399460423E+02  0.47787272617E+02  0.20000007171E+02 0.  0.
         12    1    1    2    0    0  0.84849683322E-01 -0.32058215917E+00 -0.43399460423E+02  0.43400727383E+02  0.00000000000E+00 0. -1.
         11    1    3    3    0    0  0.34318744192E+01  0.11716201865E+01  0.42392675389E+01  0.55786956736E+01  0.51100000000E-03 0. -1.
        -11    1    3    3    0    0  0.85437351123E+00  0.68278656441E+01  0.18498265497E+02  0.19736654479E+02  0.51100000000E-03 0.  1.
        -12    1    3    3    0    0 -0.43710976138E+01 -0.76789036713E+01  0.20661927386E+02  0.22471922465E+02  0.00000000000E+00 0.  1.
</event>
<event>
 7    1  0.2769403E-010  0.4778727E+02  0.7816164E-02  0.1312668E+00
        -11   -1    0    0    0    0  0.00000000000E+00  0.00000000000E+00  0.45593999997E+02  0.45594000000E+02  0.51100000000E-03 0.  1.
         11   -1    0    0    0    0 -0.00000000000E+00 -0.00000000000E+00 -0.45593999997E+02  0.45594000000E+02  0.51100000000E-03 0. -1.
    9900012    2    1    2    0    0  0.26614219065E+01  0.42192357614E+02  0.98155515611E+01  0.47787271204E+02  0.20000000728E+02 0.  0.
         12    1    1    2    0    0 -0.26614219065E+01 -0.42192357614E+02 -0.98155515611E+01  0.43400728796E+02  0.00000000000E+00 0. -1.
         11    1    3    3    0    0 -0.39204199466E+01  0.31816534263E+01  0.31511178065E+01  0.59516514326E+01  0.51100000000E-03 0. -1.
        -11    1    3    3    0    0 -0.26186065195E+01  0.15814761927E+02  0.51446890369E+01  0.16835427540E+02  0.51100000000E-03 0.  1.
         12    1    3    3    0    0  0.92004483726E+01  0.23195942261E+02  0.15197447177E+01  0.25000192232E+02  0.00000000000E+00 0. -1.
</event>
<event>
 7    1  0.2769403E-010  0.4778728E+02  0.7816164E-02  0.1312668E+00
        -11   -1    0    0    0    0  0.00000000000E+00  0.00000000000E+00  0.45593999997E+02  0.45594000000E+02  0.51100000000E-03 0.  1.
         11   -1    0    0    0    0 -0.00000000000E+00 -0.00000000000E+00 -0.45593999997E+02  0.45594000000E+02  0.51100000000E-03 0. -1.
    9900012    2    1    2    0    0 -0.27931616241E+02  0.30313014127E+01  0.33079574757E+02  0.47787282953E+02  0.20000054295E+02 0.  0.
         12    1    1    2    0    0  0.27931616241E+02 -0.30313014127E+01 -0.33079574757E+02  0.43400717047E+02  0.00000000000E+00 0. -1.
         11    1    3    3    0    0 -0.94878596479E-01 -0.30130597617E+01  0.62473116700E+01  0.69366010725E+01  0.51100000000E-03 0. -1.
        -11    1    3    3    0    0 -0.82926312532E+01 -0.40949023784E+00  0.18943129775E+01  0.85160928408E+01  0.51100000000E-03 0.  1.
        -12    1    3    3    0    0 -0.19544106392E+02  0.64538514123E+01  0.24937950109E+02  0.32334589040E+02  0.00000000000E+00 0.  1.
</event>
<event>
 7    1  0.2769403E-010  0.4778727E+02  0.7816164E-02  0.1312668E+00
        -11   -1    0    0    0    0  0.00000000000E+00  0.00000000000E+00  0.45593999997E+02  0.45594000000E+02  0.51100000000E-03 0.  1.
         11   -1    0    0    0    0 -0.00000000000E+00 -0.00000000000E+00 -0.45593999997E+02  0.45594000000E+02  0.51100000000E-03 0. -1.
    9900012    2    1    2    0    0  0.20538222201E+02 -0.24300112347E+02  0.29517950167E+02  0.47787269438E+02  0.19999992676E+02 0.  0.
         12    1    1    2    0    0 -0.20538222201E+02  0.24300112347E+02 -0.29517950167E+02  0.43400730562E+02  0.00000000000E+00 0. -1.
         11    1    3    3    0    0  0.26089871298E+01 -0.87930255251E+01  0.68767596098E+00  0.91976633020E+01  0.51100000000E-03 0. -1.
        -11    1    3    3    0    0  0.65411218226E+01 -0.11785890422E+02  0.12905234730E+02  0.18661151396E+02  0.51100000000E-03 0.  1.
        -12    1    3    3    0    0  0.11388113248E+02 -0.37211963997E+01  0.15925039476E+02  0.19928454740E+02  0.00000000000E+00 0.  1.
</event>
<event>
 7    1  0.2769403E-010  0.4778728E+02  0.7816164E-02  0.1312668E+00
        -11   -1    0    0    0    0  0.00000000000E+00  0.00000000000E+00  0.45593999997E+02  0.45594000000E+02  0.51100000000E-03 0.  1.
         11   -1    0    0    0    0 -0.00000000000E+00 -0.00000000000E+00 -0.45593999997E+02  0.45594000000E+02  0.51100000000E-03 0. -1.
    9900012    2    1    2    0    0 -0.34475865661E+02  0.16595176577E+02  0.20485060987E+02  0.47787275094E+02  0.20000018463E+02 0.  0.
         12    1    1    2    0    0  0.34475865661E+02 -0.16595176577E+02 -0.20485060987E+02  0.43400724906E+02  0.00000000000E+00 0. -1.
         11    1    3    3    0    0 -0.49150986954E+01 -0.33697982597E+01  0.18058673344E+01  0.62269488988E+01  0.51100000000E-03 0. -1.
        -11    1    3    3    0    0 -0.33161409056E+01  0.23228146503E+01 -0.11815887354E+01  0.42176309234E+01  0.51100000000E-03 0.  1.
        -12    1    3    3    0    0 -0.26244626060E+02  0.17642160187E+02  0.19860782388E+02  0.37342695272E+02  0.00000000000E+00 0.  1.
</event>
<event>
 7    1  0.2769403E-010  0.4778727E+02  0.7816164E-02  0.1312668E+00
        -11   -1    0    0    0    0  0.00000000000E+00  0.00000000000E+00  0.45593999997E+02  0.45594000000E+02  0.51100000000E-03 0.  1.
         11   -1    0    0    0    0 -0.00000000000E+00 -0.00000000000E+00 -0.45593999997E+02  0.45594000000E+02  0.51100000000E-03 0. -1.
    9900012    2    1    2    0    0  0.41014824671E+02 -0.11143961707E+02  0.87874729756E+01  0.47787269515E+02  0.19999993026E+02 0.  0.
         12    1    1    2    0    0 -0.41014824671E+02  0.11143961707E+02 -0.87874729756E+01  0.43400730485E+02  0.00000000000E+00 0. -1.
         11    1    3    3    0    0  0.32850602979E+01  0.27846231886E+01 -0.19926180123E+01  0.47451316386E+01  0.51100000000E-03 0. -1.
        -11    1    3    3    0    0  0.73468965652E+01 -0.17784624582E+01  0.66358087833E+01  0.10058517601E+02  0.51100000000E-03 0.  1.
        -12    1    3    3    0    0  0.30382867808E+02 -0.12150122438E+02  0.41442822047E+01  0.32983620276E+02  0.00000000000E+00 0.  1.
</event>
<event>
 7    1  0.2769403E-010  0.4778727E+02  0.7816164E-02  0.1312668E+00
        -11   -1    0    0    0    0  0.00000000000E+00  0.00000000000E+00  0.45593999997E+02  0.45594000000E+02  0.51100000000E-03 0.  1.
         11   -1    0    0    0    0 -0.00000000000E+00 -0.00000000000E+00 -0.45593999997E+02  0.45594000000E+02  0.51100000000E-03 0. -1.
    9900012    2    1    2    0    0 -0.35197982175E+02 -0.25357095072E+02  0.13201518694E+01  0.47787273962E+02  0.20000013303E+02 0.  0.
         12    1    1    2    0    0  0.35197982175E+02  0.25357095072E+02 -0.13201518694E+01  0.43400726038E+02  0.00000000000E+00 0. -1.
         11    1    3    3    0    0 -0.12161889531E+02 -0.54118939590E+00 -0.13936244268E+01  0.12253433488E+02  0.51100000000E-03 0. -1.
        -11    1    3    3    0    0 -0.10094184751E+02 -0.11286052166E+02  0.64219951896E+01  0.16447174887E+02  0.51100000000E-03 0.  1.
         12    1    3    3    0    0 -0.12941907893E+02 -0.13529853509E+02 -0.37082188934E+01  0.19086665587E+02  0.00000000000E+00 0. -1.
</event>
<event>
 7    1  0.2769403E-010  0.4778727E+02  0.7816164E-02  0.1312668E+00
        -11   -1    0    0    0    0  0.00000000000E+00  0.00000000000E+00  0.45593999997E+02  0.45594000000E+02  0.51100000000E-03 0.  1.
         11   -1    0    0    0    0 -0.00000000000E+00 -0.00000000000E+00 -0.45593999997E+02  0.45594000000E+02  0.51100000000E-03 0. -1.
    9900012    2    1    2    0    0  0.42143473191E+02  0.95251763175E+01  0.41014677641E+01  0.47787270118E+02  0.19999995774E+02 0.  0.
         12    1    1    2    0    0 -0.42143473191E+02 -0.95251763175E+01 -0.41014677641E+01  0.43400729882E+02  0.00000000000E+00 0. -1.
         11    1    3    3    0    0  0.11861259652E+01  0.84180383580E+00  0.12851815819E+01  0.19409328847E+01  0.51100000000E-03 0. -1.
        -11    1    3    3    0    0  0.14566424125E+02  0.17551733516E+01 -0.77425123615E+01  0.16589389477E+02  0.51100000000E-03 0.  1.
        -12    1    3    3    0    0  0.26390923101E+02  0.69281991300E+01  0.10558798544E+02  0.29256947756E+02  0.00000000000E+00 0.  1.
</event>
<event>
 7    1  0.2769403E-010  0.4778726E+02  0.7816164E-02  0.1312668E+00
        -11   -1    0    0    0    0  0.00000000000E+00  0.00000000000E+00  0.45593999997E+02  0.45594000000E+02  0.51100000000E-03 0.  1.
         11   -1    0    0    0    0 -0.00000000000E+00 -0.00000000000E+00 -0.45593999997E+02  0.45594000000E+02  0.51100000000E-03 0. -1.
    9900012    2    1    2    0    0 -0.39895894350E+02 -0.15628909512E+02  0.69049695785E+01  0.47787264944E+02  0.19999972186E+02 0.  0.
         12    1    1    2    0    0  0.39895894350E+02  0.15628909512E+02 -0.69049695785E+01  0.43400735056E+02  0.00000000000E+00 0. -1.
         11    1    3    3    0    0 -0.16856353615E+02 -0.77996330834E+01  0.34628422263E+01  0.18893443571E+02  0.51100000000E-03 0.  1.
        -11    1    3    3    0    0 -0.17611916085E+02 -0.10475976175E+02 -0.22249517426E+01  0.20612522299E+02  0.51100000000E-03 0. -1.
         12    1    3    3    0    0 -0.54276246499E+01  0.26466997466E+01  0.56670790948E+01  0.82812990741E+01  0.00000000000E+00 0. -1.
</event>
<event>
 7    1  0.2769403E-010  0.4778727E+02  0.7816164E-02  0.1312668E+00
        -11   -1    0    0    0    0  0.00000000000E+00  0.00000000000E+00  0.45593999997E+02  0.45594000000E+02  0.51100000000E-03 0.  1.
         11   -1    0    0    0    0 -0.00000000000E+00 -0.00000000000E+00 -0.45593999997E+02  0.45594000000E+02  0.51100000000E-03 0. -1.
    9900012    2    1    2    0    0 -0.41099978473E+02  0.13492986718E+02 -0.35148919776E+01  0.47787269745E+02  0.19999994076E+02 0.  0.
         12    1    1    2    0    0  0.41099978473E+02 -0.13492986718E+02  0.35148919776E+01  0.43400730255E+02  0.00000000000E+00 0. -1.
         11    1    3    3    0    0 -0.62178433593E+01 -0.15819164908E+01 -0.31926332852E+01  0.71663758888E+01  0.51100000000E-03 0. -1.
        -11    1    3    3    0    0 -0.25939298472E+02  0.47735495942E+01  0.31005007372E+01  0.26556488586E+02  0.51100000000E-03 0.  1.
        -12    1    3    3    0    0 -0.89428366419E+01  0.10301353614E+02 -0.34227594296E+01  0.14064405270E+02  0.00000000000E+00 0.  1.
</event>
<event>
 7    1  0.2769403E-010  0.4778727E+02  0.7816164E-02  0.1312668E+00
        -11   -1    0    0    0    0  0.00000000000E+00  0.00000000000E+00  0.45593999997E+02  0.45594000000E+02  0.51100000000E-03 0.  1.
         11   -1    0    0    0    0 -0.00000000000E+00 -0.00000000000E+00 -0.45593999997E+02  0.45594000000E+02  0.51100000000E-03 0. -1.
    9900012    2    1    2    0    0 -0.26746678675E+02 -0.10976472369E+02  0.32369054898E+02  0.47787268660E+02  0.19999989130E+02 0.  0.
         12    1    1    2    0    0  0.26746678675E+02  0.10976472369E+02 -0.32369054898E+02  0.43400731340E+02  0.00000000000E+00 0. -1.
         11    1    3    3    0    0 -0.20554257053E+02 -0.70178831308E+01  0.10741376417E+02  0.24230256586E+02  0.51100000000E-03 0.  1.
        -11    1    3    3    0    0 -0.31586994384E+01  0.46824560827E+00  0.39310941143E+01  0.50645964586E+01  0.51100000000E-03 0. -1.
        -12    1    3    3    0    0 -0.30337221837E+01 -0.44268348466E+01  0.17696584367E+02  0.18492415616E+02  0.00000000000E+00 0.  1.
</event>
<event>
 7    1  0.2769403E-010  0.4778727E+02  0.7816164E-02  0.1312668E+00
        -11   -1    0    0    0    0  0.00000000000E+00  0.00000000000E+00  0.45593999997E+02  0.45594000000E+02  0.51100000000E-03 0.  1.
         11   -1    0    0    0    0 -0.00000000000E+00 -0.00000000000E+00 -0.45593999997E+02  0.45594000000E+02  0.51100000000E-03 0. -1.
    9900012    2    1    2    0    0  0.21909360862E+02 -0.11694257566E+02  0.35592799978E+02  0.47787272313E+02  0.20000005786E+02 0.  0.
         12    1    1    2    0    0 -0.21909360862E+02  0.11694257566E+02 -0.35592799978E+02  0.43400727687E+02  0.00000000000E+00 0. -1.
         11    1    3    3    0    0  0.23048826570E+01  0.18277697175E+01  0.49385145375E+01  0.57482303626E+01  0.51100000000E-03 0. -1.
        -11    1    3    3    0    0  0.49983228894E+01  0.35410909551E+01  0.86196315137E+01  0.10574526209E+02  0.51100000000E-03 0.  1.
         12    1    3    3    0    0  0.14606155316E+02 -0.17063118239E+02  0.22034653927E+02  0.31464515741E+02  0.00000000000E+00 0. -1.
</event>
<event>
 7    1  0.2769403E-010  0.4778727E+02  0.7816164E-02  0.1312668E+00
        -11   -1    0    0    0    0  0.00000000000E+00  0.00000000000E+00  0.45593999997E+02  0.45594000000E+02  0.51100000000E-03 0. -1.
         11   -1    0    0    0    0 -0.00000000000E+00 -0.00000000000E+00 -0.45593999997E+02  0.45594000000E+02  0.51100000000E-03 0.  1.
    9900012    2    1    2    0    0  0.38845359450E+02  0.19174395072E+02 -0.26465443491E+01  0.47787267585E+02  0.19999984228E+02 0.  0.
         12    1    1    2    0    0 -0.38845359450E+02 -0.19174395072E+02  0.26465443491E+01  0.43400732415E+02  0.00000000000E+00 0. -1.
         11    1    3    3    0    0 -0.54114478327E-01 -0.53759914176E+00  0.12508164017E+01  0.13625282184E+01  0.51100000000E-03 0. -1.
        -11    1    3    3    0    0  0.81494312741E+01  0.91238323116E+01  0.41567331785E+01  0.12920370626E+02  0.51100000000E-03 0.  1.
        -12    1    3    3    0    0  0.30750042654E+02  0.10588161902E+02 -0.80540939293E+01  0.33504368741E+02  0.00000000000E+00 0.  1.
</event>
<event>
 7    1  0.2769403E-010  0.4778727E+02  0.7816164E-02  0.1312668E+00
        -11   -1    0    0    0    0  0.00000000000E+00  0.00000000000E+00  0.45593999997E+02  0.45594000000E+02  0.51100000000E-03 0.  1.
         11   -1    0    0    0    0 -0.00000000000E+00 -0.00000000000E+00 -0.45593999997E+02  0.45594000000E+02  0.51100000000E-03 0. -1.
    9900012    2    1    2    0    0  0.22442505338E+02 -0.37147749630E+02 -0.43164977771E-01  0.47787271762E+02  0.20000003270E+02 0.  0.
         12    1    1    2    0    0 -0.22442505338E+02  0.37147749630E+02  0.43164977771E-01  0.43400728238E+02  0.00000000000E+00 0. -1.
         11    1    3    3    0    0  0.53407922511E+01 -0.20958250556E+01 -0.53597417133E+00  0.57622749940E+01  0.51100000000E-03 0. -1.
        -11    1    3    3    0    0  0.85482013806E+01 -0.58779780702E+01 -0.43324754840E+01  0.11242451562E+02  0.51100000000E-03 0.  1.
         12    1    3    3    0    0  0.85535117067E+01 -0.29173946504E+02  0.48252846776E+01  0.30782545206E+02  0.00000000000E+00 0. -1.
</event>
<event>
 7    1  0.2769403E-010  0.4778726E+02  0.7816164E-02  0.1312668E+00
        -11   -1    0    0    0    0  0.00000000000E+00  0.00000000000E+00  0.45593999997E+02  0.45594000000E+02  0.51100000000E-03 0. -1.
         11   -1    0    0    0    0 -0.00000000000E+00 -0.00000000000E+00 -0.45593999997E+02  0.45594000000E+02  0.51100000000E-03 0.  1.
    9900012    2    1    2    0    0 -0.37079849561E+02 -0.22140434086E+02 -0.43023941566E+01  0.47787255070E+02  0.19999927168E+02 0.  0.
         12    1    1    2    0    0  0.37079849561E+02  0.22140434086E+02  0.43023941566E+01  0.43400744930E+02  0.00000000000E+00 0. -1.
         11    1    3    3    0    0 -0.90723734869E+01  0.27123788877E+01  0.22520083550E+01  0.97332677867E+01  0.51100000000E-03 0. -1.
        -11    1    3    3    0    0 -0.12224630922E+02 -0.11043080720E+02 -0.37540208390E+01  0.16896268987E+02  0.51100000000E-03 0.  1.
         12    1    3    3    0    0 -0.15782845152E+02 -0.13809732254E+02 -0.28003816726E+01  0.21157718296E+02  0.00000000000E+00 0. -1.
</event>
<event>
 7    1  0.2769403E-010  0.4778727E+02  0.7816164E-02  0.1312668E+00
        -11   -1    0    0    0    0  0.00000000000E+00  0.00000000000E+00  0.45593999997E+02  0.45594000000E+02  0.51100000000E-03 0. -1.
         11   -1    0    0    0    0 -0.00000000000E+00 -0.00000000000E+00 -0.45593999997E+02  0.45594000000E+02  0.51100000000E-03 0.  1.
    9900012    2    1    2    0    0 -0.30242638991E+02 -0.25220365797E+02  0.18246623153E+02  0.47787270506E+02  0.19999997547E+02 0.  0.
         12    1    1    2    0    0  0.30242638991E+02  0.25220365797E+02 -0.18246623153E+02  0.43400729494E+02  0.00000000000E+00 0. -1.
         11    1    3    3    0    0 -0.26356732710E+01 -0.34117308819E+01 -0.31599809629E+01  0.53452933642E+01  0.51100000000E-03 0. -1.
        -11    1    3    3    0    0 -0.16593026240E+02 -0.15420567563E+02  0.81827737950E+01  0.24084854391E+02  0.51100000000E-03 0.  1.
         12    1    3    3    0    0 -0.11013939479E+02 -0.63880673524E+01  0.13223830321E+02  0.18357122752E+02  0.00000000000E+00 0. -1.
</event>
<event>
 7    1  0.2769403E-010  0.4778727E+02  0.7816164E-02  0.1312668E+00
        -11   -1    0    0    0    0  0.00000000000E+00  0.00000000000E+00  0.45593999997E+02  0.45594000000E+02  0.51100000000E-03 0.  1.
         11   -1    0    0    0    0 -0.00000000000E+00 -0.00000000000E+00 -0.45593999997E+02  0.45594000000E+02  0.51100000000E-03 0. -1.
    9900012    2    1    2    0    0 -0.29162213792E+01 -0.43099976108E+02  0.41846401134E+01  0.47787268433E+02  0.19999988093E+02 0.  0.
         12    1    1    2    0    0  0.29162213792E+01  0.43099976108E+02 -0.41846401134E+01  0.43400731567E+02  0.00000000000E+00 0. -1.
         11    1    3    3    0    0 -0.70367734690E+00 -0.38987160070E+01  0.49518229346E+01  0.63415848925E+01  0.51100000000E-03 0.  1.
        -11    1    3    3    0    0 -0.14580155587E+01 -0.18747285961E+01  0.31073506702E+01  0.39110158689E+01  0.51100000000E-03 0. -1.
         12    1    3    3    0    0 -0.75452847365E+00 -0.37326531505E+02 -0.38745334913E+01  0.37534667672E+02  0.00000000000E+00 0. -1.
</event>
<event>
 7    1  0.2769403E-010  0.4778727E+02  0.7816164E-02  0.1312668E+00
        -11   -1    0    0    0    0  0.00000000000E+00  0.00000000000E+00  0.45593999997E+02  0.45594000000E+02  0.51100000000E-03 0.  1.
         11   -1    0    0    0    0 -0.00000000000E+00 -0.00000000000E+00 -0.45593999997E+02  0.45594000000E+02  0.51100000000E-03 0. -1.
    9900012    2    1    2    0    0 -0.24967911336E+02 -0.10849632405E+02  0.33801069947E+02  0.47787269022E+02  0.19999990779E+02 0.  0.
         12    1    1    2    0    0  0.24967911336E+02  0.10849632405E+02 -0.33801069947E+02  0.43400730978E+02  0.00000000000E+00 0. -1.
         11    1    3    3    0    0 -0.38983912600E+01  0.16683495581E+01  0.15301071445E+01  0.45080009760E+01  0.51100000000E-03 0. -1.
        -11    1    3    3    0    0  0.23224780699E+01 -0.38463148489E-01  0.27823286829E+01  0.36244636790E+01  0.51100000000E-03 0.  1.
        -12    1    3    3    0    0 -0.23391998146E+02 -0.12479518815E+02  0.29488634120E+02  0.39654804367E+02  0.00000000000E+00 0.  1.
</event>
<event>
 7    1  0.2769403E-010  0.4778727E+02  0.7816164E-02  0.1312668E+00
        -11   -1    0    0    0    0  0.00000000000E+00  0.00000000000E+00  0.45593999997E+02  0.45594000000E+02  0.51100000000E-03 0.  1.
         11   -1    0    0    0    0 -0.00000000000E+00 -0.00000000000E+00 -0.45593999997E+02  0.45594000000E+02  0.51100000000E-03 0. -1.
    9900012    2    1    2    0    0 -0.61208196546E+01  0.41229703731E+02  0.12094225324E+02  0.47787272020E+02  0.20000004448E+02 0.  0.
         12    1    1    2    0    0  0.61208196546E+01 -0.41229703731E+02 -0.12094225324E+02  0.43400727980E+02  0.00000000000E+00 0. -1.
         11    1    3    3    0    0  0.72410935738E+00  0.23426885357E+02  0.27769176894E+01  0.23602003390E+02  0.51100000000E-03 0. -1.
        -11    1    3    3    0    0  0.26854713039E+01  0.72925152541E+01  0.12707564598E+01  0.78744750362E+01  0.51100000000E-03 0.  1.
        -12    1    3    3    0    0 -0.95304003159E+01  0.10510303119E+02  0.80465511752E+01  0.16310793594E+02  0.00000000000E+00 0.  1.
</event>
<event>
 7    1  0.2769403E-010  0.4778729E+02  0.7816164E-02  0.1312668E+00
        -11   -1    0    0    0    0  0.00000000000E+00  0.00000000000E+00  0.45593999997E+02  0.45594000000E+02  0.51100000000E-03 0.  1.
         11   -1    0    0    0    0 -0.00000000000E+00 -0.00000000000E+00 -0.45593999997E+02  0.45594000000E+02  0.51100000000E-03 0. -1.
    9900012    2    1    2    0    0  0.32151255039E+02 -0.16835734080E+02  0.23800774097E+02  0.47787285832E+02  0.20000067424E+02 0.  0.
         12    1    1    2    0    0 -0.32151255039E+02  0.16835734080E+02 -0.23800774097E+02  0.43400714168E+02  0.00000000000E+00 0. -1.
         11    1    3    3    0    0  0.62333430784E+00 -0.37533923530E+01  0.17280354076E+01  0.41788283581E+01  0.51100000000E-03 0. -1.
        -11    1    3    3    0    0  0.14428190006E+02 -0.46156546656E+00  0.23721251330E+01  0.14629172479E+02  0.51100000000E-03 0.  1.
         12    1    3    3    0    0  0.17099730726E+02 -0.12620776261E+02  0.19700613557E+02  0.28979284995E+02  0.00000000000E+00 0. -1.
</event>
<event>
 7    1  0.2769403E-010  0.4778729E+02  0.7816164E-02  0.1312668E+00
        -11   -1    0    0    0    0  0.00000000000E+00  0.00000000000E+00  0.45593999997E+02  0.45594000000E+02  0.51100000000E-03 0.  1.
         11   -1    0    0    0    0 -0.00000000000E+00 -0.00000000000E+00 -0.45593999997E+02  0.45594000000E+02  0.51100000000E-03 0. -1.
    9900012    2    1    2    0    0 -0.25233980545E+02 -0.82255394698E+01  0.34339606327E+02  0.47787287605E+02  0.20000075504E+02 0.  0.
         12    1    1    2    0    0  0.25233980545E+02  0.82255394698E+01 -0.34339606327E+02  0.43400712395E+02  0.00000000000E+00 0. -1.
         11    1    3    3    0    0 -0.55935460346E+01  0.36348003897E+01  0.86983264469E+01  0.10961770585E+02  0.51100000000E-03 0. -1.
        -11    1    3    3    0    0 -0.54229929719E+00 -0.14293103090E+01 -0.14292849817E+01  0.20928144464E+01  0.51100000000E-03 0.  1.
        -12    1    3    3    0    0 -0.19098135213E+02 -0.10431029551E+02  0.27070564862E+02  0.34732702573E+02  0.00000000000E+00 0.  1.
</event>
<event>
 7    1  0.2769403E-010  0.4778727E+02  0.7816164E-02  0.1312668E+00
        -11   -1    0    0    0    0  0.00000000000E+00  0.00000000000E+00  0.45593999997E+02  0.45594000000E+02  0.51100000000E-03 0.  1.
         11   -1    0    0    0    0 -0.00000000000E+00 -0.00000000000E+00 -0.45593999997E+02  0.45594000000E+02  0.51100000000E-03 0. -1.
    9900012    2    1    2    0    0  0.41739253908E+02  0.68417528632E+01  0.97287479692E+01  0.47787269176E+02  0.19999991480E+02 0.  0.
         12    1    1    2    0    0 -0.41739253908E+02 -0.68417528632E+01 -0.97287479692E+01  0.43400730824E+02  0.00000000000E+00 0. -1.
         11    1    3    3    0    0  0.45502248605E+01 -0.16945374794E+01 -0.73168069190E+00  0.49103320097E+01  0.51100000000E-03 0. -1.
        -11    1    3    3    0    0  0.63721484677E+01  0.25765734533E+01  0.91733445142E+01  0.11462689767E+02  0.51100000000E-03 0.  1.
         12    1    3    3    0    0  0.30816880580E+02  0.59597168893E+01  0.12870841470E+01  0.31414247399E+02  0.00000000000E+00 0. -1.
</event>
<event>
 7    1  0.2769403E-010  0.4778727E+02  0.7816164E-02  0.1312668E+00
        -11   -1    0    0    0    0  0.00000000000E+00  0.00000000000E+00  0.45593999997E+02  0.45594000000E+02  0.51100000000E-03 0.  1.
         11   -1    0    0    0    0 -0.00000000000E+00 -0.00000000000E+00 -0.45593999997E+02  0.45594000000E+02  0.51100000000E-03 0. -1.
    9900012    2    1    2    0    0  0.72379654618E+01  0.16023991627E+02  0.39679551143E+02  0.47787271543E+02  0.20000002273E+02 0.  0.
         12    1    1    2    0    0 -0.72379654618E+01 -0.16023991627E+02 -0.39679551143E+02  0.43400728457E+02  0.00000000000E+00 0. -1.
         11    1    3    3    0    0  0.81609077962E+00 -0.14027900161E+01 -0.34588020092E+00  0.16593545023E+01  0.51100000000E-03 0. -1.
        -11    1    3    3    0    0 -0.40321337561E+01  0.32066757568E+01  0.11207341597E+02  0.12334722452E+02  0.51100000000E-03 0.  1.
        -12    1    3    3    0    0  0.10454008438E+02  0.14220105886E+02  0.28818089747E+02  0.33793194589E+02  0.00000000000E+00 0.  1.
</event>
<event>
 7    1  0.2769403E-010  0.4778726E+02  0.7816164E-02  0.1312668E+00
        -11   -1    0    0    0    0  0.00000000000E+00  0.00000000000E+00  0.45593999997E+02  0.45594000000E+02  0.51100000000E-03 0.  1.
         11   -1    0    0    0    0 -0.00000000000E+00 -0.00000000000E+00 -0.45593999997E+02  0.45594000000E+02  0.51100000000E-03 0. -1.
    9900012    2    1    2    0    0 -0.15773279836E+02  0.14396803247E+02  0.37783060247E+02  0.47787263345E+02  0.19999964896E+02 0.  0.
         12    1    1    2    0    0  0.15773279836E+02 -0.14396803247E+02 -0.37783060247E+02  0.43400736655E+02  0.00000000000E+00 0. -1.
         11    1    3    3    0    0  0.24142921308E+01 -0.13377996337E+01  0.90957041219E+00  0.29061715277E+01  0.51100000000E-03 0.  1.
        -11    1    3    3    0    0 -0.49239389557E+01  0.71920754671E+00  0.40039097496E+01  0.63869967808E+01  0.51100000000E-03 0. -1.
        -12    1    3    3    0    0 -0.13263633011E+02  0.15015395334E+02  0.32869580085E+02  0.38494095037E+02  0.00000000000E+00 0.  1.
</event>
<event>
 7    1  0.2769403E-010  0.4778727E+02  0.7816164E-02  0.1312668E+00
        -11   -1    0    0    0    0  0.00000000000E+00  0.00000000000E+00  0.45593999997E+02  0.45594000000E+02  0.51100000000E-03 0.  1.
         11   -1    0    0    0    0 -0.00000000000E+00 -0.00000000000E+00 -0.45593999997E+02  0.45594000000E+02  0.51100000000E-03 0. -1.
    9900012    2    1    2    0    0  0.34452397429E+02 -0.97158558004E+01  0.24540947474E+02  0.47787266763E+02  0.19999980481E+02 0.  0.
         12    1    1    2    0    0 -0.34452397429E+02  0.97158558004E+01 -0.24540947474E+02  0.43400733237E+02  0.00000000000E+00 0. -1.
         11    1    3    3    0    0  0.11999696963E+02 -0.40502198072E+01  0.31321441345E+01  0.13046353315E+02  0.51100000000E-03 0.  1.
        -11    1    3    3    0    0  0.16885834425E+02 -0.50202950072E+01  0.64385145440E+01  0.18756045318E+02  0.51100000000E-03 0. -1.
        -12    1    3    3    0    0  0.55668660414E+01 -0.64534098596E+00  0.14970288795E+02  0.15984868130E+02  0.00000000000E+00 0.  1.
</event>
<event>
 7    1  0.2769403E-010  0.4778727E+02  0.7816164E-02  0.1312668E+00
        -11   -1    0    0    0    0  0.00000000000E+00  0.00000000000E+00  0.45593999997E+02  0.45594000000E+02  0.51100000000E-03 0.  1.
         11   -1    0    0    0    0 -0.00000000000E+00 -0.00000000000E+00 -0.45593999997E+02  0.45594000000E+02  0.51100000000E-03 0. -1.
    9900012    2    1    2    0    0 -0.36914687270E+02  0.20253374030E+02 -0.10522820459E+02  0.47787273666E+02  0.20000011955E+02 0.  0.
         12    1    1    2    0    0  0.36914687270E+02 -0.20253374030E+02  0.10522820459E+02  0.43400726334E+02  0.00000000000E+00 0. -1.
         11    1    3    3    0    0 -0.29324453073E+01  0.59293306150E+01 -0.13280677089E+01  0.67468482363E+01  0.51100000000E-03 0. -1.
        -11    1    3    3    0    0 -0.82515877071E+01  0.58943191295E+01  0.40238121596E+01  0.10909755371E+02  0.51100000000E-03 0.  1.
         12    1    3    3    0    0 -0.25730654256E+02  0.84297242851E+01 -0.13218564910E+02  0.30130670060E+02  0.00000000000E+00 0. -1.
</event>
<event>
 7    1  0.2769403E-010  0.4778724E+02  0.7816164E-02  0.1312668E+00
        -11   -1    0    0    0    0  0.00000000000E+00  0.00000000000E+00  0.45593999997E+02  0.45594000000E+02  0.51100000000E-03 0.  1.
         11   -1    0    0    0    0 -0.00000000000E+00 -0.00000000000E+00 -0.45593999997E+02  0.45594000000E+02  0.51100000000E-03 0. -1.
    9900012    2    1    2    0    0 -0.26437860385E+02 -0.36727219010E+01  0.34222460704E+02  0.47787237743E+02  0.19999848163E+02 0.  0.
         12    1    1    2    0    0  0.26437860385E+02  0.36727219010E+01 -0.34222460704E+02  0.43400762257E+02  0.00000000000E+00 0. -1.
         11    1    3    3    0    0  0.12437836643E+01  0.27385393612E+01  0.18153868946E+01  0.35131503633E+01  0.51100000000E-03 0. -1.
        -11    1    3    3    0    0 -0.13983554997E-02 -0.12915343893E+01 -0.72423764321E-01  0.12935642608E+01  0.51100000000E-03 0.  1.
        -12    1    3    3    0    0 -0.27680245694E+02 -0.51197268729E+01  0.32479497574E+02  0.42980523119E+02  0.00000000000E+00 0.  1.
</event>
<event>
 7    1  0.2769403E-010  0.4778728E+02  0.7816164E-02  0.1312668E+00
        -11   -1    0    0    0    0  0.00000000000E+00  0.00000000000E+00  0.45593999997E+02  0.45594000000E+02  0.51100000000E-03 0.  1.
         11   -1    0    0    0    0 -0.00000000000E+00 -0.00000000000E+00 -0.45593999997E+02  0.45594000000E+02  0.51100000000E-03 0. -1.
    9900012    2    1    2    0    0 -0.76965066813E+01 -0.40741967297E+02  0.12824924686E+02  0.47787276417E+02  0.20000024497E+02 0.  0.
         12    1    1    2    0    0  0.76965066813E+01  0.40741967297E+02 -0.12824924686E+02  0.43400723583E+02  0.00000000000E+00 0. -1.
         11    1    3    3    0    0  0.71084764778E+00  0.13133646671E+01  0.24031130922E+01  0.28293433730E+01  0.51100000000E-03 0. -1.
        -11    1    3    3    0    0 -0.57524715144E+01 -0.13057948335E+02  0.61089492455E+01  0.15521604440E+02  0.51100000000E-03 0.  1.
        -12    1    3    3    0    0 -0.26548828147E+01 -0.28997383629E+02  0.43128623478E+01  0.29436328605E+02  0.00000000000E+00 0.  1.
</event>
<event>
 7    1  0.2769403E-010  0.4778727E+02  0.7816164E-02  0.1312668E+00
        -11   -1    0    0    0    0  0.00000000000E+00  0.00000000000E+00  0.45593999997E+02  0.45594000000E+02  0.51100000000E-03 0.  1.
         11   -1    0    0    0    0 -0.00000000000E+00 -0.00000000000E+00 -0.45593999997E+02  0.45594000000E+02  0.51100000000E-03 0. -1.
    9900012    2    1    2    0    0  0.41774530761E+02  0.11059847559E+02 -0.40238691873E+01  0.47787272223E+02  0.20000005374E+02 0.  0.
         12    1    1    2    0    0 -0.41774530761E+02 -0.11059847559E+02  0.40238691873E+01  0.43400727777E+02  0.00000000000E+00 0. -1.
         11    1    3    3    0    0  0.88345641770E+01 -0.28690002530E+01 -0.63073997284E+01  0.11227821616E+02  0.51100000000E-03 0. -1.
        -11    1    3    3    0    0  0.16574741863E+02  0.31438280691E+01  0.47782650747E+00  0.16877027025E+02  0.51100000000E-03 0.  1.
        -12    1    3    3    0    0  0.16365224721E+02  0.10785019743E+02  0.18057040336E+01  0.19682423582E+02  0.00000000000E+00 0.  1.
</event>
<event>
 7    1  0.2769403E-010  0.4778727E+02  0.7816164E-02  0.1312668E+00
        -11   -1    0    0    0    0  0.00000000000E+00  0.00000000000E+00  0.45593999997E+02  0.45594000000E+02  0.51100000000E-03 0. -1.
         11   -1    0    0    0    0 -0.00000000000E+00 -0.00000000000E+00 -0.45593999997E+02  0.45594000000E+02  0.51100000000E-03 0.  1.
    9900012    2    1    2    0    0 -0.10145287533E+02  0.41231332565E+02 -0.89818584496E+01  0.47787269298E+02  0.19999992039E+02 0.  0.
         12    1    1    2    0    0  0.10145287533E+02 -0.41231332565E+02  0.89818584496E+01  0.43400730702E+02  0.00000000000E+00 0. -1.
         11    1    3    3    0    0  0.28979977235E+01  0.68780259810E+01 -0.26789224666E+00  0.74684267900E+01  0.51100000000E-03 0.  1.
        -11    1    3    3    0    0 -0.20392471499E+01  0.14775983683E+02  0.26496842733E+01  0.15149556090E+02  0.51100000000E-03 0. -1.
        -12    1    3    3    0    0 -0.11004038107E+02  0.19577322902E+02 -0.11363650476E+02  0.25169286418E+02  0.00000000000E+00 0.  1.
</event>
<event>
 7    1  0.2769403E-010  0.4778727E+02  0.7816164E-02  0.1312668E+00
        -11   -1    0    0    0    0  0.00000000000E+00  0.00000000000E+00  0.45593999997E+02  0.45594000000E+02  0.51100000000E-03 0.  1.
         11   -1    0    0    0    0 -0.00000000000E+00 -0.00000000000E+00 -0.45593999997E+02  0.45594000000E+02  0.51100000000E-03 0. -1.
    9900012    2    1    2    0    0 -0.18465417230E+02 -0.37151430460E+02  0.12744525796E+02  0.47787270093E+02  0.19999995660E+02 0.  0.
         12    1    1    2    0    0  0.18465417230E+02  0.37151430460E+02 -0.12744525796E+02  0.43400729907E+02  0.00000000000E+00 0. -1.
         11    1    3    3    0    0  0.17657077787E+01 -0.92687861984E+01 -0.90510585899E+00  0.94787835943E+01  0.51100000000E-03 0. -1.
        -11    1    3    3    0    0 -0.27305876715E+00 -0.62296433071E+01  0.35587703171E+01  0.71796840638E+01  0.51100000000E-03 0.  1.
        -12    1    3    3    0    0 -0.19958066242E+02 -0.21653000955E+02  0.10090861338E+02  0.31128802434E+02  0.00000000000E+00 0.  1.
</event>
<event>
 7    1  0.2769403E-010  0.4778727E+02  0.7816164E-02  0.1312668E+00
        -11   -1    0    0    0    0  0.00000000000E+00  0.00000000000E+00  0.45593999997E+02  0.45594000000E+02  0.51100000000E-03 0.  1.
         11   -1    0    0    0    0 -0.00000000000E+00 -0.00000000000E+00 -0.45593999997E+02  0.45594000000E+02  0.51100000000E-03 0. -1.
    9900012    2    1    2    0    0  0.15985181852E+00  0.99571160694E+01  0.42242795051E+02  0.47787269053E+02  0.19999990921E+02 0.  0.
         12    1    1    2    0    0 -0.15985181852E+00 -0.99571160694E+01 -0.42242795051E+02  0.43400730947E+02  0.00000000000E+00 0. -1.
         11    1    3    3    0    0 -0.13594898877E+01 -0.11620254528E+01 -0.11570718933E+01  0.21301012969E+01  0.51100000000E-03 0. -1.
        -11    1    3    3    0    0 -0.85598949073E+00  0.15739663426E+01  0.84617461924E+00  0.19814388215E+01  0.51100000000E-03 0.  1.
        -12    1    3    3    0    0  0.23753311969E+01  0.95451751796E+01  0.42553692325E+02  0.43675728935E+02  0.00000000000E+00 0.  1.
</event>
<event>
 7    1  0.2769403E-010  0.4778727E+02  0.7816164E-02  0.1312668E+00
        -11   -1    0    0    0    0  0.00000000000E+00  0.00000000000E+00  0.45593999997E+02  0.45594000000E+02  0.51100000000E-03 0.  1.
         11   -1    0    0    0    0 -0.00000000000E+00 -0.00000000000E+00 -0.45593999997E+02  0.45594000000E+02  0.51100000000E-03 0. -1.
    9900012    2    1    2    0    0  0.22649474699E+02 -0.35241957554E+01  0.36853829034E+02  0.47787269887E+02  0.19999994725E+02 0.  0.
         12    1    1    2    0    0 -0.22649474699E+02  0.35241957554E+01 -0.36853829034E+02  0.43400730113E+02  0.00000000000E+00 0. -1.
         11    1    3    3    0    0  0.90932175658E+01 -0.67033621078E+01  0.67359413422E+01  0.13152740219E+02  0.51100000000E-03 0. -1.
        -11    1    3    3    0    0  0.98708939433E+01 -0.94659074725E+00  0.11366027591E+02  0.15083672124E+02  0.51100000000E-03 0.  1.
        -12    1    3    3    0    0  0.36853631896E+01  0.41257570997E+01  0.18751860101E+02  0.19550857544E+02  0.00000000000E+00 0.  1.
</event>
<event>
 7    1  0.2769403E-010  0.4778727E+02  0.7816164E-02  0.1312668E+00
        -11   -1    0    0    0    0  0.00000000000E+00  0.00000000000E+00  0.45593999997E+02  0.45594000000E+02  0.51100000000E-03 0.  1.
         11   -1    0    0    0    0 -0.00000000000E+00 -0.00000000000E+00 -0.45593999997E+02  0.45594000000E+02  0.51100000000E-03 0. -1.
    9900012    2    1    2    0    0  0.33486298340E+02 -0.23366363166E+02  0.14707294222E+02  0.47787267202E+02  0.19999982479E+02 0.  0.
         12    1    1    2    0    0 -0.33486298340E+02  0.23366363166E+02 -0.14707294222E+02  0.43400732798E+02  0.00000000000E+00 0. -1.
         11    1    3    3    0    0  0.64769540900E+01 -0.13373941691E+02 -0.19806151283E+00  0.14861106260E+02  0.51100000000E-03 0. -1.
        -11    1    3    3    0    0  0.75692208831E+01 -0.38927053789E+01  0.17974062529E+01  0.86992487862E+01  0.51100000000E-03 0.  1.
         12    1    3    3    0    0  0.19440123366E+02 -0.60997160960E+01  0.13107949482E+02  0.24226912155E+02  0.00000000000E+00 0. -1.
</event>
<event>
 7    1  0.2769403E-010  0.4778721E+02  0.7816164E-02  0.1312668E+00
        -11   -1    0    0    0    0  0.00000000000E+00  0.00000000000E+00  0.45593999997E+02  0.45594000000E+02  0.51100000000E-03 0.  1.
         11   -1    0    0    0    0 -0.00000000000E+00 -0.00000000000E+00 -0.45593999997E+02  0.45594000000E+02  0.51100000000E-03 0. -1.
    9900012    2    1    2    0    0 -0.19342159402E+02  0.18256858997E+02  0.34295723071E+02  0.47787209089E+02  0.19999717519E+02 0.  0.
         12    1    1    2    0    0  0.19342159402E+02 -0.18256858997E+02 -0.34295723071E+02  0.43400790911E+02  0.00000000000E+00 0. -1.
         11    1    3    3    0    0 -0.14112695549E+02  0.81637440756E+01  0.13571742413E+02  0.21213370439E+02  0.51100000000E-03 0. -1.
        -11    1    3    3    0    0 -0.68181947838E+01  0.36573482739E+01  0.17640761176E+02  0.19262928948E+02  0.51100000000E-03 0.  1.
         12    1    3    3    0    0  0.15887309310E+01  0.64357666473E+01  0.30832194815E+01  0.73109097027E+01  0.00000000000E+00 0. -1.
</event>
<event>
 7    1  0.2769403E-010  0.4778725E+02  0.7816164E-02  0.1312668E+00
        -11   -1    0    0    0    0  0.00000000000E+00  0.00000000000E+00  0.45593999997E+02  0.45594000000E+02  0.51100000000E-03 0.  1.
         11   -1    0    0    0    0 -0.00000000000E+00 -0.00000000000E+00 -0.45593999997E+02  0.45594000000E+02  0.51100000000E-03 0. -1.
    9900012    2    1    2    0    0 -0.35362040610E+02 -0.21414627129E+02  0.13212300773E+02  0.47787250433E+02  0.19999906026E+02 0.  0.
         12    1    1    2    0    0  0.35362040610E+02  0.21414627129E+02 -0.13212300773E+02  0.43400749567E+02  0.00000000000E+00 0. -1.
         11    1    3    3    0    0 -0.11850395298E+02  0.16500360846E+01  0.36296142586E+01  0.12503143114E+02  0.51100000000E-03 0. -1.
        -11    1    3    3    0    0 -0.12200526249E+01 -0.15456718848E+01  0.30324371047E+01  0.36157025649E+01  0.51100000000E-03 0.  1.
        -12    1    3    3    0    0 -0.22291592688E+02 -0.21518991329E+02  0.65502494097E+01  0.31668404755E+02  0.00000000000E+00 0.  1.
</event>
<event>
 7    1  0.2769403E-010  0.4778728E+02  0.7816164E-02  0.1312668E+00
        -11   -1    0    0    0    0  0.00000000000E+00  0.00000000000E+00  0.45593999997E+02  0.45594000000E+02  0.51100000000E-03 0.  1.
         11   -1    0    0    0    0 -0.00000000000E+00 -0.00000000000E+00 -0.45593999997E+02  0.45594000000E+02  0.51100000000E-03 0. -1.
    9900012    2    1    2    0    0  0.22628394415E+02  0.13510008926E+02  0.34482723317E+02  0.47787276707E+02  0.20000025817E+02 0.  0.
         12    1    1    2    0    0 -0.22628394415E+02 -0.13510008926E+02 -0.34482723317E+02  0.43400723293E+02  0.00000000000E+00 0. -1.
         11    1    3    3    0    0  0.70443904318E+01  0.24755819980E+01  0.12187879292E+02  0.14293227231E+02  0.51100000000E-03 0. -1.
        -11    1    3    3    0    0  0.18528424245E+02  0.11520694350E+02  0.18114576728E+02  0.28357834784E+02  0.51100000000E-03 0.  1.
         12    1    3    3    0    0 -0.29444202619E+01 -0.48626742173E+00  0.41802672969E+01  0.51362146915E+01  0.00000000000E+00 0. -1.
</event>
<event>
 7    1  0.2769403E-010  0.4778727E+02  0.7816164E-02  0.1312668E+00
        -11   -1    0    0    0    0  0.00000000000E+00  0.00000000000E+00  0.45593999997E+02  0.45594000000E+02  0.51100000000E-03 0. -1.
         11   -1    0    0    0    0 -0.00000000000E+00 -0.00000000000E+00 -0.45593999997E+02  0.45594000000E+02  0.51100000000E-03 0.  1.
    9900012    2    1    2    0    0  0.15175462392E+02 -0.30853926895E+02 -0.26483272969E+02  0.47787271771E+02  0.20000003312E+02 0.  0.
         12    1    1    2    0    0 -0.15175462392E+02  0.30853926895E+02  0.26483272969E+02  0.43400728229E+02  0.00000000000E+00 0. -1.
         11    1    3    3    0    0  0.56502231333E+01 -0.15888132666E+02 -0.49894417175E+01  0.17585571074E+02  0.51100000000E-03 0. -1.
        -11    1    3    3    0    0 -0.11825277184E+01 -0.10456573416E+01  0.84147225753E+00  0.17888115893E+01  0.51100000000E-03 0.  1.
        -12    1    3    3    0    0  0.10707766977E+02 -0.13920136888E+02 -0.22335303510E+02  0.28412889108E+02  0.00000000000E+00 0.  1.
</event>
<event>
 7    1  0.2769403E-010  0.4778728E+02  0.7816164E-02  0.1312668E+00
        -11   -1    0    0    0    0  0.00000000000E+00  0.00000000000E+00  0.45593999997E+02  0.45594000000E+02  0.51100000000E-03 0.  1.
         11   -1    0    0    0    0 -0.00000000000E+00 -0.00000000000E+00 -0.45593999997E+02  0.45594000000E+02  0.51100000000E-03 0. -1.
    9900012    2    1    2    0    0  0.16276485282E+02 -0.13907282083E+02  0.37752961402E+02  0.47787279238E+02  0.20000037357E+02 0.  0.
         12    1    1    2    0    0 -0.16276485282E+02  0.13907282083E+02 -0.37752961402E+02  0.43400720762E+02  0.00000000000E+00 0. -1.
         11    1    3    3    0    0  0.22868270705E+01  0.22234528536E+01  0.42931086810E+00  0.32183270072E+01  0.51100000000E-03 0. -1.
        -11    1    3    3    0    0  0.41726568054E+01 -0.36458887250E+01  0.20918172176E+01  0.59227754426E+01  0.51100000000E-03 0.  1.
        -12    1    3    3    0    0  0.98170014062E+01 -0.12484846212E+02  0.35231833316E+02  0.38646176788E+02  0.00000000000E+00 0.  1.
</event>
<event>
 7    1  0.2769403E-010  0.4778727E+02  0.7816164E-02  0.1312668E+00
        -11   -1    0    0    0    0  0.00000000000E+00  0.00000000000E+00  0.45593999997E+02  0.45594000000E+02  0.51100000000E-03 0.  1.
         11   -1    0    0    0    0 -0.00000000000E+00 -0.00000000000E+00 -0.45593999997E+02  0.45594000000E+02  0.51100000000E-03 0. -1.
    9900012    2    1    2    0    0 -0.42665344437E+02  0.74825105115E+01 -0.27026256914E+01  0.47787265385E+02  0.19999974197E+02 0.  0.
         12    1    1    2    0    0  0.42665344437E+02 -0.74825105115E+01  0.27026256914E+01  0.43400734615E+02  0.00000000000E+00 0. -1.
         11    1    3    3    0    0  0.32387628466E+00  0.16686916239E+01  0.11650390649E+01  0.20607629333E+01  0.51100000000E-03 0. -1.
        -11    1    3    3    0    0 -0.14684510506E+02 -0.22890795917E+01 -0.63891657957E+01  0.16177026118E+02  0.51100000000E-03 0.  1.
        -12    1    3    3    0    0 -0.28304710215E+02  0.81028984792E+01  0.25215010394E+01  0.29549476334E+02  0.00000000000E+00 0.  1.
</event>
<event>
 7    1  0.2769403E-010  0.4778727E+02  0.7816164E-02  0.1312668E+00
        -11   -1    0    0    0    0  0.00000000000E+00  0.00000000000E+00  0.45593999997E+02  0.45594000000E+02  0.51100000000E-03 0. -1.
         11   -1    0    0    0    0 -0.00000000000E+00 -0.00000000000E+00 -0.45593999997E+02  0.45594000000E+02  0.51100000000E-03 0.  1.
    9900012    2    1    2    0    0  0.43459834039E+01  0.42846583345E+02  0.53764270926E+01  0.47787271385E+02  0.20000001551E+02 0.  0.
         12    1    1    2    0    0 -0.43459834039E+01 -0.42846583345E+02 -0.53764270926E+01  0.43400728615E+02  0.00000000000E+00 0. -1.
         11    1    3    3    0    0 -0.25703559460E+01 -0.22262325637E+00  0.23336838697E+01  0.34788462840E+01  0.51100000000E-03 0. -1.
        -11    1    3    3    0    0  0.11745291522E+01  0.27060133034E+02  0.33923434053E+01  0.27297221701E+02  0.51100000000E-03 0.  1.
        -12    1    3    3    0    0  0.57418101976E+01  0.16009073567E+02 -0.34960018236E+00  0.17011203400E+02  0.00000000000E+00 0.  1.
</event>
<event>
 7    1  0.2769403E-010  0.4778727E+02  0.7816164E-02  0.1312668E+00
        -11   -1    0    0    0    0  0.00000000000E+00  0.00000000000E+00  0.45593999997E+02  0.45594000000E+02  0.51100000000E-03 0.  1.
         11   -1    0    0    0    0 -0.00000000000E+00 -0.00000000000E+00 -0.45593999997E+02  0.45594000000E+02  0.51100000000E-03 0. -1.
    9900012    2    1    2    0    0  0.43439293178E+01 -0.11810202804E+00  0.43182632406E+02  0.47787269459E+02  0.19999992771E+02 0.  0.
         12    1    1    2    0    0 -0.43439293178E+01  0.11810202804E+00 -0.43182632406E+02  0.43400730541E+02  0.00000000000E+00 0. -1.
         11    1    3    3    0    0  0.48703265538E-01  0.18281561360E+01 -0.25288072640E+00  0.18462057818E+01  0.51100000000E-03 0. -1.
        -11    1    3    3    0    0  0.51157617588E+00  0.42895790310E+01  0.41714594184E+01  0.60052703842E+01  0.51100000000E-03 0.  1.
        -12    1    3    3    0    0  0.37836498764E+01 -0.62358371951E+01  0.39264053714E+02  0.39935793293E+02  0.00000000000E+00 0.  1.
</event>
<event>
 7    1  0.2769403E-010  0.4778729E+02  0.7816164E-02  0.1312668E+00
        -11   -1    0    0    0    0  0.00000000000E+00  0.00000000000E+00  0.45593999997E+02  0.45594000000E+02  0.51100000000E-03 0.  1.
         11   -1    0    0    0    0 -0.00000000000E+00 -0.00000000000E+00 -0.45593999997E+02  0.45594000000E+02  0.51100000000E-03 0. -1.
    9900012    2    1    2    0    0 -0.13515758789E+02 -0.39337417142E+02  0.12390059906E+02  0.47787289090E+02  0.20000082275E+02 0.  0.
         12    1    1    2    0    0  0.13515758789E+02  0.39337417142E+02 -0.12390059906E+02  0.43400710910E+02  0.00000000000E+00 0. -1.
         11    1    3    3    0    0 -0.76798555697E+01 -0.10691094727E+02  0.79336224062E+01  0.15369516999E+02  0.51100000000E-03 0. -1.
        -11    1    3    3    0    0 -0.42920909137E+01 -0.27554958763E+02  0.34153742121E+00  0.27889324928E+02  0.51100000000E-03 0.  1.
        -12    1    3    3    0    0 -0.15438123056E+01 -0.10913636523E+01  0.41149000783E+01  0.45284471633E+01  0.00000000000E+00 0.  1.
</event>
<event>
 7    1  0.2769403E-010  0.4778727E+02  0.7816164E-02  0.1312668E+00
        -11   -1    0    0    0    0  0.00000000000E+00  0.00000000000E+00  0.45593999997E+02  0.45594000000E+02  0.51100000000E-03 0. -1.
         11   -1    0    0    0    0 -0.00000000000E+00 -0.00000000000E+00 -0.45593999997E+02  0.45594000000E+02  0.51100000000E-03 0.  1.
    9900012    2    1    2    0    0 -0.40950093948E+02  0.13856495155E+02 -0.38354521015E+01  0.47787270223E+02  0.19999996256E+02 0.  0.
         12    1    1    2    0    0  0.40950093948E+02 -0.13856495155E+02  0.38354521015E+01  0.43400729777E+02  0.00000000000E+00 0. -1.
         11    1    3    3    0    0 -0.17377767048E+02  0.41731863716E+01  0.67388870355E+01  0.19100127507E+02  0.51100000000E-03 0. -1.
        -11    1    3    3    0    0 -0.11594038344E+02  0.42332224515E+01 -0.94173795394E+00  0.12378560824E+02  0.51100000000E-03 0.  1.
        -12    1    3    3    0    0 -0.11978288556E+02  0.54500863323E+01 -0.96326011831E+01  0.16308581892E+02  0.00000000000E+00 0.  1.
</event>
<event>
 7    1  0.2769403E-010  0.4778727E+02  0.7816164E-02  0.1312668E+00
        -11   -1    0    0    0    0  0.00000000000E+00  0.00000000000E+00  0.45593999997E+02  0.45594000000E+02  0.51100000000E-03 0.  1.
         11   -1    0    0    0    0 -0.00000000000E+00 -0.00000000000E+00 -0.45593999997E+02  0.45594000000E+02  0.51100000000E-03 0. -1.
    9900012    2    1    2    0    0  0.18679690286E+02 -0.35443221694E+02  0.16687441607E+02  0.47787268432E+02  0.19999988090E+02 0.  0.
         12    1    1    2    0    0 -0.18679690286E+02  0.35443221694E+02 -0.16687441607E+02  0.43400731568E+02  0.00000000000E+00 0. -1.
         11    1    3    3    0    0  0.10067191547E+02 -0.11223970132E+02  0.93298599779E+01  0.17730542536E+02  0.51100000000E-03 0.  1.
        -11    1    3    3    0    0  0.57842597983E+00 -0.73591599860E+00  0.50433212447E+01  0.51294481584E+01  0.51100000000E-03 0. -1.
         12    1    3    3    0    0  0.80340727594E+01 -0.23483335563E+02  0.23142603840E+01  0.24927277738E+02  0.00000000000E+00 0. -1.
</event>
<event>
 7    1  0.2769403E-010  0.4778726E+02  0.7816164E-02  0.1312668E+00
        -11   -1    0    0    0    0  0.00000000000E+00  0.00000000000E+00  0.45593999997E+02  0.45594000000E+02  0.51100000000E-03 0. -1.
         11   -1    0    0    0    0 -0.00000000000E+00 -0.00000000000E+00 -0.45593999997E+02  0.45594000000E+02  0.51100000000E-03 0.  1.
    9900012    2    1    2    0    0  0.58991017351E+01  0.97185045971E+01 -0.41885266098E+02  0.47787259811E+02  0.19999948781E+02 0.  0.
         12    1    1    2    0    0 -0.58991017351E+01 -0.97185045971E+01  0.41885266098E+02  0.43400740189E+02  0.00000000000E+00 0. -1.
         11    1    3    3    0    0  0.36241262631E+01 -0.24413093430E+01 -0.66285964655E+01  0.79393056273E+01  0.51100000000E-03 0. -1.
        -11    1    3    3    0    0  0.55865357936E+01  0.64703996117E+01 -0.76642712447E+01  0.11481137020E+02  0.51100000000E-03 0.  1.
        -12    1    3    3    0    0 -0.33115603216E+01  0.56894143284E+01 -0.27592398388E+02  0.28366817163E+02  0.00000000000E+00 0.  1.
</event>
<event>
 7    1  0.2769403E-010  0.4778727E+02  0.7816164E-02  0.1312668E+00
        -11   -1    0    0    0    0  0.00000000000E+00  0.00000000000E+00  0.45593999997E+02  0.45594000000E+02  0.51100000000E-03 0.  1.
         11   -1    0    0    0    0 -0.00000000000E+00 -0.00000000000E+00 -0.45593999997E+02  0.45594000000E+02  0.51100000000E-03 0. -1.
    9900012    2    1    2    0    0 -0.22298551734E+02 -0.19719165529E+02  0.31584051859E+02  0.47787271545E+02  0.20000002280E+02 0.  0.
         12    1    1    2    0    0  0.22298551734E+02  0.19719165529E+02 -0.31584051859E+02  0.43400728455E+02  0.00000000000E+00 0. -1.
         11    1    3    3    0    0 -0.10807010715E+02 -0.66718125735E+01  0.92922273841E+01  0.15736901018E+02  0.51100000000E-03 0. -1.
        -11    1    3    3    0    0 -0.28883203586E+01  0.25159662471E+01  0.40783075913E+00  0.38521171892E+01  0.51100000000E-03 0.  1.
        -12    1    3    3    0    0 -0.86032206602E+01 -0.15563319203E+02  0.21883993716E+02  0.28198253338E+02  0.00000000000E+00 0.  1.
</event>
<event>
 7    1  0.2769403E-010  0.4778727E+02  0.7816164E-02  0.1312668E+00
        -11   -1    0    0    0    0  0.00000000000E+00  0.00000000000E+00  0.45593999997E+02  0.45594000000E+02  0.51100000000E-03 0. -1.
         11   -1    0    0    0    0 -0.00000000000E+00 -0.00000000000E+00 -0.45593999997E+02  0.45594000000E+02  0.51100000000E-03 0.  1.
    9900012    2    1    2    0    0  0.28283543943E+02 -0.18772087356E+02 -0.27042064161E+02  0.47787270101E+02  0.19999995699E+02 0.  0.
         12    1    1    2    0    0 -0.28283543943E+02  0.18772087356E+02  0.27042064161E+02  0.43400729899E+02  0.00000000000E+00 0. -1.
         11    1    3    3    0    0 -0.60814026690E+00 -0.13823923174E+01  0.53009218540E+00  0.16005752371E+01  0.51100000000E-03 0. -1.
        -11    1    3    3    0    0  0.76870177593E+00 -0.57969401219E+01 -0.12937886797E+01  0.59890989811E+01  0.51100000000E-03 0.  1.
        -12    1    3    3    0    0  0.28122982434E+02 -0.11592754916E+02 -0.26278367666E+02  0.40197595883E+02  0.00000000000E+00 0.  1.
</event>
<event>
 7    1  0.2769403E-010  0.4778727E+02  0.7816164E-02  0.1312668E+00
        -11   -1    0    0    0    0  0.00000000000E+00  0.00000000000E+00  0.45593999997E+02  0.45594000000E+02  0.51100000000E-03 0.  1.
         11   -1    0    0    0    0 -0.00000000000E+00 -0.00000000000E+00 -0.45593999997E+02  0.45594000000E+02  0.51100000000E-03 0. -1.
    9900012    2    1    2    0    0  0.23127814940E+02  0.14450913588E+02  0.33762382747E+02  0.47787271709E+02  0.20000003031E+02 0.  0.
         12    1    1    2    0    0 -0.23127814940E+02 -0.14450913588E+02 -0.33762382747E+02  0.43400728291E+02  0.00000000000E+00 0. -1.
         11    1    3    3    0    0  0.98007762322E+01 -0.12705720921E+01  0.10904003749E+02  0.14716211000E+02  0.51100000000E-03 0.  1.
        -11    1    3    3    0    0 -0.16561791891E+01 -0.17190582615E+00  0.33985357829E+00  0.16994063185E+01  0.51100000000E-03 0. -1.
         12    1    3    3    0    0  0.14983217897E+02  0.15893391506E+02  0.22518525420E+02  0.31371654390E+02  0.00000000000E+00 0. -1.
</event>
<event>
 7    1  0.2769403E-010  0.4778728E+02  0.7816164E-02  0.1312668E+00
        -11   -1    0    0    0    0  0.00000000000E+00  0.00000000000E+00  0.45593999997E+02  0.45594000000E+02  0.51100000000E-03 0. -1.
         11   -1    0    0    0    0 -0.00000000000E+00 -0.00000000000E+00 -0.45593999997E+02  0.45594000000E+02  0.51100000000E-03 0.  1.
    9900012    2    1    2    0    0 -0.25422272052E+02  0.16858815487E+02 -0.30872496311E+02  0.47787278758E+02  0.20000035169E+02 0.  0.
         12    1    1    2    0    0  0.25422272052E+02 -0.16858815487E+02  0.30872496311E+02  0.43400721242E+02  0.00000000000E+00 0. -1.
         11    1    3    3    0    0 -0.40878799615E+01 -0.21003362889E+01 -0.15039449708E+01  0.48357032418E+01  0.51100000000E-03 0. -1.
        -11    1    3    3    0    0 -0.65455305127E+01  0.76259803307E+01 -0.26770937640E+01  0.10400306581E+02  0.51100000000E-03 0.  1.
        -12    1    3    3    0    0 -0.14788861578E+02  0.11333171445E+02 -0.26691457576E+02  0.32551268935E+02  0.00000000000E+00 0.  1.
</event>
<event>
 7    1  0.2769403E-010  0.4778726E+02  0.7816164E-02  0.1312668E+00
        -11   -1    0    0    0    0  0.00000000000E+00  0.00000000000E+00  0.45593999997E+02  0.45594000000E+02  0.51100000000E-03 0. -1.
         11   -1    0    0    0    0 -0.00000000000E+00 -0.00000000000E+00 -0.45593999997E+02  0.45594000000E+02  0.51100000000E-03 0.  1.
    9900012    2    1    2    0    0  0.38834945492E+02  0.75139869311E+00 -0.19362504664E+02  0.47787260626E+02  0.19999952497E+02 0.  0.
         12    1    1    2    0    0 -0.38834945492E+02 -0.75139869311E+00  0.19362504664E+02  0.43400739374E+02  0.00000000000E+00 0. -1.
         11    1    3    3    0    0  0.83992210095E+01 -0.61088747282E+01 -0.78100358703E+01  0.12994688321E+02  0.51100000000E-03 0. -1.
        -11    1    3    3    0    0  0.34012404480E+01 -0.19191830916E+01 -0.35137466402E+01  0.52533909085E+01  0.51100000000E-03 0.  1.
        -12    1    3    3    0    0  0.27034484035E+02  0.87794565130E+01 -0.80387221534E+01  0.29539181396E+02  0.00000000000E+00 0.  1.
</event>
<event>
 7    1  0.2769403E-010  0.4778727E+02  0.7816164E-02  0.1312668E+00
        -11   -1    0    0    0    0  0.00000000000E+00  0.00000000000E+00  0.45593999997E+02  0.45594000000E+02  0.51100000000E-03 0. -1.
         11   -1    0    0    0    0 -0.00000000000E+00 -0.00000000000E+00 -0.45593999997E+02  0.45594000000E+02  0.51100000000E-03 0.  1.
    9900012    2    1    2    0    0 -0.17681330274E+02 -0.39270482248E+02  0.53687199940E+01  0.47787269930E+02  0.19999994918E+02 0.  0.
         12    1    1    2    0    0  0.17681330274E+02  0.39270482248E+02 -0.53687199940E+01  0.43400730070E+02  0.00000000000E+00 0. -1.
         11    1    3    3    0    0  0.16613787343E+01 -0.19145814794E+00 -0.25805208742E+01  0.30750485792E+01  0.51100000000E-03 0. -1.
        -11    1    3    3    0    0 -0.65386478363E+01 -0.76600557126E+01  0.17029573964E+01  0.10214227000E+02  0.51100000000E-03 0.  1.
        -12    1    3    3    0    0 -0.12804061172E+02 -0.31418968388E+02  0.62462834718E+01  0.34497994351E+02  0.00000000000E+00 0.  1.
</event>
<event>
 7    1  0.2769403E-010  0.4778727E+02  0.7816164E-02  0.1312668E+00
        -11   -1    0    0    0    0  0.00000000000E+00  0.00000000000E+00  0.45593999997E+02  0.45594000000E+02  0.51100000000E-03 0. -1.
         11   -1    0    0    0    0 -0.00000000000E+00 -0.00000000000E+00 -0.45593999997E+02  0.45594000000E+02  0.51100000000E-03 0.  1.
    9900012    2    1    2    0    0 -0.14036671545E+02  0.39454409580E+02  0.11399327630E+02  0.47787271275E+02  0.20000001053E+02 0.  0.
         12    1    1    2    0    0  0.14036671545E+02 -0.39454409580E+02 -0.11399327630E+02  0.43400728725E+02  0.00000000000E+00 0. -1.
         11    1    3    3    0    0 -0.83020300262E+01  0.19955504569E+02  0.62085335292E+01  0.22487591112E+02  0.51100000000E-03 0.  1.
        -11    1    3    3    0    0 -0.18524279968E+01  0.14323257571E+02  0.97140496089E+01  0.17405457679E+02  0.51100000000E-03 0. -1.
         12    1    3    3    0    0 -0.38822135220E+01  0.51756474400E+01 -0.45232555079E+01  0.78942224850E+01  0.00000000000E+00 0. -1.
</event>
<event>
 7    1  0.2769403E-010  0.4778727E+02  0.7816164E-02  0.1312668E+00
        -11   -1    0    0    0    0  0.00000000000E+00  0.00000000000E+00  0.45593999997E+02  0.45594000000E+02  0.51100000000E-03 0.  1.
         11   -1    0    0    0    0 -0.00000000000E+00 -0.00000000000E+00 -0.45593999997E+02  0.45594000000E+02  0.51100000000E-03 0. -1.
    9900012    2    1    2    0    0  0.16468525959E+02 -0.29300355939E+02  0.27457241365E+02  0.47787270642E+02  0.19999998166E+02 0.  0.
         12    1    1    2    0    0 -0.16468525959E+02  0.29300355939E+02 -0.27457241365E+02  0.43400729358E+02  0.00000000000E+00 0. -1.
         11    1    3    3    0    0  0.11102070748E+02 -0.11844641414E+02  0.11686519154E+02  0.20003155634E+02  0.51100000000E-03 0. -1.
        -11    1    3    3    0    0  0.10008631956E+02 -0.12620384274E+02  0.12065670025E+02  0.20125287731E+02  0.51100000000E-03 0.  1.
         12    1    3    3    0    0 -0.46421767443E+01 -0.48353302509E+01  0.37050521861E+01  0.76588272773E+01  0.00000000000E+00 0. -1.
</event>
<event>
 7    1  0.2769403E-010  0.4778727E+02  0.7816164E-02  0.1312668E+00
        -11   -1    0    0    0    0  0.00000000000E+00  0.00000000000E+00  0.45593999997E+02  0.45594000000E+02  0.51100000000E-03 0. -1.
         11   -1    0    0    0    0 -0.00000000000E+00 -0.00000000000E+00 -0.45593999997E+02  0.45594000000E+02  0.51100000000E-03 0.  1.
    9900012    2    1    2    0    0  0.36673552342E+02 -0.90486041119E+01  0.21372792400E+02  0.47787274975E+02  0.20000017920E+02 0.  0.
         12    1    1    2    0    0 -0.36673552342E+02  0.90486041119E+01 -0.21372792400E+02  0.43400725025E+02  0.00000000000E+00 0. -1.
         11    1    3    3    0    0  0.17837865632E+02 -0.11551377839E+01  0.75114296657E+01  0.19389310702E+02  0.51100000000E-03 0. -1.
        -11    1    3    3    0    0  0.11026547953E+02  0.21726447320E+00  0.66147419433E+00  0.11048507229E+02  0.51100000000E-03 0.  1.
         12    1    3    3    0    0  0.78091387563E+01 -0.81107308012E+01  0.13199888540E+02  0.17349457044E+02  0.00000000000E+00 0. -1.
</event>
<event>
 7    1  0.2769403E-010  0.4778727E+02  0.7816164E-02  0.1312668E+00
        -11   -1    0    0    0    0  0.00000000000E+00  0.00000000000E+00  0.45593999997E+02  0.45594000000E+02  0.51100000000E-03 0.  1.
         11   -1    0    0    0    0 -0.00000000000E+00 -0.00000000000E+00 -0.45593999997E+02  0.45594000000E+02  0.51100000000E-03 0. -1.
    9900012    2    1    2    0    0  0.29615712150E+02  0.24821027856E+01  0.31628658392E+02  0.47787271065E+02  0.20000000095E+02 0.  0.
         12    1    1    2    0    0 -0.29615712150E+02 -0.24821027856E+01 -0.31628658392E+02  0.43400728935E+02  0.00000000000E+00 0. -1.
         11    1    3    3    0    0  0.33148267382E+01  0.38226308751E+01  0.10267776645E+01  0.51628340807E+01  0.51100000000E-03 0. -1.
        -11    1    3    3    0    0  0.16706285761E+02  0.13414810694E+01  0.94422160409E+01  0.19236813650E+02  0.51100000000E-03 0.  1.
         12    1    3    3    0    0  0.95945996507E+01 -0.26820091588E+01  0.21159664687E+02  0.23387623334E+02  0.00000000000E+00 0. -1.
</event>
<event>
 7    1  0.2769403E-010  0.4778727E+02  0.7816164E-02  0.1312668E+00
        -11   -1    0    0    0    0  0.00000000000E+00  0.00000000000E+00  0.45593999997E+02  0.45594000000E+02  0.51100000000E-03 0. -1.
         11   -1    0    0    0    0 -0.00000000000E+00 -0.00000000000E+00 -0.45593999997E+02  0.45594000000E+02  0.51100000000E-03 0.  1.
    9900012    2    1    2    0    0 -0.23506345159E+02  0.17804848765E+02  0.31844344981E+02  0.47787271786E+02  0.20000003380E+02 0.  0.
         12    1    1    2    0    0  0.23506345159E+02 -0.17804848765E+02 -0.31844344981E+02  0.43400728214E+02  0.00000000000E+00 0. -1.
         11    1    3    3    0    0 -0.43271396516E+00  0.38632651139E+01  0.42900880313E+01  0.57893794394E+01  0.51100000000E-03 0. -1.
        -11    1    3    3    0    0 -0.84111329629E+01  0.13805699001E+02  0.19282054918E+02  0.25162315568E+02  0.51100000000E-03 0.  1.
        -12    1    3    3    0    0 -0.14662498231E+02  0.13588464986E+00  0.82722020319E+01  0.16835576778E+02  0.00000000000E+00 0.  1.
</event>
<event>
 7    1  0.2769403E-010  0.4778727E+02  0.7816164E-02  0.1312668E+00
        -11   -1    0    0    0    0  0.00000000000E+00  0.00000000000E+00  0.45593999997E+02  0.45594000000E+02  0.51100000000E-03 0.  1.
         11   -1    0    0    0    0 -0.00000000000E+00 -0.00000000000E+00 -0.45593999997E+02  0.45594000000E+02  0.51100000000E-03 0. -1.
    9900012    2    1    2    0    0 -0.29135552153E+01 -0.25274813396E+02  0.35161321298E+02  0.47787268306E+02  0.19999987512E+02 0.  0.
         12    1    1    2    0    0  0.29135552153E+01  0.25274813396E+02 -0.35161321298E+02  0.43400731694E+02  0.00000000000E+00 0. -1.
         11    1    3    3    0    0 -0.17751346639E+01 -0.43312323271E+01  0.18793725203E+02  0.19367880209E+02  0.51100000000E-03 0.  1.
        -11    1    3    3    0    0  0.11483555001E+00 -0.10953586491E+02  0.24214286382E+01  0.11218625635E+02  0.51100000000E-03 0. -1.
         12    1    3    3    0    0 -0.12532561014E+01 -0.99899945780E+01  0.13946167457E+02  0.17200762462E+02  0.00000000000E+00 0. -1.
</event>
<event>
 7    1  0.2769403E-010  0.4778727E+02  0.7816164E-02  0.1312668E+00
        -11   -1    0    0    0    0  0.00000000000E+00  0.00000000000E+00  0.45593999997E+02  0.45594000000E+02  0.51100000000E-03 0. -1.
         11   -1    0    0    0    0 -0.00000000000E+00 -0.00000000000E+00 -0.45593999997E+02  0.45594000000E+02  0.51100000000E-03 0.  1.
    9900012    2    1    2    0    0  0.37122089393E+02 -0.14700404042E+02 -0.17013872200E+02  0.47787271353E+02  0.20000001406E+02 0.  0.
         12    1    1    2    0    0 -0.37122089393E+02  0.14700404042E+02  0.17013872200E+02  0.43400728647E+02  0.00000000000E+00 0. -1.
         11    1    3    3    0    0  0.13448577454E+02 -0.86388460960E+01 -0.13610552181E+02  0.20993833103E+02  0.51100000000E-03 0. -1.
        -11    1    3    3    0    0  0.17635159810E+02 -0.72282492664E+01 -0.61934500339E+01  0.20040091631E+02  0.51100000000E-03 0.  1.
         12    1    3    3    0    0  0.60383521285E+01  0.11666913208E+01  0.27901300144E+01  0.67533466195E+01  0.00000000000E+00 0. -1.
</event>
<event>
 7    1  0.2769403E-010  0.4778727E+02  0.7816164E-02  0.1312668E+00
        -11   -1    0    0    0    0  0.00000000000E+00  0.00000000000E+00  0.45593999997E+02  0.45594000000E+02  0.51100000000E-03 0.  1.
         11   -1    0    0    0    0 -0.00000000000E+00 -0.00000000000E+00 -0.45593999997E+02  0.45594000000E+02  0.51100000000E-03 0. -1.
    9900012    2    1    2    0    0 -0.90048358825E+01  0.25740591298E+02  0.33763271676E+02  0.47787267012E+02  0.19999981616E+02 0.  0.
         12    1    1    2    0    0  0.90048358825E+01 -0.25740591298E+02 -0.33763271676E+02  0.43400732988E+02  0.00000000000E+00 0. -1.
         11    1    3    3    0    0 -0.47222587658E+00  0.11774450742E+02  0.13599150354E+02  0.17994376293E+02  0.51100000000E-03 0. -1.
        -11    1    3    3    0    0 -0.33528174751E+01  0.13045011382E+02  0.20491417680E+02  0.24521661970E+02  0.51100000000E-03 0.  1.
         12    1    3    3    0    0 -0.51797925308E+01  0.92112917342E+00 -0.32729635880E+00  0.52712287489E+01  0.00000000000E+00 0. -1.
</event>
<event>
 7    1  0.2769403E-010  0.4778727E+02  0.7816164E-02  0.1312668E+00
        -11   -1    0    0    0    0  0.00000000000E+00  0.00000000000E+00  0.45593999997E+02  0.45594000000E+02  0.51100000000E-03 0.  1.
         11   -1    0    0    0    0 -0.00000000000E+00 -0.00000000000E+00 -0.45593999997E+02  0.45594000000E+02  0.51100000000E-03 0. -1.
    9900012    2    1    2    0    0  0.26827334444E+02  0.26721267890E+02  0.21210633871E+02  0.47787273967E+02  0.20000013325E+02 0.  0.
         12    1    1    2    0    0 -0.26827334444E+02 -0.26721267890E+02 -0.21210633871E+02  0.43400726033E+02  0.00000000000E+00 0. -1.
         11    1    3    3    0    0  0.99616829818E+01  0.19726763535E+02  0.56701008456E+01  0.22815134697E+02  0.51100000000E-03 0. -1.
        -11    1    3    3    0    0  0.94413573368E+01  0.63759191771E+01  0.60268000242E+01  0.12888517855E+02  0.51100000000E-03 0.  1.
         12    1    3    3    0    0  0.74242941253E+01  0.61858517779E+00  0.95137330007E+01  0.12083621415E+02  0.00000000000E+00 0. -1.
</event>
<event>
 7    1  0.2769403E-010  0.4778728E+02  0.7816164E-02  0.1312668E+00
        -11   -1    0    0    0    0  0.00000000000E+00  0.00000000000E+00  0.45593999997E+02  0.45594000000E+02  0.51100000000E-03 0.  1.
         11   -1    0    0    0    0 -0.00000000000E+00 -0.00000000000E+00 -0.45593999997E+02  0.45594000000E+02  0.51100000000E-03 0. -1.
    9900012    2    1    2    0    0 -0.33027205459E+02  0.27333221528E+02  0.67617223440E+01  0.47787283547E+02  0.20000057004E+02 0.  0.
         12    1    1    2    0    0  0.33027205459E+02 -0.27333221528E+02 -0.67617223440E+01  0.43400716453E+02  0.00000000000E+00 0. -1.
         11    1    3    3    0    0 -0.17450834621E+02  0.89502037710E+01 -0.40993587292E+01  0.20036030514E+02  0.51100000000E-03 0. -1.
        -11    1    3    3    0    0 -0.11075195808E+01 -0.69640240177E-01 -0.98159995697E+00  0.14815492302E+01  0.51100000000E-03 0.  1.
        -12    1    3    3    0    0 -0.14468851258E+02  0.18452657998E+02  0.11842681030E+02  0.26269703803E+02  0.00000000000E+00 0.  1.
</event>
<event>
 7    1  0.2769403E-010  0.4778726E+02  0.7816164E-02  0.1312668E+00
        -11   -1    0    0    0    0  0.00000000000E+00  0.00000000000E+00  0.45593999997E+02  0.45594000000E+02  0.51100000000E-03 0.  1.
         11   -1    0    0    0    0 -0.00000000000E+00 -0.00000000000E+00 -0.45593999997E+02  0.45594000000E+02  0.51100000000E-03 0. -1.
    9900012    2    1    2    0    0  0.40583863615E+02  0.13504322018E+02 -0.73625949241E+01  0.47787256883E+02  0.19999935434E+02 0.  0.
         12    1    1    2    0    0 -0.40583863615E+02 -0.13504322018E+02  0.73625949241E+01  0.43400743117E+02  0.00000000000E+00 0. -1.
         11    1    3    3    0    0  0.20856214240E+01 -0.68122587435E+00  0.99778115043E+00  0.24102806686E+01  0.51100000000E-03 0. -1.
        -11    1    3    3    0    0  0.10231011735E+02  0.29929065896E+01  0.54644806560E+01  0.11978799609E+02  0.51100000000E-03 0.  1.
         12    1    3    3    0    0  0.28267230456E+02  0.11192641303E+02 -0.13824856731E+02  0.33398176606E+02  0.00000000000E+00 0. -1.
</event>
<event>
 7    1  0.3394097E-010  0.4778727E+02  0.7816164E-02  0.1312668E+00
        -11   -1    0    0    0    0  0.00000000000E+00  0.00000000000E+00  0.45593999997E+02  0.45594000000E+02  0.51100000000E-03 0. -1.
         11   -1    0    0    0    0 -0.00000000000E+00 -0.00000000000E+00 -0.45593999997E+02  0.45594000000E+02  0.51100000000E-03 0.  1.
    9900012    2    1    2    0    0 -0.18956141831E+02 -0.38663535445E+02 -0.54239346992E+01  0.47787270123E+02  0.19999995800E+02 0.  0.
         12    1    1    2    0    0  0.18956141831E+02  0.38663535445E+02  0.54239346992E+01  0.43400729877E+02  0.00000000000E+00 0. -1.
         11    1    3    3    0    0 -0.38926011151E+00 -0.17270279450E+02 -0.48097364920E+01  0.17931749527E+02  0.51100000000E-03 0. -1.
        -11    1    3    3    0    0 -0.16869118000E+01 -0.30420637252E+01  0.30841213567E+01  0.46488308136E+01  0.51100000000E-03 0.  1.
         12    1    3    3    0    0 -0.16879969920E+02 -0.18351192270E+02 -0.36983195638E+01  0.25206689783E+02  0.00000000000E+00 0. -1.
</event>
<event>
 7    1  0.2769403E-010  0.4778724E+02  0.7816164E-02  0.1312668E+00
        -11   -1    0    0    0    0  0.00000000000E+00  0.00000000000E+00  0.45593999997E+02  0.45594000000E+02  0.51100000000E-03 0.  1.
         11   -1    0    0    0    0 -0.00000000000E+00 -0.00000000000E+00 -0.45593999997E+02  0.45594000000E+02  0.51100000000E-03 0. -1.
    9900012    2    1    2    0    0  0.91195593418E+01 -0.91430344987E+01  0.41435061779E+02  0.47787242092E+02  0.19999867992E+02 0.  0.
         12    1    1    2    0    0 -0.91195593418E+01  0.91430344987E+01 -0.41435061779E+02  0.43400757908E+02  0.00000000000E+00 0. -1.
         11    1    3    3    0    0  0.31758489558E+01  0.11895494293E+00  0.57284321596E+01  0.65509619246E+01  0.51100000000E-03 0. -1.
        -11    1    3    3    0    0  0.75647857359E+01 -0.63130825134E+01  0.36476857731E+02  0.37784152025E+02  0.51100000000E-03 0.  1.
         12    1    3    3    0    0 -0.16210753499E+01 -0.29489069282E+01 -0.77022811258E+00  0.34521281417E+01  0.00000000000E+00 0. -1.
</event>
<event>
 7    1  0.2769403E-010  0.4778727E+02  0.7816164E-02  0.1312668E+00
        -11   -1    0    0    0    0  0.00000000000E+00  0.00000000000E+00  0.45593999997E+02  0.45594000000E+02  0.51100000000E-03 0.  1.
         11   -1    0    0    0    0 -0.00000000000E+00 -0.00000000000E+00 -0.45593999997E+02  0.45594000000E+02  0.51100000000E-03 0. -1.
    9900012    2    1    2    0    0  0.40880851114E+02  0.41602565739E+01 -0.13966795329E+02  0.47787273113E+02  0.20000009433E+02 0.  0.
         12    1    1    2    0    0 -0.40880851114E+02 -0.41602565739E+01  0.13966795329E+02  0.43400726887E+02  0.00000000000E+00 0. -1.
         11    1    3    3    0    0  0.17962202979E+01 -0.70065091066E+00  0.31793685604E+01  0.37182931247E+01  0.51100000000E-03 0. -1.
        -11    1    3    3    0    0  0.72111110514E+01 -0.23837970222E+01 -0.54697713054E+01  0.93595410803E+01  0.51100000000E-03 0.  1.
        -12    1    3    3    0    0  0.31873519764E+02  0.72447045067E+01 -0.11676392584E+02  0.34709438908E+02  0.00000000000E+00 0.  1.
</event>
<event>
 7    1  0.2769403E-010  0.4778727E+02  0.7816164E-02  0.1312668E+00
        -11   -1    0    0    0    0  0.00000000000E+00  0.00000000000E+00  0.45593999997E+02  0.45594000000E+02  0.51100000000E-03 0. -1.
         11   -1    0    0    0    0 -0.00000000000E+00 -0.00000000000E+00 -0.45593999997E+02  0.45594000000E+02  0.51100000000E-03 0.  1.
    9900012    2    1    2    0    0 -0.16557152941E+02 -0.32208299593E+02 -0.23918810755E+02  0.47787269775E+02  0.19999994211E+02 0.  0.
         12    1    1    2    0    0  0.16557152941E+02  0.32208299593E+02  0.23918810755E+02  0.43400730225E+02  0.00000000000E+00 0. -1.
         11    1    3    3    0    0  0.11979960003E+01  0.35981084304E+00 -0.20673813942E+01  0.24163452464E+01  0.51100000000E-03 0. -1.
        -11    1    3    3    0    0 -0.11945279348E+02 -0.10064438889E+02 -0.41666957898E+01  0.16166136920E+02  0.51100000000E-03 0.  1.
        -12    1    3    3    0    0 -0.58098695932E+01 -0.22503671547E+02 -0.17684733571E+02  0.29204787608E+02  0.00000000000E+00 0.  1.
</event>
<event>
 7    1  0.2769403E-010  0.4778727E+02  0.7816164E-02  0.1312668E+00
        -11   -1    0    0    0    0  0.00000000000E+00  0.00000000000E+00  0.45593999997E+02  0.45594000000E+02  0.51100000000E-03 0. -1.
         11   -1    0    0    0    0 -0.00000000000E+00 -0.00000000000E+00 -0.45593999997E+02  0.45594000000E+02  0.51100000000E-03 0.  1.
    9900012    2    1    2    0    0 -0.64532747177E+01 -0.37976260133E+02 -0.19994556065E+02  0.47787270046E+02  0.19999995450E+02 0.  0.
         12    1    1    2    0    0  0.64532747177E+01  0.37976260133E+02  0.19994556065E+02  0.43400729954E+02  0.00000000000E+00 0. -1.
         11    1    3    3    0    0 -0.46656617853E+01 -0.18522153799E+02 -0.36281235006E+01  0.19442269972E+02  0.51100000000E-03 0.  1.
        -11    1    3    3    0    0  0.36284941935E+01 -0.57578495974E+01 -0.69876316781E+00  0.68415694343E+01  0.51100000000E-03 0. -1.
         12    1    3    3    0    0 -0.54161071259E+01 -0.13696256736E+02 -0.15667669397E+02  0.21503430640E+02  0.00000000000E+00 0. -1.
</event>
<event>
 7    1  0.2769403E-010  0.4778724E+02  0.7816164E-02  0.1312668E+00
        -11   -1    0    0    0    0  0.00000000000E+00  0.00000000000E+00  0.45593999997E+02  0.45594000000E+02  0.51100000000E-03 0.  1.
         11   -1    0    0    0    0 -0.00000000000E+00 -0.00000000000E+00 -0.45593999997E+02  0.45594000000E+02  0.51100000000E-03 0. -1.
    9900012    2    1    2    0    0  0.37077821205E+02  0.23043703177E+01  0.22439950332E+02  0.47787235965E+02  0.19999840060E+02 0.  0.
         12    1    1    2    0    0 -0.37077821205E+02 -0.23043703177E+01 -0.22439950332E+02  0.43400764035E+02  0.00000000000E+00 0. -1.
         11    1    3    3    0    0  0.17089135130E+02 -0.30127154553E+01  0.28454454518E+01  0.17584412245E+02  0.51100000000E-03 0. -1.
        -11    1    3    3    0    0  0.87072290567E+01  0.31279075239E+01  0.24635767933E+01  0.95743853172E+01  0.51100000000E-03 0.  1.
        -12    1    3    3    0    0  0.11281457018E+02  0.21891782491E+01  0.17130928086E+02  0.20628438403E+02  0.00000000000E+00 0.  1.
</event>
<event>
 7    1  0.2769403E-010  0.4778727E+02  0.7816164E-02  0.1312668E+00
        -11   -1    0    0    0    0  0.00000000000E+00  0.00000000000E+00  0.45593999997E+02  0.45594000000E+02  0.51100000000E-03 0. -1.
         11   -1    0    0    0    0 -0.00000000000E+00 -0.00000000000E+00 -0.45593999997E+02  0.45594000000E+02  0.51100000000E-03 0.  1.
    9900012    2    1    2    0    0 -0.40747942943E+02  0.48362658413E+01 -0.14136433802E+02  0.47787273255E+02  0.20000010078E+02 0.  0.
         12    1    1    2    0    0  0.40747942943E+02 -0.48362658413E+01  0.14136433802E+02  0.43400726745E+02  0.00000000000E+00 0. -1.
         11    1    3    3    0    0 -0.86064332725E+01  0.39132562753E+01 -0.16293050568E+01  0.95936908215E+01  0.51100000000E-03 0. -1.
        -11    1    3    3    0    0 -0.18683726468E+02  0.14457907348E+01 -0.15590791774E+02  0.24377135476E+02  0.51100000000E-03 0.  1.
        -12    1    3    3    0    0 -0.13457783202E+02 -0.52278116870E+00  0.30836630284E+01  0.13816446958E+02  0.00000000000E+00 0.  1.
</event>
<event>
 7    1  0.2769403E-010  0.4778727E+02  0.7816164E-02  0.1312668E+00
        -11   -1    0    0    0    0  0.00000000000E+00  0.00000000000E+00  0.45593999997E+02  0.45594000000E+02  0.51100000000E-03 0.  1.
         11   -1    0    0    0    0 -0.00000000000E+00 -0.00000000000E+00 -0.45593999997E+02  0.45594000000E+02  0.51100000000E-03 0. -1.
    9900012    2    1    2    0    0 -0.34681554085E+02 -0.24400839275E+02  0.92418714352E+01  0.47787270297E+02  0.19999996593E+02 0.  0.
         12    1    1    2    0    0  0.34681554085E+02  0.24400839275E+02 -0.92418714352E+01  0.43400729703E+02  0.00000000000E+00 0. -1.
         11    1    3    3    0    0  0.92739721215E+00  0.22433836002E+00  0.13502641041E+01  0.16533622412E+01  0.51100000000E-03 0. -1.
        -11    1    3    3    0    0 -0.12996204271E+02 -0.12525450706E+02 -0.29517552139E+01  0.18289371229E+02  0.51100000000E-03 0.  1.
        -12    1    3    3    0    0 -0.22612747026E+02 -0.12099726930E+02  0.10843362545E+02  0.27844536827E+02  0.00000000000E+00 0.  1.
</event>
<event>
 7    1  0.2769403E-010  0.4778727E+02  0.7816164E-02  0.1312668E+00
        -11   -1    0    0    0    0  0.00000000000E+00  0.00000000000E+00  0.45593999997E+02  0.45594000000E+02  0.51100000000E-03 0. -1.
         11   -1    0    0    0    0 -0.00000000000E+00 -0.00000000000E+00 -0.45593999997E+02  0.45594000000E+02  0.51100000000E-03 0.  1.
    9900012    2    1    2    0    0 -0.17464276516E+02 -0.14206126815E+02 -0.37105366745E+02  0.47787271497E+02  0.20000002063E+02 0.  0.
         12    1    1    2    0    0  0.17464276516E+02  0.14206126815E+02  0.37105366745E+02  0.43400728503E+02  0.00000000000E+00 0. -1.
         11    1    3    3    0    0 -0.53738553507E+01 -0.20446769962E+01 -0.18740330507E+01  0.60473982410E+01  0.51100000000E-03 0. -1.
        -11    1    3    3    0    0 -0.11433171940E+02 -0.45308141997E+01 -0.11627898820E+02  0.16924943992E+02  0.51100000000E-03 0.  1.
         12    1    3    3    0    0 -0.65724922541E+00 -0.76306356189E+01 -0.23603434874E+02  0.24814929264E+02  0.00000000000E+00 0. -1.
</event>
<event>
 7    1  0.2769403E-010  0.4778727E+02  0.7816164E-02  0.1312668E+00
        -11   -1    0    0    0    0  0.00000000000E+00  0.00000000000E+00  0.45593999997E+02  0.45594000000E+02  0.51100000000E-03 0. -1.
         11   -1    0    0    0    0 -0.00000000000E+00 -0.00000000000E+00 -0.45593999997E+02  0.45594000000E+02  0.51100000000E-03 0.  1.
    9900012    2    1    2    0    0 -0.40956795232E+02  0.13766779872E+02 -0.40792210624E+01  0.47787270189E+02  0.19999996099E+02 0.  0.
         12    1    1    2    0    0  0.40956795232E+02 -0.13766779872E+02  0.40792210624E+01  0.43400729811E+02  0.00000000000E+00 0. -1.
         11    1    3    3    0    0 -0.17710535998E+01 -0.97866174480E+00 -0.31314896948E+01  0.37283558888E+01  0.51100000000E-03 0. -1.
        -11    1    3    3    0    0 -0.22504601423E+01  0.53940430014E+01 -0.11546847999E+01  0.59576478581E+01  0.51100000000E-03 0.  1.
         12    1    3    3    0    0 -0.36935281489E+02  0.93513986149E+01  0.20695343233E+00  0.38101266442E+02  0.00000000000E+00 0. -1.
</event>
<event>
 7    1  0.2769403E-010  0.4778730E+02  0.7816164E-02  0.1312668E+00
        -11   -1    0    0    0    0  0.00000000000E+00  0.00000000000E+00  0.45593999997E+02  0.45594000000E+02  0.51100000000E-03 0.  1.
         11   -1    0    0    0    0 -0.00000000000E+00 -0.00000000000E+00 -0.45593999997E+02  0.45594000000E+02  0.51100000000E-03 0. -1.
    9900012    2    1    2    0    0 -0.33951562759E+02 -0.12333290803E+02  0.24058308361E+02  0.47787298658E+02  0.20000125901E+02 0.  0.
         12    1    1    2    0    0  0.33951562759E+02  0.12333290803E+02 -0.24058308361E+02  0.43400701342E+02  0.00000000000E+00 0. -1.
         11    1    3    3    0    0 -0.11600096018E+02 -0.60801111712E+01  0.50266623917E+01  0.14028446619E+02  0.51100000000E-03 0. -1.
        -11    1    3    3    0    0 -0.20897966904E+02 -0.54400401257E+01  0.86792526986E+01  0.23273342797E+02  0.51100000000E-03 0.  1.
        -12    1    3    3    0    0 -0.14534998367E+01 -0.81313950580E+00  0.10352393271E+02  0.10485509242E+02  0.00000000000E+00 0.  1.
</event>
<event>
 7    1  0.2769403E-010  0.4778727E+02  0.7816164E-02  0.1312668E+00
        -11   -1    0    0    0    0  0.00000000000E+00  0.00000000000E+00  0.45593999997E+02  0.45594000000E+02  0.51100000000E-03 0.  1.
         11   -1    0    0    0    0 -0.00000000000E+00 -0.00000000000E+00 -0.45593999997E+02  0.45594000000E+02  0.51100000000E-03 0. -1.
    9900012    2    1    2    0    0  0.19205558314E+02  0.25176239529E+02  0.29680414078E+02  0.47787268592E+02  0.19999988816E+02 0.  0.
         12    1    1    2    0    0 -0.19205558314E+02 -0.25176239529E+02 -0.29680414078E+02  0.43400731408E+02  0.00000000000E+00 0. -1.
         11    1    3    3    0    0  0.43890012838E+01  0.15063724688E+02  0.24440576359E+02  0.29043431387E+02  0.51100000000E-03 0. -1.
        -11    1    3    3    0    0  0.19030715715E+01  0.19013308337E+01  0.65361605811E+00  0.27683848283E+01  0.51100000000E-03 0.  1.
         12    1    3    3    0    0  0.12913485459E+02  0.82111840075E+01  0.45862216610E+01  0.15975452376E+02  0.00000000000E+00 0. -1.
</event>
<event>
 7    1  0.2769403E-010  0.4778727E+02  0.7816164E-02  0.1312668E+00
        -11   -1    0    0    0    0  0.00000000000E+00  0.00000000000E+00  0.45593999997E+02  0.45594000000E+02  0.51100000000E-03 0.  1.
         11   -1    0    0    0    0 -0.00000000000E+00 -0.00000000000E+00 -0.45593999997E+02  0.45594000000E+02  0.51100000000E-03 0. -1.
    9900012    2    1    2    0    0  0.18489251448E+02 -0.36240713132E+02 -0.15112294425E+02  0.47787272469E+02  0.20000006497E+02 0.  0.
         12    1    1    2    0    0 -0.18489251448E+02  0.36240713132E+02  0.15112294425E+02  0.43400727531E+02  0.00000000000E+00 0. -1.
         11    1    3    3    0    0  0.30769251057E+01 -0.92160103702E+00  0.12919783250E+00  0.32145775645E+01  0.51100000000E-03 0. -1.
        -11    1    3    3    0    0  0.88636707325E+00 -0.60509324187E+01  0.33563803108E+01  0.69760102334E+01  0.51100000000E-03 0.  1.
        -12    1    3    3    0    0  0.14525959269E+02 -0.29268179676E+02 -0.18597872568E+02  0.37596684672E+02  0.00000000000E+00 0.  1.
</event>
<event>
 7    1  0.2769403E-010  0.4778727E+02  0.7816164E-02  0.1312668E+00
        -11   -1    0    0    0    0  0.00000000000E+00  0.00000000000E+00  0.45593999997E+02  0.45594000000E+02  0.51100000000E-03 0.  1.
         11   -1    0    0    0    0 -0.00000000000E+00 -0.00000000000E+00 -0.45593999997E+02  0.45594000000E+02  0.51100000000E-03 0. -1.
    9900012    2    1    2    0    0  0.40718686787E+02  0.14741895303E+02  0.28790025497E+01  0.47787267443E+02  0.19999983581E+02 0.  0.
         12    1    1    2    0    0 -0.40718686787E+02 -0.14741895303E+02 -0.28790025497E+01  0.43400732557E+02  0.00000000000E+00 0. -1.
         11    1    3    3    0    0  0.19985721265E+02  0.88154140817E+00  0.87438916072E+00  0.20024253454E+02  0.51100000000E-03 0. -1.
        -11    1    3    3    0    0  0.12135568676E+00 -0.40063190442E+00  0.26575427953E+01  0.26903098512E+01  0.51100000000E-03 0.  1.
        -12    1    3    3    0    0  0.20611609835E+02  0.14260985799E+02 -0.65292940636E+00  0.25072704138E+02  0.00000000000E+00 0.  1.
</event>
<event>
 7    1  0.2769403E-010  0.4778728E+02  0.7816164E-02  0.1312668E+00
        -11   -1    0    0    0    0  0.00000000000E+00  0.00000000000E+00  0.45593999997E+02  0.45594000000E+02  0.51100000000E-03 0. -1.
         11   -1    0    0    0    0 -0.00000000000E+00 -0.00000000000E+00 -0.45593999997E+02  0.45594000000E+02  0.51100000000E-03 0.  1.
    9900012    2    1    2    0    0  0.22579062929E+02 -0.16439919525E+02 -0.33219533890E+02  0.47787280322E+02  0.20000042298E+02 0.  0.
         12    1    1    2    0    0 -0.22579062929E+02  0.16439919525E+02  0.33219533890E+02  0.43400719678E+02  0.00000000000E+00 0. -1.
         11    1    3    3    0    0  0.14967293309E+01 -0.49899294239E+01 -0.84020997060E+01  0.98860949862E+01  0.51100000000E-03 0. -1.
        -11    1    3    3    0    0  0.16432073928E+02 -0.15163182945E+02 -0.17061065058E+02  0.28124990876E+02  0.51100000000E-03 0.  1.
         12    1    3    3    0    0  0.46502596701E+01  0.37131928435E+01 -0.77563691255E+01  0.97761944591E+01  0.00000000000E+00 0. -1.
</event>
<event>
 7    1  0.2769403E-010  0.4778727E+02  0.7816164E-02  0.1312668E+00
        -11   -1    0    0    0    0  0.00000000000E+00  0.00000000000E+00  0.45593999997E+02  0.45594000000E+02  0.51100000000E-03 0. -1.
         11   -1    0    0    0    0 -0.00000000000E+00 -0.00000000000E+00 -0.45593999997E+02  0.45594000000E+02  0.51100000000E-03 0.  1.
    9900012    2    1    2    0    0 -0.39474090472E+02  0.11425009272E+02  0.13960241093E+02  0.47787274351E+02  0.20000015077E+02 0.  0.
         12    1    1    2    0    0  0.39474090472E+02 -0.11425009272E+02 -0.13960241093E+02  0.43400725649E+02  0.00000000000E+00 0. -1.
         11    1    3    3    0    0 -0.72657848328E+01 -0.14446396814E+01  0.69781649208E+01  0.10177101698E+02  0.51100000000E-03 0. -1.
        -11    1    3    3    0    0 -0.19395893460E+01 -0.21967717949E+01  0.17030216530E+01  0.33894094119E+01  0.51100000000E-03 0.  1.
        -12    1    3    3    0    0 -0.30268716293E+02  0.15066420749E+02  0.52790545189E+01  0.34220763242E+02  0.00000000000E+00 0.  1.
</event>
<event>
 7    1  0.2769403E-010  0.4778727E+02  0.7816164E-02  0.1312668E+00
        -11   -1    0    0    0    0  0.00000000000E+00  0.00000000000E+00  0.45593999997E+02  0.45594000000E+02  0.51100000000E-03 0. -1.
         11   -1    0    0    0    0 -0.00000000000E+00 -0.00000000000E+00 -0.45593999997E+02  0.45594000000E+02  0.51100000000E-03 0.  1.
    9900012    2    1    2    0    0  0.40957138935E+02 -0.14348949387E+02 -0.49379561114E+00  0.47787269449E+02  0.19999992726E+02 0.  0.
         12    1    1    2    0    0 -0.40957138935E+02  0.14348949387E+02  0.49379561114E+00  0.43400730551E+02  0.00000000000E+00 0. -1.
         11    1    3    3    0    0  0.89275253767E+01 -0.44750549275E+01 -0.10634426079E+01  0.10042795248E+02  0.51100000000E-03 0.  1.
        -11    1    3    3    0    0  0.28538581928E+02 -0.22574043355E+01  0.35603424913E+01  0.28848268088E+02  0.51100000000E-03 0. -1.
         12    1    3    3    0    0  0.34910316306E+01 -0.76164901243E+01 -0.29906954945E+01  0.88962061127E+01  0.00000000000E+00 0. -1.
</event>
<event>
 7    1  0.2769403E-010  0.4778727E+02  0.7816164E-02  0.1312668E+00
        -11   -1    0    0    0    0  0.00000000000E+00  0.00000000000E+00  0.45593999997E+02  0.45594000000E+02  0.51100000000E-03 0. -1.
         11   -1    0    0    0    0 -0.00000000000E+00 -0.00000000000E+00 -0.45593999997E+02  0.45594000000E+02  0.51100000000E-03 0.  1.
    9900012    2    1    2    0    0  0.73114016396E+00 -0.40814009580E+02 -0.14741280445E+02  0.47787270823E+02  0.19999998991E+02 0.  0.
         12    1    1    2    0    0 -0.73114016396E+00  0.40814009580E+02  0.14741280445E+02  0.43400729177E+02  0.00000000000E+00 0. -1.
         11    1    3    3    0    0 -0.38206091213E+01 -0.43166945206E+01  0.18967115424E+01  0.60686423999E+01  0.51100000000E-03 0. -1.
        -11    1    3    3    0    0  0.53436664975E+01 -0.10963392128E+02 -0.86510972556E+01  0.14953000454E+02  0.51100000000E-03 0.  1.
        -12    1    3    3    0    0 -0.79191721228E+00 -0.25533922931E+02 -0.79868947319E+01  0.26765627969E+02  0.00000000000E+00 0.  1.
</event>
<event>
 7    1  0.2769403E-010  0.4778729E+02  0.7816164E-02  0.1312668E+00
        -11   -1    0    0    0    0  0.00000000000E+00  0.00000000000E+00  0.45593999997E+02  0.45594000000E+02  0.51100000000E-03 0. -1.
         11   -1    0    0    0    0 -0.00000000000E+00 -0.00000000000E+00 -0.45593999997E+02  0.45594000000E+02  0.51100000000E-03 0.  1.
    9900012    2    1    2    0    0 -0.21349630462E+02  0.21499156608E+02 -0.31074125124E+02  0.47787289085E+02  0.20000082255E+02 0.  0.
         12    1    1    2    0    0  0.21349630462E+02 -0.21499156608E+02  0.31074125124E+02  0.43400710915E+02  0.00000000000E+00 0. -1.
         11    1    3    3    0    0 -0.23708567898E+01 -0.62469960638E+00  0.49924864392E+00  0.25020913223E+01  0.51100000000E-03 0. -1.
        -11    1    3    3    0    0 -0.15161006359E+02  0.82503004359E+01 -0.22165824202E+02  0.28093546125E+02  0.51100000000E-03 0.  1.
        -12    1    3    3    0    0 -0.38177673133E+01  0.13873555778E+02 -0.94075495662E+01  0.17191651637E+02  0.00000000000E+00 0.  1.
</event>
<event>
 7    1  0.2769403E-010  0.4778728E+02  0.7816164E-02  0.1312668E+00
        -11   -1    0    0    0    0  0.00000000000E+00  0.00000000000E+00  0.45593999997E+02  0.45594000000E+02  0.51100000000E-03 0.  1.
         11   -1    0    0    0    0 -0.00000000000E+00 -0.00000000000E+00 -0.45593999997E+02  0.45594000000E+02  0.51100000000E-03 0. -1.
    9900012    2    1    2    0    0 -0.22371383084E+01  0.15617743737E+02  0.40431475126E+02  0.47787275489E+02  0.20000020264E+02 0.  0.
         12    1    1    2    0    0  0.22371383084E+01 -0.15617743737E+02 -0.40431475126E+02  0.43400724511E+02  0.00000000000E+00 0. -1.
         11    1    3    3    0    0  0.37652057887E+01  0.14465995816E+02  0.27300212071E+02  0.31124642792E+02  0.51100000000E-03 0.  1.
        -11    1    3    3    0    0 -0.39689118561E+01  0.46564697188E+01  0.89379721434E+01  0.10831542728E+02  0.51100000000E-03 0. -1.
        -12    1    3    3    0    0 -0.20334322410E+01 -0.35047217978E+01  0.41932909114E+01  0.58310899689E+01  0.00000000000E+00 0.  1.
</event>
<event>
 7    1  0.2769403E-010  0.4778728E+02  0.7816164E-02  0.1312668E+00
        -11   -1    0    0    0    0  0.00000000000E+00  0.00000000000E+00  0.45593999997E+02  0.45594000000E+02  0.51100000000E-03 0.  1.
         11   -1    0    0    0    0 -0.00000000000E+00 -0.00000000000E+00 -0.45593999997E+02  0.45594000000E+02  0.51100000000E-03 0. -1.
    9900012    2    1    2    0    0  0.14597695966E+02 -0.15590061016E+02  0.37781998966E+02  0.47787283694E+02  0.20000057672E+02 0.  0.
         12    1    1    2    0    0 -0.14597695966E+02  0.15590061016E+02 -0.37781998966E+02  0.43400716306E+02  0.00000000000E+00 0. -1.
         11    1    3    3    0    0 -0.24598429396E+00  0.79385790962E+00  0.11071000679E+01  0.13843371970E+01  0.51100000000E-03 0. -1.
        -11    1    3    3    0    0  0.30280059811E+01 -0.15710589555E+02  0.16300552733E+02  0.22840741320E+02  0.51100000000E-03 0.  1.
        -12    1    3    3    0    0  0.11815674279E+02 -0.67332937106E+00  0.20374346165E+02  0.23562205176E+02  0.00000000000E+00 0.  1.
</event>
<event>
 7    1  0.2769403E-010  0.4778727E+02  0.7816164E-02  0.1312668E+00
        -11   -1    0    0    0    0  0.00000000000E+00  0.00000000000E+00  0.45593999997E+02  0.45594000000E+02  0.51100000000E-03 0.  1.
         11   -1    0    0    0    0 -0.00000000000E+00 -0.00000000000E+00 -0.45593999997E+02  0.45594000000E+02  0.51100000000E-03 0. -1.
    9900012    2    1    2    0    0 -0.29998729589E+02 -0.27168233434E+02  0.15671202213E+02  0.47787271162E+02  0.20000000537E+02 0.  0.
         12    1    1    2    0    0  0.29998729589E+02  0.27168233434E+02 -0.15671202213E+02  0.43400728838E+02  0.00000000000E+00 0. -1.
         11    1    3    3    0    0 -0.11319763235E+02 -0.10286201175E+02  0.14632162207E+02  0.21167029679E+02  0.51100000000E-03 0.  1.
        -11    1    3    3    0    0 -0.29296800209E+01 -0.49808494514E+00  0.24485408317E+01  0.38505150438E+01  0.51100000000E-03 0. -1.
        -12    1    3    3    0    0 -0.15749286332E+02 -0.16383947314E+02 -0.14095008258E+01  0.22769726440E+02  0.00000000000E+00 0.  1.
</event>
<event>
 7    1  0.2769403E-010  0.4778727E+02  0.7816164E-02  0.1312668E+00
        -11   -1    0    0    0    0  0.00000000000E+00  0.00000000000E+00  0.45593999997E+02  0.45594000000E+02  0.51100000000E-03 0.  1.
         11   -1    0    0    0    0 -0.00000000000E+00 -0.00000000000E+00 -0.45593999997E+02  0.45594000000E+02  0.51100000000E-03 0. -1.
    9900012    2    1    2    0    0 -0.41551864000E+02  0.12502581858E+02 -0.86679411835E+00  0.47787270893E+02  0.19999999308E+02 0.  0.
         12    1    1    2    0    0  0.41551864000E+02 -0.12502581858E+02  0.86679411835E+00  0.43400729107E+02  0.00000000000E+00 0. -1.
         11    1    3    3    0    0 -0.16824965359E+02 -0.11535774290E+01 -0.18887102849E+01  0.16969897673E+02  0.51100000000E-03 0. -1.
        -11    1    3    3    0    0 -0.16726517872E+02  0.38931230746E+01 -0.32762253492E+01  0.17483319484E+02  0.51100000000E-03 0.  1.
         12    1    3    3    0    0 -0.80003807692E+01  0.97630362121E+01  0.42981415157E+01  0.13334053735E+02  0.00000000000E+00 0. -1.
</event>
<event>
 7    1  0.2769403E-010  0.4778727E+02  0.7816164E-02  0.1312668E+00
        -11   -1    0    0    0    0  0.00000000000E+00  0.00000000000E+00  0.45593999997E+02  0.45594000000E+02  0.51100000000E-03 0. -1.
         11   -1    0    0    0    0 -0.00000000000E+00 -0.00000000000E+00 -0.45593999997E+02  0.45594000000E+02  0.51100000000E-03 0.  1.
    9900012    2    1    2    0    0  0.34657483357E+02 -0.24354850869E+02 -0.94511204400E+01  0.47787267390E+02  0.19999983340E+02 0.  0.
         12    1    1    2    0    0 -0.34657483357E+02  0.24354850869E+02  0.94511204400E+01  0.43400732610E+02  0.00000000000E+00 0. -1.
         11    1    3    3    0    0  0.17348931866E+00  0.17125813374E+01  0.23168541221E+00  0.17368683808E+01  0.51100000000E-03 0. -1.
        -11    1    3    3    0    0  0.71284550100E+01 -0.92387567154E+01  0.20676571772E+01  0.11850936796E+02  0.51100000000E-03 0.  1.
        -12    1    3    3    0    0  0.27355539028E+02 -0.16828675491E+02 -0.11750463029E+02  0.34199462214E+02  0.00000000000E+00 0.  1.
</event>
<event>
 7    1  0.2769403E-010  0.4778728E+02  0.7816164E-02  0.1312668E+00
        -11   -1    0    0    0    0  0.00000000000E+00  0.00000000000E+00  0.45593999997E+02  0.45594000000E+02  0.51100000000E-03 0.  1.
         11   -1    0    0    0    0 -0.00000000000E+00 -0.00000000000E+00 -0.45593999997E+02  0.45594000000E+02  0.51100000000E-03 0. -1.
    9900012    2    1    2    0    0  0.38108233740E+02 -0.19487361641E+02  0.71852756055E+01  0.47787275029E+02  0.20000018166E+02 0.  0.
         12    1    1    2    0    0 -0.38108233740E+02  0.19487361641E+02 -0.71852756055E+01  0.43400724971E+02  0.00000000000E+00 0. -1.
         11    1    3    3    0    0  0.17883784489E+02 -0.43957572447E+00 -0.82085570325E+00  0.17908008790E+02  0.51100000000E-03 0. -1.
        -11    1    3    3    0    0  0.72740832215E+01 -0.31874460899E+01  0.44288535804E+01  0.90932306463E+01  0.51100000000E-03 0.  1.
         12    1    3    3    0    0  0.12950366030E+02 -0.15860339826E+02  0.35772777284E+01  0.20786035592E+02  0.00000000000E+00 0. -1.
</event>
<event>
 7    1  0.3324017E-010  0.4778726E+02  0.7816164E-02  0.1312668E+00
        -11   -1    0    0    0    0  0.00000000000E+00  0.00000000000E+00  0.45593999997E+02  0.45594000000E+02  0.51100000000E-03 0.  1.
         11   -1    0    0    0    0 -0.00000000000E+00 -0.00000000000E+00 -0.45593999997E+02  0.45594000000E+02  0.51100000000E-03 0. -1.
    9900012    2    1    2    0    0 -0.22723669305E+01 -0.43221117996E+02 -0.32242666636E+01  0.47787255908E+02  0.19999930985E+02 0.  0.
         12    1    1    2    0    0  0.22723669305E+01  0.43221117996E+02  0.32242666636E+01  0.43400744092E+02  0.00000000000E+00 0. -1.
         11    1    3    3    0    0  0.55092377464E+01 -0.81305057185E+01 -0.12016050214E+01  0.98944771805E+01  0.51100000000E-03 0. -1.
        -11    1    3    3    0    0 -0.14052218426E+01 -0.15318357897E+02  0.46539667045E+01  0.16071283192E+02  0.51100000000E-03 0.  1.
         12    1    3    3    0    0 -0.63763828343E+01 -0.19772254380E+02 -0.66766283466E+01  0.21821495535E+02  0.00000000000E+00 0. -1.
</event>
<event>
 7    1  0.2769403E-010  0.4778726E+02  0.7816164E-02  0.1312668E+00
        -11   -1    0    0    0    0  0.00000000000E+00  0.00000000000E+00  0.45593999997E+02  0.45594000000E+02  0.51100000000E-03 0.  1.
         11   -1    0    0    0    0 -0.00000000000E+00 -0.00000000000E+00 -0.45593999997E+02  0.45594000000E+02  0.51100000000E-03 0. -1.
    9900012    2    1    2    0    0 -0.81799933807E+01  0.12113260170E+02  0.40865403996E+02  0.47787255681E+02  0.19999929952E+02 0.  0.
         12    1    1    2    0    0  0.81799933807E+01 -0.12113260170E+02 -0.40865403996E+02  0.43400744319E+02  0.00000000000E+00 0. -1.
         11    1    3    3    0    0 -0.17042050671E+01  0.71835366174E+01  0.38032325609E+02  0.38742293488E+02  0.51100000000E-03 0. -1.
        -11    1    3    3    0    0 -0.85041906677E+00  0.93564375107E+00  0.15955066787E+01  0.20357513701E+01  0.51100000000E-03 0.  1.
         12    1    3    3    0    0 -0.56253692469E+01  0.39940798016E+01  0.12375717088E+01  0.70092108229E+01  0.00000000000E+00 0. -1.
</event>
<event>
 7    1  0.2769403E-010  0.4778727E+02  0.7816164E-02  0.1312668E+00
        -11   -1    0    0    0    0  0.00000000000E+00  0.00000000000E+00  0.45593999997E+02  0.45594000000E+02  0.51100000000E-03 0.  1.
         11   -1    0    0    0    0 -0.00000000000E+00 -0.00000000000E+00 -0.45593999997E+02  0.45594000000E+02  0.51100000000E-03 0. -1.
    9900012    2    1    2    0    0  0.34909979840E+02 -0.60595862768E+01  0.25063882970E+02  0.47787268349E+02  0.19999987712E+02 0.  0.
         12    1    1    2    0    0 -0.34909979840E+02  0.60595862768E+01 -0.25063882970E+02  0.43400731651E+02  0.00000000000E+00 0. -1.
         11    1    3    3    0    0  0.10625910334E+02 -0.44245849071E+01  0.43204024014E+01  0.12294421467E+02  0.51100000000E-03 0. -1.
        -11    1    3    3    0    0  0.24098401704E+02 -0.29874645771E+01  0.12832776794E+02  0.27465215634E+02  0.51100000000E-03 0.  1.
         12    1    3    3    0    0  0.18566780178E+00  0.13524632074E+01  0.79107037745E+01  0.80276312489E+01  0.00000000000E+00 0. -1.
</event>
<event>
 7    1  0.2769403E-010  0.4778727E+02  0.7816164E-02  0.1312668E+00
        -11   -1    0    0    0    0  0.00000000000E+00  0.00000000000E+00  0.45593999997E+02  0.45594000000E+02  0.51100000000E-03 0.  1.
         11   -1    0    0    0    0 -0.00000000000E+00 -0.00000000000E+00 -0.45593999997E+02  0.45594000000E+02  0.51100000000E-03 0. -1.
    9900012    2    1    2    0    0  0.42878675904E+02  0.66393055112E+01 -0.98094176315E+00  0.47787268766E+02  0.19999989611E+02 0.  0.
         12    1    1    2    0    0 -0.42878675904E+02 -0.66393055112E+01  0.98094176315E+00  0.43400731234E+02  0.00000000000E+00 0. -1.
         11    1    3    3    0    0  0.14522441476E+02 -0.40528989426E+01  0.36274781863E+01  0.15507607633E+02  0.51100000000E-03 0. -1.
        -11    1    3    3    0    0  0.12920965916E+02  0.16167266357E+00 -0.42087492502E+01  0.13590109226E+02  0.51100000000E-03 0.  1.
        -12    1    3    3    0    0  0.15435268512E+02  0.10530531790E+02 -0.39967069920E+00  0.18689551907E+02  0.00000000000E+00 0.  1.
</event>
<event>
 7    1  0.2769403E-010  0.4778727E+02  0.7816164E-02  0.1312668E+00
        -11   -1    0    0    0    0  0.00000000000E+00  0.00000000000E+00  0.45593999997E+02  0.45594000000E+02  0.51100000000E-03 0. -1.
         11   -1    0    0    0    0 -0.00000000000E+00 -0.00000000000E+00 -0.45593999997E+02  0.45594000000E+02  0.51100000000E-03 0.  1.
    9900012    2    1    2    0    0  0.24545160411E+02  0.21526989382E+02 -0.28596278012E+02  0.47787270886E+02  0.19999999279E+02 0.  0.
         12    1    1    2    0    0 -0.24545160411E+02 -0.21526989382E+02  0.28596278012E+02  0.43400729114E+02  0.00000000000E+00 0. -1.
         11    1    3    3    0    0  0.71517903370E+01  0.82732141460E+01 -0.13540316882E+02  0.17405009591E+02  0.51100000000E-03 0. -1.
        -11    1    3    3    0    0  0.12563747045E+02  0.20160433322E+01 -0.12598457188E+02  0.17906236185E+02  0.51100000000E-03 0.  1.
        -12    1    3    3    0    0  0.48296230294E+01  0.11237731904E+02 -0.24575039425E+01  0.12476025111E+02  0.00000000000E+00 0.  1.
</event>
<event>
 7    1  0.2769403E-010  0.4778727E+02  0.7816164E-02  0.1312668E+00
        -11   -1    0    0    0    0  0.00000000000E+00  0.00000000000E+00  0.45593999997E+02  0.45594000000E+02  0.51100000000E-03 0. -1.
         11   -1    0    0    0    0 -0.00000000000E+00 -0.00000000000E+00 -0.45593999997E+02  0.45594000000E+02  0.51100000000E-03 0.  1.
    9900012    2    1    2    0    0  0.30778981808E+02  0.29552795089E+02 -0.79315611894E+01  0.47787273260E+02  0.20000010100E+02 0.  0.
         12    1    1    2    0    0 -0.30778981808E+02 -0.29552795089E+02  0.79315611894E+01  0.43400726740E+02  0.00000000000E+00 0. -1.
         11    1    3    3    0    0  0.16574013323E+02  0.54408955524E+01 -0.58888939678E+01  0.18411418589E+02  0.51100000000E-03 0.  1.
        -11    1    3    3    0    0 -0.31345129243E+00  0.62992547257E+01 -0.19400360003E-01  0.63070784399E+01  0.51100000000E-03 0. -1.
        -12    1    3    3    0    0  0.14518419777E+02  0.17812644811E+02 -0.20232668615E+01  0.23068776231E+02  0.00000000000E+00 0.  1.
</event>
<event>
 7    1  0.2769403E-010  0.4778727E+02  0.7816164E-02  0.1312668E+00
        -11   -1    0    0    0    0  0.00000000000E+00  0.00000000000E+00  0.45593999997E+02  0.45594000000E+02  0.51100000000E-03 0. -1.
         11   -1    0    0    0    0 -0.00000000000E+00 -0.00000000000E+00 -0.45593999997E+02  0.45594000000E+02  0.51100000000E-03 0.  1.
    9900012    2    1    2    0    0  0.39558943139E+02 -0.14585908609E+02 -0.10293905167E+02  0.47787271944E+02  0.20000004099E+02 0.  0.
         12    1    1    2    0    0 -0.39558943139E+02  0.14585908609E+02  0.10293905167E+02  0.43400728056E+02  0.00000000000E+00 0. -1.
         11    1    3    3    0    0  0.20849535061E+02  0.38653250345E+00 -0.91147709465E+01  0.22758109968E+02  0.51100000000E-03 0.  1.
        -11    1    3    3    0    0  0.43860686738E+01 -0.13194220478E+01  0.19813420051E+01  0.49904097380E+01  0.51100000000E-03 0. -1.
        -12    1    3    3    0    0  0.14323339404E+02 -0.13653019064E+02 -0.31604762256E+01  0.20038752237E+02  0.00000000000E+00 0.  1.
</event>
<event>
 7    1  0.2769403E-010  0.4778728E+02  0.7816164E-02  0.1312668E+00
        -11   -1    0    0    0    0  0.00000000000E+00  0.00000000000E+00  0.45593999997E+02  0.45594000000E+02  0.51100000000E-03 0. -1.
         11   -1    0    0    0    0 -0.00000000000E+00 -0.00000000000E+00 -0.45593999997E+02  0.45594000000E+02  0.51100000000E-03 0.  1.
    9900012    2    1    2    0    0 -0.29552566515E+02  0.27520227388E+02 -0.15903012407E+02  0.47787275274E+02  0.20000019286E+02 0.  0.
         12    1    1    2    0    0  0.29552566515E+02 -0.27520227388E+02  0.15903012407E+02  0.43400724726E+02  0.00000000000E+00 0. -1.
         11    1    3    3    0    0 -0.65747707331E+01 -0.12367248337E+01 -0.30514310770E+00  0.66970300197E+01  0.51100000000E-03 0. -1.
        -11    1    3    3    0    0 -0.31862242819E+01  0.14815865155E+01 -0.42874595805E+01  0.55434135416E+01  0.51100000000E-03 0.  1.
        -12    1    3    3    0    0 -0.19791571500E+02  0.27275365706E+02 -0.11310409718E+02  0.35546831713E+02  0.00000000000E+00 0.  1.
</event>
<event>
 7    1  0.2769403E-010  0.4778728E+02  0.7816164E-02  0.1312668E+00
        -11   -1    0    0    0    0  0.00000000000E+00  0.00000000000E+00  0.45593999997E+02  0.45594000000E+02  0.51100000000E-03 0. -1.
         11   -1    0    0    0    0 -0.00000000000E+00 -0.00000000000E+00 -0.45593999997E+02  0.45594000000E+02  0.51100000000E-03 0.  1.
    9900012    2    1    2    0    0 -0.51512324064E+00  0.30142638325E+02 -0.31221449701E+02  0.47787275137E+02  0.20000018660E+02 0.  0.
         12    1    1    2    0    0  0.51512324064E+00 -0.30142638325E+02  0.31221449701E+02  0.43400724863E+02  0.00000000000E+00 0. -1.
         11    1    3    3    0    0 -0.73248134155E+00  0.66651868113E+01 -0.85734840743E+00  0.67599031574E+01  0.51100000000E-03 0. -1.
        -11    1    3    3    0    0 -0.68751502699E+01  0.83146825838E+01 -0.10567317424E+02  0.15101981178E+02  0.51100000000E-03 0.  1.
        -12    1    3    3    0    0  0.70925083708E+01  0.15162768930E+02 -0.19796783870E+02  0.25925390802E+02  0.00000000000E+00 0.  1.
</event>
<event>
 7    1  0.2769403E-010  0.4778727E+02  0.7816164E-02  0.1312668E+00
        -11   -1    0    0    0    0  0.00000000000E+00  0.00000000000E+00  0.45593999997E+02  0.45594000000E+02  0.51100000000E-03 0. -1.
         11   -1    0    0    0    0 -0.00000000000E+00 -0.00000000000E+00 -0.45593999997E+02  0.45594000000E+02  0.51100000000E-03 0.  1.
    9900012    2    1    2    0    0 -0.33742244031E+02  0.35354538022E+01 -0.27066306918E+02  0.47787269177E+02  0.19999991484E+02 0.  0.
         12    1    1    2    0    0  0.33742244031E+02 -0.35354538022E+01  0.27066306918E+02  0.43400730823E+02  0.00000000000E+00 0. -1.
         11    1    3    3    0    0 -0.22646874666E+02  0.21847919159E+01 -0.99846390933E+01  0.24846473913E+02  0.51100000000E-03 0. -1.
        -11    1    3    3    0    0  0.16725898076E+01  0.67918630964E+00 -0.27880334428E+00  0.18266314006E+01  0.51100000000E-03 0.  1.
        -12    1    3    3    0    0 -0.12767959173E+02  0.67147557673E+00 -0.16802864480E+02  0.21114163863E+02  0.00000000000E+00 0.  1.
</event>
<event>
 7    1  0.2769403E-010  0.4778727E+02  0.7816164E-02  0.1312668E+00
        -11   -1    0    0    0    0  0.00000000000E+00  0.00000000000E+00  0.45593999997E+02  0.45594000000E+02  0.51100000000E-03 0.  1.
         11   -1    0    0    0    0 -0.00000000000E+00 -0.00000000000E+00 -0.45593999997E+02  0.45594000000E+02  0.51100000000E-03 0. -1.
    9900012    2    1    2    0    0  0.29715639416E+02 -0.24740736937E+02  0.19710404430E+02  0.47787270365E+02  0.19999996900E+02 0.  0.
         12    1    1    2    0    0 -0.29715639416E+02  0.24740736937E+02 -0.19710404430E+02  0.43400729635E+02  0.00000000000E+00 0. -1.
         11    1    3    3    0    0  0.20951254464E+01 -0.46956625772E+01  0.78286637606E+01  0.93662572147E+01  0.51100000000E-03 0. -1.
        -11    1    3    3    0    0  0.12040806255E+02 -0.12946116060E+02  0.11879194156E+02  0.21300192261E+02  0.51100000000E-03 0.  1.
        -12    1    3    3    0    0  0.15579707714E+02 -0.70989583001E+01  0.25465136683E-02  0.17120820889E+02  0.00000000000E+00 0.  1.
</event>
<event>
 7    1  0.2769403E-010  0.4778727E+02  0.7816164E-02  0.1312668E+00
        -11   -1    0    0    0    0  0.00000000000E+00  0.00000000000E+00  0.45593999997E+02  0.45594000000E+02  0.51100000000E-03 0. -1.
         11   -1    0    0    0    0 -0.00000000000E+00 -0.00000000000E+00 -0.45593999997E+02  0.45594000000E+02  0.51100000000E-03 0.  1.
    9900012    2    1    2    0    0  0.13617289331E+02 -0.31575538465E+02 -0.26479769351E+02  0.47787269788E+02  0.19999994271E+02 0.  0.
         12    1    1    2    0    0 -0.13617289331E+02  0.31575538465E+02  0.26479769351E+02  0.43400730212E+02  0.00000000000E+00 0. -1.
         11    1    3    3    0    0  0.59738541591E+01 -0.22591058218E+02 -0.11955432849E+02  0.26248337467E+02  0.51100000000E-03 0. -1.
        -11    1    3    3    0    0  0.86652460675E+01 -0.83231482285E+01 -0.69765784452E+01  0.13893665208E+02  0.51100000000E-03 0.  1.
        -12    1    3    3    0    0 -0.10218108959E+01 -0.66133201893E+00 -0.75477580571E+01  0.76452671134E+01  0.00000000000E+00 0.  1.
</event>
<event>
 7    1  0.2769403E-010  0.4778727E+02  0.7816164E-02  0.1312668E+00
        -11   -1    0    0    0    0  0.00000000000E+00  0.00000000000E+00  0.45593999997E+02  0.45594000000E+02  0.51100000000E-03 0.  1.
         11   -1    0    0    0    0 -0.00000000000E+00 -0.00000000000E+00 -0.45593999997E+02  0.45594000000E+02  0.51100000000E-03 0. -1.
    9900012    2    1    2    0    0 -0.13918328262E+02 -0.35418751417E+02  0.20866611277E+02  0.47787270977E+02  0.19999999692E+02 0.  0.
         12    1    1    2    0    0  0.13918328262E+02  0.35418751417E+02 -0.20866611277E+02  0.43400729023E+02  0.00000000000E+00 0. -1.
         11    1    3    3    0    0  0.46347102231E-01 -0.42068492945E+01 -0.64520643434E+00  0.42562918890E+01  0.51100000000E-03 0. -1.
        -11    1    3    3    0    0 -0.40497806811E+01 -0.94839771255E+01 -0.14334569976E+01  0.10411596655E+02  0.51100000000E-03 0.  1.
         12    1    3    3    0    0 -0.99148946834E+01 -0.21727924997E+02  0.22945274709E+02  0.33119382433E+02  0.00000000000E+00 0. -1.
</event>
<event>
 7    1  0.2769403E-010  0.4778727E+02  0.7816164E-02  0.1312668E+00
        -11   -1    0    0    0    0  0.00000000000E+00  0.00000000000E+00  0.45593999997E+02  0.45594000000E+02  0.51100000000E-03 0.  1.
         11   -1    0    0    0    0 -0.00000000000E+00 -0.00000000000E+00 -0.45593999997E+02  0.45594000000E+02  0.51100000000E-03 0. -1.
    9900012    2    1    2    0    0 -0.96497708534E+00 -0.57936344453E+01  0.43001466913E+02  0.47787268007E+02  0.19999986150E+02 0.  0.
         12    1    1    2    0    0  0.96497708534E+00  0.57936344453E+01 -0.43001466913E+02  0.43400731993E+02  0.00000000000E+00 0. -1.
         11    1    3    3    0    0 -0.10232917345E+01 -0.60448434094E+01  0.48728898602E+01  0.78314949830E+01  0.51100000000E-03 0. -1.
        -11    1    3    3    0    0 -0.30302212312E+01  0.22690467115E+01  0.35784511648E+01  0.52092347508E+01  0.51100000000E-03 0.  1.
        -12    1    3    3    0    0  0.30885358803E+01 -0.20178377474E+01  0.34550125888E+02  0.34746538273E+02  0.00000000000E+00 0.  1.
</event>
<event>
 7    1  0.2769403E-010  0.4778727E+02  0.7816164E-02  0.1312668E+00
        -11   -1    0    0    0    0  0.00000000000E+00  0.00000000000E+00  0.45593999997E+02  0.45594000000E+02  0.51100000000E-03 0.  1.
         11   -1    0    0    0    0 -0.00000000000E+00 -0.00000000000E+00 -0.45593999997E+02  0.45594000000E+02  0.51100000000E-03 0. -1.
    9900012    2    1    2    0    0 -0.22051824660E+02 -0.28591550252E+02  0.24080355756E+02  0.47787271320E+02  0.20000001255E+02 0.  0.
         12    1    1    2    0    0  0.22051824660E+02  0.28591550252E+02 -0.24080355756E+02  0.43400728680E+02  0.00000000000E+00 0. -1.
         11    1    3    3    0    0 -0.12690595728E+01 -0.63685025625E+00 -0.17403573428E+01  0.22460931392E+01  0.51100000000E-03 0.  1.
        -11    1    3    3    0    0  0.16819037965E+01 -0.52079058825E+01  0.28164057946E+01  0.61549350868E+01  0.51100000000E-03 0. -1.
        -12    1    3    3    0    0 -0.22464668884E+02 -0.22746794114E+02  0.23004307304E+02  0.39386243094E+02  0.00000000000E+00 0.  1.
</event>
<event>
 7    1  0.2769403E-010  0.4778729E+02  0.7816164E-02  0.1312668E+00
        -11   -1    0    0    0    0  0.00000000000E+00  0.00000000000E+00  0.45593999997E+02  0.45594000000E+02  0.51100000000E-03 0.  1.
         11   -1    0    0    0    0 -0.00000000000E+00 -0.00000000000E+00 -0.45593999997E+02  0.45594000000E+02  0.51100000000E-03 0. -1.
    9900012    2    1    2    0    0 -0.29166124663E+02  0.28645629358E+02  0.14573508235E+02  0.47787285127E+02  0.20000064209E+02 0.  0.
         12    1    1    2    0    0  0.29166124663E+02 -0.28645629358E+02 -0.14573508235E+02  0.43400714873E+02  0.00000000000E+00 0. -1.
         11    1    3    3    0    0 -0.16440794512E+01  0.91611065841E+01  0.68949534550E+01  0.11583145276E+02  0.51100000000E-03 0. -1.
        -11    1    3    3    0    0 -0.10420199551E+02  0.29270204809E+01  0.59167855252E+01  0.12335167562E+02  0.51100000000E-03 0.  1.
        -12    1    3    3    0    0 -0.17101845661E+02  0.16557502293E+02  0.17617692549E+01  0.23868972288E+02  0.00000000000E+00 0.  1.
</event>
<event>
 7    1  0.2769403E-010  0.4778728E+02  0.7816164E-02  0.1312668E+00
        -11   -1    0    0    0    0  0.00000000000E+00  0.00000000000E+00  0.45593999997E+02  0.45594000000E+02  0.51100000000E-03 0.  1.
         11   -1    0    0    0    0 -0.00000000000E+00 -0.00000000000E+00 -0.45593999997E+02  0.45594000000E+02  0.51100000000E-03 0. -1.
    9900012    2    1    2    0    0 -0.20005287275E+02 -0.35361397759E+02  0.15263762232E+02  0.47787281021E+02  0.20000045485E+02 0.  0.
         12    1    1    2    0    0  0.20005287275E+02  0.35361397759E+02 -0.15263762232E+02  0.43400718979E+02  0.00000000000E+00 0. -1.
         11    1    3    3    0    0 -0.11216539217E+02 -0.15321277593E+02  0.12357866938E+02  0.22655444701E+02  0.51100000000E-03 0. -1.
        -11    1    3    3    0    0 -0.58246451657E+00 -0.12883817947E+02  0.53664906427E+01  0.13968938825E+02  0.51100000000E-03 0.  1.
         12    1    3    3    0    0 -0.82062835410E+01 -0.71563022191E+01 -0.24605953484E+01  0.11162897495E+02  0.00000000000E+00 0. -1.
</event>
<event>
 7    1  0.2769403E-010  0.4778727E+02  0.7816164E-02  0.1312668E+00
        -11   -1    0    0    0    0  0.00000000000E+00  0.00000000000E+00  0.45593999997E+02  0.45594000000E+02  0.51100000000E-03 0. -1.
         11   -1    0    0    0    0 -0.00000000000E+00 -0.00000000000E+00 -0.45593999997E+02  0.45594000000E+02  0.51100000000E-03 0.  1.
    9900012    2    1    2    0    0  0.31748786930E+02  0.53717960678E+01 -0.29099512617E+02  0.47787270754E+02  0.19999998677E+02 0.  0.
         12    1    1    2    0    0 -0.31748786930E+02 -0.53717960678E+01  0.29099512617E+02  0.43400729246E+02  0.00000000000E+00 0. -1.
         11    1    3    3    0    0  0.86170477644E+01 -0.53355053416E+01 -0.13139989515E+02  0.16594591111E+02  0.51100000000E-03 0. -1.
        -11    1    3    3    0    0  0.21604425354E+01  0.21716774412E+00 -0.47074317203E+01  0.51840705474E+01  0.51100000000E-03 0.  1.
        -12    1    3    3    0    0  0.20971296630E+02  0.10490133665E+02 -0.11252091382E+02  0.26008609096E+02  0.00000000000E+00 0.  1.
</event>
<event>
 7    1  0.2769403E-010  0.4778727E+02  0.7816164E-02  0.1312668E+00
        -11   -1    0    0    0    0  0.00000000000E+00  0.00000000000E+00  0.45593999997E+02  0.45594000000E+02  0.51100000000E-03 0.  1.
         11   -1    0    0    0    0 -0.00000000000E+00 -0.00000000000E+00 -0.45593999997E+02  0.45594000000E+02  0.51100000000E-03 0. -1.
    9900012    2    1    2    0    0  0.26202389161E+01 -0.29125642978E+02  0.32069528076E+02  0.47787270030E+02  0.19999995376E+02 0.  0.
         12    1    1    2    0    0 -0.26202389161E+01  0.29125642978E+02 -0.32069528076E+02  0.43400729970E+02  0.00000000000E+00 0. -1.
         11    1    3    3    0    0  0.41303863739E+01 -0.18518774286E+02  0.11601922927E+02  0.22239822583E+02  0.51100000000E-03 0. -1.
        -11    1    3    3    0    0  0.44087616737E+01 -0.71960013076E+01  0.10686946301E+02  0.13617284451E+02  0.51100000000E-03 0.  1.
         12    1    3    3    0    0 -0.59189091315E+01 -0.34108673853E+01  0.97806588475E+01  0.11930162996E+02  0.00000000000E+00 0. -1.
</event>
<event>
 7    1  0.2769403E-010  0.4778727E+02  0.7816164E-02  0.1312668E+00
        -11   -1    0    0    0    0  0.00000000000E+00  0.00000000000E+00  0.45593999997E+02  0.45594000000E+02  0.51100000000E-03 0. -1.
         11   -1    0    0    0    0 -0.00000000000E+00 -0.00000000000E+00 -0.45593999997E+02  0.45594000000E+02  0.51100000000E-03 0.  1.
    9900012    2    1    2    0    0  0.18724591596E+02  0.28251244619E+00 -0.39152687167E+02  0.47787273553E+02  0.20000011436E+02 0.  0.
         12    1    1    2    0    0 -0.18724591596E+02 -0.28251244619E+00  0.39152687167E+02  0.43400726447E+02  0.00000000000E+00 0. -1.
         11    1    3    3    0    0  0.12185665300E+02 -0.38300524199E+01 -0.11468148035E+02  0.17166192355E+02  0.51100000000E-03 0.  1.
        -11    1    3    3    0    0 -0.52293135035E+00 -0.25329359298E+01 -0.23515141673E+01  0.34955458461E+01  0.51100000000E-03 0. -1.
        -12    1    3    3    0    0  0.70618576459E+01  0.66455007959E+01 -0.25333024965E+02  0.27125535351E+02  0.00000000000E+00 0.  1.
</event>
<event>
 7    1  0.2769403E-010  0.4778725E+02  0.7816164E-02  0.1312668E+00
        -11   -1    0    0    0    0  0.00000000000E+00  0.00000000000E+00  0.45593999997E+02  0.45594000000E+02  0.51100000000E-03 0.  1.
         11   -1    0    0    0    0 -0.00000000000E+00 -0.00000000000E+00 -0.45593999997E+02  0.45594000000E+02  0.51100000000E-03 0. -1.
    9900012    2    1    2    0    0  0.26251794576E+02  0.33290520543E+02 -0.92849182283E+01  0.47787249051E+02  0.19999899721E+02 0.  0.
         12    1    1    2    0    0 -0.26251794576E+02 -0.33290520543E+02  0.92849182283E+01  0.43400750949E+02  0.00000000000E+00 0. -1.
         11    1    3    3    0    0  0.46124763920E+01 -0.32403375969E+00  0.42058584013E+00  0.46429332382E+01  0.51100000000E-03 0.  1.
        -11    1    3    3    0    0  0.14157169520E+02  0.14093929732E+02  0.27538090346E+00  0.19978491910E+02  0.51100000000E-03 0. -1.
         12    1    3    3    0    0  0.74821486646E+01  0.19520624570E+02 -0.99808849719E+01  0.23165823902E+02  0.00000000000E+00 0. -1.
</event>
<event>
 7    1  0.2769403E-010  0.4778727E+02  0.7816164E-02  0.1312668E+00
        -11   -1    0    0    0    0  0.00000000000E+00  0.00000000000E+00  0.45593999997E+02  0.45594000000E+02  0.51100000000E-03 0.  1.
         11   -1    0    0    0    0 -0.00000000000E+00 -0.00000000000E+00 -0.45593999997E+02  0.45594000000E+02  0.51100000000E-03 0. -1.
    9900012    2    1    2    0    0 -0.88170633059E+00  0.39966982216E+02  0.16896335118E+02  0.47787271735E+02  0.20000003148E+02 0.  0.
         12    1    1    2    0    0  0.88170633059E+00 -0.39966982216E+02 -0.16896335118E+02  0.43400728265E+02  0.00000000000E+00 0. -1.
         11    1    3    3    0    0  0.44412406355E+01  0.14701382614E+02  0.79047297270E+01  0.17272522151E+02  0.51100000000E-03 0. -1.
        -11    1    3    3    0    0 -0.46225335954E+01  0.20829463220E+02  0.12577702165E+02  0.24767578543E+02  0.51100000000E-03 0.  1.
         12    1    3    3    0    0 -0.70041337073E+00  0.44361363821E+01 -0.35860967743E+01  0.57471710402E+01  0.00000000000E+00 0. -1.
</event>
<event>
 7    1  0.2769403E-010  0.4778727E+02  0.7816164E-02  0.1312668E+00
        -11   -1    0    0    0    0  0.00000000000E+00  0.00000000000E+00  0.45593999997E+02  0.45594000000E+02  0.51100000000E-03 0. -1.
         11   -1    0    0    0    0 -0.00000000000E+00 -0.00000000000E+00 -0.45593999997E+02  0.45594000000E+02  0.51100000000E-03 0.  1.
    9900012    2    1    2    0    0 -0.84763693741E+01 -0.89389626436E+01 -0.41615733653E+02  0.47787272144E+02  0.20000005014E+02 0.  0.
         12    1    1    2    0    0  0.84763693741E+01  0.89389626436E+01  0.41615733653E+02  0.43400727856E+02  0.00000000000E+00 0. -1.
         11    1    3    3    0    0  0.31462332980E+01  0.33600236644E+00 -0.41564673937E+01  0.52237824430E+01  0.51100000000E-03 0. -1.
        -11    1    3    3    0    0 -0.35041361700E+01 -0.24882909834E+01 -0.75394313590E+00  0.43633694353E+01  0.51100000000E-03 0.  1.
        -12    1    3    3    0    0 -0.81184665021E+01 -0.67866740266E+01 -0.36705323124E+02  0.38200120266E+02  0.00000000000E+00 0.  1.
</event>
<event>
 7    1  0.2769403E-010  0.4778727E+02  0.7816164E-02  0.1312668E+00
        -11   -1    0    0    0    0  0.00000000000E+00  0.00000000000E+00  0.45593999997E+02  0.45594000000E+02  0.51100000000E-03 0.  1.
         11   -1    0    0    0    0 -0.00000000000E+00 -0.00000000000E+00 -0.45593999997E+02  0.45594000000E+02  0.51100000000E-03 0. -1.
    9900012    2    1    2    0    0  0.17379647704E+02  0.25620497908E+02  0.30416469437E+02  0.47787266361E+02  0.19999978649E+02 0.  0.
         12    1    1    2    0    0 -0.17379647704E+02 -0.25620497908E+02 -0.30416469437E+02  0.43400733639E+02  0.00000000000E+00 0. -1.
         11    1    3    3    0    0  0.59997202754E+01  0.17275835509E+01  0.91907449187E+01  0.11110849685E+02  0.51100000000E-03 0. -1.
        -11    1    3    3    0    0  0.25763404772E+00  0.71552364883E+00 -0.19319261067E+01  0.20762196746E+01  0.51100000000E-03 0.  1.
        -12    1    3    3    0    0  0.11122293381E+02  0.23177390708E+02  0.23157650625E+02  0.34600197002E+02  0.00000000000E+00 0.  1.
</event>
<event>
 7    1  0.2769403E-010  0.4778728E+02  0.7816164E-02  0.1312668E+00
        -11   -1    0    0    0    0  0.00000000000E+00  0.00000000000E+00  0.45593999997E+02  0.45594000000E+02  0.51100000000E-03 0. -1.
         11   -1    0    0    0    0 -0.00000000000E+00 -0.00000000000E+00 -0.45593999997E+02  0.45594000000E+02  0.51100000000E-03 0.  1.
    9900012    2    1    2    0    0 -0.14083847515E+02  0.33202380739E+02  0.24142702368E+02  0.47787275062E+02  0.20000018315E+02 0.  0.
         12    1    1    2    0    0  0.14083847515E+02 -0.33202380739E+02 -0.24142702368E+02  0.43400724938E+02  0.00000000000E+00 0. -1.
         11    1    3    3    0    0 -0.58457218005E+01  0.58790217030E+01  0.87605255103E+01  0.12061598859E+02  0.51100000000E-03 0.  1.
        -11    1    3    3    0    0 -0.40651970269E+01 -0.50928460309E+00  0.21405001970E+01  0.46224386452E+01  0.51100000000E-03 0. -1.
        -12    1    3    3    0    0 -0.41729286877E+01  0.27832643639E+02  0.13241676660E+02  0.31103237557E+02  0.00000000000E+00 0.  1.
</event>
<event>
 7    1  0.2769403E-010  0.4778727E+02  0.7816164E-02  0.1312668E+00
        -11   -1    0    0    0    0  0.00000000000E+00  0.00000000000E+00  0.45593999997E+02  0.45594000000E+02  0.51100000000E-03 0.  1.
         11   -1    0    0    0    0 -0.00000000000E+00 -0.00000000000E+00 -0.45593999997E+02  0.45594000000E+02  0.51100000000E-03 0. -1.
    9900012    2    1    2    0    0 -0.65721573721E+01 -0.24559472262E+02  0.35174741269E+02  0.47787270125E+02  0.19999995808E+02 0.  0.
         12    1    1    2    0    0  0.65721573721E+01  0.24559472262E+02 -0.35174741269E+02  0.43400729875E+02  0.00000000000E+00 0. -1.
         11    1    3    3    0    0  0.66172248824E+01 -0.43310153184E+01  0.73448785089E+01  0.10793173741E+02  0.51100000000E-03 0. -1.
        -11    1    3    3    0    0 -0.24119766459E+01 -0.59835958475E+01  0.85571377259E+01  0.10716606596E+02  0.51100000000E-03 0.  1.
         12    1    3    3    0    0 -0.10777405609E+02 -0.14244861096E+02  0.19272725034E+02  0.26277489788E+02  0.00000000000E+00 0. -1.
</event>
<event>
 7    1  0.2769403E-010  0.4778727E+02  0.7816164E-02  0.1312668E+00
        -11   -1    0    0    0    0  0.00000000000E+00  0.00000000000E+00  0.45593999997E+02  0.45594000000E+02  0.51100000000E-03 0.  1.
         11   -1    0    0    0    0 -0.00000000000E+00 -0.00000000000E+00 -0.45593999997E+02  0.45594000000E+02  0.51100000000E-03 0. -1.
    9900012    2    1    2    0    0  0.31904363452E-01  0.19997712356E+02  0.38519003677E+02  0.47787272337E+02  0.20000005894E+02 0.  0.
         12    1    1    2    0    0 -0.31904363452E-01 -0.19997712356E+02 -0.38519003677E+02  0.43400727663E+02  0.00000000000E+00 0. -1.
         11    1    3    3    0    0  0.20436863240E+01  0.58334222689E+01  0.28928320378E+01  0.68245107237E+01  0.51100000000E-03 0. -1.
        -11    1    3    3    0    0 -0.52920870636E+01  0.43080535090E+01  0.45634955222E+01  0.82092022857E+01  0.51100000000E-03 0.  1.
        -12    1    3    3    0    0  0.32803051030E+01  0.98562365783E+01  0.31062676117E+02  0.32753559328E+02  0.00000000000E+00 0.  1.
</event>
<event>
 7    1  0.2769403E-010  0.4778729E+02  0.7816164E-02  0.1312668E+00
        -11   -1    0    0    0    0  0.00000000000E+00  0.00000000000E+00  0.45593999997E+02  0.45594000000E+02  0.51100000000E-03 0.  1.
         11   -1    0    0    0    0 -0.00000000000E+00 -0.00000000000E+00 -0.45593999997E+02  0.45594000000E+02  0.51100000000E-03 0. -1.
    9900012    2    1    2    0    0  0.97822867686E+01 -0.41728560914E+02 -0.68305122100E+01  0.47787287708E+02  0.20000075975E+02 0.  0.
         12    1    1    2    0    0 -0.97822867686E+01  0.41728560914E+02  0.68305122100E+01  0.43400712292E+02  0.00000000000E+00 0. -1.
         11    1    3    3    0    0  0.10283642084E+01 -0.11396535103E+02  0.50303318785E+01  0.12499711372E+02  0.51100000000E-03 0. -1.
        -11    1    3    3    0    0  0.14922608676E+01 -0.30632533385E+00 -0.26424636037E+01  0.30501298112E+01  0.51100000000E-03 0.  1.
        -12    1    3    3    0    0  0.72616616925E+01 -0.30025700477E+02 -0.92183804848E+01  0.32237446525E+02  0.00000000000E+00 0.  1.
</event>
<event>
 7    1  0.2769403E-010  0.4778727E+02  0.7816164E-02  0.1312668E+00
        -11   -1    0    0    0    0  0.00000000000E+00  0.00000000000E+00  0.45593999997E+02  0.45594000000E+02  0.51100000000E-03 0.  1.
         11   -1    0    0    0    0 -0.00000000000E+00 -0.00000000000E+00 -0.45593999997E+02  0.45594000000E+02  0.51100000000E-03 0. -1.
    9900012    2    1    2    0    0  0.27378853746E+02  0.10385769882E+02  0.32033692980E+02  0.47787270347E+02  0.19999996820E+02 0.  0.
         12    1    1    2    0    0 -0.27378853746E+02 -0.10385769882E+02 -0.32033692980E+02  0.43400729653E+02  0.00000000000E+00 0. -1.
         11    1    3    3    0    0  0.65237374259E+00  0.25485865408E+01  0.85036149831E+01  0.89012556922E+01  0.51100000000E-03 0. -1.
        -11    1    3    3    0    0  0.10071461544E+02  0.92612643812E+01  0.69666729711E+01  0.15353823241E+02  0.51100000000E-03 0.  1.
        -12    1    3    3    0    0  0.16655018459E+02 -0.14240810398E+01  0.16563405026E+02  0.23532191414E+02  0.00000000000E+00 0.  1.
</event>
<event>
 7    1  0.2769403E-010  0.4778727E+02  0.7816164E-02  0.1312668E+00
        -11   -1    0    0    0    0  0.00000000000E+00  0.00000000000E+00  0.45593999997E+02  0.45594000000E+02  0.51100000000E-03 0.  1.
         11   -1    0    0    0    0 -0.00000000000E+00 -0.00000000000E+00 -0.45593999997E+02  0.45594000000E+02  0.51100000000E-03 0. -1.
    9900012    2    1    2    0    0  0.40757249877E+02 -0.14458707294E+02 -0.36627295210E+01  0.47787271646E+02  0.20000002742E+02 0.  0.
         12    1    1    2    0    0 -0.40757249877E+02  0.14458707294E+02  0.36627295210E+01  0.43400728354E+02  0.00000000000E+00 0. -1.
         11    1    3    3    0    0  0.68943297131E+01 -0.18834584450E+01  0.49375052041E+01  0.86866654021E+01  0.51100000000E-03 0. -1.
        -11    1    3    3    0    0  0.18758912809E+02 -0.12033088126E+01 -0.13297345717E+01  0.18844440989E+02  0.51100000000E-03 0.  1.
        -12    1    3    3    0    0  0.15104007354E+02 -0.11371940036E+02 -0.72705001534E+01  0.20256165255E+02  0.00000000000E+00 0.  1.
</event>
<event>
 7    1  0.2769403E-010  0.4778727E+02  0.7816164E-02  0.1312668E+00
        -11   -1    0    0    0    0  0.00000000000E+00  0.00000000000E+00  0.45593999997E+02  0.45594000000E+02  0.51100000000E-03 0. -1.
         11   -1    0    0    0    0 -0.00000000000E+00 -0.00000000000E+00 -0.45593999997E+02  0.45594000000E+02  0.51100000000E-03 0.  1.
    9900012    2    1    2    0    0 -0.37849482282E+02 -0.47095325422E+01 -0.20708942649E+02  0.47787270612E+02  0.19999998029E+02 0.  0.
         12    1    1    2    0    0  0.37849482282E+02  0.47095325422E+01  0.20708942649E+02  0.43400729388E+02  0.00000000000E+00 0. -1.
         11    1    3    3    0    0  0.94319088943E-01  0.27718457469E+01 -0.10767542926E+01  0.29751344512E+01  0.51100000000E-03 0. -1.
        -11    1    3    3    0    0 -0.40544227522E+01  0.26408710732E+01 -0.32843084735E+01  0.58480104557E+01  0.51100000000E-03 0.  1.
        -12    1    3    3    0    0 -0.33889378619E+02 -0.10122249362E+02 -0.16347879882E+02  0.38964125705E+02  0.00000000000E+00 0.  1.
</event>
<event>
 7    1  0.2769403E-010  0.4778728E+02  0.7816164E-02  0.1312668E+00
        -11   -1    0    0    0    0  0.00000000000E+00  0.00000000000E+00  0.45593999997E+02  0.45594000000E+02  0.51100000000E-03 0.  1.
         11   -1    0    0    0    0 -0.00000000000E+00 -0.00000000000E+00 -0.45593999997E+02  0.45594000000E+02  0.51100000000E-03 0. -1.
    9900012    2    1    2    0    0  0.27386350017E+02  0.16343064538E+02  0.29436615689E+02  0.47787282621E+02  0.20000052783E+02 0.  0.
         12    1    1    2    0    0 -0.27386350017E+02 -0.16343064538E+02 -0.29436615689E+02  0.43400717379E+02  0.00000000000E+00 0. -1.
         11    1    3    3    0    0  0.86756869202E+01  0.33946558361E+01  0.85951162566E+00  0.93557464843E+01  0.51100000000E-03 0. -1.
        -11    1    3    3    0    0  0.10758232181E+02  0.10829114148E+01  0.83118168909E+01  0.13638128797E+02  0.51100000000E-03 0.  1.
         12    1    3    3    0    0  0.79524309164E+01  0.11865497287E+02  0.20265287173E+02  0.24793407340E+02  0.00000000000E+00 0. -1.
</event>
<event>
 7    1  0.2769403E-010  0.4778727E+02  0.7816164E-02  0.1312668E+00
        -11   -1    0    0    0    0  0.00000000000E+00  0.00000000000E+00  0.45593999997E+02  0.45594000000E+02  0.51100000000E-03 0. -1.
         11   -1    0    0    0    0 -0.00000000000E+00 -0.00000000000E+00 -0.45593999997E+02  0.45594000000E+02  0.51100000000E-03 0.  1.
    9900012    2    1    2    0    0 -0.95445112194E+01  0.38195963483E+02 -0.18264552794E+02  0.47787271785E+02  0.20000003376E+02 0.  0.
         12    1    1    2    0    0  0.95445112194E+01 -0.38195963483E+02  0.18264552794E+02  0.43400728215E+02  0.00000000000E+00 0. -1.
         11    1    3    3    0    0  0.36397468310E+01  0.88847756050E+01 -0.35472002574E+01  0.10235703419E+02  0.51100000000E-03 0. -1.
        -11    1    3    3    0    0 -0.18379898176E+01  0.86262462937E+01  0.14675684038E+01  0.89411458421E+01  0.51100000000E-03 0.  1.
        -12    1    3    3    0    0 -0.11346268233E+02  0.20684941585E+02 -0.16184920940E+02  0.28610422524E+02  0.00000000000E+00 0.  1.
</event>
<event>
 7    1  0.2769403E-010  0.4778727E+02  0.7816164E-02  0.1312668E+00
        -11   -1    0    0    0    0  0.00000000000E+00  0.00000000000E+00  0.45593999997E+02  0.45594000000E+02  0.51100000000E-03 0.  1.
         11   -1    0    0    0    0 -0.00000000000E+00 -0.00000000000E+00 -0.45593999997E+02  0.45594000000E+02  0.51100000000E-03 0. -1.
    9900012    2    1    2    0    0  0.23341438513E+02 -0.35919053712E+02  0.69729574692E+01  0.47787270659E+02  0.19999998245E+02 0.  0.
         12    1    1    2    0    0 -0.23341438513E+02  0.35919053712E+02 -0.69729574692E+01  0.43400729341E+02  0.00000000000E+00 0. -1.
         11    1    3    3    0    0  0.27135077843E+01 -0.17106116234E+02 -0.63937394340E+00  0.17331795533E+02  0.51100000000E-03 0. -1.
        -11    1    3    3    0    0  0.80699155302E+01 -0.31164656126E+01 -0.75094284912E+00  0.86833063980E+01  0.51100000000E-03 0.  1.
        -12    1    3    3    0    0  0.12558015199E+02 -0.15696471866E+02  0.83632742618E+01  0.21772168728E+02  0.00000000000E+00 0.  1.
</event>
<event>
 7    1  0.2769403E-010  0.4778727E+02  0.7816164E-02  0.1312668E+00
        -11   -1    0    0    0    0  0.00000000000E+00  0.00000000000E+00  0.45593999997E+02  0.45594000000E+02  0.51100000000E-03 0.  1.
         11   -1    0    0    0    0 -0.00000000000E+00 -0.00000000000E+00 -0.45593999997E+02  0.45594000000E+02  0.51100000000E-03 0. -1.
    9900012    2    1    2    0    0 -0.12840748867E+02 -0.12478568947E+02  0.39535096013E+02  0.47787270385E+02  0.19999996991E+02 0.  0.
         12    1    1    2    0    0  0.12840748867E+02  0.12478568947E+02 -0.39535096013E+02  0.43400729615E+02  0.00000000000E+00 0. -1.
         11    1    3    3    0    0 -0.31007408058E+01 -0.13930308732E+01  0.22950752221E+00  0.34070225303E+01  0.51100000000E-03 0. -1.
        -11    1    3    3    0    0  0.22415606492E+01  0.80726193217E+00  0.12326700960E+02  0.12554832647E+02  0.51100000000E-03 0.  1.
        -12    1    3    3    0    0 -0.11981568710E+02 -0.11892800006E+02  0.26978887530E+02  0.31825415207E+02  0.00000000000E+00 0.  1.
</event>
<event>
 7    1  0.2769403E-010  0.4778727E+02  0.7816164E-02  0.1312668E+00
        -11   -1    0    0    0    0  0.00000000000E+00  0.00000000000E+00  0.45593999997E+02  0.45594000000E+02  0.51100000000E-03 0. -1.
         11   -1    0    0    0    0 -0.00000000000E+00 -0.00000000000E+00 -0.45593999997E+02  0.45594000000E+02  0.51100000000E-03 0.  1.
    9900012    2    1    2    0    0  0.23355674965E+02  0.20926001771E+02 -0.30003971739E+02  0.47787269323E+02  0.19999992150E+02 0.  0.
         12    1    1    2    0    0 -0.23355674965E+02 -0.20926001771E+02  0.30003971739E+02  0.43400730677E+02  0.00000000000E+00 0. -1.
         11    1    3    3    0    0  0.29504917703E+01  0.16170261940E+01  0.17758232717E+01  0.38044347743E+01  0.51100000000E-03 0. -1.
        -11    1    3    3    0    0  0.56715543711E+01  0.11047332247E+02 -0.78483236535E+01  0.14690345918E+02  0.51100000000E-03 0.  1.
        -12    1    3    3    0    0  0.14733628823E+02  0.82616433305E+01 -0.23931471357E+02  0.29292488630E+02  0.00000000000E+00 0.  1.
</event>
<event>
 7    1  0.2769403E-010  0.4778727E+02  0.7816164E-02  0.1312668E+00
        -11   -1    0    0    0    0  0.00000000000E+00  0.00000000000E+00  0.45593999997E+02  0.45594000000E+02  0.51100000000E-03 0. -1.
         11   -1    0    0    0    0 -0.00000000000E+00 -0.00000000000E+00 -0.45593999997E+02  0.45594000000E+02  0.51100000000E-03 0.  1.
    9900012    2    1    2    0    0 -0.30392249430E+02 -0.21170608608E+02 -0.22621667299E+02  0.47787270448E+02  0.19999997281E+02 0.  0.
         12    1    1    2    0    0  0.30392249430E+02  0.21170608608E+02  0.22621667299E+02  0.43400729552E+02  0.00000000000E+00 0. -1.
         11    1    3    3    0    0 -0.14721118267E+02 -0.11360523648E+02 -0.58486850496E+01  0.19493074094E+02  0.51100000000E-03 0. -1.
        -11    1    3    3    0    0 -0.15977193559E+02 -0.35745405326E+01 -0.10535184040E+02  0.19468902308E+02  0.51100000000E-03 0.  1.
         12    1    3    3    0    0  0.30606239618E+00 -0.62355444277E+01 -0.62377982093E+01  0.88252940461E+01  0.00000000000E+00 0. -1.
</event>
<event>
 7    1  0.2769403E-010  0.4778727E+02  0.7816164E-02  0.1312668E+00
        -11   -1    0    0    0    0  0.00000000000E+00  0.00000000000E+00  0.45593999997E+02  0.45594000000E+02  0.51100000000E-03 0. -1.
         11   -1    0    0    0    0 -0.00000000000E+00 -0.00000000000E+00 -0.45593999997E+02  0.45594000000E+02  0.51100000000E-03 0.  1.
    9900012    2    1    2    0    0 -0.18939609093E+02  0.43392675685E+01 -0.38808314780E+02  0.47787270378E+02  0.19999996963E+02 0.  0.
         12    1    1    2    0    0  0.18939609093E+02 -0.43392675685E+01  0.38808314780E+02  0.43400729622E+02  0.00000000000E+00 0. -1.
         11    1    3    3    0    0  0.27061209436E+01  0.40591771119E+01 -0.75993625986E+01  0.90305216656E+01  0.51100000000E-03 0. -1.
        -11    1    3    3    0    0 -0.73782417362E+01  0.35685570898E+01 -0.13324202727E+02  0.15643127226E+02  0.51100000000E-03 0.  1.
         12    1    3    3    0    0 -0.14267488300E+02 -0.32884666332E+01 -0.17884749454E+02  0.23113621487E+02  0.00000000000E+00 0. -1.
</event>
<event>
 7    1  0.2769403E-010  0.4778727E+02  0.7816164E-02  0.1312668E+00
        -11   -1    0    0    0    0  0.00000000000E+00  0.00000000000E+00  0.45593999997E+02  0.45594000000E+02  0.51100000000E-03 0.  1.
         11   -1    0    0    0    0 -0.00000000000E+00 -0.00000000000E+00 -0.45593999997E+02  0.45594000000E+02  0.51100000000E-03 0. -1.
    9900012    2    1    2    0    0 -0.15401606247E+02  0.25391677057E+02  0.31649272494E+02  0.47787272032E+02  0.20000004502E+02 0.  0.
         12    1    1    2    0    0  0.15401606247E+02 -0.25391677057E+02 -0.31649272494E+02  0.43400727968E+02  0.00000000000E+00 0. -1.
         11    1    3    3    0    0  0.17429711916E+01  0.49628508979E+01  0.88127588781E+01  0.10263165053E+02  0.51100000000E-03 0. -1.
        -11    1    3    3    0    0  0.71632191775E+00  0.67735329843E+01  0.83610282686E+01  0.10784278379E+02  0.51100000000E-03 0.  1.
        -12    1    3    3    0    0 -0.17860899356E+02  0.13655293175E+02  0.14475485347E+02  0.26739828600E+02  0.00000000000E+00 0.  1.
</event>
<event>
 7    1  0.2769403E-010  0.4778727E+02  0.7816164E-02  0.1312668E+00
        -11   -1    0    0    0    0  0.00000000000E+00  0.00000000000E+00  0.45593999997E+02  0.45594000000E+02  0.51100000000E-03 0.  1.
         11   -1    0    0    0    0 -0.00000000000E+00 -0.00000000000E+00 -0.45593999997E+02  0.45594000000E+02  0.51100000000E-03 0. -1.
    9900012    2    1    2    0    0  0.18272653716E+02 -0.26764960939E+00  0.39365743333E+02  0.47787271224E+02  0.20000000820E+02 0.  0.
         12    1    1    2    0    0 -0.18272653716E+02  0.26764960939E+00 -0.39365743333E+02  0.43400728776E+02  0.00000000000E+00 0. -1.
         11    1    3    3    0    0  0.33783983724E+01 -0.34165721533E+01 -0.21822483910E+00  0.48097986634E+01  0.51100000000E-03 0. -1.
        -11    1    3    3    0    0  0.37134394050E+01 -0.20127184155E+01  0.13236928828E+02  0.13894493610E+02  0.51100000000E-03 0.  1.
         12    1    3    3    0    0  0.11180815938E+02  0.51616409594E+01  0.26347039344E+02  0.29082978950E+02  0.00000000000E+00 0. -1.
</event>
<event>
 7    1  0.2769403E-010  0.4778727E+02  0.7816164E-02  0.1312668E+00
        -11   -1    0    0    0    0  0.00000000000E+00  0.00000000000E+00  0.45593999997E+02  0.45594000000E+02  0.51100000000E-03 0.  1.
         11   -1    0    0    0    0 -0.00000000000E+00 -0.00000000000E+00 -0.45593999997E+02  0.45594000000E+02  0.51100000000E-03 0. -1.
    9900012    2    1    2    0    0  0.77698117839E+01  0.42281184998E+02 -0.59627492011E+01  0.47787274683E+02  0.20000016589E+02 0.  0.
         12    1    1    2    0    0 -0.77698117839E+01 -0.42281184998E+02  0.59627492011E+01  0.43400725317E+02  0.00000000000E+00 0. -1.
         11    1    3    3    0    0 -0.92937796937E+00 -0.70469797047E+00  0.13458197146E+01  0.17808912389E+01  0.51100000000E-03 0. -1.
        -11    1    3    3    0    0 -0.12975864091E+01  0.13094641142E+02 -0.59959809614E+01  0.14460468356E+02  0.51100000000E-03 0.  1.
         12    1    3    3    0    0  0.99967761625E+01  0.29891241827E+02 -0.13125879543E+01  0.31545915088E+02  0.00000000000E+00 0. -1.
</event>
<event>
 7    1  0.2769403E-010  0.4778725E+02  0.7816164E-02  0.1312668E+00
        -11   -1    0    0    0    0  0.00000000000E+00  0.00000000000E+00  0.45593999997E+02  0.45594000000E+02  0.51100000000E-03 0.  1.
         11   -1    0    0    0    0 -0.00000000000E+00 -0.00000000000E+00 -0.45593999997E+02  0.45594000000E+02  0.51100000000E-03 0. -1.
    9900012    2    1    2    0    0 -0.20285201698E+02  0.31434807114E+02  0.21999736373E+02  0.47787252233E+02  0.19999914231E+02 0.  0.
         12    1    1    2    0    0  0.20285201698E+02 -0.31434807114E+02 -0.21999736373E+02  0.43400747767E+02  0.00000000000E+00 0. -1.
         11    1    3    3    0    0  0.19922705437E+01  0.45189721930E+01  0.46535555381E+01  0.67857078487E+01  0.51100000000E-03 0. -1.
        -11    1    3    3    0    0  0.10224515787E+01  0.52018260569E+01  0.23830584402E+01  0.58123462859E+01  0.51100000000E-03 0.  1.
        -12    1    3    3    0    0 -0.23299923820E+02  0.21714008865E+02  0.14963122395E+02  0.35189198098E+02  0.00000000000E+00 0.  1.
</event>
<event>
 7    1  0.2769403E-010  0.4778727E+02  0.7816164E-02  0.1312668E+00
        -11   -1    0    0    0    0  0.00000000000E+00  0.00000000000E+00  0.45593999997E+02  0.45594000000E+02  0.51100000000E-03 0.  1.
         11   -1    0    0    0    0 -0.00000000000E+00 -0.00000000000E+00 -0.45593999997E+02  0.45594000000E+02  0.51100000000E-03 0. -1.
    9900012    2    1    2    0    0  0.14859731091E+02 -0.16384065411E+02  0.37341316400E+02  0.47787272840E+02  0.20000008187E+02 0.  0.
         12    1    1    2    0    0 -0.14859731091E+02  0.16384065411E+02 -0.37341316400E+02  0.43400727160E+02  0.00000000000E+00 0. -1.
         11    1    3    3    0    0  0.15614319257E+02 -0.10089721036E+02  0.24628464362E+02  0.30857263222E+02  0.51100000000E-03 0. -1.
        -11    1    3    3    0    0  0.10556992093E+01 -0.23741233508E+01  0.12323551942E+02  0.12594478760E+02  0.51100000000E-03 0.  1.
         12    1    3    3    0    0 -0.18102873746E+01 -0.39202210242E+01  0.38930009572E+00  0.43355308581E+01  0.00000000000E+00 0. -1.
</event>
<event>
 7    1  0.2769403E-010  0.4778727E+02  0.7816164E-02  0.1312668E+00
        -11   -1    0    0    0    0  0.00000000000E+00  0.00000000000E+00  0.45593999997E+02  0.45594000000E+02  0.51100000000E-03 0.  1.
         11   -1    0    0    0    0 -0.00000000000E+00 -0.00000000000E+00 -0.45593999997E+02  0.45594000000E+02  0.51100000000E-03 0. -1.
    9900012    2    1    2    0    0 -0.21249364814E+01  0.96810733485E+01  0.42253812932E+02  0.47787271394E+02  0.20000001593E+02 0.  0.
         12    1    1    2    0    0  0.21249364814E+01 -0.96810733485E+01 -0.42253812932E+02  0.43400728606E+02  0.00000000000E+00 0. -1.
         11    1    3    3    0    0 -0.66320446888E+00  0.21369098665E+01  0.68178161296E+00  0.23390276557E+01  0.51100000000E-03 0. -1.
        -11    1    3    3    0    0 -0.31434377485E+01  0.12625897666E+02  0.29157052827E+02  0.31928486067E+02  0.51100000000E-03 0.  1.
         12    1    3    3    0    0  0.16817057360E+01 -0.50817341842E+01  0.12414978493E+02  0.13519757671E+02  0.00000000000E+00 0. -1.
</event>
<event>
 7    1  0.2769403E-010  0.4778728E+02  0.7816164E-02  0.1312668E+00
        -11   -1    0    0    0    0  0.00000000000E+00  0.00000000000E+00  0.45593999997E+02  0.45594000000E+02  0.51100000000E-03 0. -1.
         11   -1    0    0    0    0 -0.00000000000E+00 -0.00000000000E+00 -0.45593999997E+02  0.45594000000E+02  0.51100000000E-03 0.  1.
    9900012    2    1    2    0    0 -0.42555549941E+00  0.21738315652E+02 -0.37561778248E+02  0.47787278231E+02  0.20000032767E+02 0.  0.
         12    1    1    2    0    0  0.42555549941E+00 -0.21738315652E+02  0.37561778248E+02  0.43400721769E+02  0.00000000000E+00 0. -1.
         11    1    3    3    0    0  0.40807803697E+00 -0.17450394826E+01 -0.13470309632E+01  0.22419150647E+01  0.51100000000E-03 0. -1.
        -11    1    3    3    0    0 -0.56506933850E+01  0.95686085274E+01 -0.23871540180E+02  0.26331331825E+02  0.51100000000E-03 0.  1.
        -12    1    3    3    0    0  0.48170598487E+01  0.13914746608E+02 -0.12343207105E+02  0.19214031341E+02  0.00000000000E+00 0.  1.
</event>
<event>
 7    1  0.2769403E-010  0.4778730E+02  0.7816164E-02  0.1312668E+00
        -11   -1    0    0    0    0  0.00000000000E+00  0.00000000000E+00  0.45593999997E+02  0.45594000000E+02  0.51100000000E-03 0.  1.
         11   -1    0    0    0    0 -0.00000000000E+00 -0.00000000000E+00 -0.45593999997E+02  0.45594000000E+02  0.51100000000E-03 0. -1.
    9900012    2    1    2    0    0  0.10349260254E+02  0.12902639026E+02  0.40125247187E+02  0.47787300196E+02  0.20000132915E+02 0.  0.
         12    1    1    2    0    0 -0.10349260254E+02 -0.12902639026E+02 -0.40125247187E+02  0.43400699804E+02  0.00000000000E+00 0. -1.
         11    1    3    3    0    0 -0.48005584127E-01  0.24374227966E+01 -0.15585648337E+00  0.24428724752E+01  0.51100000000E-03 0. -1.
        -11    1    3    3    0    0  0.41861773155E+01  0.15899341511E+01  0.98828941835E+00  0.45857046740E+01  0.51100000000E-03 0.  1.
        -12    1    3    3    0    0  0.62110885231E+01  0.88752820780E+01  0.39292814252E+02  0.40758723047E+02  0.00000000000E+00 0.  1.
</event>
<event>
 7    1  0.2769403E-010  0.4778722E+02  0.7816164E-02  0.1312668E+00
        -11   -1    0    0    0    0  0.00000000000E+00  0.00000000000E+00  0.45593999997E+02  0.45594000000E+02  0.51100000000E-03 0.  1.
         11   -1    0    0    0    0 -0.00000000000E+00 -0.00000000000E+00 -0.45593999997E+02  0.45594000000E+02  0.51100000000E-03 0. -1.
    9900012    2    1    2    0    0  0.72285868045E+01 -0.71338724622E+01  0.42195775539E+02  0.47787215712E+02  0.19999747716E+02 0.  0.
         12    1    1    2    0    0 -0.72285868045E+01  0.71338724622E+01 -0.42195775539E+02  0.43400784288E+02  0.00000000000E+00 0. -1.
         11    1    3    3    0    0  0.46773203451E+01 -0.87796444896E+01  0.20132676705E+02  0.22456272054E+02  0.51100000000E-03 0. -1.
        -11    1    3    3    0    0  0.15417118265E+01 -0.34781949739E+01  0.18781637001E+02  0.19163105289E+02  0.51100000000E-03 0.  1.
         12    1    3    3    0    0  0.10095546329E+01  0.51239670014E+01  0.32814618322E+01  0.61678383688E+01  0.00000000000E+00 0. -1.
</event>
<event>
 7    1  0.2769403E-010  0.4778727E+02  0.7816164E-02  0.1312668E+00
        -11   -1    0    0    0    0  0.00000000000E+00  0.00000000000E+00  0.45593999997E+02  0.45594000000E+02  0.51100000000E-03 0.  1.
         11   -1    0    0    0    0 -0.00000000000E+00 -0.00000000000E+00 -0.45593999997E+02  0.45594000000E+02  0.51100000000E-03 0. -1.
    9900012    2    1    2    0    0  0.25377838565E+02  0.30404544991E+02  0.17752529800E+02  0.47787270045E+02  0.19999995443E+02 0.  0.
         12    1    1    2    0    0 -0.25377838565E+02 -0.30404544991E+02 -0.17752529800E+02  0.43400729955E+02  0.00000000000E+00 0. -1.
         11    1    3    3    0    0  0.15545251032E+02  0.15333600380E+02  0.95897759710E+01  0.23848227056E+02  0.51100000000E-03 0. -1.
        -11    1    3    3    0    0  0.99986134749E+01  0.17450554290E+02  0.74785084436E+01  0.21457451043E+02  0.51100000000E-03 0.  1.
         12    1    3    3    0    0 -0.16602594273E+00 -0.23796096794E+01  0.68424538552E+00  0.24815919462E+01  0.00000000000E+00 0. -1.
</event>
<event>
 7    1  0.2769403E-010  0.4778728E+02  0.7816164E-02  0.1312668E+00
        -11   -1    0    0    0    0  0.00000000000E+00  0.00000000000E+00  0.45593999997E+02  0.45594000000E+02  0.51100000000E-03 0.  1.
         11   -1    0    0    0    0 -0.00000000000E+00 -0.00000000000E+00 -0.45593999997E+02  0.45594000000E+02  0.51100000000E-03 0. -1.
    9900012    2    1    2    0    0  0.32204362455E+02 -0.10827571728E+02  0.27004918447E+02  0.47787275455E+02  0.20000020110E+02 0.  0.
         12    1    1    2    0    0 -0.32204362455E+02  0.10827571728E+02 -0.27004918447E+02  0.43400724545E+02  0.00000000000E+00 0. -1.
         11    1    3    3    0    0  0.11618756544E+02 -0.59511364791E+01  0.37783451407E+00  0.13059643495E+02  0.51100000000E-03 0. -1.
        -11    1    3    3    0    0  0.48144520147E+01 -0.43665738587E+01  0.72046977082E+01  0.97032770131E+01  0.51100000000E-03 0.  1.
        -12    1    3    3    0    0  0.15771153896E+02 -0.50986139039E+00  0.19422386225E+02  0.25024354947E+02  0.00000000000E+00 0.  1.
</event>
<event>
 7    1  0.2769403E-010  0.4778727E+02  0.7816164E-02  0.1312668E+00
        -11   -1    0    0    0    0  0.00000000000E+00  0.00000000000E+00  0.45593999997E+02  0.45594000000E+02  0.51100000000E-03 0.  1.
         11   -1    0    0    0    0 -0.00000000000E+00 -0.00000000000E+00 -0.45593999997E+02  0.45594000000E+02  0.51100000000E-03 0. -1.
    9900012    2    1    2    0    0  0.12230524440E+02 -0.39988168639E+01  0.41449329204E+02  0.47787272404E+02  0.20000006199E+02 0.  0.
         12    1    1    2    0    0 -0.12230524440E+02  0.39988168639E+01 -0.41449329204E+02  0.43400727596E+02  0.00000000000E+00 0. -1.
         11    1    3    3    0    0  0.36079080912E+01  0.71779981543E+00  0.54700104281E+00  0.37190654433E+01  0.51100000000E-03 0. -1.
        -11    1    3    3    0    0 -0.34725749937E+01 -0.23357601190E+00  0.96501951060E+01  0.10258635420E+02  0.51100000000E-03 0.  1.
        -12    1    3    3    0    0  0.12095191342E+02 -0.44830406674E+01  0.31252133055E+02  0.33809571540E+02  0.00000000000E+00 0.  1.
</event>
<event>
 7    1  0.2769403E-010  0.4778727E+02  0.7816164E-02  0.1312668E+00
        -11   -1    0    0    0    0  0.00000000000E+00  0.00000000000E+00  0.45593999997E+02  0.45594000000E+02  0.51100000000E-03 0.  1.
         11   -1    0    0    0    0 -0.00000000000E+00 -0.00000000000E+00 -0.45593999997E+02  0.45594000000E+02  0.51100000000E-03 0. -1.
    9900012    2    1    2    0    0  0.23212950480E+02  0.10170284123E+02  0.35232764124E+02  0.47787269396E+02  0.19999992484E+02 0.  0.
         12    1    1    2    0    0 -0.23212950480E+02 -0.10170284123E+02 -0.35232764124E+02  0.43400730604E+02  0.00000000000E+00 0. -1.
         11    1    3    3    0    0 -0.22167169894E+01  0.19123922686E+01  0.41526492299E+01  0.50809029009E+01  0.51100000000E-03 0. -1.
        -11    1    3    3    0    0  0.31675561598E+01  0.11538630234E+01 -0.51316070650E+00  0.34100067558E+01  0.51100000000E-03 0.  1.
        -12    1    3    3    0    0  0.22262111310E+02  0.71040288310E+01  0.31593275601E+02  0.39296359739E+02  0.00000000000E+00 0.  1.
</event>
<event>
 7    1  0.2769403E-010  0.4778727E+02  0.7816164E-02  0.1312668E+00
        -11   -1    0    0    0    0  0.00000000000E+00  0.00000000000E+00  0.45593999997E+02  0.45594000000E+02  0.51100000000E-03 0.  1.
         11   -1    0    0    0    0 -0.00000000000E+00 -0.00000000000E+00 -0.45593999997E+02  0.45594000000E+02  0.51100000000E-03 0. -1.
    9900012    2    1    2    0    0  0.25973861111E+02 -0.14484129539E+02  0.31609993477E+02  0.47787272390E+02  0.20000006134E+02 0.  0.
         12    1    1    2    0    0 -0.25973861111E+02  0.14484129539E+02 -0.31609993477E+02  0.43400727610E+02  0.00000000000E+00 0. -1.
         11    1    3    3    0    0  0.46405832355E+00 -0.46282932239E+01  0.51970980126E+01  0.69746882588E+01  0.51100000000E-03 0. -1.
        -11    1    3    3    0    0  0.14318377907E+02 -0.51435425746E+01  0.24024698958E+02  0.28436915030E+02  0.51100000000E-03 0.  1.
        -12    1    3    3    0    0  0.11191424881E+02 -0.47122937401E+01  0.23881965055E+01  0.12375669101E+02  0.00000000000E+00 0.  1.
</event>
<event>
 7    1  0.2769403E-010  0.4778727E+02  0.7816164E-02  0.1312668E+00
        -11   -1    0    0    0    0  0.00000000000E+00  0.00000000000E+00  0.45593999997E+02  0.45594000000E+02  0.51100000000E-03 0.  1.
         11   -1    0    0    0    0 -0.00000000000E+00 -0.00000000000E+00 -0.45593999997E+02  0.45594000000E+02  0.51100000000E-03 0. -1.
    9900012    2    1    2    0    0  0.17817459779E+02 -0.13677486457E+02  0.37136072407E+02  0.47787269792E+02  0.19999994289E+02 0.  0.
         12    1    1    2    0    0 -0.17817459779E+02  0.13677486457E+02 -0.37136072407E+02  0.43400730208E+02  0.00000000000E+00 0. -1.
         11    1    3    3    0    0  0.13458570916E+02 -0.96901753497E+01  0.17911450195E+02  0.24410093768E+02  0.51100000000E-03 0. -1.
        -11    1    3    3    0    0  0.27412530002E+01 -0.46902336634E+01  0.15982612951E+01  0.56627907658E+01  0.51100000000E-03 0.  1.
        -12    1    3    3    0    0  0.16176358636E+01  0.70292255647E+00  0.17626360917E+02  0.17714385258E+02  0.00000000000E+00 0.  1.
</event>
<event>
 7    1  0.2769403E-010  0.4778731E+02  0.7816164E-02  0.1312668E+00
        -11   -1    0    0    0    0  0.00000000000E+00  0.00000000000E+00  0.45593999997E+02  0.45594000000E+02  0.51100000000E-03 0. -1.
         11   -1    0    0    0    0 -0.00000000000E+00 -0.00000000000E+00 -0.45593999997E+02  0.45594000000E+02  0.51100000000E-03 0.  1.
    9900012    2    1    2    0    0  0.93517250545E+00  0.20115544945E+02 -0.38446199070E+02  0.47787309694E+02  0.20000176220E+02 0.  0.
         12    1    1    2    0    0 -0.93517250545E+00 -0.20115544945E+02  0.38446199070E+02  0.43400690306E+02  0.00000000000E+00 0. -1.
         11    1    3    3    0    0  0.63352978236E-01 -0.51533421214E+00 -0.27707638894E+01  0.28189919727E+01  0.51100000000E-03 0. -1.
        -11    1    3    3    0    0  0.14959036737E+01  0.11396993374E+02 -0.33560974349E+02  0.35474895142E+02  0.51100000000E-03 0.  1.
         12    1    3    3    0    0 -0.62408414650E+00  0.92338857830E+01 -0.21144608316E+01  0.94934225801E+01  0.00000000000E+00 0. -1.
</event>
<event>
 7    1  0.2769403E-010  0.4778727E+02  0.7816164E-02  0.1312668E+00
        -11   -1    0    0    0    0  0.00000000000E+00  0.00000000000E+00  0.45593999997E+02  0.45594000000E+02  0.51100000000E-03 0.  1.
         11   -1    0    0    0    0 -0.00000000000E+00 -0.00000000000E+00 -0.45593999997E+02  0.45594000000E+02  0.51100000000E-03 0. -1.
    9900012    2    1    2    0    0 -0.87431790590E+00 -0.12788274034E+02  0.41464671403E+02  0.47787270063E+02  0.19999995523E+02 0.  0.
         12    1    1    2    0    0  0.87431790590E+00  0.12788274034E+02 -0.41464671403E+02  0.43400729937E+02  0.00000000000E+00 0. -1.
         11    1    3    3    0    0  0.76210387662E+00  0.29138243605E+01  0.23711476298E+01  0.38332122386E+01  0.51100000000E-03 0. -1.
        -11    1    3    3    0    0  0.11106236976E+00 -0.68838978762E+01  0.45320179669E+01  0.82425464472E+01  0.51100000000E-03 0.  1.
        -12    1    3    3    0    0 -0.17474841523E+01 -0.88182005182E+01  0.34561505806E+02  0.35711511377E+02  0.00000000000E+00 0.  1.
</event>
<event>
 7    1  0.2769403E-010  0.4778727E+02  0.7816164E-02  0.1312668E+00
        -11   -1    0    0    0    0  0.00000000000E+00  0.00000000000E+00  0.45593999997E+02  0.45594000000E+02  0.51100000000E-03 0. -1.
         11   -1    0    0    0    0 -0.00000000000E+00 -0.00000000000E+00 -0.45593999997E+02  0.45594000000E+02  0.51100000000E-03 0.  1.
    9900012    2    1    2    0    0 -0.27319236438E+02 -0.33016097326E+02 -0.68716752655E+01  0.47787270938E+02  0.19999999513E+02 0.  0.
         12    1    1    2    0    0  0.27319236438E+02  0.33016097326E+02  0.68716752655E+01  0.43400729062E+02  0.00000000000E+00 0. -1.
         11    1    3    3    0    0 -0.13739180131E+02 -0.10036170873E+02 -0.66666520765E+01  0.18273862389E+02  0.51100000000E-03 0. -1.
        -11    1    3    3    0    0 -0.12326070134E+02 -0.11874051233E+02 -0.42373579610E+01  0.17631797990E+02  0.51100000000E-03 0.  1.
         12    1    3    3    0    0 -0.12539861733E+01 -0.11105875220E+02  0.40323347721E+01  0.11881610558E+02  0.00000000000E+00 0. -1.
</event>
<event>
 7    1  0.2769403E-010  0.4778725E+02  0.7816164E-02  0.1312668E+00
        -11   -1    0    0    0    0  0.00000000000E+00  0.00000000000E+00  0.45593999997E+02  0.45594000000E+02  0.51100000000E-03 0.  1.
         11   -1    0    0    0    0 -0.00000000000E+00 -0.00000000000E+00 -0.45593999997E+02  0.45594000000E+02  0.51100000000E-03 0. -1.
    9900012    2    1    2    0    0  0.36798135964E+01 -0.11143884840E+02  0.41783939458E+02  0.47787253531E+02  0.19999920149E+02 0.  0.
         12    1    1    2    0    0 -0.36798135964E+01  0.11143884840E+02 -0.41783939458E+02  0.43400746469E+02  0.00000000000E+00 0. -1.
         11    1    3    3    0    0  0.17788095916E+01 -0.39904769565E+01  0.28205547124E+01  0.52003460511E+01  0.51100000000E-03 0.  1.
        -11    1    3    3    0    0  0.40836024730E+01 -0.10929950290E+02  0.20241389186E+02  0.23363506991E+02  0.51100000000E-03 0. -1.
        -12    1    3    3    0    0 -0.21825984683E+01  0.37765424060E+01  0.18721995560E+02  0.19223400489E+02  0.00000000000E+00 0.  1.
</event>
<event>
 7    1  0.2769403E-010  0.4778727E+02  0.7816164E-02  0.1312668E+00
        -11   -1    0    0    0    0  0.00000000000E+00  0.00000000000E+00  0.45593999997E+02  0.45594000000E+02  0.51100000000E-03 0. -1.
         11   -1    0    0    0    0 -0.00000000000E+00 -0.00000000000E+00 -0.45593999997E+02  0.45594000000E+02  0.51100000000E-03 0.  1.
    9900012    2    1    2    0    0 -0.38218311076E+02  0.14776003138E+01 -0.20513426587E+02  0.47787271037E+02  0.19999999965E+02 0.  0.
         12    1    1    2    0    0  0.38218311076E+02 -0.14776003138E+01  0.20513426587E+02  0.43400728963E+02  0.00000000000E+00 0. -1.
         11    1    3    3    0    0 -0.15430149009E+02 -0.72800204527E+01 -0.90087952312E+01  0.19293692959E+02  0.51100000000E-03 0. -1.
        -11    1    3    3    0    0 -0.83042349474E+01  0.22387595258E+01 -0.89383292630E+01  0.12404277188E+02  0.51100000000E-03 0.  1.
         12    1    3    3    0    0 -0.14483927120E+02  0.65188612406E+01 -0.25663020930E+01  0.16089300889E+02  0.00000000000E+00 0. -1.
</event>
<event>
 7    1  0.2769403E-010  0.4778727E+02  0.7816164E-02  0.1312668E+00
        -11   -1    0    0    0    0  0.00000000000E+00  0.00000000000E+00  0.45593999997E+02  0.45594000000E+02  0.51100000000E-03 0. -1.
         11   -1    0    0    0    0 -0.00000000000E+00 -0.00000000000E+00 -0.45593999997E+02  0.45594000000E+02  0.51100000000E-03 0.  1.
    9900012    2    1    2    0    0 -0.12496828035E+02  0.41254851916E+02 -0.50487791462E+01  0.47787266269E+02  0.19999978225E+02 0.  0.
         12    1    1    2    0    0  0.12496828035E+02 -0.41254851916E+02  0.50487791462E+01  0.43400733731E+02  0.00000000000E+00 0. -1.
         11    1    3    3    0    0  0.17910531877E+01  0.35925202884E+00 -0.24142207010E+00  0.18426118469E+01  0.51100000000E-03 0. -1.
        -11    1    3    3    0    0 -0.70368547931E+01  0.20865137949E+02  0.48622872906E+01  0.22550236029E+02  0.51100000000E-03 0.  1.
        -12    1    3    3    0    0 -0.72510264295E+01  0.20030461939E+02 -0.96696443667E+01  0.23394418393E+02  0.00000000000E+00 0.  1.
</event>
<event>
 7    1  0.2769403E-010  0.4778727E+02  0.7816164E-02  0.1312668E+00
        -11   -1    0    0    0    0  0.00000000000E+00  0.00000000000E+00  0.45593999997E+02  0.45594000000E+02  0.51100000000E-03 0.  1.
         11   -1    0    0    0    0 -0.00000000000E+00 -0.00000000000E+00 -0.45593999997E+02  0.45594000000E+02  0.51100000000E-03 0. -1.
    9900012    2    1    2    0    0  0.12064149286E+02 -0.37181050827E+02  0.18858655429E+02  0.47787272780E+02  0.20000007914E+02 0.  0.
         12    1    1    2    0    0 -0.12064149286E+02  0.37181050827E+02 -0.18858655429E+02  0.43400727220E+02  0.00000000000E+00 0. -1.
         11    1    3    3    0    0 -0.26259574495E+01 -0.18146013768E+01  0.13573642120E+01  0.34685542448E+01  0.51100000000E-03 0. -1.
        -11    1    3    3    0    0  0.45376649322E+01 -0.15451359097E+02  0.14674586073E+02  0.21787114946E+02  0.51100000000E-03 0.  1.
        -12    1    3    3    0    0  0.10152441803E+02 -0.19915090354E+02  0.28267051436E+01  0.22531603590E+02  0.00000000000E+00 0.  1.
</event>
<event>
 7    1  0.2769403E-010  0.4778728E+02  0.7816164E-02  0.1312668E+00
        -11   -1    0    0    0    0  0.00000000000E+00  0.00000000000E+00  0.45593999997E+02  0.45594000000E+02  0.51100000000E-03 0.  1.
         11   -1    0    0    0    0 -0.00000000000E+00 -0.00000000000E+00 -0.45593999997E+02  0.45594000000E+02  0.51100000000E-03 0. -1.
    9900012    2    1    2    0    0 -0.10635341795E+02 -0.36622340692E+02  0.20719954191E+02  0.47787276106E+02  0.20000023079E+02 0.  0.
         12    1    1    2    0    0  0.10635341795E+02  0.36622340692E+02 -0.20719954191E+02  0.43400723894E+02  0.00000000000E+00 0. -1.
         11    1    3    3    0    0 -0.34849217284E+01 -0.37352863658E+01  0.11141367502E+02  0.12256717088E+02  0.51100000000E-03 0. -1.
        -11    1    3    3    0    0 -0.95303650087E+00 -0.23176164823E+01  0.25131597744E+01  0.35490276195E+01  0.51100000000E-03 0.  1.
        -12    1    3    3    0    0 -0.61973835660E+01 -0.30569437844E+02  0.70654269138E+01  0.31981531399E+02  0.00000000000E+00 0.  1.
</event>
<event>
 7    1  0.2769403E-010  0.4778727E+02  0.7816164E-02  0.1312668E+00
        -11   -1    0    0    0    0  0.00000000000E+00  0.00000000000E+00  0.45593999997E+02  0.45594000000E+02  0.51100000000E-03 0.  1.
         11   -1    0    0    0    0 -0.00000000000E+00 -0.00000000000E+00 -0.45593999997E+02  0.45594000000E+02  0.51100000000E-03 0. -1.
    9900012    2    1    2    0    0 -0.12971427395E+00 -0.43029328537E+02  0.56642237366E+01  0.47787269930E+02  0.19999994917E+02 0.  0.
         12    1    1    2    0    0  0.12971427395E+00  0.43029328537E+02 -0.56642237366E+01  0.43400730070E+02  0.00000000000E+00 0. -1.
         11    1    3    3    0    0  0.22518175838E+01 -0.18133809574E+02  0.91120393532E+01  0.20418986104E+02  0.51100000000E-03 0. -1.
        -11    1    3    3    0    0  0.34312955574E+01 -0.62328613257E+01  0.13482026015E+01  0.72415467977E+01  0.51100000000E-03 0.  1.
         12    1    3    3    0    0 -0.58128274152E+01 -0.18662657637E+02 -0.47960182181E+01  0.20126737028E+02  0.00000000000E+00 0. -1.
</event>
<event>
 7    1  0.2769403E-010  0.4778725E+02  0.7816164E-02  0.1312668E+00
        -11   -1    0    0    0    0  0.00000000000E+00  0.00000000000E+00  0.45593999997E+02  0.45594000000E+02  0.51100000000E-03 0.  1.
         11   -1    0    0    0    0 -0.00000000000E+00 -0.00000000000E+00 -0.45593999997E+02  0.45594000000E+02  0.51100000000E-03 0. -1.
    9900012    2    1    2    0    0 -0.38193966935E+02  0.61783995073E+01  0.19664004484E+02  0.47787253427E+02  0.19999919676E+02 0.  0.
         12    1    1    2    0    0  0.38193966935E+02 -0.61783995073E+01 -0.19664004484E+02  0.43400746573E+02  0.00000000000E+00 0. -1.
         11    1    3    3    0    0  0.75726033788E+00  0.87575986838E-01  0.13374220900E+01  0.15394190076E+01  0.51100000000E-03 0. -1.
        -11    1    3    3    0    0 -0.10923951535E+02  0.81855975698E+01  0.21480146263E+01  0.13818490938E+02  0.51100000000E-03 0.  1.
         12    1    3    3    0    0 -0.28027275738E+02 -0.20947740493E+01  0.16178567768E+02  0.32429343482E+02  0.00000000000E+00 0. -1.
</event>
<event>
 7    1  0.2769403E-010  0.4778728E+02  0.7816164E-02  0.1312668E+00
        -11   -1    0    0    0    0  0.00000000000E+00  0.00000000000E+00  0.45593999997E+02  0.45594000000E+02  0.51100000000E-03 0. -1.
         11   -1    0    0    0    0 -0.00000000000E+00 -0.00000000000E+00 -0.45593999997E+02  0.45594000000E+02  0.51100000000E-03 0.  1.
    9900012    2    1    2    0    0 -0.11856759296E+00 -0.14855121570E+02 -0.40779081862E+02  0.47787283270E+02  0.20000055742E+02 0.  0.
         12    1    1    2    0    0  0.11856759296E+00  0.14855121570E+02  0.40779081862E+02  0.43400716730E+02  0.00000000000E+00 0. -1.
         11    1    3    3    0    0  0.55076879016E+01 -0.51031737162E+01 -0.56119525911E+01  0.93739543495E+01  0.51100000000E-03 0. -1.
        -11    1    3    3    0    0 -0.23701377018E+01  0.14072376492E+01 -0.24336333838E+01  0.36770153977E+01  0.51100000000E-03 0.  1.
        -12    1    3    3    0    0 -0.32561177928E+01 -0.11159185503E+02 -0.32733495887E+02  0.34736313523E+02  0.00000000000E+00 0.  1.
</event>
<event>
 7    1  0.2769403E-010  0.4778727E+02  0.7816164E-02  0.1312668E+00
        -11   -1    0    0    0    0  0.00000000000E+00  0.00000000000E+00  0.45593999997E+02  0.45594000000E+02  0.51100000000E-03 0.  1.
         11   -1    0    0    0    0 -0.00000000000E+00 -0.00000000000E+00 -0.45593999997E+02  0.45594000000E+02  0.51100000000E-03 0. -1.
    9900012    2    1    2    0    0  0.64467325139E+01  0.40298096866E+02 -0.14769098220E+02  0.47787271511E+02  0.20000002127E+02 0.  0.
         12    1    1    2    0    0 -0.64467325139E+01 -0.40298096866E+02  0.14769098220E+02  0.43400728489E+02  0.00000000000E+00 0. -1.
         11    1    3    3    0    0 -0.18975694123E+01  0.59852760958E+01  0.13145788628E+01  0.64150150012E+01  0.51100000000E-03 0.  1.
        -11    1    3    3    0    0 -0.10020506903E+01  0.10595076413E+02 -0.11136253079E+02  0.15403761965E+02  0.51100000000E-03 0. -1.
        -12    1    3    3    0    0  0.93463526165E+01  0.23717744358E+02 -0.49474240043E+01  0.25968494545E+02  0.00000000000E+00 0.  1.
</event>
<event>
 7    1  0.2769403E-010  0.4778727E+02  0.7816164E-02  0.1312668E+00
        -11   -1    0    0    0    0  0.00000000000E+00  0.00000000000E+00  0.45593999997E+02  0.45594000000E+02  0.51100000000E-03 0.  1.
         11   -1    0    0    0    0 -0.00000000000E+00 -0.00000000000E+00 -0.45593999997E+02  0.45594000000E+02  0.51100000000E-03 0. -1.
    9900012    2    1    2    0    0  0.19275856067E+02  0.22344629155E+02  0.31824233957E+02  0.47787274821E+02  0.20000017217E+02 0.  0.
         12    1    1    2    0    0 -0.19275856067E+02 -0.22344629155E+02 -0.31824233957E+02  0.43400725179E+02  0.00000000000E+00 0. -1.
         11    1    3    3    0    0 -0.15919234583E+00 -0.85101930641E+00  0.20215955775E-02  0.86578311997E+00  0.51100000000E-03 0. -1.
        -11    1    3    3    0    0  0.67917289885E+01  0.20396641692E+02  0.18837212890E+02  0.28583057301E+02  0.51100000000E-03 0.  1.
        -12    1    3    3    0    0  0.12643319424E+02  0.27990067690E+01  0.12984999471E+02  0.18338434400E+02  0.00000000000E+00 0.  1.
</event>
<event>
 7    1  0.2769403E-010  0.4778727E+02  0.7816164E-02  0.1312668E+00
        -11   -1    0    0    0    0  0.00000000000E+00  0.00000000000E+00  0.45593999997E+02  0.45594000000E+02  0.51100000000E-03 0.  1.
         11   -1    0    0    0    0 -0.00000000000E+00 -0.00000000000E+00 -0.45593999997E+02  0.45594000000E+02  0.51100000000E-03 0. -1.
    9900012    2    1    2    0    0 -0.36864429350E+02 -0.59231176208E+01  0.22125861481E+02  0.47787271666E+02  0.20000002834E+02 0.  0.
         12    1    1    2    0    0  0.36864429350E+02  0.59231176208E+01 -0.22125861481E+02  0.43400728334E+02  0.00000000000E+00 0. -1.
         11    1    3    3    0    0 -0.21509891886E+01 -0.10110003004E+01 -0.17893783656E+01  0.29750212257E+01  0.51100000000E-03 0. -1.
        -11    1    3    3    0    0 -0.18215301137E+01  0.34535448758E+01  0.32210726666E+01  0.50616453401E+01  0.51100000000E-03 0.  1.
        -12    1    3    3    0    0 -0.32891910048E+02 -0.83656621962E+01  0.20694167180E+02  0.39750605100E+02  0.00000000000E+00 0.  1.
</event>
<event>
 7    1  0.2769403E-010  0.4778727E+02  0.7816164E-02  0.1312668E+00
        -11   -1    0    0    0    0  0.00000000000E+00  0.00000000000E+00  0.45593999997E+02  0.45594000000E+02  0.51100000000E-03 0. -1.
         11   -1    0    0    0    0 -0.00000000000E+00 -0.00000000000E+00 -0.45593999997E+02  0.45594000000E+02  0.51100000000E-03 0.  1.
    9900012    2    1    2    0    0  0.18212782178E+02 -0.38801270756E+02 -0.68102385434E+01  0.47787269638E+02  0.19999993589E+02 0.  0.
         12    1    1    2    0    0 -0.18212782178E+02  0.38801270756E+02  0.68102385434E+01  0.43400730362E+02  0.00000000000E+00 0. -1.
         11    1    3    3    0    0 -0.29435913517E+00 -0.12966428314E+01 -0.41199530800E+01  0.43291966432E+01  0.51100000000E-03 0. -1.
        -11    1    3    3    0    0 -0.80029989916E+00  0.17200922537E+00  0.56938542508E+00  0.99712944276E+00  0.51100000000E-03 0.  1.
        -12    1    3    3    0    0  0.19307441212E+02 -0.37676637150E+02 -0.32596708884E+01  0.42460943552E+02  0.00000000000E+00 0.  1.
</event>
<event>
 7    1  0.2769403E-010  0.4778725E+02  0.7816164E-02  0.1312668E+00
        -11   -1    0    0    0    0  0.00000000000E+00  0.00000000000E+00  0.45593999997E+02  0.45594000000E+02  0.51100000000E-03 0. -1.
         11   -1    0    0    0    0 -0.00000000000E+00 -0.00000000000E+00 -0.45593999997E+02  0.45594000000E+02  0.51100000000E-03 0.  1.
    9900012    2    1    2    0    0 -0.20809408246E+02 -0.36980954959E+02 -0.91105773244E+01  0.47787249771E+02  0.19999903007E+02 0.  0.
         12    1    1    2    0    0  0.20809408246E+02  0.36980954959E+02  0.91105773244E+01  0.43400750229E+02  0.00000000000E+00 0. -1.
         11    1    3    3    0    0 -0.75525448642E+01 -0.79570714546E+01 -0.76867159562E+01  0.13395578469E+02  0.51100000000E-03 0. -1.
        -11    1    3    3    0    0 -0.11575830326E+01 -0.57350816417E+01 -0.52611767746E+01  0.78683633133E+01  0.51100000000E-03 0.  1.
        -12    1    3    3    0    0 -0.12099280349E+02 -0.23288801863E+02  0.38373154064E+01  0.26523307989E+02  0.00000000000E+00 0.  1.
</event>
<event>
 7    1  0.3575462E-010  0.4778728E+02  0.7816164E-02  0.1312668E+00
        -11   -1    0    0    0    0  0.00000000000E+00  0.00000000000E+00  0.45593999997E+02  0.45594000000E+02  0.51100000000E-03 0.  1.
         11   -1    0    0    0    0 -0.00000000000E+00 -0.00000000000E+00 -0.45593999997E+02  0.45594000000E+02  0.51100000000E-03 0. -1.
    9900012    2    1    2    0    0 -0.64189819479E+00  0.40522240649E+02  0.15529290622E+02  0.47787275493E+02  0.20000020281E+02 0.  0.
         12    1    1    2    0    0  0.64189819479E+00 -0.40522240649E+02 -0.15529290622E+02  0.43400724507E+02  0.00000000000E+00 0. -1.
         11    1    3    3    0    0  0.14581922444E+01  0.10435670297E+02  0.79578250194E+01  0.13204412840E+02  0.51100000000E-03 0.  1.
        -11    1    3    3    0    0  0.12430165505E+01  0.25392795227E+02  0.11191546572E+02  0.27777506269E+02  0.51100000000E-03 0. -1.
         12    1    3    3    0    0 -0.33431069896E+01  0.46937751259E+01 -0.36200809694E+01  0.68053563831E+01  0.00000000000E+00 0. -1.
</event>
<event>
 7    1  0.2769403E-010  0.4778727E+02  0.7816164E-02  0.1312668E+00
        -11   -1    0    0    0    0  0.00000000000E+00  0.00000000000E+00  0.45593999997E+02  0.45594000000E+02  0.51100000000E-03 0.  1.
         11   -1    0    0    0    0 -0.00000000000E+00 -0.00000000000E+00 -0.45593999997E+02  0.45594000000E+02  0.51100000000E-03 0. -1.
    9900012    2    1    2    0    0  0.15824094484E+02  0.31718433125E+02  0.25043212955E+02  0.47787268656E+02  0.19999989109E+02 0.  0.
         12    1    1    2    0    0 -0.15824094484E+02 -0.31718433125E+02 -0.25043212955E+02  0.43400731344E+02  0.00000000000E+00 0. -1.
         11    1    3    3    0    0 -0.23024453824E+01  0.68753434522E+01  0.19824609571E+01  0.75167648648E+01  0.51100000000E-03 0. -1.
        -11    1    3    3    0    0  0.44615288584E+01  0.14362144095E+00  0.52604880331E+01  0.68991739708E+01  0.51100000000E-03 0.  1.
        -12    1    3    3    0    0  0.13665011008E+02  0.24699468232E+02  0.17800263964E+02  0.33371329820E+02  0.00000000000E+00 0.  1.
</event>
<event>
 7    1  0.2769403E-010  0.4778726E+02  0.7816164E-02  0.1312668E+00
        -11   -1    0    0    0    0  0.00000000000E+00  0.00000000000E+00  0.45593999997E+02  0.45594000000E+02  0.51100000000E-03 0.  1.
         11   -1    0    0    0    0 -0.00000000000E+00 -0.00000000000E+00 -0.45593999997E+02  0.45594000000E+02  0.51100000000E-03 0. -1.
    9900012    2    1    2    0    0  0.12057549008E+02  0.85937331132E+01  0.40796906409E+02  0.47787259114E+02  0.19999945607E+02 0.  0.
         12    1    1    2    0    0 -0.12057549008E+02 -0.85937331132E+01 -0.40796906409E+02  0.43400740886E+02  0.00000000000E+00 0. -1.
         11    1    3    3    0    0  0.21770304169E+01  0.38576424931E+01  0.10817176492E+02  0.11688976626E+02  0.51100000000E-03 0. -1.
        -11    1    3    3    0    0  0.11253150736E+02  0.26982116744E+01  0.31256074573E+02  0.33329505632E+02  0.51100000000E-03 0.  1.
         12    1    3    3    0    0 -0.13726321450E+01  0.20378789457E+01 -0.12763446557E+01  0.27687768569E+01  0.00000000000E+00 0. -1.
</event>
<event>
 7    1  0.2769403E-010  0.4778727E+02  0.7816164E-02  0.1312668E+00
        -11   -1    0    0    0    0  0.00000000000E+00  0.00000000000E+00  0.45593999997E+02  0.45594000000E+02  0.51100000000E-03 0. -1.
         11   -1    0    0    0    0 -0.00000000000E+00 -0.00000000000E+00 -0.45593999997E+02  0.45594000000E+02  0.51100000000E-03 0.  1.
    9900012    2    1    2    0    0 -0.33397914149E+02  0.14977417138E+02 -0.23321231825E+02  0.47787267892E+02  0.19999985629E+02 0.  0.
         12    1    1    2    0    0  0.33397914149E+02 -0.14977417138E+02  0.23321231825E+02  0.43400732108E+02  0.00000000000E+00 0. -1.
         11    1    3    3    0    0 -0.51629849676E+01  0.44448737031E+01 -0.74734447069E+00  0.68536005159E+01  0.51100000000E-03 0. -1.
        -11    1    3    3    0    0  0.13290836444E+01  0.28252351804E+01 -0.32549766976E+00  0.31391664742E+01  0.51100000000E-03 0.  1.
        -12    1    3    3    0    0 -0.29564012826E+02  0.77073082545E+01 -0.22248389685E+02  0.37794500902E+02  0.00000000000E+00 0.  1.
</event>
<event>
 7    1  0.2769403E-010  0.4778727E+02  0.7816164E-02  0.1312668E+00
        -11   -1    0    0    0    0  0.00000000000E+00  0.00000000000E+00  0.45593999997E+02  0.45594000000E+02  0.51100000000E-03 0. -1.
         11   -1    0    0    0    0 -0.00000000000E+00 -0.00000000000E+00 -0.45593999997E+02  0.45594000000E+02  0.51100000000E-03 0.  1.
    9900012    2    1    2    0    0 -0.20557163614E+02 -0.16019553275E+02 -0.34704473147E+02  0.47787268216E+02  0.19999987102E+02 0.  0.
         12    1    1    2    0    0  0.20557163614E+02  0.16019553275E+02  0.34704473147E+02  0.43400731784E+02  0.00000000000E+00 0. -1.
         11    1    3    3    0    0 -0.80083851921E+01  0.35460803698E+01 -0.13106946626E+02  0.15763913521E+02  0.51100000000E-03 0. -1.
        -11    1    3    3    0    0 -0.11705254181E+00 -0.26435168338E+01 -0.23751140059E+01  0.35557065895E+01  0.51100000000E-03 0.  1.
        -12    1    3    3    0    0 -0.12431725880E+02 -0.16922116811E+02 -0.19222412515E+02  0.28467648105E+02  0.00000000000E+00 0.  1.
</event>
<event>
 7    1  0.2769403E-010  0.4778727E+02  0.7816164E-02  0.1312668E+00
        -11   -1    0    0    0    0  0.00000000000E+00  0.00000000000E+00  0.45593999997E+02  0.45594000000E+02  0.51100000000E-03 0.  1.
         11   -1    0    0    0    0 -0.00000000000E+00 -0.00000000000E+00 -0.45593999997E+02  0.45594000000E+02  0.51100000000E-03 0. -1.
    9900012    2    1    2    0    0 -0.10025557115E+02  0.33847384578E+02  0.25248092584E+02  0.47787269391E+02  0.19999992463E+02 0.  0.
         12    1    1    2    0    0  0.10025557115E+02 -0.33847384578E+02 -0.25248092584E+02  0.43400730609E+02  0.00000000000E+00 0. -1.
         11    1    3    3    0    0  0.14160099541E+01 -0.41737796519E+00 -0.20415138074E+00  0.14902907781E+01  0.51100000000E-03 0. -1.
        -11    1    3    3    0    0 -0.55671611319E+01  0.30897720049E+02  0.23603053306E+02  0.39278066563E+02  0.51100000000E-03 0.  1.
         12    1    3    3    0    0 -0.58744059374E+01  0.33670424938E+01  0.18491906587E+01  0.70189120499E+01  0.00000000000E+00 0. -1.
</event>
<event>
 7    1  0.2769403E-010  0.4778727E+02  0.7816164E-02  0.1312668E+00
        -11   -1    0    0    0    0  0.00000000000E+00  0.00000000000E+00  0.45593999997E+02  0.45594000000E+02  0.51100000000E-03 0. -1.
         11   -1    0    0    0    0 -0.00000000000E+00 -0.00000000000E+00 -0.45593999997E+02  0.45594000000E+02  0.51100000000E-03 0.  1.
    9900012    2    1    2    0    0 -0.17013856280E+02  0.35301730826E+02 -0.18653139621E+02  0.47787272788E+02  0.20000007947E+02 0.  0.
         12    1    1    2    0    0  0.17013856280E+02 -0.35301730826E+02  0.18653139621E+02  0.43400727212E+02  0.00000000000E+00 0. -1.
         11    1    3    3    0    0  0.21636879263E+01 -0.19429546060E+00 -0.16853748859E+01  0.27495063076E+01  0.51100000000E-03 0.  1.
        -11    1    3    3    0    0 -0.39611216084E+01  0.14020272713E+01 -0.30514128693E+01  0.51930035265E+01  0.51100000000E-03 0. -1.
        -12    1    3    3    0    0 -0.15216422598E+02  0.34093999016E+02 -0.13916351865E+02  0.39844762953E+02  0.00000000000E+00 0.  1.
</event>
<event>
 7    1  0.2769403E-010  0.4778727E+02  0.7816164E-02  0.1312668E+00
        -11   -1    0    0    0    0  0.00000000000E+00  0.00000000000E+00  0.45593999997E+02  0.45594000000E+02  0.51100000000E-03 0. -1.
         11   -1    0    0    0    0 -0.00000000000E+00 -0.00000000000E+00 -0.45593999997E+02  0.45594000000E+02  0.51100000000E-03 0.  1.
    9900012    2    1    2    0    0  0.16145551394E+02 -0.38221536729E+02  0.12730220199E+02  0.47787271826E+02  0.20000003562E+02 0.  0.
         12    1    1    2    0    0 -0.16145551394E+02  0.38221536729E+02 -0.12730220199E+02  0.43400728174E+02  0.00000000000E+00 0. -1.
         11    1    3    3    0    0  0.14556938326E+02 -0.17435930353E+02  0.10896724555E+02  0.25192354534E+02  0.51100000000E-03 0.  1.
        -11    1    3    3    0    0  0.11008562877E+01 -0.18727686191E+02  0.44001790605E+01  0.19269138295E+02  0.51100000000E-03 0. -1.
        -12    1    3    3    0    0  0.48775678062E+00 -0.20579201858E+01 -0.25666834168E+01  0.33257789960E+01  0.00000000000E+00 0.  1.
</event>
<event>
 7    1  0.2769403E-010  0.4778727E+02  0.7816164E-02  0.1312668E+00
        -11   -1    0    0    0    0  0.00000000000E+00  0.00000000000E+00  0.45593999997E+02  0.45594000000E+02  0.51100000000E-03 0.  1.
         11   -1    0    0    0    0 -0.00000000000E+00 -0.00000000000E+00 -0.45593999997E+02  0.45594000000E+02  0.51100000000E-03 0. -1.
    9900012    2    1    2    0    0  0.32170686987E+02  0.27924352826E+02 -0.83006343229E+01  0.47787272908E+02  0.20000008495E+02 0.  0.
         12    1    1    2    0    0 -0.32170686987E+02 -0.27924352826E+02  0.83006343229E+01  0.43400727092E+02  0.00000000000E+00 0. -1.
         11    1    3    3    0    0  0.63410947424E+00  0.95364648866E+00 -0.19611900520E+01  0.22710797282E+01  0.51100000000E-03 0. -1.
        -11    1    3    3    0    0  0.28888023556E+02  0.27718526461E+02 -0.96789521619E+01  0.41188793735E+02  0.51100000000E-03 0.  1.
        -12    1    3    3    0    0  0.26485539569E+01 -0.74782012334E+00  0.33395078910E+01  0.43273994446E+01  0.00000000000E+00 0.  1.
</event>
<event>
 7    1  0.2769403E-010  0.4778727E+02  0.7816164E-02  0.1312668E+00
        -11   -1    0    0    0    0  0.00000000000E+00  0.00000000000E+00  0.45593999997E+02  0.45594000000E+02  0.51100000000E-03 0.  1.
         11   -1    0    0    0    0 -0.00000000000E+00 -0.00000000000E+00 -0.45593999997E+02  0.45594000000E+02  0.51100000000E-03 0. -1.
    9900012    2    1    2    0    0  0.17565165929E+02  0.99660486372E+01  0.38415705669E+02  0.47787267038E+02  0.19999981733E+02 0.  0.
         12    1    1    2    0    0 -0.17565165929E+02 -0.99660486372E+01 -0.38415705669E+02  0.43400732962E+02  0.00000000000E+00 0. -1.
         11    1    3    3    0    0  0.10362503741E+02  0.22794548703E+01  0.24857758149E+02  0.27027495976E+02  0.51100000000E-03 0.  1.
        -11    1    3    3    0    0  0.73338778564E+01  0.79031630337E+01  0.15455950928E+02  0.18844950774E+02  0.51100000000E-03 0. -1.
         12    1    3    3    0    0 -0.13121566846E+00 -0.21656926672E+00 -0.18980034073E+01  0.19148202874E+01  0.00000000000E+00 0. -1.
</event>
<event>
 7    1  0.2769403E-010  0.4778727E+02  0.7816164E-02  0.1312668E+00
        -11   -1    0    0    0    0  0.00000000000E+00  0.00000000000E+00  0.45593999997E+02  0.45594000000E+02  0.51100000000E-03 0.  1.
         11   -1    0    0    0    0 -0.00000000000E+00 -0.00000000000E+00 -0.45593999997E+02  0.45594000000E+02  0.51100000000E-03 0. -1.
    9900012    2    1    2    0    0  0.27216074307E+02  0.27682245702E+02  0.19406240302E+02  0.47787267397E+02  0.19999983370E+02 0.  0.
         12    1    1    2    0    0 -0.27216074307E+02 -0.27682245702E+02 -0.19406240302E+02  0.43400732603E+02  0.00000000000E+00 0. -1.
         11    1    3    3    0    0  0.23702143747E+02  0.20932970265E+02  0.10348853865E+02  0.33272806298E+02  0.51100000000E-03 0. -1.
        -11    1    3    3    0    0  0.49664953748E+01  0.75982904855E+01  0.55904227971E+01  0.10660812442E+02  0.51100000000E-03 0.  1.
        -12    1    3    3    0    0 -0.14525648151E+01 -0.84901504856E+00  0.34669636397E+01  0.38536486573E+01  0.00000000000E+00 0.  1.
</event>
<event>
 7    1  0.2769403E-010  0.4778727E+02  0.7816164E-02  0.1312668E+00
        -11   -1    0    0    0    0  0.00000000000E+00  0.00000000000E+00  0.45593999997E+02  0.45594000000E+02  0.51100000000E-03 0.  1.
         11   -1    0    0    0    0 -0.00000000000E+00 -0.00000000000E+00 -0.45593999997E+02  0.45594000000E+02  0.51100000000E-03 0. -1.
    9900012    2    1    2    0    0  0.35071768466E+02  0.72698193360E+01  0.24510074651E+02  0.47787274477E+02  0.20000015650E+02 0.  0.
         12    1    1    2    0    0 -0.35071768466E+02 -0.72698193360E+01 -0.24510074651E+02  0.43400725523E+02  0.00000000000E+00 0. -1.
         11    1    3    3    0    0  0.15380371083E+02 -0.25871040282E+01  0.81902534364E+01  0.17616162281E+02  0.51100000000E-03 0. -1.
        -11    1    3    3    0    0  0.16629637190E+02  0.80250533390E+01  0.62595439948E+01  0.19496876813E+02  0.51100000000E-03 0.  1.
        -12    1    3    3    0    0  0.30617601933E+01  0.18318700252E+01  0.10060277220E+02  0.10674235383E+02  0.00000000000E+00 0.  1.
</event>
<event>
 7    1  0.2769403E-010  0.4778728E+02  0.7816164E-02  0.1312668E+00
        -11   -1    0    0    0    0  0.00000000000E+00  0.00000000000E+00  0.45593999997E+02  0.45594000000E+02  0.51100000000E-03 0.  1.
         11   -1    0    0    0    0 -0.00000000000E+00 -0.00000000000E+00 -0.45593999997E+02  0.45594000000E+02  0.51100000000E-03 0. -1.
    9900012    2    1    2    0    0  0.11782891093E+02  0.41226429062E+02  0.67207057892E+01  0.47787275790E+02  0.20000021635E+02 0.  0.
         12    1    1    2    0    0 -0.11782891093E+02 -0.41226429062E+02 -0.67207057892E+01  0.43400724210E+02  0.00000000000E+00 0. -1.
         11    1    3    3    0    0  0.71866903574E+00  0.77019387962E+01  0.74784829139E-01  0.77357571985E+01  0.51100000000E-03 0. -1.
        -11    1    3    3    0    0  0.13897501968E+02  0.33367261408E+02  0.78176367892E+01  0.36981483746E+02  0.51100000000E-03 0.  1.
         12    1    3    3    0    0 -0.28332799108E+01  0.15722885776E+00 -0.11717158291E+01  0.30700348452E+01  0.00000000000E+00 0. -1.
</event>
<event>
 7    1  0.2769403E-010  0.4778728E+02  0.7816164E-02  0.1312668E+00
        -11   -1    0    0    0    0  0.00000000000E+00  0.00000000000E+00  0.45593999997E+02  0.45594000000E+02  0.51100000000E-03 0. -1.
         11   -1    0    0    0    0 -0.00000000000E+00 -0.00000000000E+00 -0.45593999997E+02  0.45594000000E+02  0.51100000000E-03 0.  1.
    9900012    2    1    2    0    0  0.85957597290E+01 -0.42461025160E+02  0.26070572032E+01  0.47787280073E+02  0.20000041165E+02 0.  0.
         12    1    1    2    0    0 -0.85957597290E+01  0.42461025160E+02 -0.26070572032E+01  0.43400719927E+02  0.00000000000E+00 0. -1.
         11    1    3    3    0    0 -0.77858136427E+00 -0.56300989794E+01 -0.40256758177E+00  0.56979175475E+01  0.51100000000E-03 0. -1.
        -11    1    3    3    0    0  0.19719107815E+01 -0.64111746940E+01  0.79422350917E+01  0.10395705440E+02  0.51100000000E-03 0.  1.
        -12    1    3    3    0    0  0.74024303118E+01 -0.30419751486E+02 -0.49326103067E+01  0.31693657085E+02  0.00000000000E+00 0.  1.
</event>
<event>
 7    1  0.2769403E-010  0.4778727E+02  0.7816164E-02  0.1312668E+00
        -11   -1    0    0    0    0  0.00000000000E+00  0.00000000000E+00  0.45593999997E+02  0.45594000000E+02  0.51100000000E-03 0.  1.
         11   -1    0    0    0    0 -0.00000000000E+00 -0.00000000000E+00 -0.45593999997E+02  0.45594000000E+02  0.51100000000E-03 0. -1.
    9900012    2    1    2    0    0 -0.24263400275E+02  0.24077604878E+02  0.26742841880E+02  0.47787271419E+02  0.20000001706E+02 0.  0.
         12    1    1    2    0    0  0.24263400275E+02 -0.24077604878E+02 -0.26742841880E+02  0.43400728581E+02  0.00000000000E+00 0. -1.
         11    1    3    3    0    0  0.74436160846E+00  0.73798051406E+00 -0.91670681652E+00  0.13924945572E+01  0.51100000000E-03 0. -1.
        -11    1    3    3    0    0 -0.66159874765E+01 -0.61307162143E+00  0.78208373704E+01  0.10262194918E+02  0.51100000000E-03 0.  1.
        -12    1    3    3    0    0 -0.18391774407E+02  0.23952695985E+02  0.19838711326E+02  0.36132581943E+02  0.00000000000E+00 0.  1.
</event>
<event>
 7    1  0.2769403E-010  0.4778730E+02  0.7816164E-02  0.1312668E+00
        -11   -1    0    0    0    0  0.00000000000E+00  0.00000000000E+00  0.45593999997E+02  0.45594000000E+02  0.51100000000E-03 0.  1.
         11   -1    0    0    0    0 -0.00000000000E+00 -0.00000000000E+00 -0.45593999997E+02  0.45594000000E+02  0.51100000000E-03 0. -1.
    9900012    2    1    2    0    0 -0.17702387044E+02 -0.42609643282E+01  0.39396581827E+02  0.47787297428E+02  0.20000120294E+02 0.  0.
         12    1    1    2    0    0  0.17702387044E+02  0.42609643282E+01 -0.39396581827E+02  0.43400702572E+02  0.00000000000E+00 0. -1.
         11    1    3    3    0    0 -0.59448090924E+01  0.69042654066E+00  0.19507027600E+02  0.20404449760E+02  0.51100000000E-03 0.  1.
        -11    1    3    3    0    0 -0.10813673087E+02 -0.68049244372E+01  0.21322206594E+02  0.24857172336E+02  0.51100000000E-03 0. -1.
         12    1    3    3    0    0 -0.94390486440E+00  0.18535335683E+01 -0.14326523668E+01  0.25256753327E+01  0.00000000000E+00 0. -1.
</event>
<event>
 7    1  0.2769403E-010  0.4778726E+02  0.7816164E-02  0.1312668E+00
        -11   -1    0    0    0    0  0.00000000000E+00  0.00000000000E+00  0.45593999997E+02  0.45594000000E+02  0.51100000000E-03 0.  1.
         11   -1    0    0    0    0 -0.00000000000E+00 -0.00000000000E+00 -0.45593999997E+02  0.45594000000E+02  0.51100000000E-03 0. -1.
    9900012    2    1    2    0    0 -0.38675350319E+02 -0.11157683736E+02  0.16227985853E+02  0.47787260910E+02  0.19999953795E+02 0.  0.
         12    1    1    2    0    0  0.38675350319E+02  0.11157683736E+02 -0.16227985853E+02  0.43400739090E+02  0.00000000000E+00 0. -1.
         11    1    3    3    0    0 -0.24820857077E+02 -0.91106318534E+01  0.15628289109E+01  0.26486241584E+02  0.51100000000E-03 0. -1.
        -11    1    3    3    0    0 -0.10076575646E+02 -0.32094412180E+01  0.70162475805E+01  0.12691163070E+02  0.51100000000E-03 0.  1.
        -12    1    3    3    0    0 -0.37779175962E+01  0.11623893357E+01  0.76489093619E+01  0.86098562565E+01  0.00000000000E+00 0.  1.
</event>
<event>
 7    1  0.2769403E-010  0.4778727E+02  0.7816164E-02  0.1312668E+00
        -11   -1    0    0    0    0  0.00000000000E+00  0.00000000000E+00  0.45593999997E+02  0.45594000000E+02  0.51100000000E-03 0. -1.
         11   -1    0    0    0    0 -0.00000000000E+00 -0.00000000000E+00 -0.45593999997E+02  0.45594000000E+02  0.51100000000E-03 0.  1.
    9900012    2    1    2    0    0  0.32597442599E+01 -0.42324161648E+02 -0.90367601867E+01  0.47787266982E+02  0.19999981478E+02 0.  0.
         12    1    1    2    0    0 -0.32597442599E+01  0.42324161648E+02  0.90367601867E+01  0.43400733018E+02  0.00000000000E+00 0. -1.
         11    1    3    3    0    0  0.30024240537E-01  0.45656781885E+00  0.11309967508E+01  0.12200448925E+01  0.51100000000E-03 0.  1.
        -11    1    3    3    0    0 -0.29250603231E+01 -0.43685207875E+01 -0.51206624483E+01  0.73390146434E+01  0.51100000000E-03 0. -1.
        -12    1    3    3    0    0  0.61547803425E+01 -0.38412208679E+02 -0.50470944892E+01  0.39228207446E+02  0.00000000000E+00 0.  1.
</event>
<event>
 7    1  0.2769403E-010  0.4778727E+02  0.7816164E-02  0.1312668E+00
        -11   -1    0    0    0    0  0.00000000000E+00  0.00000000000E+00  0.45593999997E+02  0.45594000000E+02  0.51100000000E-03 0.  1.
         11   -1    0    0    0    0 -0.00000000000E+00 -0.00000000000E+00 -0.45593999997E+02  0.45594000000E+02  0.51100000000E-03 0. -1.
    9900012    2    1    2    0    0  0.24619811551E+02 -0.44989534785E+01  0.35457686061E+02  0.47787271850E+02  0.20000003672E+02 0.  0.
         12    1    1    2    0    0 -0.24619811551E+02  0.44989534785E+01 -0.35457686061E+02  0.43400728150E+02  0.00000000000E+00 0. -1.
         11    1    3    3    0    0  0.19379417902E+02  0.66145873218E+00  0.17760146793E+02  0.26294907876E+02  0.51100000000E-03 0.  1.
        -11    1    3    3    0    0  0.38433776667E+01 -0.44358178610E+01  0.27840567729E+01  0.64960760741E+01  0.51100000000E-03 0. -1.
        -12    1    3    3    0    0  0.13970159822E+01 -0.72459434968E+00  0.14913482495E+02  0.14996287900E+02  0.00000000000E+00 0.  1.
</event>
<event>
 7    1  0.2769403E-010  0.4778727E+02  0.7816164E-02  0.1312668E+00
        -11   -1    0    0    0    0  0.00000000000E+00  0.00000000000E+00  0.45593999997E+02  0.45594000000E+02  0.51100000000E-03 0.  1.
         11   -1    0    0    0    0 -0.00000000000E+00 -0.00000000000E+00 -0.45593999997E+02  0.45594000000E+02  0.51100000000E-03 0. -1.
    9900012    2    1    2    0    0  0.40041172365E+02 -0.16140696786E+01  0.16665023842E+02  0.47787265848E+02  0.19999976306E+02 0.  0.
         12    1    1    2    0    0 -0.40041172365E+02  0.16140696786E+01 -0.16665023842E+02  0.43400734152E+02  0.00000000000E+00 0. -1.
         11    1    3    3    0    0  0.54265502512E+01 -0.41646507093E+01  0.73302943789E+01  0.10026214595E+02  0.51100000000E-03 0. -1.
        -11    1    3    3    0    0  0.13274212133E+02 -0.37140412447E+01  0.68184682411E+01  0.15378241757E+02  0.51100000000E-03 0.  1.
        -12    1    3    3    0    0  0.21340409981E+02  0.62646222753E+01  0.25162612224E+01  0.22382809496E+02  0.00000000000E+00 0.  1.
</event>
<event>
 7    1  0.2769403E-010  0.4778727E+02  0.7816164E-02  0.1312668E+00
        -11   -1    0    0    0    0  0.00000000000E+00  0.00000000000E+00  0.45593999997E+02  0.45594000000E+02  0.51100000000E-03 0.  1.
         11   -1    0    0    0    0 -0.00000000000E+00 -0.00000000000E+00 -0.45593999997E+02  0.45594000000E+02  0.51100000000E-03 0. -1.
    9900012    2    1    2    0    0 -0.26489788144E+02 -0.33902814954E-01  0.34378966467E+02  0.47787270044E+02  0.19999995441E+02 0.  0.
         12    1    1    2    0    0  0.26489788144E+02  0.33902814954E-01 -0.34378966467E+02  0.43400729956E+02  0.00000000000E+00 0. -1.
         11    1    3    3    0    0 -0.86164621099E+01 -0.18914740648E+01  0.26151858662E+01  0.92011026950E+01  0.51100000000E-03 0. -1.
        -11    1    3    3    0    0 -0.48608140325E+01 -0.51107336729E+01  0.11988055739E+02  0.13909011194E+02  0.51100000000E-03 0.  1.
        -12    1    3    3    0    0 -0.13012512002E+02  0.69683049228E+01  0.19775724862E+02  0.24677156155E+02  0.00000000000E+00 0.  1.
</event>
<event>
 7    1  0.2769403E-010  0.4778727E+02  0.7816164E-02  0.1312668E+00
        -11   -1    0    0    0    0  0.00000000000E+00  0.00000000000E+00  0.45593999997E+02  0.45594000000E+02  0.51100000000E-03 0.  1.
         11   -1    0    0    0    0 -0.00000000000E+00 -0.00000000000E+00 -0.45593999997E+02  0.45594000000E+02  0.51100000000E-03 0. -1.
    9900012    2    1    2    0    0  0.99107684601E+01  0.41430252592E+02  0.83026524625E+01  0.47787271905E+02  0.20000003923E+02 0.  0.
         12    1    1    2    0    0 -0.99107684601E+01 -0.41430252592E+02 -0.83026524625E+01  0.43400728095E+02  0.00000000000E+00 0. -1.
         11    1    3    3    0    0  0.52451749510E+01  0.44315794520E+01  0.24833875549E+01  0.73019155511E+01  0.51100000000E-03 0. -1.
        -11    1    3    3    0    0  0.40549092812E+01  0.13780594360E+01  0.17553998677E+01  0.46284734033E+01  0.51100000000E-03 0.  1.
        -12    1    3    3    0    0  0.61068422787E+00  0.35620613704E+02  0.40638650398E+01  0.35856882950E+02  0.00000000000E+00 0.  1.
</event>
<event>
 7    1  0.2769403E-010  0.4778727E+02  0.7816164E-02  0.1312668E+00
        -11   -1    0    0    0    0  0.00000000000E+00  0.00000000000E+00  0.45593999997E+02  0.45594000000E+02  0.51100000000E-03 0.  1.
         11   -1    0    0    0    0 -0.00000000000E+00 -0.00000000000E+00 -0.45593999997E+02  0.45594000000E+02  0.51100000000E-03 0. -1.
    9900012    2    1    2    0    0  0.35476033637E+02  0.17897282572E+02 -0.17457423081E+02  0.47787270666E+02  0.19999998274E+02 0.  0.
         12    1    1    2    0    0 -0.35476033637E+02 -0.17897282572E+02  0.17457423081E+02  0.43400729334E+02  0.00000000000E+00 0. -1.
         11    1    3    3    0    0  0.89144938074E+00 -0.92087838766E+00  0.50362044962E+00  0.13770740073E+01  0.51100000000E-03 0. -1.
        -11    1    3    3    0    0  0.34201892446E+02  0.17115147797E+02 -0.11826310158E+02  0.40031979007E+02  0.51100000000E-03 0.  1.
        -12    1    3    3    0    0  0.38269181118E+00  0.17030131620E+01 -0.61347333734E+01  0.63782176519E+01  0.00000000000E+00 0.  1.
</event>
<event>
 7    1  0.2769403E-010  0.4778727E+02  0.7816164E-02  0.1312668E+00
        -11   -1    0    0    0    0  0.00000000000E+00  0.00000000000E+00  0.45593999997E+02  0.45594000000E+02  0.51100000000E-03 0.  1.
         11   -1    0    0    0    0 -0.00000000000E+00 -0.00000000000E+00 -0.45593999997E+02  0.45594000000E+02  0.51100000000E-03 0. -1.
    9900012    2    1    2    0    0 -0.22682629824E+02 -0.34830831649E+02  0.12487377459E+02  0.47787272761E+02  0.20000007824E+02 0.  0.
         12    1    1    2    0    0  0.22682629824E+02  0.34830831649E+02 -0.12487377459E+02  0.43400727239E+02  0.00000000000E+00 0. -1.
         11    1    3    3    0    0 -0.31937645332E+01  0.40619900368E+00  0.51001491571E+01  0.60313059291E+01  0.51100000000E-03 0. -1.
        -11    1    3    3    0    0 -0.56555161085E+01 -0.69204657504E+01 -0.13822473065E+01  0.90436893209E+01  0.51100000000E-03 0.  1.
        -12    1    3    3    0    0 -0.13833349182E+02 -0.28316564903E+02  0.87694756087E+01  0.32712277511E+02  0.00000000000E+00 0.  1.
</event>
<event>
 7    1  0.2769403E-010  0.4778727E+02  0.7816164E-02  0.1312668E+00
        -11   -1    0    0    0    0  0.00000000000E+00  0.00000000000E+00  0.45593999997E+02  0.45594000000E+02  0.51100000000E-03 0. -1.
         11   -1    0    0    0    0 -0.00000000000E+00 -0.00000000000E+00 -0.45593999997E+02  0.45594000000E+02  0.51100000000E-03 0.  1.
    9900012    2    1    2    0    0 -0.32437858522E+02  0.23943555957E+02 -0.16065961490E+02  0.47787266642E+02  0.19999979928E+02 0.  0.
         12    1    1    2    0    0  0.32437858522E+02 -0.23943555957E+02  0.16065961490E+02  0.43400733358E+02  0.00000000000E+00 0. -1.
         11    1    3    3    0    0 -0.86890922644E+01  0.74828942646E+01 -0.53326318075E+01  0.12646382614E+02  0.51100000000E-03 0. -1.
        -11    1    3    3    0    0 -0.15400812852E+02  0.11435816536E+02 -0.15149516944E+02  0.24443215833E+02  0.51100000000E-03 0.  1.
         12    1    3    3    0    0 -0.83479534052E+01  0.50248451566E+01  0.44161872606E+01  0.10697668196E+02  0.00000000000E+00 0. -1.
</event>
<event>
 7    1  0.2769403E-010  0.4778727E+02  0.7816164E-02  0.1312668E+00
        -11   -1    0    0    0    0  0.00000000000E+00  0.00000000000E+00  0.45593999997E+02  0.45594000000E+02  0.51100000000E-03 0. -1.
         11   -1    0    0    0    0 -0.00000000000E+00 -0.00000000000E+00 -0.45593999997E+02  0.45594000000E+02  0.51100000000E-03 0.  1.
    9900012    2    1    2    0    0 -0.30735436925E+02  0.30051477805E+02 -0.59887250410E+01  0.47787271563E+02  0.20000002365E+02 0.  0.
         12    1    1    2    0    0  0.30735436925E+02 -0.30051477805E+02  0.59887250410E+01  0.43400728437E+02  0.00000000000E+00 0. -1.
         11    1    3    3    0    0 -0.93849676019E+01 -0.75045813995E-02  0.72792304876E+00  0.94131581010E+01  0.51100000000E-03 0. -1.
        -11    1    3    3    0    0 -0.92285983145E+01  0.74895792842E+01 -0.43098334966E+01  0.12642606129E+02  0.51100000000E-03 0.  1.
         12    1    3    3    0    0 -0.12121871008E+02  0.22569403103E+02 -0.24068145932E+01  0.25731507333E+02  0.00000000000E+00 0. -1.
</event>
<event>
 7    1  0.2769403E-010  0.4778727E+02  0.7816164E-02  0.1312668E+00
        -11   -1    0    0    0    0  0.00000000000E+00  0.00000000000E+00  0.45593999997E+02  0.45594000000E+02  0.51100000000E-03 0.  1.
         11   -1    0    0    0    0 -0.00000000000E+00 -0.00000000000E+00 -0.45593999997E+02  0.45594000000E+02  0.51100000000E-03 0. -1.
    9900012    2    1    2    0    0 -0.21351893944E+02  0.29928212873E+01  0.37666471839E+02  0.47787268957E+02  0.19999990482E+02 0.  0.
         12    1    1    2    0    0  0.21351893944E+02 -0.29928212873E+01 -0.37666471839E+02  0.43400731043E+02  0.00000000000E+00 0. -1.
         11    1    3    3    0    0 -0.41101102568E+00 -0.26049052824E+01  0.40885332789E+00  0.26686368989E+01  0.51100000000E-03 0. -1.
        -11    1    3    3    0    0 -0.10500975888E+01  0.49672546766E+01  0.44714993088E+01  0.67653994928E+01  0.51100000000E-03 0.  1.
         12    1    3    3    0    0 -0.19890785329E+02  0.63047189311E+00  0.32786119203E+02  0.38353232565E+02  0.00000000000E+00 0. -1.
</event>
<event>
 7    1  0.2769403E-010  0.4778728E+02  0.7816164E-02  0.1312668E+00
        -11   -1    0    0    0    0  0.00000000000E+00  0.00000000000E+00  0.45593999997E+02  0.45594000000E+02  0.51100000000E-03 0.  1.
         11   -1    0    0    0    0 -0.00000000000E+00 -0.00000000000E+00 -0.45593999997E+02  0.45594000000E+02  0.51100000000E-03 0. -1.
    9900012    2    1    2    0    0 -0.85844960226E+01 -0.77580816991E+01  0.41829911220E+02  0.47787275625E+02  0.20000020883E+02 0.  0.
         12    1    1    2    0    0  0.85844960226E+01  0.77580816991E+01 -0.41829911220E+02  0.43400724375E+02  0.00000000000E+00 0. -1.
         11    1    3    3    0    0  0.22692249350E+01 -0.90094095203E+01  0.24169190071E+02  0.25893408247E+02  0.51100000000E-03 0. -1.
        -11    1    3    3    0    0 -0.29356632921E+01 -0.15737959110E+01  0.14499411739E+01  0.36328063812E+01  0.51100000000E-03 0.  1.
        -12    1    3    3    0    0 -0.79180576655E+01  0.28251237322E+01  0.16210779976E+02  0.18261060996E+02  0.00000000000E+00 0.  1.
</event>
<event>
 7    1  0.2769403E-010  0.4778727E+02  0.7816164E-02  0.1312668E+00
        -11   -1    0    0    0    0  0.00000000000E+00  0.00000000000E+00  0.45593999997E+02  0.45594000000E+02  0.51100000000E-03 0.  1.
         11   -1    0    0    0    0 -0.00000000000E+00 -0.00000000000E+00 -0.45593999997E+02  0.45594000000E+02  0.51100000000E-03 0. -1.
    9900012    2    1    2    0    0  0.17876743222E+02  0.29324571346E+02  0.26535162636E+02  0.47787270870E+02  0.19999999206E+02 0.  0.
         12    1    1    2    0    0 -0.17876743222E+02 -0.29324571346E+02 -0.26535162636E+02  0.43400729130E+02  0.00000000000E+00 0. -1.
         11    1    3    3    0    0  0.10254955603E+02  0.12285960044E+02  0.22516443055E+02  0.27624249071E+02  0.51100000000E-03 0. -1.
        -11    1    3    3    0    0  0.41497746334E+01  0.26491121222E+01  0.15089897587E+01  0.51493179060E+01  0.51100000000E-03 0.  1.
        -12    1    3    3    0    0  0.34720129863E+01  0.14389499180E+02  0.25097298228E+01  0.15013703894E+02  0.00000000000E+00 0.  1.
</event>
<event>
 7    1  0.2769403E-010  0.4778726E+02  0.7816164E-02  0.1312668E+00
        -11   -1    0    0    0    0  0.00000000000E+00  0.00000000000E+00  0.45593999997E+02  0.45594000000E+02  0.51100000000E-03 0.  1.
         11   -1    0    0    0    0 -0.00000000000E+00 -0.00000000000E+00 -0.45593999997E+02  0.45594000000E+02  0.51100000000E-03 0. -1.
    9900012    2    1    2    0    0  0.24486181339E+02  0.14851430592E+02  0.32611138946E+02  0.47787257488E+02  0.19999938192E+02 0.  0.
         12    1    1    2    0    0 -0.24486181339E+02 -0.14851430592E+02 -0.32611138946E+02  0.43400742512E+02  0.00000000000E+00 0. -1.
         11    1    3    3    0    0 -0.51984444102E+00  0.31606004094E+01  0.72775792205E+01  0.79512761720E+01  0.51100000000E-03 0. -1.
        -11    1    3    3    0    0  0.14028077290E+01  0.11117105866E+01  0.91528615683E+01  0.93262342401E+01  0.51100000000E-03 0.  1.
         12    1    3    3    0    0  0.23603218051E+02  0.10579119596E+02  0.16180698158E+02  0.30509747076E+02  0.00000000000E+00 0. -1.
</event>
<event>
 7    1  0.2769403E-010  0.4778726E+02  0.7816164E-02  0.1312668E+00
        -11   -1    0    0    0    0  0.00000000000E+00  0.00000000000E+00  0.45593999997E+02  0.45594000000E+02  0.51100000000E-03 0.  1.
         11   -1    0    0    0    0 -0.00000000000E+00 -0.00000000000E+00 -0.45593999997E+02  0.45594000000E+02  0.51100000000E-03 0. -1.
    9900012    2    1    2    0    0 -0.20843685311E+02  0.17207806542E+02  0.33956681522E+02  0.47787262180E+02  0.19999959582E+02 0.  0.
         12    1    1    2    0    0  0.20843685311E+02 -0.17207806542E+02 -0.33956681522E+02  0.43400737820E+02  0.00000000000E+00 0. -1.
         11    1    3    3    0    0 -0.11383151737E+01 -0.16228702923E+01  0.36231389866E+01  0.41299643821E+01  0.51100000000E-03 0.  1.
        -11    1    3    3    0    0 -0.11801184281E+02  0.84130009350E+01  0.53325674185E+01  0.15442888677E+02  0.51100000000E-03 0. -1.
        -12    1    3    3    0    0 -0.79041858570E+01  0.10417675900E+02  0.25000975117E+02  0.28214409120E+02  0.00000000000E+00 0.  1.
</event>
<event>
 7    1  0.2769403E-010  0.4778728E+02  0.7816164E-02  0.1312668E+00
        -11   -1    0    0    0    0  0.00000000000E+00  0.00000000000E+00  0.45593999997E+02  0.45594000000E+02  0.51100000000E-03 0. -1.
         11   -1    0    0    0    0 -0.00000000000E+00 -0.00000000000E+00 -0.45593999997E+02  0.45594000000E+02  0.51100000000E-03 0.  1.
    9900012    2    1    2    0    0 -0.78096104281E+01 -0.41491594632E+02 -0.10053870527E+02  0.47787277048E+02  0.20000027373E+02 0.  0.
         12    1    1    2    0    0  0.78096104281E+01  0.41491594632E+02  0.10053870527E+02  0.43400722952E+02  0.00000000000E+00 0. -1.
         11    1    3    3    0    0  0.14073130283E+01 -0.36094246991E+01  0.27071124702E+01  0.47261966533E+01  0.51100000000E-03 0. -1.
        -11    1    3    3    0    0 -0.85856202239E+00 -0.59907166686E+01 -0.75612896011E+01  0.96849840291E+01  0.51100000000E-03 0.  1.
        -12    1    3    3    0    0 -0.83583614340E+01 -0.31891453265E+02 -0.51996933963E+01  0.33376096366E+02  0.00000000000E+00 0.  1.
</event>
<event>
 7    1  0.2769403E-010  0.4778727E+02  0.7816164E-02  0.1312668E+00
        -11   -1    0    0    0    0  0.00000000000E+00  0.00000000000E+00  0.45593999997E+02  0.45594000000E+02  0.51100000000E-03 0.  1.
         11   -1    0    0    0    0 -0.00000000000E+00 -0.00000000000E+00 -0.45593999997E+02  0.45594000000E+02  0.51100000000E-03 0. -1.
    9900012    2    1    2    0    0 -0.78270322374E+01  0.39797295938E+02  0.15444608925E+02  0.47787272559E+02  0.20000006904E+02 0.  0.
         12    1    1    2    0    0  0.78270322374E+01 -0.39797295938E+02 -0.15444608925E+02  0.43400727441E+02  0.00000000000E+00 0. -1.
         11    1    3    3    0    0 -0.76441041886E+00  0.92290989365E+00 -0.25331272584E+01  0.28022883378E+01  0.51100000000E-03 0. -1.
        -11    1    3    3    0    0  0.31525228788E+01  0.11493849841E+02  0.66039551611E+01  0.13625681954E+02  0.51100000000E-03 0.  1.
         12    1    3    3    0    0 -0.10215144697E+02  0.27380536203E+02  0.11373781022E+02  0.31359302267E+02  0.00000000000E+00 0. -1.
</event>
<event>
 7    1  0.2769403E-010  0.4778729E+02  0.7816164E-02  0.1312668E+00
        -11   -1    0    0    0    0  0.00000000000E+00  0.00000000000E+00  0.45593999997E+02  0.45594000000E+02  0.51100000000E-03 0.  1.
         11   -1    0    0    0    0 -0.00000000000E+00 -0.00000000000E+00 -0.45593999997E+02  0.45594000000E+02  0.51100000000E-03 0. -1.
    9900012    2    1    2    0    0  0.13879564798E+02 -0.31013680762E+02  0.27002426135E+02  0.47787288824E+02  0.20000081066E+02 0.  0.
         12    1    1    2    0    0 -0.13879564798E+02  0.31013680762E+02 -0.27002426135E+02  0.43400711176E+02  0.00000000000E+00 0. -1.
         11    1    3    3    0    0 -0.52496495049E+00 -0.93522452680E+01  0.23233207952E+01  0.96507978701E+01  0.51100000000E-03 0. -1.
        -11    1    3    3    0    0  0.65563553690E+00 -0.10577544787E+02  0.13779238538E+02  0.17383375007E+02  0.51100000000E-03 0.  1.
         12    1    3    3    0    0  0.13748894211E+02 -0.11083890707E+02  0.10899866802E+02  0.20753115948E+02  0.00000000000E+00 0. -1.
</event>
<event>
 7    1  0.2769403E-010  0.4778731E+02  0.7816164E-02  0.1312668E+00
        -11   -1    0    0    0    0  0.00000000000E+00  0.00000000000E+00  0.45593999997E+02  0.45594000000E+02  0.51100000000E-03 0. -1.
         11   -1    0    0    0    0 -0.00000000000E+00 -0.00000000000E+00 -0.45593999997E+02  0.45594000000E+02  0.51100000000E-03 0.  1.
    9900012    2    1    2    0    0  0.23793107340E+01  0.13813371045E+02 -0.41074927782E+02  0.47787308398E+02  0.20000170309E+02 0.  0.
         12    1    1    2    0    0 -0.23793107340E+01 -0.13813371045E+02  0.41074927782E+02  0.43400691602E+02  0.00000000000E+00 0. -1.
         11    1    3    3    0    0 -0.77405097577E+00 -0.36747944228E+01 -0.58043746645E+01  0.69133229687E+01  0.51100000000E-03 0. -1.
        -11    1    3    3    0    0  0.37254170128E+01  0.17710410410E+01 -0.34447254129E+01  0.53741466038E+01  0.51100000000E-03 0.  1.
        -12    1    3    3    0    0 -0.57205530294E+00  0.15717124427E+02 -0.31825827705E+02  0.35499838826E+02  0.00000000000E+00 0.  1.
</event>
<event>
 7    1  0.3354605E-010  0.4778727E+02  0.7816164E-02  0.1312668E+00
        -11   -1    0    0    0    0  0.00000000000E+00  0.00000000000E+00  0.45593999997E+02  0.45594000000E+02  0.51100000000E-03 0.  1.
         11   -1    0    0    0    0 -0.00000000000E+00 -0.00000000000E+00 -0.45593999997E+02  0.45594000000E+02  0.51100000000E-03 0. -1.
    9900012    2    1    2    0    0 -0.34140062319E+02  0.26278820693E+02 -0.52443478232E+01  0.47787268943E+02  0.19999990419E+02 0.  0.
         12    1    1    2    0    0  0.34140062319E+02 -0.26278820693E+02  0.52443478232E+01  0.43400731057E+02  0.00000000000E+00 0. -1.
         11    1    3    3    0    0 -0.16653006547E+01  0.79438275536E+01  0.37582575285E+01  0.89443905541E+01  0.51100000000E-03 0. -1.
        -11    1    3    3    0    0 -0.98743411529E+01  0.35897057071E+01 -0.37975753509E+00  0.10513458818E+02  0.51100000000E-03 0.  1.
         12    1    3    3    0    0 -0.22600420512E+02  0.14745287432E+02 -0.86228478166E+01  0.28329419571E+02  0.00000000000E+00 0. -1.
</event>
<event>
 7    1  0.2769403E-010  0.4778727E+02  0.7816164E-02  0.1312668E+00
        -11   -1    0    0    0    0  0.00000000000E+00  0.00000000000E+00  0.45593999997E+02  0.45594000000E+02  0.51100000000E-03 0.  1.
         11   -1    0    0    0    0 -0.00000000000E+00 -0.00000000000E+00 -0.45593999997E+02  0.45594000000E+02  0.51100000000E-03 0. -1.
    9900012    2    1    2    0    0  0.96822739806E+01  0.35251347269E+02  0.23392723673E+02  0.47787269193E+02  0.19999991559E+02 0.  0.
         12    1    1    2    0    0 -0.96822739806E+01 -0.35251347269E+02 -0.23392723673E+02  0.43400730807E+02  0.00000000000E+00 0. -1.
         11    1    3    3    0    0  0.70954320867E+01  0.53749461676E+01  0.48990100617E+01  0.10160487323E+02  0.51100000000E-03 0. -1.
        -11    1    3    3    0    0  0.79467935728E+01  0.18205639592E+02  0.12345769301E+02  0.23388348829E+02  0.51100000000E-03 0.  1.
         12    1    3    3    0    0 -0.53599516790E+01  0.11670761510E+02  0.61479443108E+01  0.14238433041E+02  0.00000000000E+00 0. -1.
</event>
<event>
 7    1  0.2889068E-010  0.4778727E+02  0.7816164E-02  0.1312668E+00
        -11   -1    0    0    0    0  0.00000000000E+00  0.00000000000E+00  0.45593999997E+02  0.45594000000E+02  0.51100000000E-03 0.  1.
         11   -1    0    0    0    0 -0.00000000000E+00 -0.00000000000E+00 -0.45593999997E+02  0.45594000000E+02  0.51100000000E-03 0. -1.
    9900012    2    1    2    0    0  0.33502297343E+02  0.68138970314E+00  0.27581792605E+02  0.47787268411E+02  0.19999987991E+02 0.  0.
         12    1    1    2    0    0 -0.33502297343E+02 -0.68138970314E+00 -0.27581792605E+02  0.43400731589E+02  0.00000000000E+00 0. -1.
         11    1    3    3    0    0  0.34181590275E+01 -0.38610890623E+00  0.73176689782E+01  0.80858624006E+01  0.51100000000E-03 0. -1.
        -11    1    3    3    0    0  0.17093786115E+02 -0.47322767784E+01  0.18046165817E+02  0.25303281767E+02  0.51100000000E-03 0.  1.
         12    1    3    3    0    0  0.12990352201E+02  0.57997753878E+01  0.22179578093E+01  0.14398124243E+02  0.00000000000E+00 0. -1.
</event>
<event>
 7    1  0.2769403E-010  0.4778727E+02  0.7816164E-02  0.1312668E+00
        -11   -1    0    0    0    0  0.00000000000E+00  0.00000000000E+00  0.45593999997E+02  0.45594000000E+02  0.51100000000E-03 0. -1.
         11   -1    0    0    0    0 -0.00000000000E+00 -0.00000000000E+00 -0.45593999997E+02  0.45594000000E+02  0.51100000000E-03 0.  1.
    9900012    2    1    2    0    0  0.33784706939E+02 -0.50427402463E+01 -0.26772886352E+02  0.47787273096E+02  0.20000009355E+02 0.  0.
         12    1    1    2    0    0 -0.33784706939E+02  0.50427402463E+01  0.26772886352E+02  0.43400726904E+02  0.00000000000E+00 0. -1.
         11    1    3    3    0    0  0.66942713549E+00 -0.22589666716E+01 -0.23194978118E+01  0.33062264703E+01  0.51100000000E-03 0. -1.
        -11    1    3    3    0    0  0.14962686456E+02  0.70155247132E+01 -0.10650341626E+02  0.19660349691E+02  0.51100000000E-03 0.  1.
        -12    1    3    3    0    0  0.18152593348E+02 -0.97992982880E+01 -0.13803046915E+02  0.24820696935E+02  0.00000000000E+00 0.  1.
</event>
<event>
 7    1  0.2769403E-010  0.4778727E+02  0.7816164E-02  0.1312668E+00
        -11   -1    0    0    0    0  0.00000000000E+00  0.00000000000E+00  0.45593999997E+02  0.45594000000E+02  0.51100000000E-03 0. -1.
         11   -1    0    0    0    0 -0.00000000000E+00 -0.00000000000E+00 -0.45593999997E+02  0.45594000000E+02  0.51100000000E-03 0.  1.
    9900012    2    1    2    0    0  0.10103708645E+02 -0.14720835360E+02 -0.39558000772E+02  0.47787270200E+02  0.19999996151E+02 0.  0.
         12    1    1    2    0    0 -0.10103708645E+02  0.14720835360E+02  0.39558000772E+02  0.43400729800E+02  0.00000000000E+00 0. -1.
         11    1    3    3    0    0 -0.10507739059E+01  0.26089426854E+01 -0.58970215635E+01  0.65334195731E+01  0.51100000000E-03 0. -1.
        -11    1    3    3    0    0 -0.25973882170E+01 -0.29616835164E+01 -0.62448824166E+01  0.73835324513E+01  0.51100000000E-03 0.  1.
        -12    1    3    3    0    0  0.13751870768E+02 -0.14368094529E+02 -0.27416096792E+02  0.33870318176E+02  0.00000000000E+00 0.  1.
</event>
<event>
 7    1  0.3482521E-010  0.4778727E+02  0.7816164E-02  0.1312668E+00
        -11   -1    0    0    0    0  0.00000000000E+00  0.00000000000E+00  0.45593999997E+02  0.45594000000E+02  0.51100000000E-03 0. -1.
         11   -1    0    0    0    0 -0.00000000000E+00 -0.00000000000E+00 -0.45593999997E+02  0.45594000000E+02  0.51100000000E-03 0.  1.
    9900012    2    1    2    0    0 -0.89806230478E+01 -0.36619446057E+02 -0.21493901267E+02  0.47787271763E+02  0.20000003276E+02 0.  0.
         12    1    1    2    0    0  0.89806230478E+01  0.36619446057E+02  0.21493901267E+02  0.43400728237E+02  0.00000000000E+00 0. -1.
         11    1    3    3    0    0  0.11469281115E+01 -0.13833741683E+02 -0.36334201926E+01  0.14348853459E+02  0.51100000000E-03 0. -1.
        -11    1    3    3    0    0 -0.20113771569E+01 -0.19257649354E+02 -0.13226806368E+02  0.23448904104E+02  0.51100000000E-03 0.  1.
         12    1    3    3    0    0 -0.81161740024E+01 -0.35280550196E+01 -0.46336747073E+01  0.99895142000E+01  0.00000000000E+00 0. -1.
</event>
<event>
 7    1  0.2769403E-010  0.4778727E+02  0.7816164E-02  0.1312668E+00
        -11   -1    0    0    0    0  0.00000000000E+00  0.00000000000E+00  0.45593999997E+02  0.45594000000E+02  0.51100000000E-03 0.  1.
         11   -1    0    0    0    0 -0.00000000000E+00 -0.00000000000E+00 -0.45593999997E+02  0.45594000000E+02  0.51100000000E-03 0. -1.
    9900012    2    1    2    0    0 -0.34900123123E+02  0.25463267567E+02  0.41505116327E+01  0.47787270328E+02  0.19999996734E+02 0.  0.
         12    1    1    2    0    0  0.34900123123E+02 -0.25463267567E+02 -0.41505116327E+01  0.43400729672E+02  0.00000000000E+00 0. -1.
         11    1    3    3    0    0 -0.51158235070E+01  0.10961412743E+02  0.40013303606E+01  0.12741069986E+02  0.51100000000E-03 0. -1.
        -11    1    3    3    0    0 -0.12154623920E+02  0.11450900980E+02 -0.27411274006E+01  0.16922523322E+02  0.51100000000E-03 0.  1.
         12    1    3    3    0    0 -0.17629675696E+02  0.30509538446E+01  0.28903086726E+01  0.18123677020E+02  0.00000000000E+00 0. -1.
</event>
<event>
 7    1  0.2769403E-010  0.4778728E+02  0.7816164E-02  0.1312668E+00
        -11   -1    0    0    0    0  0.00000000000E+00  0.00000000000E+00  0.45593999997E+02  0.45594000000E+02  0.51100000000E-03 0.  1.
         11   -1    0    0    0    0 -0.00000000000E+00 -0.00000000000E+00 -0.45593999997E+02  0.45594000000E+02  0.51100000000E-03 0. -1.
    9900012    2    1    2    0    0  0.98490702166E+01 -0.28431069070E+02  0.31277674021E+02  0.47787276910E+02  0.20000026744E+02 0.  0.
         12    1    1    2    0    0 -0.98490702166E+01  0.28431069070E+02 -0.31277674021E+02  0.43400723090E+02  0.00000000000E+00 0. -1.
         11    1    3    3    0    0 -0.63695808899E+00 -0.77201237648E+01  0.14148655347E+02  0.16130420792E+02  0.51100000000E-03 0. -1.
        -11    1    3    3    0    0  0.99223749214E+01 -0.15336556997E+02  0.18586430775E+02  0.26059910088E+02  0.51100000000E-03 0.  1.
         12    1    3    3    0    0  0.56365338418E+00 -0.53743883078E+01 -0.14574121011E+01  0.55969460291E+01  0.00000000000E+00 0. -1.
</event>
<event>
 7    1  0.2769403E-010  0.4778727E+02  0.7816164E-02  0.1312668E+00
        -11   -1    0    0    0    0  0.00000000000E+00  0.00000000000E+00  0.45593999997E+02  0.45594000000E+02  0.51100000000E-03 0. -1.
         11   -1    0    0    0    0 -0.00000000000E+00 -0.00000000000E+00 -0.45593999997E+02  0.45594000000E+02  0.51100000000E-03 0.  1.
    9900012    2    1    2    0    0  0.28776437997E+02  0.26633023757E+02 -0.18607039101E+02  0.47787271408E+02  0.20000001658E+02 0.  0.
         12    1    1    2    0    0 -0.28776437997E+02 -0.26633023757E+02  0.18607039101E+02  0.43400728592E+02  0.00000000000E+00 0. -1.
         11    1    3    3    0    0  0.48957726641E+00  0.14457704217E+01 -0.14405718034E-01  0.15264815092E+01  0.51100000000E-03 0.  1.
        -11    1    3    3    0    0  0.29773979056E+02  0.22199173543E+02 -0.20495430220E+02  0.42418814163E+02  0.51100000000E-03 0. -1.
         12    1    3    3    0    0 -0.14871183251E+01  0.29880797917E+01  0.19027968373E+01  0.38419757363E+01  0.00000000000E+00 0. -1.
</event>
<event>
 7    1  0.2769403E-010  0.4778724E+02  0.7816164E-02  0.1312668E+00
        -11   -1    0    0    0    0  0.00000000000E+00  0.00000000000E+00  0.45593999997E+02  0.45594000000E+02  0.51100000000E-03 0.  1.
         11   -1    0    0    0    0 -0.00000000000E+00 -0.00000000000E+00 -0.45593999997E+02  0.45594000000E+02  0.51100000000E-03 0. -1.
    9900012    2    1    2    0    0  0.19316828041E+02  0.38235392587E+02  0.69671098671E+01  0.47787242959E+02  0.19999871946E+02 0.  0.
         12    1    1    2    0    0 -0.19316828041E+02 -0.38235392587E+02 -0.69671098671E+01  0.43400757041E+02  0.00000000000E+00 0. -1.
         11    1    3    3    0    0  0.16403242917E+01  0.83456849689E+01 -0.31229509746E+01  0.90605708668E+01  0.51100000000E-03 0. -1.
        -11    1    3    3    0    0  0.15347284798E+02  0.14246274728E+02  0.22104552438E+01  0.21056628575E+02  0.51100000000E-03 0.  1.
         12    1    3    3    0    0  0.23292189514E+01  0.15643432890E+02  0.78796055979E+01  0.17670043517E+02  0.00000000000E+00 0. -1.
</event>
<event>
 7    1  0.2769403E-010  0.4778727E+02  0.7816164E-02  0.1312668E+00
        -11   -1    0    0    0    0  0.00000000000E+00  0.00000000000E+00  0.45593999997E+02  0.45594000000E+02  0.51100000000E-03 0.  1.
         11   -1    0    0    0    0 -0.00000000000E+00 -0.00000000000E+00 -0.45593999997E+02  0.45594000000E+02  0.51100000000E-03 0. -1.
    9900012    2    1    2    0    0 -0.18748009010E+02 -0.18574027965E+01  0.39098407061E+02  0.47787271646E+02  0.20000002742E+02 0.  0.
         12    1    1    2    0    0  0.18748009010E+02  0.18574027965E+01 -0.39098407061E+02  0.43400728354E+02  0.00000000000E+00 0. -1.
         11    1    3    3    0    0 -0.71510750627E+01  0.82465348907E+01  0.10263504732E+02  0.14982748142E+02  0.51100000000E-03 0. -1.
        -11    1    3    3    0    0 -0.36646762970E+01 -0.15568833125E+01  0.73353368990E+01  0.83463109033E+01  0.51100000000E-03 0.  1.
        -12    1    3    3    0    0 -0.79322576501E+01 -0.85470543747E+01  0.21499565430E+02  0.24458212600E+02  0.00000000000E+00 0.  1.
</event>
<event>
 7    1  0.2769403E-010  0.4778729E+02  0.7816164E-02  0.1312668E+00
        -11   -1    0    0    0    0  0.00000000000E+00  0.00000000000E+00  0.45593999997E+02  0.45594000000E+02  0.51100000000E-03 0.  1.
         11   -1    0    0    0    0 -0.00000000000E+00 -0.00000000000E+00 -0.45593999997E+02  0.45594000000E+02  0.51100000000E-03 0. -1.
    9900012    2    1    2    0    0 -0.34574509873E+02 -0.12312866728E+02  0.23165026124E+02  0.47787287387E+02  0.20000074510E+02 0.  0.
         12    1    1    2    0    0  0.34574509873E+02  0.12312866728E+02 -0.23165026124E+02  0.43400712613E+02  0.00000000000E+00 0. -1.
         11    1    3    3    0    0  0.66964297054E+00 -0.33770345867E+00  0.73534395701E+00  0.10503315335E+01  0.51100000000E-03 0. -1.
        -11    1    3    3    0    0 -0.34374825879E+01  0.70827978403E+00  0.95125023517E+01  0.10139312011E+02  0.51100000000E-03 0.  1.
        -12    1    3    3    0    0 -0.31806670255E+02 -0.12683443054E+02  0.12917179816E+02  0.36597643842E+02  0.00000000000E+00 0.  1.
</event>
<event>
 7    1  0.2769403E-010  0.4778727E+02  0.7816164E-02  0.1312668E+00
        -11   -1    0    0    0    0  0.00000000000E+00  0.00000000000E+00  0.45593999997E+02  0.45594000000E+02  0.51100000000E-03 0.  1.
         11   -1    0    0    0    0 -0.00000000000E+00 -0.00000000000E+00 -0.45593999997E+02  0.45594000000E+02  0.51100000000E-03 0. -1.
    9900012    2    1    2    0    0 -0.69081203312E+01  0.32299344336E+02  0.28154100933E+02  0.47787272236E+02  0.20000005435E+02 0.  0.
         12    1    1    2    0    0  0.69081203312E+01 -0.32299344336E+02 -0.28154100933E+02  0.43400727764E+02  0.00000000000E+00 0. -1.
         11    1    3    3    0    0 -0.83488967053E+01  0.14498556455E+02  0.80347042894E+01  0.18559867692E+02  0.51100000000E-03 0. -1.
        -11    1    3    3    0    0  0.39851569300E+01  0.91958748830E+01  0.40244240610E+01  0.10800073143E+02  0.51100000000E-03 0.  1.
        -12    1    3    3    0    0 -0.25443805559E+01  0.86049129984E+01  0.16094972583E+02  0.18427331401E+02  0.00000000000E+00 0.  1.
</event>
<event>
 7    1  0.2769403E-010  0.4778727E+02  0.7816164E-02  0.1312668E+00
        -11   -1    0    0    0    0  0.00000000000E+00  0.00000000000E+00  0.45593999997E+02  0.45594000000E+02  0.51100000000E-03 0. -1.
         11   -1    0    0    0    0 -0.00000000000E+00 -0.00000000000E+00 -0.45593999997E+02  0.45594000000E+02  0.51100000000E-03 0.  1.
    9900012    2    1    2    0    0  0.14875350678E+02  0.32735271750E+02 -0.24305336318E+02  0.47787269040E+02  0.19999990859E+02 0.  0.
         12    1    1    2    0    0 -0.14875350678E+02 -0.32735271750E+02  0.24305336318E+02  0.43400730960E+02  0.00000000000E+00 0. -1.
         11    1    3    3    0    0  0.17994670401E+01 -0.52664173606E+00 -0.73816559162E+00  0.20150240317E+01  0.51100000000E-03 0. -1.
        -11    1    3    3    0    0  0.10104510457E+02  0.24090221628E+02 -0.77508282728E+01  0.27249132993E+02  0.51100000000E-03 0.  1.
        -12    1    3    3    0    0  0.29713731818E+01  0.91716918576E+01 -0.15816342454E+02  0.18523112015E+02  0.00000000000E+00 0.  1.
</event>
<event>
 7    1  0.2769403E-010  0.4778726E+02  0.7816164E-02  0.1312668E+00
        -11   -1    0    0    0    0  0.00000000000E+00  0.00000000000E+00  0.45593999997E+02  0.45594000000E+02  0.51100000000E-03 0.  1.
         11   -1    0    0    0    0 -0.00000000000E+00 -0.00000000000E+00 -0.45593999997E+02  0.45594000000E+02  0.51100000000E-03 0. -1.
    9900012    2    1    2    0    0 -0.26706250148E+02  0.30001519687E+02  0.16441072371E+02  0.47787264508E+02  0.19999970199E+02 0.  0.
         12    1    1    2    0    0  0.26706250148E+02 -0.30001519687E+02 -0.16441072371E+02  0.43400735492E+02  0.00000000000E+00 0. -1.
         11    1    3    3    0    0 -0.92235796833E+01  0.16316693265E+02  0.37079394851E+01  0.19106483631E+02  0.51100000000E-03 0. -1.
        -11    1    3    3    0    0 -0.11018834511E+02  0.14275265002E+02  0.52648291837E+01  0.18786067483E+02  0.51100000000E-03 0.  1.
         12    1    3    3    0    0 -0.64638359545E+01 -0.59043858041E+00  0.74683037024E+01  0.98947133943E+01  0.00000000000E+00 0. -1.
</event>
<event>
 7    1  0.2769403E-010  0.4778727E+02  0.7816164E-02  0.1312668E+00
        -11   -1    0    0    0    0  0.00000000000E+00  0.00000000000E+00  0.45593999997E+02  0.45594000000E+02  0.51100000000E-03 0.  1.
         11   -1    0    0    0    0 -0.00000000000E+00 -0.00000000000E+00 -0.45593999997E+02  0.45594000000E+02  0.51100000000E-03 0. -1.
    9900012    2    1    2    0    0 -0.21169420796E+02  0.33035472313E+02  0.18550914975E+02  0.47787271271E+02  0.20000001034E+02 0.  0.
         12    1    1    2    0    0  0.21169420796E+02 -0.33035472313E+02 -0.18550914975E+02  0.43400728729E+02  0.00000000000E+00 0. -1.
         11    1    3    3    0    0  0.44100469046E+00  0.15718602486E+02  0.45937772537E+01  0.16382055395E+02  0.51100000000E-03 0. -1.
        -11    1    3    3    0    0  0.10881223864E+00  0.47228434992E+00  0.79365708065E+00  0.92993786526E+00  0.51100000000E-03 0.  1.
        -12    1    3    3    0    0 -0.21719237725E+02  0.16844585476E+02  0.13163480641E+02  0.30475278011E+02  0.00000000000E+00 0.  1.
</event>
<event>
 7    1  0.2769403E-010  0.4778727E+02  0.7816164E-02  0.1312668E+00
        -11   -1    0    0    0    0  0.00000000000E+00  0.00000000000E+00  0.45593999997E+02  0.45594000000E+02  0.51100000000E-03 0.  1.
         11   -1    0    0    0    0 -0.00000000000E+00 -0.00000000000E+00 -0.45593999997E+02  0.45594000000E+02  0.51100000000E-03 0. -1.
    9900012    2    1    2    0    0  0.19339309187E+01  0.38571249847E+02  0.19802574254E+02  0.47787270160E+02  0.19999995968E+02 0.  0.
         12    1    1    2    0    0 -0.19339309187E+01 -0.38571249847E+02 -0.19802574254E+02  0.43400729840E+02  0.00000000000E+00 0. -1.
         11    1    3    3    0    0  0.39236646772E+00  0.78057089402E+00 -0.27063933814E+00  0.91459733110E+00  0.51100000000E-03 0. -1.
        -11    1    3    3    0    0  0.62806059765E+01  0.31854332699E+02  0.21768538263E+02  0.39089816852E+02  0.51100000000E-03 0.  1.
        -12    1    3    3    0    0 -0.47390415256E+01  0.59363462536E+01 -0.16953246706E+01  0.77828559772E+01  0.00000000000E+00 0.  1.
</event>
<event>
 7    1  0.2769403E-010  0.4778727E+02  0.7816164E-02  0.1312668E+00
        -11   -1    0    0    0    0  0.00000000000E+00  0.00000000000E+00  0.45593999997E+02  0.45594000000E+02  0.51100000000E-03 0.  1.
         11   -1    0    0    0    0 -0.00000000000E+00 -0.00000000000E+00 -0.45593999997E+02  0.45594000000E+02  0.51100000000E-03 0. -1.
    9900012    2    1    2    0    0  0.28410045026E+02  0.93858033670E+01  0.31438820734E+02  0.47787269449E+02  0.19999992726E+02 0.  0.
         12    1    1    2    0    0 -0.28410045026E+02 -0.93858033670E+01 -0.31438820734E+02  0.43400730551E+02  0.00000000000E+00 0. -1.
         11    1    3    3    0    0 -0.12651348547E+00 -0.22515713394E+01  0.41203179551E+01  0.46970841456E+01  0.51100000000E-03 0. -1.
        -11    1    3    3    0    0  0.16381268154E+01  0.28377005513E+01 -0.60547976665E+00  0.33320579063E+01  0.51100000000E-03 0.  1.
        -12    1    3    3    0    0  0.26898431696E+02  0.87996741552E+01  0.27923982545E+02  0.39758127397E+02  0.00000000000E+00 0.  1.
</event>
<event>
 7    1  0.2769403E-010  0.4778727E+02  0.7816164E-02  0.1312668E+00
        -11   -1    0    0    0    0  0.00000000000E+00  0.00000000000E+00  0.45593999997E+02  0.45594000000E+02  0.51100000000E-03 0. -1.
         11   -1    0    0    0    0 -0.00000000000E+00 -0.00000000000E+00 -0.45593999997E+02  0.45594000000E+02  0.51100000000E-03 0.  1.
    9900012    2    1    2    0    0 -0.29434248367E+01 -0.14382376888E+02 -0.40842459012E+02  0.47787274512E+02  0.20000015809E+02 0.  0.
         12    1    1    2    0    0  0.29434248367E+01  0.14382376888E+02  0.40842459012E+02  0.43400725488E+02  0.00000000000E+00 0. -1.
         11    1    3    3    0    0  0.35416536947E+01  0.74077012148E+00 -0.37109426848E+01  0.51829670206E+01  0.51100000000E-03 0. -1.
        -11    1    3    3    0    0 -0.26557178348E+00 -0.24642570632E+01 -0.21126789504E+02  0.21271678971E+02  0.51100000000E-03 0.  1.
         12    1    3    3    0    0 -0.62195067479E+01 -0.12658889947E+02 -0.16004726823E+02  0.21332628520E+02  0.00000000000E+00 0. -1.
</event>
<event>
 7    1  0.2769403E-010  0.4778727E+02  0.7816164E-02  0.1312668E+00
        -11   -1    0    0    0    0  0.00000000000E+00  0.00000000000E+00  0.45593999997E+02  0.45594000000E+02  0.51100000000E-03 0.  1.
         11   -1    0    0    0    0 -0.00000000000E+00 -0.00000000000E+00 -0.45593999997E+02  0.45594000000E+02  0.51100000000E-03 0. -1.
    9900012    2    1    2    0    0 -0.66767155620E+01  0.73237451687E+01  0.42254080092E+02  0.47787273527E+02  0.20000011317E+02 0.  0.
         12    1    1    2    0    0  0.66767155620E+01 -0.73237451687E+01 -0.42254080092E+02  0.43400726473E+02  0.00000000000E+00 0. -1.
         11    1    3    3    0    0  0.20897010789E+01 -0.90168057009E+00  0.30363847476E+01  0.37946687663E+01  0.51100000000E-03 0. -1.
        -11    1    3    3    0    0 -0.32923398783E+01 -0.31431231644E+01  0.25560043915E+01  0.52203336878E+01  0.51100000000E-03 0.  1.
        -12    1    3    3    0    0 -0.54740767626E+01  0.11368548903E+02  0.36661690953E+02  0.38772271072E+02  0.00000000000E+00 0.  1.
</event>
<event>
 7    1  0.2769403E-010  0.4778728E+02  0.7816164E-02  0.1312668E+00
        -11   -1    0    0    0    0  0.00000000000E+00  0.00000000000E+00  0.45593999997E+02  0.45594000000E+02  0.51100000000E-03 0.  1.
         11   -1    0    0    0    0 -0.00000000000E+00 -0.00000000000E+00 -0.45593999997E+02  0.45594000000E+02  0.51100000000E-03 0. -1.
    9900012    2    1    2    0    0 -0.45219655490E+01 -0.37133192622E+02 -0.22006831370E+02  0.47787276576E+02  0.20000025221E+02 0.  0.
         12    1    1    2    0    0  0.45219655490E+01  0.37133192622E+02  0.22006831370E+02  0.43400723424E+02  0.00000000000E+00 0. -1.
         11    1    3    3    0    0  0.18123070062E+01  0.66402880855E-01 -0.25691965852E+01  0.31447793852E+01  0.51100000000E-03 0. -1.
        -11    1    3    3    0    0  0.22670170490E+01 -0.22664041803E+01  0.88135544882E+00  0.33245664225E+01  0.51100000000E-03 0.  1.
         12    1    3    3    0    0 -0.86012896043E+01 -0.34933191323E+02 -0.20318990234E+02  0.41317930768E+02  0.00000000000E+00 0. -1.
</event>
<event>
 7    1  0.2769403E-010  0.4778729E+02  0.7816164E-02  0.1312668E+00
        -11   -1    0    0    0    0  0.00000000000E+00  0.00000000000E+00  0.45593999997E+02  0.45594000000E+02  0.51100000000E-03 0. -1.
         11   -1    0    0    0    0 -0.00000000000E+00 -0.00000000000E+00 -0.45593999997E+02  0.45594000000E+02  0.51100000000E-03 0.  1.
    9900012    2    1    2    0    0 -0.36532043399E+02 -0.12357847340E+02  0.19907672678E+02  0.47787285521E+02  0.20000066006E+02 0.  0.
         12    1    1    2    0    0  0.36532043399E+02  0.12357847340E+02 -0.19907672678E+02  0.43400714479E+02  0.00000000000E+00 0. -1.
         11    1    3    3    0    0 -0.21206842527E+01  0.12903816239E+01  0.44336972794E+00  0.25216985173E+01  0.51100000000E-03 0. -1.
        -11    1    3    3    0    0 -0.30628344152E+02 -0.46892707852E+01  0.13083703132E+02  0.33634327909E+02  0.51100000000E-03 0.  1.
         12    1    3    3    0    0 -0.37830149948E+01 -0.89589581792E+01  0.63805998183E+01  0.11631259096E+02  0.00000000000E+00 0. -1.
</event>
<event>
 7    1  0.2769403E-010  0.4778727E+02  0.7816164E-02  0.1312668E+00
        -11   -1    0    0    0    0  0.00000000000E+00  0.00000000000E+00  0.45593999997E+02  0.45594000000E+02  0.51100000000E-03 0.  1.
         11   -1    0    0    0    0 -0.00000000000E+00 -0.00000000000E+00 -0.45593999997E+02  0.45594000000E+02  0.51100000000E-03 0. -1.
    9900012    2    1    2    0    0 -0.16991401423E+02 -0.20557268580E+02  0.34239074571E+02  0.47787271420E+02  0.20000001711E+02 0.  0.
         12    1    1    2    0    0  0.16991401423E+02  0.20557268580E+02 -0.34239074571E+02  0.43400728580E+02  0.00000000000E+00 0. -1.
         11    1    3    3    0    0 -0.52031765596E+01 -0.13980134508E+02  0.20875172143E+02  0.25657163121E+02  0.51100000000E-03 0. -1.
        -11    1    3    3    0    0 -0.11819259421E+02 -0.59716790753E+01  0.15221855983E+02  0.20175746431E+02  0.51100000000E-03 0.  1.
         12    1    3    3    0    0  0.31034557040E-01 -0.60545499701E+00 -0.18579535546E+01  0.19543618673E+01  0.00000000000E+00 0. -1.
</event>
<event>
 7    1  0.2769403E-010  0.4778729E+02  0.7816164E-02  0.1312668E+00
        -11   -1    0    0    0    0  0.00000000000E+00  0.00000000000E+00  0.45593999997E+02  0.45594000000E+02  0.51100000000E-03 0.  1.
         11   -1    0    0    0    0 -0.00000000000E+00 -0.00000000000E+00 -0.45593999997E+02  0.45594000000E+02  0.51100000000E-03 0. -1.
    9900012    2    1    2    0    0  0.11666148950E+02 -0.24976938984E+02  0.33521267701E+02  0.47787286865E+02  0.20000072131E+02 0.  0.
         12    1    1    2    0    0 -0.11666148950E+02  0.24976938984E+02 -0.33521267701E+02  0.43400713135E+02  0.00000000000E+00 0. -1.
         11    1    3    3    0    0  0.85458049637E+01 -0.38533642229E+01  0.40129409116E+01  0.10197200269E+02  0.51100000000E-03 0. -1.
        -11    1    3    3    0    0  0.13605127829E+01 -0.63548835881E+00 -0.14039371400E+00  0.15081615108E+01  0.51100000000E-03 0.  1.
        -12    1    3    3    0    0  0.17598312032E+01 -0.20488086403E+02  0.29648720504E+02  0.36081925085E+02  0.00000000000E+00 0.  1.
</event>
<event>
 7    1  0.2769403E-010  0.4778727E+02  0.7816164E-02  0.1312668E+00
        -11   -1    0    0    0    0  0.00000000000E+00  0.00000000000E+00  0.45593999997E+02  0.45594000000E+02  0.51100000000E-03 0.  1.
         11   -1    0    0    0    0 -0.00000000000E+00 -0.00000000000E+00 -0.45593999997E+02  0.45594000000E+02  0.51100000000E-03 0. -1.
    9900012    2    1    2    0    0  0.25127133332E+02 -0.29064251263E+02  0.20187128109E+02  0.47787266455E+02  0.19999979075E+02 0.  0.
         12    1    1    2    0    0 -0.25127133332E+02  0.29064251263E+02 -0.20187128109E+02  0.43400733545E+02  0.00000000000E+00 0. -1.
         11    1    3    3    0    0 -0.65755479171E+00 -0.79248258243E+01  0.26535414769E+01  0.83831095233E+01  0.51100000000E-03 0. -1.
        -11    1    3    3    0    0  0.10642448872E+02 -0.15394165718E+02  0.12254488486E+02  0.22369947351E+02  0.51100000000E-03 0.  1.
        -12    1    3    3    0    0  0.15142239252E+02 -0.57452597203E+01  0.52790981456E+01  0.17034209581E+02  0.00000000000E+00 0.  1.
</event>
<event>
 7    1  0.2769403E-010  0.4778727E+02  0.7816164E-02  0.1312668E+00
        -11   -1    0    0    0    0  0.00000000000E+00  0.00000000000E+00  0.45593999997E+02  0.45594000000E+02  0.51100000000E-03 0.  1.
         11   -1    0    0    0    0 -0.00000000000E+00 -0.00000000000E+00 -0.45593999997E+02  0.45594000000E+02  0.51100000000E-03 0. -1.
    9900012    2    1    2    0    0  0.40810757906E+02 -0.69940562749E+01  0.13007241156E+02  0.47787272973E+02  0.20000008791E+02 0.  0.
         12    1    1    2    0    0 -0.40810757906E+02  0.69940562749E+01 -0.13007241156E+02  0.43400727027E+02  0.00000000000E+00 0. -1.
         11    1    3    3    0    0  0.62125206872E+01 -0.32178093721E+01  0.27349451783E+01  0.75119661763E+01  0.51100000000E-03 0. -1.
        -11    1    3    3    0    0  0.17952314784E+02 -0.36444973878E+01  0.14192901898E+02  0.23173399230E+02  0.51100000000E-03 0.  1.
         12    1    3    3    0    0  0.16645922434E+02 -0.13174951493E+00 -0.39206059203E+01  0.17101907566E+02  0.00000000000E+00 0. -1.
</event>
<event>
 7    1  0.2769403E-010  0.4778728E+02  0.7816164E-02  0.1312668E+00
        -11   -1    0    0    0    0  0.00000000000E+00  0.00000000000E+00  0.45593999997E+02  0.45594000000E+02  0.51100000000E-03 0.  1.
         11   -1    0    0    0    0 -0.00000000000E+00 -0.00000000000E+00 -0.45593999997E+02  0.45594000000E+02  0.51100000000E-03 0. -1.
    9900012    2    1    2    0    0  0.10839094696E+01  0.11330132740E+02  0.41881689919E+02  0.47787277447E+02  0.20000029194E+02 0.  0.
         12    1    1    2    0    0 -0.10839094696E+01 -0.11330132740E+02 -0.41881689919E+02  0.43400722553E+02  0.00000000000E+00 0. -1.
         11    1    3    3    0    0  0.57574055516E+00 -0.60515156767E+00 -0.12673314352E+01  0.15178322814E+01  0.51100000000E-03 0. -1.
        -11    1    3    3    0    0 -0.41275499667E+01  0.96506022405E+00  0.17253426791E+02  0.17766506305E+02  0.51100000000E-03 0.  1.
         12    1    3    3    0    0  0.46357188812E+01  0.10970224084E+02  0.25895594562E+02  0.28502938861E+02  0.00000000000E+00 0. -1.
</event>
<event>
 7    1  0.2769403E-010  0.4778727E+02  0.7816164E-02  0.1312668E+00
        -11   -1    0    0    0    0  0.00000000000E+00  0.00000000000E+00  0.45593999997E+02  0.45594000000E+02  0.51100000000E-03 0.  1.
         11   -1    0    0    0    0 -0.00000000000E+00 -0.00000000000E+00 -0.45593999997E+02  0.45594000000E+02  0.51100000000E-03 0. -1.
    9900012    2    1    2    0    0 -0.42675693740E+02 -0.70922496794E+01 -0.34796754043E+01  0.47787274399E+02  0.20000015297E+02 0.  0.
         12    1    1    2    0    0  0.42675693740E+02  0.70922496794E+01  0.34796754043E+01  0.43400725601E+02  0.00000000000E+00 0. -1.
         11    1    3    3    0    0 -0.41481283388E+01 -0.28596528119E+01  0.11193985078E+01  0.51611661667E+01  0.51100000000E-03 0. -1.
        -11    1    3    3    0    0 -0.23958415046E+02 -0.59164206213E+01 -0.10497840573E+02  0.26818171852E+02  0.51100000000E-03 0.  1.
         12    1    3    3    0    0 -0.14569150355E+02  0.16838237538E+01  0.58987666613E+01  0.15807936381E+02  0.00000000000E+00 0. -1.
</event>
<event>
 7    1  0.2769403E-010  0.4778727E+02  0.7816164E-02  0.1312668E+00
        -11   -1    0    0    0    0  0.00000000000E+00  0.00000000000E+00  0.45593999997E+02  0.45594000000E+02  0.51100000000E-03 0.  1.
         11   -1    0    0    0    0 -0.00000000000E+00 -0.00000000000E+00 -0.45593999997E+02  0.45594000000E+02  0.51100000000E-03 0. -1.
    9900012    2    1    2    0    0  0.14633218695E+02  0.39225273696E+02  0.11439851719E+02  0.47787269669E+02  0.19999993730E+02 0.  0.
         12    1    1    2    0    0 -0.14633218695E+02 -0.39225273696E+02 -0.11439851719E+02  0.43400730331E+02  0.00000000000E+00 0. -1.
         11    1    3    3    0    0  0.10892705629E-01  0.72994414515E+01 -0.28553219221E+01  0.78380372348E+01  0.51100000000E-03 0. -1.
        -11    1    3    3    0    0  0.39423057710E+01  0.34938966570E+00  0.12014059893E+01  0.41360880725E+01  0.51100000000E-03 0.  1.
        -12    1    3    3    0    0  0.10680020218E+02  0.31576442579E+02  0.13093767651E+02  0.35813144362E+02  0.00000000000E+00 0.  1.
</event>
<event>
 7    1  0.2769403E-010  0.4778727E+02  0.7816164E-02  0.1312668E+00
        -11   -1    0    0    0    0  0.00000000000E+00  0.00000000000E+00  0.45593999997E+02  0.45594000000E+02  0.51100000000E-03 0. -1.
         11   -1    0    0    0    0 -0.00000000000E+00 -0.00000000000E+00 -0.45593999997E+02  0.45594000000E+02  0.51100000000E-03 0.  1.
    9900012    2    1    2    0    0 -0.56574817731E+01  0.43020523606E+02  0.92236969937E+00  0.47787270545E+02  0.19999997724E+02 0.  0.
         12    1    1    2    0    0  0.56574817731E+01 -0.43020523606E+02 -0.92236969937E+00  0.43400729455E+02  0.00000000000E+00 0. -1.
         11    1    3    3    0    0 -0.20231339999E+01  0.18725326309E+02  0.26157587851E+01  0.19015075883E+02  0.51100000000E-03 0. -1.
        -11    1    3    3    0    0 -0.64494974252E+01  0.22328183228E+02  0.24737369159E+01  0.23372273272E+02  0.51100000000E-03 0.  1.
         12    1    3    3    0    0  0.28151496519E+01  0.19670140695E+01 -0.41671260016E+01  0.53999213907E+01  0.00000000000E+00 0. -1.
</event>
<event>
 7    1  0.2769403E-010  0.4778727E+02  0.7816164E-02  0.1312668E+00
        -11   -1    0    0    0    0  0.00000000000E+00  0.00000000000E+00  0.45593999997E+02  0.45594000000E+02  0.51100000000E-03 0. -1.
         11   -1    0    0    0    0 -0.00000000000E+00 -0.00000000000E+00 -0.45593999997E+02  0.45594000000E+02  0.51100000000E-03 0.  1.
    9900012    2    1    2    0    0  0.48462264157E+01 -0.35468069666E+02  0.24538813900E+02  0.47787271159E+02  0.20000000521E+02 0.  0.
         12    1    1    2    0    0 -0.48462264157E+01  0.35468069666E+02 -0.24538813900E+02  0.43400728841E+02  0.00000000000E+00 0. -1.
         11    1    3    3    0    0 -0.10780376357E+01 -0.40461144119E+01  0.10523821007E+02  0.11326253389E+02  0.51100000000E-03 0. -1.
        -11    1    3    3    0    0 -0.30601074323E+01 -0.72564306935E+01  0.34847664589E+01  0.86118314801E+01  0.51100000000E-03 0.  1.
         12    1    3    3    0    0  0.89843714837E+01 -0.24165524561E+02  0.10530226435E+02  0.27849186290E+02  0.00000000000E+00 0. -1.
</event>
<event>
 7    1  0.2769403E-010  0.4778727E+02  0.7816164E-02  0.1312668E+00
        -11   -1    0    0    0    0  0.00000000000E+00  0.00000000000E+00  0.45593999997E+02  0.45594000000E+02  0.51100000000E-03 0.  1.
         11   -1    0    0    0    0 -0.00000000000E+00 -0.00000000000E+00 -0.45593999997E+02  0.45594000000E+02  0.51100000000E-03 0. -1.
    9900012    2    1    2    0    0  0.28393010507E+02  0.24150046762E+02  0.22231403949E+02  0.47787272750E+02  0.20000007778E+02 0.  0.
         12    1    1    2    0    0 -0.28393010507E+02 -0.24150046762E+02 -0.22231403949E+02  0.43400727250E+02  0.00000000000E+00 0. -1.
         11    1    3    3    0    0  0.15736057766E+02  0.24918026782E+02  0.13862482209E+02  0.32568389367E+02  0.51100000000E-03 0. -1.
        -11    1    3    3    0    0  0.29334502846E+01  0.13890133050E+00  0.21767203826E+01  0.36554802745E+01  0.51100000000E-03 0.  1.
         12    1    3    3    0    0  0.97235024570E+01 -0.90688135060E+00  0.61922013569E+01  0.11563403109E+02  0.00000000000E+00 0. -1.
</event>
<event>
 7    1  0.2769403E-010  0.4778726E+02  0.7816164E-02  0.1312668E+00
        -11   -1    0    0    0    0  0.00000000000E+00  0.00000000000E+00  0.45593999997E+02  0.45594000000E+02  0.51100000000E-03 0.  1.
         11   -1    0    0    0    0 -0.00000000000E+00 -0.00000000000E+00 -0.45593999997E+02  0.45594000000E+02  0.51100000000E-03 0. -1.
    9900012    2    1    2    0    0 -0.22587027932E+02  0.48977197316E+01  0.36735030860E+02  0.47787262890E+02  0.19999962823E+02 0.  0.
         12    1    1    2    0    0  0.22587027932E+02 -0.48977197316E+01 -0.36735030860E+02  0.43400737110E+02  0.00000000000E+00 0. -1.
         11    1    3    3    0    0 -0.21328737844E+01  0.60350142833E+01  0.11299105202E+02  0.12986159040E+02  0.51100000000E-03 0. -1.
        -11    1    3    3    0    0  0.95644040603E+00  0.12480332378E+01  0.44759159133E+01  0.47440687955E+01  0.51100000000E-03 0.  1.
        -12    1    3    3    0    0 -0.21410594554E+02 -0.23853277895E+01  0.20960009744E+02  0.30057035055E+02  0.00000000000E+00 0.  1.
</event>
<event>
 7    1  0.2769403E-010  0.4778727E+02  0.7816164E-02  0.1312668E+00
        -11   -1    0    0    0    0  0.00000000000E+00  0.00000000000E+00  0.45593999997E+02  0.45594000000E+02  0.51100000000E-03 0.  1.
         11   -1    0    0    0    0 -0.00000000000E+00 -0.00000000000E+00 -0.45593999997E+02  0.45594000000E+02  0.51100000000E-03 0. -1.
    9900012    2    1    2    0    0  0.19341066185E+02 -0.83840537165E+01  0.37937500677E+02  0.47787272407E+02  0.20000006215E+02 0.  0.
         12    1    1    2    0    0 -0.19341066185E+02  0.83840537165E+01 -0.37937500677E+02  0.43400727593E+02  0.00000000000E+00 0. -1.
         11    1    3    3    0    0  0.31078920999E+01 -0.68155127529E+01  0.74657120591E+01  0.10575777239E+02  0.51100000000E-03 0. -1.
        -11    1    3    3    0    0 -0.13423945607E+01 -0.26370726855E+01  0.88234816727E+01  0.93064496235E+01  0.51100000000E-03 0.  1.
         12    1    3    3    0    0  0.17575568646E+02  0.10685317219E+01  0.21648306946E+02  0.27905045545E+02  0.00000000000E+00 0. -1.
</event>
<event>
 7    1  0.2769403E-010  0.4778727E+02  0.7816164E-02  0.1312668E+00
        -11   -1    0    0    0    0  0.00000000000E+00  0.00000000000E+00  0.45593999997E+02  0.45594000000E+02  0.51100000000E-03 0.  1.
         11   -1    0    0    0    0 -0.00000000000E+00 -0.00000000000E+00 -0.45593999997E+02  0.45594000000E+02  0.51100000000E-03 0. -1.
    9900012    2    1    2    0    0 -0.17845199237E+02  0.14102697594E+02  0.36963305331E+02  0.47787272400E+02  0.20000006179E+02 0.  0.
         12    1    1    2    0    0  0.17845199237E+02 -0.14102697594E+02 -0.36963305331E+02  0.43400727600E+02  0.00000000000E+00 0. -1.
         11    1    3    3    0    0 -0.37565985105E+01  0.10540051788E+02  0.12031917429E+02  0.16430817427E+02  0.51100000000E-03 0.  1.
        -11    1    3    3    0    0  0.18062272283E+01 -0.10327492768E+01  0.52313095972E+01  0.56298870532E+01  0.51100000000E-03 0. -1.
         12    1    3    3    0    0 -0.15894827954E+02  0.45953950835E+01  0.19700078305E+02  0.25726567919E+02  0.00000000000E+00 0. -1.
</event>
<event>
 7    1  0.2769403E-010  0.4778727E+02  0.7816164E-02  0.1312668E+00
        -11   -1    0    0    0    0  0.00000000000E+00  0.00000000000E+00  0.45593999997E+02  0.45594000000E+02  0.51100000000E-03 0.  1.
         11   -1    0    0    0    0 -0.00000000000E+00 -0.00000000000E+00 -0.45593999997E+02  0.45594000000E+02  0.51100000000E-03 0. -1.
    9900012    2    1    2    0    0 -0.42399975151E+02 -0.56131861275E+01  0.73727454364E+01  0.47787272741E+02  0.20000007737E+02 0.  0.
         12    1    1    2    0    0  0.42399975151E+02  0.56131861275E+01 -0.73727454364E+01  0.43400727259E+02  0.00000000000E+00 0. -1.
         11    1    3    3    0    0 -0.25436987499E+02 -0.19238503198E+01  0.86165665473E+01  0.26925578032E+02  0.51100000000E-03 0. -1.
        -11    1    3    3    0    0 -0.89121535426E+01 -0.63597378194E+01  0.30348658446E+01  0.11361476878E+02  0.51100000000E-03 0.  1.
         12    1    3    3    0    0 -0.80508341098E+01  0.26704020116E+01 -0.42786869555E+01  0.95002178307E+01  0.00000000000E+00 0. -1.
</event>
<event>
 7    1  0.2769403E-010  0.4778726E+02  0.7816164E-02  0.1312668E+00
        -11   -1    0    0    0    0  0.00000000000E+00  0.00000000000E+00  0.45593999997E+02  0.45594000000E+02  0.51100000000E-03 0.  1.
         11   -1    0    0    0    0 -0.00000000000E+00 -0.00000000000E+00 -0.45593999997E+02  0.45594000000E+02  0.51100000000E-03 0. -1.
    9900012    2    1    2    0    0 -0.25446907056E+01 -0.17381389072E+02  0.39686725536E+02  0.47787258985E+02  0.19999945018E+02 0.  0.
         12    1    1    2    0    0  0.25446907056E+01  0.17381389072E+02 -0.39686725536E+02  0.43400741015E+02  0.00000000000E+00 0. -1.
         11    1    3    3    0    0 -0.28919700106E+00 -0.90436869348E+01  0.75730658781E+01  0.11799289611E+02  0.51100000000E-03 0. -1.
        -11    1    3    3    0    0 -0.67425533183E+01 -0.93237842235E+01  0.24984878657E+02  0.27507074349E+02  0.51100000000E-03 0.  1.
        -12    1    3    3    0    0  0.44870596138E+01  0.98608208627E+00  0.71287810010E+01  0.84808950246E+01  0.00000000000E+00 0.  1.
</event>
<event>
 7    1  0.2769403E-010  0.4778728E+02  0.7816164E-02  0.1312668E+00
        -11   -1    0    0    0    0  0.00000000000E+00  0.00000000000E+00  0.45593999997E+02  0.45594000000E+02  0.51100000000E-03 0.  1.
         11   -1    0    0    0    0 -0.00000000000E+00 -0.00000000000E+00 -0.45593999997E+02  0.45594000000E+02  0.51100000000E-03 0. -1.
    9900012    2    1    2    0    0 -0.22648366247E+02  0.35728327499E+02  0.97036484482E+01  0.47787277970E+02  0.20000031576E+02 0.  0.
         12    1    1    2    0    0  0.22648366247E+02 -0.35728327499E+02 -0.97036484482E+01  0.43400722030E+02  0.00000000000E+00 0. -1.
         11    1    3    3    0    0 -0.28602133782E+01  0.22984600118E+02  0.48401978208E+01  0.23662209922E+02  0.51100000000E-03 0. -1.
        -11    1    3    3    0    0 -0.77751079157E+01  0.38152391350E+01  0.19073355734E+01  0.88682739024E+01  0.51100000000E-03 0.  1.
         12    1    3    3    0    0 -0.12013044953E+02  0.89284882459E+01  0.29561150540E+01  0.15256794146E+02  0.00000000000E+00 0. -1.
</event>
<event>
 7    1  0.2769403E-010  0.4778727E+02  0.7816164E-02  0.1312668E+00
        -11   -1    0    0    0    0  0.00000000000E+00  0.00000000000E+00  0.45593999997E+02  0.45594000000E+02  0.51100000000E-03 0.  1.
         11   -1    0    0    0    0 -0.00000000000E+00 -0.00000000000E+00 -0.45593999997E+02  0.45594000000E+02  0.51100000000E-03 0. -1.
    9900012    2    1    2    0    0 -0.77602581952E+01  0.63782193789E+01  0.42222274215E+02  0.47787265794E+02  0.19999976063E+02 0.  0.
         12    1    1    2    0    0  0.77602581952E+01 -0.63782193789E+01 -0.42222274215E+02  0.43400734206E+02  0.00000000000E+00 0. -1.
         11    1    3    3    0    0 -0.39843752360E+01 -0.49594137870E+00  0.15231799583E+01  0.42943313005E+01  0.51100000000E-03 0. -1.
        -11    1    3    3    0    0  0.10605763773E+01 -0.20475056991E+00 -0.65249938935E+00  0.12619432484E+01  0.51100000000E-03 0.  1.
        -12    1    3    3    0    0 -0.48364593366E+01  0.70789113275E+01  0.41351593646E+02  0.42230991245E+02  0.00000000000E+00 0.  1.
</event>
<event>
 7    1  0.2769403E-010  0.4778727E+02  0.7816164E-02  0.1312668E+00
        -11   -1    0    0    0    0  0.00000000000E+00  0.00000000000E+00  0.45593999997E+02  0.45594000000E+02  0.51100000000E-03 0. -1.
         11   -1    0    0    0    0 -0.00000000000E+00 -0.00000000000E+00 -0.45593999997E+02  0.45594000000E+02  0.51100000000E-03 0.  1.
    9900012    2    1    2    0    0  0.36804289195E+02  0.19221433806E+02 -0.12633446098E+02  0.47787272114E+02  0.20000004878E+02 0.  0.
         12    1    1    2    0    0 -0.36804289195E+02 -0.19221433806E+02  0.12633446098E+02  0.43400727886E+02  0.00000000000E+00 0. -1.
         11    1    3    3    0    0  0.13998039370E+02  0.33180724249E+01 -0.25015020415E+01  0.14601788368E+02  0.51100000000E-03 0. -1.
        -11    1    3    3    0    0  0.16418760894E+02  0.29079410986E+01 -0.26406202713E+01  0.16882082407E+02  0.51100000000E-03 0.  1.
         12    1    3    3    0    0  0.63874889310E+01  0.12995420283E+02 -0.74913237849E+01  0.16303401339E+02  0.00000000000E+00 0. -1.
</event>
<event>
 7    1  0.2769403E-010  0.4778727E+02  0.7816164E-02  0.1312668E+00
        -11   -1    0    0    0    0  0.00000000000E+00  0.00000000000E+00  0.45593999997E+02  0.45594000000E+02  0.51100000000E-03 0.  1.
         11   -1    0    0    0    0 -0.00000000000E+00 -0.00000000000E+00 -0.45593999997E+02  0.45594000000E+02  0.51100000000E-03 0. -1.
    9900012    2    1    2    0    0 -0.50187174383E+01  0.12102435173E+02  0.41375921911E+02  0.47787269870E+02  0.19999994644E+02 0.  0.
         12    1    1    2    0    0  0.50187174383E+01 -0.12102435173E+02 -0.41375921911E+02  0.43400730130E+02  0.00000000000E+00 0. -1.
         11    1    3    3    0    0  0.50803502515E+01  0.14898582050E+01  0.21094817699E+02  0.21749045270E+02  0.51100000000E-03 0. -1.
        -11    1    3    3    0    0 -0.33224984636E+01  0.65613347077E+01  0.14480701950E+02  0.16241331177E+02  0.51100000000E-03 0.  1.
         12    1    3    3    0    0 -0.67765692262E+01  0.40512422598E+01  0.58004022627E+01  0.97968934226E+01  0.00000000000E+00 0. -1.
</event>
<event>
 7    1  0.2769403E-010  0.4778728E+02  0.7816164E-02  0.1312668E+00
        -11   -1    0    0    0    0  0.00000000000E+00  0.00000000000E+00  0.45593999997E+02  0.45594000000E+02  0.51100000000E-03 0. -1.
         11   -1    0    0    0    0 -0.00000000000E+00 -0.00000000000E+00 -0.45593999997E+02  0.45594000000E+02  0.51100000000E-03 0.  1.
    9900012    2    1    2    0    0 -0.14313205230E+00  0.43018505264E+02 -0.57454429459E+01  0.47787281151E+02  0.20000046082E+02 0.  0.
         12    1    1    2    0    0  0.14313205230E+00 -0.43018505264E+02  0.57454429459E+01  0.43400718849E+02  0.00000000000E+00 0. -1.
         11    1    3    3    0    0 -0.24656810682E+01  0.15790757056E+02 -0.71783186694E+01  0.17520155557E+02  0.51100000000E-03 0.  1.
        -11    1    3    3    0    0  0.26698671699E+01  0.13662272330E+01 -0.27477877607E+01  0.40675675035E+01  0.51100000000E-03 0. -1.
        -12    1    3    3    0    0 -0.34731815397E+00  0.25861520974E+02  0.41806634842E+01  0.26199558091E+02  0.00000000000E+00 0.  1.
</event>
<event>
 7    1  0.2769403E-010  0.4778727E+02  0.7816164E-02  0.1312668E+00
        -11   -1    0    0    0    0  0.00000000000E+00  0.00000000000E+00  0.45593999997E+02  0.45594000000E+02  0.51100000000E-03 0. -1.
         11   -1    0    0    0    0 -0.00000000000E+00 -0.00000000000E+00 -0.45593999997E+02  0.45594000000E+02  0.51100000000E-03 0.  1.
    9900012    2    1    2    0    0  0.37417196393E+02 -0.18187823239E+02 -0.12360420729E+02  0.47787268431E+02  0.19999988086E+02 0.  0.
         12    1    1    2    0    0 -0.37417196393E+02  0.18187823239E+02  0.12360420729E+02  0.43400731569E+02  0.00000000000E+00 0. -1.
         11    1    3    3    0    0  0.15553162855E+02 -0.25939699376E+01 -0.76976380827E+01  0.17546600444E+02  0.51100000000E-03 0. -1.
        -11    1    3    3    0    0  0.16865171532E+02 -0.69870173949E+01 -0.77317787926E+01  0.19825055522E+02  0.51100000000E-03 0.  1.
         12    1    3    3    0    0  0.49988620058E+01 -0.86068359066E+01  0.30689961464E+01  0.10415612465E+02  0.00000000000E+00 0. -1.
</event>
<event>
 7    1  0.2769403E-010  0.4778727E+02  0.7816164E-02  0.1312668E+00
        -11   -1    0    0    0    0  0.00000000000E+00  0.00000000000E+00  0.45593999997E+02  0.45594000000E+02  0.51100000000E-03 0. -1.
         11   -1    0    0    0    0 -0.00000000000E+00 -0.00000000000E+00 -0.45593999997E+02  0.45594000000E+02  0.51100000000E-03 0.  1.
    9900012    2    1    2    0    0 -0.67051837991E+01  0.24919437738E+02 -0.34895344832E+02  0.47787274684E+02  0.20000016595E+02 0.  0.
         12    1    1    2    0    0  0.67051837991E+01 -0.24919437738E+02  0.34895344832E+02  0.43400725316E+02  0.00000000000E+00 0. -1.
         11    1    3    3    0    0 -0.27477581980E+01  0.77297418265E+01 -0.10541273345E+02  0.13357302415E+02  0.51100000000E-03 0. -1.
        -11    1    3    3    0    0 -0.96190574214E+01  0.15276296890E+02 -0.20515235573E+02  0.27327026974E+02  0.51100000000E-03 0.  1.
         12    1    3    3    0    0  0.56616318203E+01  0.19133990214E+01 -0.38388359141E+01  0.71029452947E+01  0.00000000000E+00 0. -1.
</event>
<event>
 7    1  0.2769403E-010  0.4778727E+02  0.7816164E-02  0.1312668E+00
        -11   -1    0    0    0    0  0.00000000000E+00  0.00000000000E+00  0.45593999997E+02  0.45594000000E+02  0.51100000000E-03 0.  1.
         11   -1    0    0    0    0 -0.00000000000E+00 -0.00000000000E+00 -0.45593999997E+02  0.45594000000E+02  0.51100000000E-03 0. -1.
    9900012    2    1    2    0    0  0.31310121045E+01  0.38000153066E+02  0.20731814534E+02  0.47787274157E+02  0.20000014191E+02 0.  0.
         12    1    1    2    0    0 -0.31310121045E+01 -0.38000153066E+02 -0.20731814534E+02  0.43400725843E+02  0.00000000000E+00 0. -1.
         11    1    3    3    0    0 -0.21124315560E+01  0.10476987672E+02  0.54785571868E+00  0.10701858900E+02  0.51100000000E-03 0. -1.
        -11    1    3    3    0    0 -0.13487947246E+01  0.45631993798E+01 -0.13268815480E+01  0.49399039153E+01  0.51100000000E-03 0.  1.
        -12    1    3    3    0    0  0.65922383851E+01  0.22959966014E+02  0.21510840363E+02  0.32145511342E+02  0.00000000000E+00 0.  1.
</event>
<event>
 7    1  0.2769403E-010  0.4778727E+02  0.7816164E-02  0.1312668E+00
        -11   -1    0    0    0    0  0.00000000000E+00  0.00000000000E+00  0.45593999997E+02  0.45594000000E+02  0.51100000000E-03 0. -1.
         11   -1    0    0    0    0 -0.00000000000E+00 -0.00000000000E+00 -0.45593999997E+02  0.45594000000E+02  0.51100000000E-03 0.  1.
    9900012    2    1    2    0    0 -0.39546037355E+02  0.41930706053E+01 -0.17382531042E+02  0.47787270778E+02  0.19999998785E+02 0.  0.
         12    1    1    2    0    0  0.39546037355E+02 -0.41930706053E+01  0.17382531042E+02  0.43400729222E+02  0.00000000000E+00 0. -1.
         11    1    3    3    0    0 -0.77225808963E+01 -0.18652773605E+01 -0.26400223431E+01  0.83718118448E+01  0.51100000000E-03 0. -1.
        -11    1    3    3    0    0 -0.24324720829E+02  0.10055989762E+02 -0.16033387403E+02  0.30820196063E+02  0.51100000000E-03 0.  1.
        -12    1    3    3    0    0 -0.74987356295E+01 -0.39976417966E+01  0.12908787036E+01  0.85952628699E+01  0.00000000000E+00 0.  1.
</event>
<event>
 7    1  0.2769403E-010  0.4778727E+02  0.7816164E-02  0.1312668E+00
        -11   -1    0    0    0    0  0.00000000000E+00  0.00000000000E+00  0.45593999997E+02  0.45594000000E+02  0.51100000000E-03 0.  1.
         11   -1    0    0    0    0 -0.00000000000E+00 -0.00000000000E+00 -0.45593999997E+02  0.45594000000E+02  0.51100000000E-03 0. -1.
    9900012    2    1    2    0    0 -0.11035971571E+02 -0.89610154210E+01  0.41006472644E+02  0.47787271152E+02  0.20000000488E+02 0.  0.
         12    1    1    2    0    0  0.11035971571E+02  0.89610154210E+01 -0.41006472644E+02  0.43400728848E+02  0.00000000000E+00 0. -1.
         11    1    3    3    0    0  0.93243353872E+00  0.28801993453E+01  0.97612551773E+01  0.10219935590E+02  0.51100000000E-03 0. -1.
        -11    1    3    3    0    0 -0.26712361510E+01  0.21657209061E+01  0.24451885622E+01  0.42195730807E+01  0.51100000000E-03 0.  1.
        -12    1    3    3    0    0 -0.92971689582E+01 -0.14006935672E+02  0.28800028904E+02  0.33347762481E+02  0.00000000000E+00 0.  1.
</event>
<event>
 7    1  0.2769403E-010  0.4778727E+02  0.7816164E-02  0.1312668E+00
        -11   -1    0    0    0    0  0.00000000000E+00  0.00000000000E+00  0.45593999997E+02  0.45594000000E+02  0.51100000000E-03 0. -1.
         11   -1    0    0    0    0 -0.00000000000E+00 -0.00000000000E+00 -0.45593999997E+02  0.45594000000E+02  0.51100000000E-03 0.  1.
    9900012    2    1    2    0    0 -0.20386712576E+02 -0.14661353088E+01 -0.38286491591E+02  0.47787273731E+02  0.20000012247E+02 0.  0.
         12    1    1    2    0    0  0.20386712576E+02  0.14661353088E+01  0.38286491591E+02  0.43400726269E+02  0.00000000000E+00 0. -1.
         11    1    3    3    0    0 -0.76560287713E+01 -0.14920507135E+01 -0.61191342637E+01  0.99138688854E+01  0.51100000000E-03 0. -1.
        -11    1    3    3    0    0 -0.33564481049E+01 -0.72433248453E+01 -0.10746512615E+02  0.13387271281E+02  0.51100000000E-03 0.  1.
        -12    1    3    3    0    0 -0.93742357000E+01  0.72692402500E+01 -0.21420844712E+02  0.24486133564E+02  0.00000000000E+00 0.  1.
</event>
<event>
 7    1  0.2769403E-010  0.4778727E+02  0.7816164E-02  0.1312668E+00
        -11   -1    0    0    0    0  0.00000000000E+00  0.00000000000E+00  0.45593999997E+02  0.45594000000E+02  0.51100000000E-03 0.  1.
         11   -1    0    0    0    0 -0.00000000000E+00 -0.00000000000E+00 -0.45593999997E+02  0.45594000000E+02  0.51100000000E-03 0. -1.
    9900012    2    1    2    0    0  0.34202618721E+02 -0.20767529847E+01  0.26636279577E+02  0.47787269361E+02  0.19999992322E+02 0.  0.
         12    1    1    2    0    0 -0.34202618721E+02  0.20767529847E+01 -0.26636279577E+02  0.43400730639E+02  0.00000000000E+00 0. -1.
         11    1    3    3    0    0  0.69141274720E+01 -0.30042178641E+01 -0.10684264631E+01  0.76139358444E+01  0.51100000000E-03 0. -1.
        -11    1    3    3    0    0  0.98761675169E+01 -0.27554439974E+01  0.52452929921E+01  0.11517128778E+02  0.51100000000E-03 0.  1.
        -12    1    3    3    0    0  0.17412323732E+02  0.36829088768E+01  0.22459413049E+02  0.28656204739E+02  0.00000000000E+00 0.  1.
</event>
<event>
 7    1  0.2769403E-010  0.4778727E+02  0.7816164E-02  0.1312668E+00
        -11   -1    0    0    0    0  0.00000000000E+00  0.00000000000E+00  0.45593999997E+02  0.45594000000E+02  0.51100000000E-03 0. -1.
         11   -1    0    0    0    0 -0.00000000000E+00 -0.00000000000E+00 -0.45593999997E+02  0.45594000000E+02  0.51100000000E-03 0.  1.
    9900012    2    1    2    0    0  0.11072330124E+02 -0.16059020319E+02 -0.38770277984E+02  0.47787273244E+02  0.20000010027E+02 0.  0.
         12    1    1    2    0    0 -0.11072330124E+02  0.16059020319E+02  0.38770277984E+02  0.43400726756E+02  0.00000000000E+00 0. -1.
         11    1    3    3    0    0  0.43507022885E+01 -0.59743180588E+00 -0.83303691495E+01  0.94170369859E+01  0.51100000000E-03 0. -1.
        -11    1    3    3    0    0  0.23216718825E+01 -0.11907878943E+02 -0.30381318007E+02  0.32714098265E+02  0.51100000000E-03 0.  1.
         12    1    3    3    0    0  0.43999559531E+01 -0.35537095709E+01 -0.58590828239E-01  0.56561379924E+01  0.00000000000E+00 0. -1.
</event>
<event>
 7    1  0.2769403E-010  0.4778727E+02  0.7816164E-02  0.1312668E+00
        -11   -1    0    0    0    0  0.00000000000E+00  0.00000000000E+00  0.45593999997E+02  0.45594000000E+02  0.51100000000E-03 0.  1.
         11   -1    0    0    0    0 -0.00000000000E+00 -0.00000000000E+00 -0.45593999997E+02  0.45594000000E+02  0.51100000000E-03 0. -1.
    9900012    2    1    2    0    0  0.66396748226E+01 -0.31709716360E+01  0.42772454590E+02  0.47787271728E+02  0.20000003116E+02 0.  0.
         12    1    1    2    0    0 -0.66396748226E+01  0.31709716360E+01 -0.42772454590E+02  0.43400728272E+02  0.00000000000E+00 0. -1.
         11    1    3    3    0    0  0.34522391816E+01 -0.80132784636E+00  0.36206804664E+01  0.50664986909E+01  0.51100000000E-03 0. -1.
        -11    1    3    3    0    0  0.80960683209E+01 -0.57608676027E+01  0.31426050850E+02  0.32959529579E+02  0.51100000000E-03 0.  1.
         12    1    3    3    0    0 -0.49086326799E+01  0.33912238130E+01  0.77257232745E+01  0.97612434582E+01  0.00000000000E+00 0. -1.
</event>
<event>
 7    1  0.2769403E-010  0.4778727E+02  0.7816164E-02  0.1312668E+00
        -11   -1    0    0    0    0  0.00000000000E+00  0.00000000000E+00  0.45593999997E+02  0.45594000000E+02  0.51100000000E-03 0.  1.
         11   -1    0    0    0    0 -0.00000000000E+00 -0.00000000000E+00 -0.45593999997E+02  0.45594000000E+02  0.51100000000E-03 0. -1.
    9900012    2    1    2    0    0 -0.22195469108E+02  0.24060513054E+02  0.28496952239E+02  0.47787269311E+02  0.19999992098E+02 0.  0.
         12    1    1    2    0    0  0.22195469108E+02 -0.24060513054E+02 -0.28496952239E+02  0.43400730689E+02  0.00000000000E+00 0. -1.
         11    1    3    3    0    0  0.14368614010E+01 -0.89578543686E+00  0.43854055671E+00  0.17490912828E+01  0.51100000000E-03 0. -1.
        -11    1    3    3    0    0  0.10882293198E+01  0.13535734878E+00 -0.88339182902E-01  0.11001675949E+01  0.51100000000E-03 0.  1.
        -12    1    3    3    0    0 -0.24720559829E+02  0.24820941142E+02  0.28146750866E+02  0.44938010434E+02  0.00000000000E+00 0.  1.
</event>
<event>
 7    1  0.2769403E-010  0.4778726E+02  0.7816164E-02  0.1312668E+00
        -11   -1    0    0    0    0  0.00000000000E+00  0.00000000000E+00  0.45593999997E+02  0.45594000000E+02  0.51100000000E-03 0.  1.
         11   -1    0    0    0    0 -0.00000000000E+00 -0.00000000000E+00 -0.45593999997E+02  0.45594000000E+02  0.51100000000E-03 0. -1.
    9900012    2    1    2    0    0 -0.43245617328E+00 -0.41428696311E+02  0.12926736411E+02  0.47787257948E+02  0.19999940290E+02 0.  0.
         12    1    1    2    0    0  0.43245617328E+00  0.41428696311E+02 -0.12926736411E+02  0.43400742052E+02  0.00000000000E+00 0. -1.
         11    1    3    3    0    0 -0.19950706179E+00 -0.14761616478E+01 -0.15117012490E+01  0.21222858444E+01  0.51100000000E-03 0. -1.
        -11    1    3    3    0    0 -0.89612546616E+00  0.10324332576E+01 -0.11740446479E+01  0.18020378406E+01  0.51100000000E-03 0.  1.
        -12    1    3    3    0    0  0.66317635467E+00 -0.40984967921E+02  0.15612482308E+02  0.43862934263E+02  0.00000000000E+00 0.  1.
</event>
<event>
 7    1  0.2769403E-010  0.4778727E+02  0.7816164E-02  0.1312668E+00
        -11   -1    0    0    0    0  0.00000000000E+00  0.00000000000E+00  0.45593999997E+02  0.45594000000E+02  0.51100000000E-03 0. -1.
         11   -1    0    0    0    0 -0.00000000000E+00 -0.00000000000E+00 -0.45593999997E+02  0.45594000000E+02  0.51100000000E-03 0.  1.
    9900012    2    1    2    0    0 -0.49643451492E+01  0.40443422215E+02 -0.14943495543E+02  0.47787272100E+02  0.20000004811E+02 0.  0.
         12    1    1    2    0    0  0.49643451492E+01 -0.40443422215E+02  0.14943495543E+02  0.43400727900E+02  0.00000000000E+00 0. -1.
         11    1    3    3    0    0 -0.97857243169E+01  0.35250360533E+02 -0.17010764261E+02  0.40344942919E+02  0.51100000000E-03 0. -1.
        -11    1    3    3    0    0  0.49872980669E+00  0.47662202247E+00 -0.78736557059E-01  0.69433398227E+00  0.51100000000E-03 0.  1.
         12    1    3    3    0    0  0.43226493610E+01  0.47164396596E+01  0.21460052745E+01  0.67479951985E+01  0.00000000000E+00 0. -1.
</event>
<event>
 7    1  0.2769403E-010  0.4778727E+02  0.7816164E-02  0.1312668E+00
        -11   -1    0    0    0    0  0.00000000000E+00  0.00000000000E+00  0.45593999997E+02  0.45594000000E+02  0.51100000000E-03 0.  1.
         11   -1    0    0    0    0 -0.00000000000E+00 -0.00000000000E+00 -0.45593999997E+02  0.45594000000E+02  0.51100000000E-03 0. -1.
    9900012    2    1    2    0    0 -0.32014122047E+02  0.27284672392E+02  0.10689538404E+02  0.47787267411E+02  0.19999983432E+02 0.  0.
         12    1    1    2    0    0  0.32014122047E+02 -0.27284672392E+02 -0.10689538404E+02  0.43400732589E+02  0.00000000000E+00 0. -1.
         11    1    3    3    0    0  0.20399662219E+01  0.40004039072E+01  0.74766002971E+00  0.45523279087E+01  0.51100000000E-03 0. -1.
        -11    1    3    3    0    0  0.36472008098E+00  0.65859342426E+00 -0.26762655911E+00  0.79899328672E+00  0.51100000000E-03 0.  1.
        -12    1    3    3    0    0 -0.34418808350E+02  0.22625675061E+02  0.10209504933E+02  0.42435946215E+02  0.00000000000E+00 0.  1.
</event>
<event>
 7    1  0.2769403E-010  0.4778727E+02  0.7816164E-02  0.1312668E+00
        -11   -1    0    0    0    0  0.00000000000E+00  0.00000000000E+00  0.45593999997E+02  0.45594000000E+02  0.51100000000E-03 0.  1.
         11   -1    0    0    0    0 -0.00000000000E+00 -0.00000000000E+00 -0.45593999997E+02  0.45594000000E+02  0.51100000000E-03 0. -1.
    9900012    2    1    2    0    0  0.22964754844E+02  0.15788446015E+02  0.33271135747E+02  0.47787268825E+02  0.19999989879E+02 0.  0.
         12    1    1    2    0    0 -0.22964754844E+02 -0.15788446015E+02 -0.33271135747E+02  0.43400731175E+02  0.00000000000E+00 0. -1.
         11    1    3    3    0    0 -0.12516363158E+01  0.67499140215E+00  0.22471810192E+01  0.26593287977E+01  0.51100000000E-03 0. -1.
        -11    1    3    3    0    0  0.24276155018E+01  0.72990226816E+01  0.18959756772E+01  0.79223590654E+01  0.51100000000E-03 0.  1.
         12    1    3    3    0    0  0.21788775658E+02  0.78144319315E+01  0.29127979051E+02  0.37205580962E+02  0.00000000000E+00 0. -1.
</event>
<event>
 7    1  0.2769403E-010  0.4778728E+02  0.7816164E-02  0.1312668E+00
        -11   -1    0    0    0    0  0.00000000000E+00  0.00000000000E+00  0.45593999997E+02  0.45594000000E+02  0.51100000000E-03 0.  1.
         11   -1    0    0    0    0 -0.00000000000E+00 -0.00000000000E+00 -0.45593999997E+02  0.45594000000E+02  0.51100000000E-03 0. -1.
    9900012    2    1    2    0    0  0.40833353228E+02  0.88406611387E+01  0.11751693798E+02  0.47787281891E+02  0.20000049454E+02 0.  0.
         12    1    1    2    0    0 -0.40833353228E+02 -0.88406611387E+01 -0.11751693798E+02  0.43400718109E+02  0.00000000000E+00 0. -1.
         11    1    3    3    0    0  0.24127300345E+02  0.71827525298E+01  0.81752682763E+00  0.25187038457E+02  0.51100000000E-03 0.  1.
        -11    1    3    3    0    0  0.56058817534E+00  0.34088987693E+01  0.11528314488E+01  0.36419597104E+01  0.51100000000E-03 0. -1.
         12    1    3    3    0    0  0.16145464708E+02 -0.17509901604E+01  0.97813355213E+01  0.18958283724E+02  0.00000000000E+00 0. -1.
</event>
<event>
 7    1  0.2769403E-010  0.4778727E+02  0.7816164E-02  0.1312668E+00
        -11   -1    0    0    0    0  0.00000000000E+00  0.00000000000E+00  0.45593999997E+02  0.45594000000E+02  0.51100000000E-03 0. -1.
         11   -1    0    0    0    0 -0.00000000000E+00 -0.00000000000E+00 -0.45593999997E+02  0.45594000000E+02  0.51100000000E-03 0.  1.
    9900012    2    1    2    0    0 -0.10571811371E+02  0.41342342572E+02  0.79164991909E+01  0.47787269079E+02  0.19999991040E+02 0.  0.
         12    1    1    2    0    0  0.10571811371E+02 -0.41342342572E+02 -0.79164991909E+01  0.43400730921E+02  0.00000000000E+00 0. -1.
         11    1    3    3    0    0 -0.47904988561E+01  0.17297768398E+02  0.10890063811E+02  0.20994169688E+02  0.51100000000E-03 0.  1.
        -11    1    3    3    0    0 -0.30999778028E+01  0.93438203295E+01  0.35807243862E+01  0.10475611110E+02  0.51100000000E-03 0. -1.
        -12    1    3    3    0    0 -0.26813347119E+01  0.14700753845E+02 -0.65542890059E+01  0.16317488282E+02  0.00000000000E+00 0.  1.
</event>
<event>
 7    1  0.2769403E-010  0.4778728E+02  0.7816164E-02  0.1312668E+00
        -11   -1    0    0    0    0  0.00000000000E+00  0.00000000000E+00  0.45593999997E+02  0.45594000000E+02  0.51100000000E-03 0.  1.
         11   -1    0    0    0    0 -0.00000000000E+00 -0.00000000000E+00 -0.45593999997E+02  0.45594000000E+02  0.51100000000E-03 0. -1.
    9900012    2    1    2    0    0  0.29872506769E+02  0.30764209724E+02  0.66947095875E+01  0.47787281146E+02  0.20000046055E+02 0.  0.
         12    1    1    2    0    0 -0.29872506769E+02 -0.30764209724E+02 -0.66947095875E+01  0.43400718854E+02  0.00000000000E+00 0. -1.
         11    1    3    3    0    0  0.67520736280E+01  0.10572706290E+02 -0.11987908971E+01  0.12601972720E+02  0.51100000000E-03 0. -1.
        -11    1    3    3    0    0  0.10860385071E+02  0.18242791008E+02  0.16637933054E+01  0.21295905618E+02  0.51100000000E-03 0.  1.
         12    1    3    3    0    0  0.12260048070E+02  0.19487124258E+01  0.62297071793E+01  0.13889402807E+02  0.00000000000E+00 0. -1.
</event>
<event>
 7    1  0.2769403E-010  0.4778727E+02  0.7816164E-02  0.1312668E+00
        -11   -1    0    0    0    0  0.00000000000E+00  0.00000000000E+00  0.45593999997E+02  0.45594000000E+02  0.51100000000E-03 0.  1.
         11   -1    0    0    0    0 -0.00000000000E+00 -0.00000000000E+00 -0.45593999997E+02  0.45594000000E+02  0.51100000000E-03 0. -1.
    9900012    2    1    2    0    0  0.22452205063E+02 -0.35223434227E+02  0.11782676751E+02  0.47787270716E+02  0.19999998505E+02 0.  0.
         12    1    1    2    0    0 -0.22452205063E+02  0.35223434227E+02 -0.11782676751E+02  0.43400729284E+02  0.00000000000E+00 0. -1.
         11    1    3    3    0    0  0.46152699777E+01 -0.87252974029E+00 -0.20429626175E+00  0.47014638506E+01  0.51100000000E-03 0. -1.
        -11    1    3    3    0    0  0.48437724081E+01 -0.13121331568E+02 -0.26142459245E+01  0.14229046183E+02  0.51100000000E-03 0.  1.
        -12    1    3    3    0    0  0.12993162677E+02 -0.21229572919E+02  0.14601218938E+02  0.28856760683E+02  0.00000000000E+00 0.  1.
</event>
<event>
 7    1  0.2769403E-010  0.4778727E+02  0.7816164E-02  0.1312668E+00
        -11   -1    0    0    0    0  0.00000000000E+00  0.00000000000E+00  0.45593999997E+02  0.45594000000E+02  0.51100000000E-03 0. -1.
         11   -1    0    0    0    0 -0.00000000000E+00 -0.00000000000E+00 -0.45593999997E+02  0.45594000000E+02  0.51100000000E-03 0.  1.
    9900012    2    1    2    0    0 -0.33892806692E+02 -0.18768658664E+02 -0.19561143880E+02  0.47787271395E+02  0.20000001600E+02 0.  0.
         12    1    1    2    0    0  0.33892806692E+02  0.18768658664E+02  0.19561143880E+02  0.43400728605E+02  0.00000000000E+00 0. -1.
         11    1    3    3    0    0 -0.98116461813E+01 -0.37087524662E+01  0.89104858382E-01  0.10489575090E+02  0.51100000000E-03 0.  1.
        -11    1    3    3    0    0 -0.18702510829E+02 -0.16937241266E+02 -0.12509124249E+02  0.28162603622E+02  0.51100000000E-03 0. -1.
         12    1    3    3    0    0 -0.53786496824E+01  0.18773350683E+01 -0.71411244890E+01  0.91350926833E+01  0.00000000000E+00 0. -1.
</event>
<event>
 7    1  0.2769403E-010  0.4778727E+02  0.7816164E-02  0.1312668E+00
        -11   -1    0    0    0    0  0.00000000000E+00  0.00000000000E+00  0.45593999997E+02  0.45594000000E+02  0.51100000000E-03 0.  1.
         11   -1    0    0    0    0 -0.00000000000E+00 -0.00000000000E+00 -0.45593999997E+02  0.45594000000E+02  0.51100000000E-03 0. -1.
    9900012    2    1    2    0    0 -0.93051634647E+01 -0.13305628201E+02  0.40249187904E+02  0.47787274938E+02  0.20000017754E+02 0.  0.
         12    1    1    2    0    0  0.93051634647E+01  0.13305628201E+02 -0.40249187904E+02  0.43400725062E+02  0.00000000000E+00 0. -1.
         11    1    3    3    0    0 -0.82295009627E+00  0.27524799218E+01  0.14817344695E+02  0.15093279851E+02  0.51100000000E-03 0. -1.
        -11    1    3    3    0    0 -0.60940230754E+01 -0.29920319408E+01  0.54772492121E+01  0.87229370954E+01  0.51100000000E-03 0.  1.
         12    1    3    3    0    0 -0.23881902931E+01 -0.13066076182E+02  0.19954593997E+02  0.23971057992E+02  0.00000000000E+00 0. -1.
</event>
<event>
 7    1  0.2769403E-010  0.4778727E+02  0.7816164E-02  0.1312668E+00
        -11   -1    0    0    0    0  0.00000000000E+00  0.00000000000E+00  0.45593999997E+02  0.45594000000E+02  0.51100000000E-03 0. -1.
         11   -1    0    0    0    0 -0.00000000000E+00 -0.00000000000E+00 -0.45593999997E+02  0.45594000000E+02  0.51100000000E-03 0.  1.
    9900012    2    1    2    0    0  0.39981086892E+02  0.77728061797E+01 -0.14990644687E+02  0.47787271283E+02  0.20000001089E+02 0.  0.
         12    1    1    2    0    0 -0.39981086892E+02 -0.77728061797E+01  0.14990644687E+02  0.43400728717E+02  0.00000000000E+00 0. -1.
         11    1    3    3    0    0  0.17468038153E+00  0.14811796730E+01 -0.24913237216E+01  0.29036357565E+01  0.51100000000E-03 0. -1.
        -11    1    3    3    0    0  0.92968874471E+01  0.66675348676E+00 -0.10135949963E+02  0.13770045691E+02  0.51100000000E-03 0.  1.
        -12    1    3    3    0    0  0.30509519064E+02  0.56248730200E+01 -0.23633710026E+01  0.31113589836E+02  0.00000000000E+00 0.  1.
</event>
<event>
 7    1  0.2769403E-010  0.4778727E+02  0.7816164E-02  0.1312668E+00
        -11   -1    0    0    0    0  0.00000000000E+00  0.00000000000E+00  0.45593999997E+02  0.45594000000E+02  0.51100000000E-03 0.  1.
         11   -1    0    0    0    0 -0.00000000000E+00 -0.00000000000E+00 -0.45593999997E+02  0.45594000000E+02  0.51100000000E-03 0. -1.
    9900012    2    1    2    0    0 -0.38915282659E+02  0.13119018475E+02  0.14039783351E+02  0.47787269745E+02  0.19999994073E+02 0.  0.
         12    1    1    2    0    0  0.38915282659E+02 -0.13119018475E+02 -0.14039783351E+02  0.43400730255E+02  0.00000000000E+00 0. -1.
         11    1    3    3    0    0 -0.20816332448E+02  0.33993909699E+01  0.12651468980E+02  0.24595430941E+02  0.51100000000E-03 0. -1.
        -11    1    3    3    0    0 -0.52913328242E+01  0.13140044521E+01  0.50601017114E+01  0.74383761902E+01  0.51100000000E-03 0.  1.
         12    1    3    3    0    0 -0.12807617387E+02  0.84056230532E+01 -0.36717873407E+01  0.15753462614E+02  0.00000000000E+00 0. -1.
</event>
<event>
 7    1  0.2769403E-010  0.4778727E+02  0.7816164E-02  0.1312668E+00
        -11   -1    0    0    0    0  0.00000000000E+00  0.00000000000E+00  0.45593999997E+02  0.45594000000E+02  0.51100000000E-03 0.  1.
         11   -1    0    0    0    0 -0.00000000000E+00 -0.00000000000E+00 -0.45593999997E+02  0.45594000000E+02  0.51100000000E-03 0. -1.
    9900012    2    1    2    0    0 -0.65862576738E+01  0.23465362815E+02  0.35911300599E+02  0.47787267830E+02  0.19999985345E+02 0.  0.
         12    1    1    2    0    0  0.65862576738E+01 -0.23465362815E+02 -0.35911300599E+02  0.43400732170E+02  0.00000000000E+00 0. -1.
         11    1    3    3    0    0  0.22221880863E+01 -0.10856091086E+01  0.14797965132E+01  0.28820938585E+01  0.51100000000E-03 0. -1.
        -11    1    3    3    0    0 -0.54269676430E+01  0.31736057989E+01  0.36284841590E+01  0.72587636081E+01  0.51100000000E-03 0.  1.
         12    1    3    3    0    0 -0.33814781171E+01  0.21377366125E+02  0.30803019926E+02  0.37646410364E+02  0.00000000000E+00 0. -1.
</event>
<event>
 7    1  0.2769403E-010  0.4778727E+02  0.7816164E-02  0.1312668E+00
        -11   -1    0    0    0    0  0.00000000000E+00  0.00000000000E+00  0.45593999997E+02  0.45594000000E+02  0.51100000000E-03 0.  1.
         11   -1    0    0    0    0 -0.00000000000E+00 -0.00000000000E+00 -0.45593999997E+02  0.45594000000E+02  0.51100000000E-03 0. -1.
    9900012    2    1    2    0    0  0.28879952991E+00 -0.40931866049E+02  0.14426446826E+02  0.47787269229E+02  0.19999991722E+02 0.  0.
         12    1    1    2    0    0 -0.28879952991E+00  0.40931866049E+02 -0.14426446826E+02  0.43400730771E+02  0.00000000000E+00 0. -1.
         11    1    3    3    0    0 -0.83271479560E+01 -0.11119777136E+02  0.68300534966E+01  0.15480325179E+02  0.51100000000E-03 0. -1.
        -11    1    3    3    0    0  0.14908734336E+01 -0.69015569631E+01 -0.24552551458E+00  0.70650177034E+01  0.51100000000E-03 0.  1.
         12    1    3    3    0    0  0.71250740523E+01 -0.22910531951E+02  0.78419188439E+01  0.25241926346E+02  0.00000000000E+00 0. -1.
</event>
<event>
 7    1  0.2769403E-010  0.4778727E+02  0.7816164E-02  0.1312668E+00
        -11   -1    0    0    0    0  0.00000000000E+00  0.00000000000E+00  0.45593999997E+02  0.45594000000E+02  0.51100000000E-03 0.  1.
         11   -1    0    0    0    0 -0.00000000000E+00 -0.00000000000E+00 -0.45593999997E+02  0.45594000000E+02  0.51100000000E-03 0. -1.
    9900012    2    1    2    0    0  0.21909228175E+02 -0.27826922405E+02  0.25085281424E+02  0.47787271505E+02  0.20000002102E+02 0.  0.
         12    1    1    2    0    0 -0.21909228175E+02  0.27826922405E+02 -0.25085281424E+02  0.43400728495E+02  0.00000000000E+00 0. -1.
         11    1    3    3    0    0  0.72804968557E+01 -0.14615941939E+02  0.44143352915E+01  0.16915015506E+02  0.51100000000E-03 0. -1.
        -11    1    3    3    0    0  0.33750043675E+01 -0.10838356761E+02  0.11538063053E+02  0.16186028884E+02  0.51100000000E-03 0.  1.
        -12    1    3    3    0    0  0.11253726952E+02 -0.23726237046E+01  0.91328830796E+01  0.14686227116E+02  0.00000000000E+00 0.  1.
</event>
<event>
 7    1  0.2769403E-010  0.4778727E+02  0.7816164E-02  0.1312668E+00
        -11   -1    0    0    0    0  0.00000000000E+00  0.00000000000E+00  0.45593999997E+02  0.45594000000E+02  0.51100000000E-03 0.  1.
         11   -1    0    0    0    0 -0.00000000000E+00 -0.00000000000E+00 -0.45593999997E+02  0.45594000000E+02  0.51100000000E-03 0. -1.
    9900012    2    1    2    0    0  0.13171217142E+02 -0.23981357021E+02  0.33690306432E+02  0.47787271975E+02  0.20000004243E+02 0.  0.
         12    1    1    2    0    0 -0.13171217142E+02  0.23981357021E+02 -0.33690306432E+02  0.43400728025E+02  0.00000000000E+00 0. -1.
         11    1    3    3    0    0 -0.18468502469E+01  0.10774770516E+01  0.19844025061E+01  0.29171332158E+01  0.51100000000E-03 0. -1.
        -11    1    3    3    0    0  0.85029000338E+01 -0.34822288307E+01  0.84184374435E+01  0.12461754125E+02  0.51100000000E-03 0.  1.
        -12    1    3    3    0    0  0.65151673556E+01 -0.21576605242E+02  0.23287466483E+02  0.32408384635E+02  0.00000000000E+00 0.  1.
</event>
<event>
 7    1  0.2769403E-010  0.4778727E+02  0.7816164E-02  0.1312668E+00
        -11   -1    0    0    0    0  0.00000000000E+00  0.00000000000E+00  0.45593999997E+02  0.45594000000E+02  0.51100000000E-03 0. -1.
         11   -1    0    0    0    0 -0.00000000000E+00 -0.00000000000E+00 -0.45593999997E+02  0.45594000000E+02  0.51100000000E-03 0.  1.
    9900012    2    1    2    0    0 -0.77405902695E+00  0.43146884980E+02  0.46228661831E+01  0.47787265645E+02  0.19999975381E+02 0.  0.
         12    1    1    2    0    0  0.77405902695E+00 -0.43146884980E+02 -0.46228661831E+01  0.43400734355E+02  0.00000000000E+00 0. -1.
         11    1    3    3    0    0  0.18958896728E+01  0.36863824205E+02  0.74010234706E+01  0.37647192211E+02  0.51100000000E-03 0. -1.
        -11    1    3    3    0    0 -0.41075638922E+01  0.66195296694E+01 -0.10400548120E+01  0.78595145171E+01  0.51100000000E-03 0.  1.
         12    1    3    3    0    0  0.14376151925E+01 -0.33646889463E+00 -0.17381024755E+01  0.22805589170E+01  0.00000000000E+00 0. -1.
</event>
<event>
 7    1  0.2769403E-010  0.4778727E+02  0.7816164E-02  0.1312668E+00
        -11   -1    0    0    0    0  0.00000000000E+00  0.00000000000E+00  0.45593999997E+02  0.45594000000E+02  0.51100000000E-03 0. -1.
         11   -1    0    0    0    0 -0.00000000000E+00 -0.00000000000E+00 -0.45593999997E+02  0.45594000000E+02  0.51100000000E-03 0.  1.
    9900012    2    1    2    0    0 -0.26707144337E+02 -0.33537696671E+02 -0.67508777527E+01  0.47787274118E+02  0.20000014016E+02 0.  0.
         12    1    1    2    0    0  0.26707144337E+02  0.33537696671E+02  0.67508777527E+01  0.43400725882E+02  0.00000000000E+00 0. -1.
         11    1    3    3    0    0 -0.43415860645E+01 -0.93223601024E+00  0.16393306555E+01  0.47334806215E+01  0.51100000000E-03 0. -1.
        -11    1    3    3    0    0 -0.11669098956E+02 -0.88579076289E+01 -0.86380820283E+01  0.17007259021E+02  0.51100000000E-03 0.  1.
         12    1    3    3    0    0 -0.10696459317E+02 -0.23747553032E+02  0.24787362011E+00  0.26046534476E+02  0.00000000000E+00 0. -1.
</event>
<event>
 7    1  0.2769403E-010  0.4778727E+02  0.7816164E-02  0.1312668E+00
        -11   -1    0    0    0    0  0.00000000000E+00  0.00000000000E+00  0.45593999997E+02  0.45594000000E+02  0.51100000000E-03 0.  1.
         11   -1    0    0    0    0 -0.00000000000E+00 -0.00000000000E+00 -0.45593999997E+02  0.45594000000E+02  0.51100000000E-03 0. -1.
    9900012    2    1    2    0    0  0.92292479804E+00 -0.25673993834E+02  0.34980242365E+02  0.47787272984E+02  0.20000008845E+02 0.  0.
         12    1    1    2    0    0 -0.92292479804E+00  0.25673993834E+02 -0.34980242365E+02  0.43400727016E+02  0.00000000000E+00 0. -1.
         11    1    3    3    0    0 -0.20703374560E+01 -0.16448895849E+01  0.42541572679E+01  0.50089732730E+01  0.51100000000E-03 0. -1.
        -11    1    3    3    0    0 -0.37601541808E+01 -0.22076388990E+02  0.20443917551E+02  0.30322590183E+02  0.51100000000E-03 0.  1.
         12    1    3    3    0    0  0.67534164349E+01 -0.19527152596E+01  0.10282167546E+02  0.12455709529E+02  0.00000000000E+00 0. -1.
</event>
<event>
 7    1  0.2769403E-010  0.4778727E+02  0.7816164E-02  0.1312668E+00
        -11   -1    0    0    0    0  0.00000000000E+00  0.00000000000E+00  0.45593999997E+02  0.45594000000E+02  0.51100000000E-03 0. -1.
         11   -1    0    0    0    0 -0.00000000000E+00 -0.00000000000E+00 -0.45593999997E+02  0.45594000000E+02  0.51100000000E-03 0.  1.
    9900012    2    1    2    0    0 -0.12208234719E+00 -0.36904565427E+02  0.22839912667E+02  0.47787268854E+02  0.19999990011E+02 0.  0.
         12    1    1    2    0    0  0.12208234719E+00  0.36904565427E+02 -0.22839912667E+02  0.43400731146E+02  0.00000000000E+00 0. -1.
         11    1    3    3    0    0  0.15125145283E+01 -0.13639144114E+02  0.12802869157E+02  0.18767722592E+02  0.51100000000E-03 0. -1.
        -11    1    3    3    0    0 -0.55549204974E+01 -0.49889084122E+01  0.67000021839E+01  0.10031768458E+02  0.51100000000E-03 0.  1.
        -12    1    3    3    0    0  0.39203236219E+01 -0.18276512901E+02  0.33370413253E+01  0.18987777804E+02  0.00000000000E+00 0.  1.
</event>
<event>
 7    1  0.2769403E-010  0.4778727E+02  0.7816164E-02  0.1312668E+00
        -11   -1    0    0    0    0  0.00000000000E+00  0.00000000000E+00  0.45593999997E+02  0.45594000000E+02  0.51100000000E-03 0. -1.
         11   -1    0    0    0    0 -0.00000000000E+00 -0.00000000000E+00 -0.45593999997E+02  0.45594000000E+02  0.51100000000E-03 0.  1.
    9900012    2    1    2    0    0 -0.42201317619E+02 -0.76338145712E+01 -0.66631036958E+01  0.47787270921E+02  0.19999999439E+02 0.  0.
         12    1    1    2    0    0  0.42201317619E+02  0.76338145712E+01  0.66631036958E+01  0.43400729079E+02  0.00000000000E+00 0. -1.
         11    1    3    3    0    0 -0.48747876418E+01 -0.31711167544E+01  0.34835806088E+01  0.67790021494E+01  0.51100000000E-03 0. -1.
        -11    1    3    3    0    0 -0.13222252532E+02 -0.71900896322E+01 -0.10031014837E+01  0.15084149422E+02  0.51100000000E-03 0.  1.
        -12    1    3    3    0    0 -0.24104277446E+02  0.27273918154E+01 -0.91435828209E+01  0.25924119350E+02  0.00000000000E+00 0.  1.
</event>
<event>
 7    1  0.2769403E-010  0.4778727E+02  0.7816164E-02  0.1312668E+00
        -11   -1    0    0    0    0  0.00000000000E+00  0.00000000000E+00  0.45593999997E+02  0.45594000000E+02  0.51100000000E-03 0.  1.
         11   -1    0    0    0    0 -0.00000000000E+00 -0.00000000000E+00 -0.45593999997E+02  0.45594000000E+02  0.51100000000E-03 0. -1.
    9900012    2    1    2    0    0  0.25239437690E+02 -0.16272707251E+02  0.31333574719E+02  0.47787272808E+02  0.20000008039E+02 0.  0.
         12    1    1    2    0    0 -0.25239437690E+02  0.16272707251E+02 -0.31333574719E+02  0.43400727192E+02  0.00000000000E+00 0. -1.
         11    1    3    3    0    0  0.59020881821E+01 -0.77757438829E+01  0.14608712922E+02  0.17570183020E+02  0.51100000000E-03 0.  1.
        -11    1    3    3    0    0  0.25320795457E+01 -0.63820101295E+01  0.70264469114E+00  0.69018251168E+01  0.51100000000E-03 0. -1.
         12    1    3    3    0    0  0.16805269962E+02 -0.21149532382E+01  0.16022217105E+02  0.23315264671E+02  0.00000000000E+00 0. -1.
</event>
<event>
 7    1  0.2769403E-010  0.4778728E+02  0.7816164E-02  0.1312668E+00
        -11   -1    0    0    0    0  0.00000000000E+00  0.00000000000E+00  0.45593999997E+02  0.45594000000E+02  0.51100000000E-03 0.  1.
         11   -1    0    0    0    0 -0.00000000000E+00 -0.00000000000E+00 -0.45593999997E+02  0.45594000000E+02  0.51100000000E-03 0. -1.
    9900012    2    1    2    0    0 -0.36027285522E+02  0.20369743910E+02  0.13066400125E+02  0.47787279024E+02  0.20000036382E+02 0.  0.
         12    1    1    2    0    0  0.36027285522E+02 -0.20369743910E+02 -0.13066400125E+02  0.43400720976E+02  0.00000000000E+00 0. -1.
         11    1    3    3    0    0 -0.17230468228E+02  0.12769155787E+02  0.15772720087E+02  0.26621778191E+02  0.51100000000E-03 0. -1.
        -11    1    3    3    0    0 -0.24891860255E+01 -0.43230210378E+00  0.80331076455E+00  0.26510829154E+01  0.51100000000E-03 0.  1.
        -12    1    3    3    0    0 -0.16307631269E+02  0.80328902267E+01 -0.35096307266E+01  0.18514417917E+02  0.00000000000E+00 0.  1.
</event>
<event>
 7    1  0.2769403E-010  0.4778727E+02  0.7816164E-02  0.1312668E+00
        -11   -1    0    0    0    0  0.00000000000E+00  0.00000000000E+00  0.45593999997E+02  0.45594000000E+02  0.51100000000E-03 0. -1.
         11   -1    0    0    0    0 -0.00000000000E+00 -0.00000000000E+00 -0.45593999997E+02  0.45594000000E+02  0.51100000000E-03 0.  1.
    9900012    2    1    2    0    0 -0.22971744964E+02  0.27646541358E+02 -0.24322638952E+02  0.47787273263E+02  0.20000010113E+02 0.  0.
         12    1    1    2    0    0  0.22971744964E+02 -0.27646541358E+02  0.24322638952E+02  0.43400726737E+02  0.00000000000E+00 0. -1.
         11    1    3    3    0    0 -0.28352821677E+01 -0.23544721041E+01 -0.53430117326E+01  0.64907733357E+01  0.51100000000E-03 0. -1.
        -11    1    3    3    0    0 -0.10151263571E+01  0.54926832411E+01 -0.31573908835E+01  0.64163204534E+01  0.51100000000E-03 0.  1.
         12    1    3    3    0    0 -0.19121336439E+02  0.24508330221E+02 -0.15822236336E+02  0.34880179474E+02  0.00000000000E+00 0. -1.
</event>
<event>
 7    1  0.2769403E-010  0.4778727E+02  0.7816164E-02  0.1312668E+00
        -11   -1    0    0    0    0  0.00000000000E+00  0.00000000000E+00  0.45593999997E+02  0.45594000000E+02  0.51100000000E-03 0.  1.
         11   -1    0    0    0    0 -0.00000000000E+00 -0.00000000000E+00 -0.45593999997E+02  0.45594000000E+02  0.51100000000E-03 0. -1.
    9900012    2    1    2    0    0 -0.35986395406E+02  0.58152905534E+01  0.23553876133E+02  0.47787270289E+02  0.19999996557E+02 0.  0.
         12    1    1    2    0    0  0.35986395406E+02 -0.58152905534E+01 -0.23553876133E+02  0.43400729711E+02  0.00000000000E+00 0. -1.
         11    1    3    3    0    0 -0.84635509972E+01  0.60911793237E+01  0.12639554601E+02  0.16385740808E+02  0.51100000000E-03 0. -1.
        -11    1    3    3    0    0 -0.63521101475E+01 -0.71604318025E-01  0.77080314593E+01  0.99884022618E+01  0.51100000000E-03 0.  1.
         12    1    3    3    0    0 -0.21170734261E+02 -0.20428445233E+00  0.32062900722E+01  0.21413127220E+02  0.00000000000E+00 0. -1.
</event>
<event>
 7    1  0.2769403E-010  0.4778727E+02  0.7816164E-02  0.1312668E+00
        -11   -1    0    0    0    0  0.00000000000E+00  0.00000000000E+00  0.45593999997E+02  0.45594000000E+02  0.51100000000E-03 0.  1.
         11   -1    0    0    0    0 -0.00000000000E+00 -0.00000000000E+00 -0.45593999997E+02  0.45594000000E+02  0.51100000000E-03 0. -1.
    9900012    2    1    2    0    0  0.36587958531E+02  0.18304572770E+02  0.14487475395E+02  0.47787273773E+02  0.20000012439E+02 0.  0.
         12    1    1    2    0    0 -0.36587958531E+02 -0.18304572770E+02 -0.14487475395E+02  0.43400726227E+02  0.00000000000E+00 0. -1.
         11    1    3    3    0    0  0.19760743840E-01  0.64231887622E+01  0.33668274885E+01  0.72521218937E+01  0.51100000000E-03 0. -1.
        -11    1    3    3    0    0  0.66429470944E+01  0.35611461802E+01  0.44953678864E+01  0.87760378823E+01  0.51100000000E-03 0.  1.
        -12    1    3    3    0    0  0.29925250692E+02  0.83202378274E+01  0.66252800206E+01  0.31759113997E+02  0.00000000000E+00 0.  1.
</event>
<event>
 7    1  0.2769403E-010  0.4778729E+02  0.7816164E-02  0.1312668E+00
        -11   -1    0    0    0    0  0.00000000000E+00  0.00000000000E+00  0.45593999997E+02  0.45594000000E+02  0.51100000000E-03 0.  1.
         11   -1    0    0    0    0 -0.00000000000E+00 -0.00000000000E+00 -0.45593999997E+02  0.45594000000E+02  0.51100000000E-03 0. -1.
    9900012    2    1    2    0    0 -0.67728157762E+01  0.17348037673E+02  0.39201988351E+02  0.47787293377E+02  0.20000101824E+02 0.  0.
         12    1    1    2    0    0  0.67728157762E+01 -0.17348037673E+02 -0.39201988351E+02  0.43400706623E+02  0.00000000000E+00 0. -1.
         11    1    3    3    0    0  0.63624331443E+00 -0.80527099368E+00  0.17145746010E+01  0.19982575539E+01  0.51100000000E-03 0. -1.
        -11    1    3    3    0    0 -0.82433645989E+01  0.21388397697E+02  0.33419075659E+02  0.40524699062E+02  0.51100000000E-03 0.  1.
        -12    1    3    3    0    0  0.83430550825E+00 -0.32350890293E+01  0.40683380914E+01  0.52643367612E+01  0.00000000000E+00 0.  1.
</event>
<event>
 7    1  0.2769403E-010  0.4778727E+02  0.7816164E-02  0.1312668E+00
        -11   -1    0    0    0    0  0.00000000000E+00  0.00000000000E+00  0.45593999997E+02  0.45594000000E+02  0.51100000000E-03 0.  1.
         11   -1    0    0    0    0 -0.00000000000E+00 -0.00000000000E+00 -0.45593999997E+02  0.45594000000E+02  0.51100000000E-03 0. -1.
    9900012    2    1    2    0    0 -0.12969385310E+02  0.19902233870E+02  0.36322437605E+02  0.47787270261E+02  0.19999996426E+02 0.  0.
         12    1    1    2    0    0  0.12969385310E+02 -0.19902233870E+02 -0.36322437605E+02  0.43400729739E+02  0.00000000000E+00 0. -1.
         11    1    3    3    0    0  0.12306931842E-01 -0.12970671468E+00  0.61235835734E+01  0.61249694966E+01  0.51100000000E-03 0. -1.
        -11    1    3    3    0    0  0.31510885988E+01  0.78098239464E+01  0.98953125409E+01  0.12993841617E+02  0.51100000000E-03 0.  1.
         12    1    3    3    0    0 -0.16132780841E+02  0.12222116638E+02  0.20303541491E+02  0.28668459147E+02  0.00000000000E+00 0. -1.
</event>
<event>
 7    1  0.2769403E-010  0.4778728E+02  0.7816164E-02  0.1312668E+00
        -11   -1    0    0    0    0  0.00000000000E+00  0.00000000000E+00  0.45593999997E+02  0.45594000000E+02  0.51100000000E-03 0.  1.
         11   -1    0    0    0    0 -0.00000000000E+00 -0.00000000000E+00 -0.45593999997E+02  0.45594000000E+02  0.51100000000E-03 0. -1.
    9900012    2    1    2    0    0 -0.18481129181E+02 -0.14522397162E+02  0.36485212417E+02  0.47787275580E+02  0.20000020678E+02 0.  0.
         12    1    1    2    0    0  0.18481129181E+02  0.14522397162E+02 -0.36485212417E+02  0.43400724420E+02  0.00000000000E+00 0. -1.
         11    1    3    3    0    0 -0.86780687678E+00 -0.14624897190E+01  0.12229234684E+02  0.12346908364E+02  0.51100000000E-03 0. -1.
        -11    1    3    3    0    0 -0.66651261309E+00 -0.80714769131E+01  0.89001922253E+01  0.12033553113E+02  0.51100000000E-03 0.  1.
         12    1    3    3    0    0 -0.16946809691E+02 -0.49884305298E+01  0.15355785508E+02  0.23406814102E+02  0.00000000000E+00 0. -1.
</event>
<event>
 7    1  0.2769403E-010  0.4778727E+02  0.7816164E-02  0.1312668E+00
        -11   -1    0    0    0    0  0.00000000000E+00  0.00000000000E+00  0.45593999997E+02  0.45594000000E+02  0.51100000000E-03 0.  1.
         11   -1    0    0    0    0 -0.00000000000E+00 -0.00000000000E+00 -0.45593999997E+02  0.45594000000E+02  0.51100000000E-03 0. -1.
    9900012    2    1    2    0    0  0.12484757795E+02 -0.32461081449E+02  0.25962136781E+02  0.47787268068E+02  0.19999986428E+02 0.  0.
         12    1    1    2    0    0 -0.12484757795E+02  0.32461081449E+02 -0.25962136781E+02  0.43400731932E+02  0.00000000000E+00 0. -1.
         11    1    3    3    0    0  0.37431070101E+01 -0.10240958390E+02  0.27843897590E+01  0.11253484146E+02  0.51100000000E-03 0. -1.
        -11    1    3    3    0    0  0.10540407474E+02 -0.13781075333E+02  0.80683757281E+01  0.19134181827E+02  0.51100000000E-03 0.  1.
        -12    1    3    3    0    0 -0.17987566897E+01 -0.84390477260E+01  0.15109371293E+02  0.17399602094E+02  0.00000000000E+00 0.  1.
</event>
<event>
 7    1  0.2769403E-010  0.4778727E+02  0.7816164E-02  0.1312668E+00
        -11   -1    0    0    0    0  0.00000000000E+00  0.00000000000E+00  0.45593999997E+02  0.45594000000E+02  0.51100000000E-03 0.  1.
         11   -1    0    0    0    0 -0.00000000000E+00 -0.00000000000E+00 -0.45593999997E+02  0.45594000000E+02  0.51100000000E-03 0. -1.
    9900012    2    1    2    0    0  0.65606307351E+01 -0.23225463245E+02  0.36071580847E+02  0.47787274622E+02  0.20000016311E+02 0.  0.
         12    1    1    2    0    0 -0.65606307351E+01  0.23225463245E+02 -0.36071580847E+02  0.43400725378E+02  0.00000000000E+00 0. -1.
         11    1    3    3    0    0  0.98803350465E+00 -0.20371841932E+00 -0.45929107799E+00  0.11084493476E+01  0.51100000000E-03 0. -1.
        -11    1    3    3    0    0  0.27403074871E+01 -0.11481958844E+02  0.47056945953E+01  0.12707801773E+02  0.51100000000E-03 0.  1.
        -12    1    3    3    0    0  0.28322897434E+01 -0.11539785982E+02  0.31825177329E+02  0.33971023501E+02  0.00000000000E+00 0.  1.
</event>
<event>
 7    1  0.2769403E-010  0.4778727E+02  0.7816164E-02  0.1312668E+00
        -11   -1    0    0    0    0  0.00000000000E+00  0.00000000000E+00  0.45593999997E+02  0.45594000000E+02  0.51100000000E-03 0.  1.
         11   -1    0    0    0    0 -0.00000000000E+00 -0.00000000000E+00 -0.45593999997E+02  0.45594000000E+02  0.51100000000E-03 0. -1.
    9900012    2    1    2    0    0  0.33393699728E+02 -0.26833985102E+02  0.69585529259E+01  0.47787269628E+02  0.19999993541E+02 0.  0.
         12    1    1    2    0    0 -0.33393699728E+02  0.26833985102E+02 -0.69585529259E+01  0.43400730372E+02  0.00000000000E+00 0. -1.
         11    1    3    3    0    0  0.10435018211E+01 -0.70147885016E+01 -0.26359622968E+01  0.75660062955E+01  0.51100000000E-03 0. -1.
        -11    1    3    3    0    0  0.73678127051E+01 -0.51211833716E+00  0.69881816322E+00  0.74185764358E+01  0.51100000000E-03 0.  1.
        -12    1    3    3    0    0  0.24982385202E+02 -0.19307078263E+02  0.88956970595E+01  0.32802686897E+02  0.00000000000E+00 0.  1.
</event>
<event>
 7    1  0.2769403E-010  0.4778727E+02  0.7816164E-02  0.1312668E+00
        -11   -1    0    0    0    0  0.00000000000E+00  0.00000000000E+00  0.45593999997E+02  0.45594000000E+02  0.51100000000E-03 0. -1.
         11   -1    0    0    0    0 -0.00000000000E+00 -0.00000000000E+00 -0.45593999997E+02  0.45594000000E+02  0.51100000000E-03 0.  1.
    9900012    2    1    2    0    0  0.17052589024E+02  0.30672094753E+02  0.25535363520E+02  0.47787274441E+02  0.20000015488E+02 0.  0.
         12    1    1    2    0    0 -0.17052589024E+02 -0.30672094753E+02 -0.25535363520E+02  0.43400725559E+02  0.00000000000E+00 0. -1.
         11    1    3    3    0    0 -0.13728194346E+01  0.14347388258E+01 -0.11761397671E+01  0.23079024483E+01  0.51100000000E-03 0. -1.
        -11    1    3    3    0    0  0.47484708934E+00  0.26152533105E+01 -0.12175763565E+01  0.29236145576E+01  0.51100000000E-03 0.  1.
         12    1    3    3    0    0  0.17950561369E+02  0.26622102617E+02  0.27929079643E+02  0.42555757435E+02  0.00000000000E+00 0. -1.
</event>
<event>
 7    1  0.2769403E-010  0.4778727E+02  0.7816164E-02  0.1312668E+00
        -11   -1    0    0    0    0  0.00000000000E+00  0.00000000000E+00  0.45593999997E+02  0.45594000000E+02  0.51100000000E-03 0.  1.
         11   -1    0    0    0    0 -0.00000000000E+00 -0.00000000000E+00 -0.45593999997E+02  0.45594000000E+02  0.51100000000E-03 0. -1.
    9900012    2    1    2    0    0  0.54491950583E+01 -0.39023230921E+02  0.18196612833E+02  0.47787274235E+02  0.20000014548E+02 0.  0.
         12    1    1    2    0    0 -0.54491950583E+01  0.39023230921E+02 -0.18196612833E+02  0.43400725765E+02  0.00000000000E+00 0. -1.
         11    1    3    3    0    0 -0.68870847809E+01 -0.16020670483E+02  0.69129975876E+01  0.18758554193E+02  0.51100000000E-03 0. -1.
        -11    1    3    3    0    0  0.25852308305E+01 -0.61672833680E+01  0.57031040137E+01  0.87888678589E+01  0.51100000000E-03 0.  1.
         12    1    3    3    0    0  0.97510490086E+01 -0.16835277070E+02  0.55805112316E+01  0.20239852183E+02  0.00000000000E+00 0. -1.
</event>
<event>
 7    1  0.2858372E-010  0.4778727E+02  0.7816164E-02  0.1312668E+00
        -11   -1    0    0    0    0  0.00000000000E+00  0.00000000000E+00  0.45593999997E+02  0.45594000000E+02  0.51100000000E-03 0. -1.
         11   -1    0    0    0    0 -0.00000000000E+00 -0.00000000000E+00 -0.45593999997E+02  0.45594000000E+02  0.51100000000E-03 0.  1.
    9900012    2    1    2    0    0 -0.21807047515E+02 -0.23383818380E+02 -0.29347458437E+02  0.47787267287E+02  0.19999982867E+02 0.  0.
         12    1    1    2    0    0  0.21807047515E+02  0.23383818380E+02  0.29347458437E+02  0.43400732713E+02  0.00000000000E+00 0. -1.
         11    1    3    3    0    0 -0.37921526776E+01 -0.12908870167E+02 -0.84846388331E+01  0.15906239257E+02  0.51100000000E-03 0. -1.
        -11    1    3    3    0    0 -0.11994513175E+02 -0.12733645576E+02 -0.16926304577E+02  0.24341607647E+02  0.51100000000E-03 0.  1.
         12    1    3    3    0    0 -0.60203816630E+01  0.22586973632E+01 -0.39365150263E+01  0.75394203821E+01  0.00000000000E+00 0. -1.
</event>
<event>
 7    1  0.2769403E-010  0.4778728E+02  0.7816164E-02  0.1312668E+00
        -11   -1    0    0    0    0  0.00000000000E+00  0.00000000000E+00  0.45593999997E+02  0.45594000000E+02  0.51100000000E-03 0. -1.
         11   -1    0    0    0    0 -0.00000000000E+00 -0.00000000000E+00 -0.45593999997E+02  0.45594000000E+02  0.51100000000E-03 0.  1.
    9900012    2    1    2    0    0  0.22270623858E+02  0.83678005181E+01 -0.36299057582E+02  0.47787281644E+02  0.20000048326E+02 0.  0.
         12    1    1    2    0    0 -0.22270623858E+02 -0.83678005181E+01  0.36299057582E+02  0.43400718356E+02  0.00000000000E+00 0. -1.
         11    1    3    3    0    0  0.12364926787E+02  0.48484044434E+01 -0.76567009082E+01  0.15330476482E+02  0.51100000000E-03 0.  1.
        -11    1    3    3    0    0  0.28483390307E+01 -0.10200288943E+01 -0.47054688191E+00  0.30618472868E+01  0.51100000000E-03 0. -1.
        -12    1    3    3    0    0  0.70573580407E+01  0.45394249689E+01 -0.28171809791E+02  0.29394957875E+02  0.00000000000E+00 0.  1.
</event>
<event>
 7    1  0.2769403E-010  0.4778728E+02  0.7816164E-02  0.1312668E+00
        -11   -1    0    0    0    0  0.00000000000E+00  0.00000000000E+00  0.45593999997E+02  0.45594000000E+02  0.51100000000E-03 0.  1.
         11   -1    0    0    0    0 -0.00000000000E+00 -0.00000000000E+00 -0.45593999997E+02  0.45594000000E+02  0.51100000000E-03 0. -1.
    9900012    2    1    2    0    0  0.65030939039E+01 -0.31992532089E+02  0.28597385094E+02  0.47787276803E+02  0.20000026257E+02 0.  0.
         12    1    1    2    0    0 -0.65030939039E+01  0.31992532089E+02 -0.28597385094E+02  0.43400723197E+02  0.00000000000E+00 0. -1.
         11    1    3    3    0    0 -0.10539735067E+01 -0.16954624625E+01  0.17690322219E+01  0.26673823081E+01  0.51100000000E-03 0. -1.
        -11    1    3    3    0    0  0.57375178526E+01 -0.50337056203E+01  0.15694416014E+02  0.17451991224E+02  0.51100000000E-03 0.  1.
         12    1    3    3    0    0  0.18195495579E+01 -0.25263364006E+02  0.11133936858E+02  0.27667903272E+02  0.00000000000E+00 0. -1.
</event>
<event>
 7    1  0.2769403E-010  0.4778728E+02  0.7816164E-02  0.1312668E+00
        -11   -1    0    0    0    0  0.00000000000E+00  0.00000000000E+00  0.45593999997E+02  0.45594000000E+02  0.51100000000E-03 0.  1.
         11   -1    0    0    0    0 -0.00000000000E+00 -0.00000000000E+00 -0.45593999997E+02  0.45594000000E+02  0.51100000000E-03 0. -1.
    9900012    2    1    2    0    0  0.91088077430E+01  0.28361825335E+02  0.31563567793E+02  0.47787281957E+02  0.20000049754E+02 0.  0.
         12    1    1    2    0    0 -0.91088077430E+01 -0.28361825335E+02 -0.31563567793E+02  0.43400718043E+02  0.00000000000E+00 0. -1.
         11    1    3    3    0    0 -0.10031440220E+01  0.18621498559E+01 -0.12105689668E+01  0.24370838104E+01  0.51100000000E-03 0. -1.
        -11    1    3    3    0    0 -0.28446966642E+01  0.52121412206E+01  0.34506646898E+01  0.68677363285E+01  0.51100000000E-03 0.  1.
        -12    1    3    3    0    0  0.12956648429E+02  0.21287534259E+02  0.29323472070E+02  0.38482461818E+02  0.00000000000E+00 0.  1.
</event>
<event>
 7    1  0.2769403E-010  0.4778727E+02  0.7816164E-02  0.1312668E+00
        -11   -1    0    0    0    0  0.00000000000E+00  0.00000000000E+00  0.45593999997E+02  0.45594000000E+02  0.51100000000E-03 0.  1.
         11   -1    0    0    0    0 -0.00000000000E+00 -0.00000000000E+00 -0.45593999997E+02  0.45594000000E+02  0.51100000000E-03 0. -1.
    9900012    2    1    2    0    0  0.37842803906E+02  0.15047559786E+02  0.15003893713E+02  0.47787266256E+02  0.19999978167E+02 0.  0.
         12    1    1    2    0    0 -0.37842803906E+02 -0.15047559786E+02 -0.15003893713E+02  0.43400733744E+02  0.00000000000E+00 0. -1.
         11    1    3    3    0    0  0.28467640198E+02  0.15936604258E+02  0.12784105152E+02  0.35040194613E+02  0.51100000000E-03 0.  1.
        -11    1    3    3    0    0 -0.13284756295E+01 -0.19279722004E+00 -0.85161062319E+00  0.15897355695E+01  0.51100000000E-03 0. -1.
        -12    1    3    3    0    0  0.10703639338E+02 -0.69624725226E+00  0.30713991847E+01  0.11157336074E+02  0.00000000000E+00 0.  1.
</event>
<event>
 7    1  0.2769403E-010  0.4778727E+02  0.7816164E-02  0.1312668E+00
        -11   -1    0    0    0    0  0.00000000000E+00  0.00000000000E+00  0.45593999997E+02  0.45594000000E+02  0.51100000000E-03 0.  1.
         11   -1    0    0    0    0 -0.00000000000E+00 -0.00000000000E+00 -0.45593999997E+02  0.45594000000E+02  0.51100000000E-03 0. -1.
    9900012    2    1    2    0    0  0.80575227015E+01 -0.78446027608E+01  0.41918512810E+02  0.47787272118E+02  0.20000004893E+02 0.  0.
         12    1    1    2    0    0 -0.80575227015E+01  0.78446027608E+01 -0.41918512810E+02  0.43400727882E+02  0.00000000000E+00 0. -1.
         11    1    3    3    0    0 -0.88665876053E+00 -0.84128363633E+01  0.20221369795E+02  0.21919529559E+02  0.51100000000E-03 0. -1.
        -11    1    3    3    0    0  0.74210269651E+01 -0.44734224037E+01  0.11594091109E+02  0.14474325481E+02  0.51100000000E-03 0.  1.
         12    1    3    3    0    0  0.15231544969E+01  0.50416560061E+01  0.10103051906E+02  0.11393417078E+02  0.00000000000E+00 0. -1.
</event>
<event>
 7    1  0.2769403E-010  0.4778727E+02  0.7816164E-02  0.1312668E+00
        -11   -1    0    0    0    0  0.00000000000E+00  0.00000000000E+00  0.45593999997E+02  0.45594000000E+02  0.51100000000E-03 0. -1.
         11   -1    0    0    0    0 -0.00000000000E+00 -0.00000000000E+00 -0.45593999997E+02  0.45594000000E+02  0.51100000000E-03 0.  1.
    9900012    2    1    2    0    0 -0.13398481700E+02  0.28106081409E+01 -0.41185006016E+02  0.47787267857E+02  0.19999985467E+02 0.  0.
         12    1    1    2    0    0  0.13398481700E+02 -0.28106081409E+01  0.41185006016E+02  0.43400732143E+02  0.00000000000E+00 0. -1.
         11    1    3    3    0    0  0.19648105316E+01  0.19678107841E+01 -0.13878984596E+01  0.31078967329E+01  0.51100000000E-03 0. -1.
        -11    1    3    3    0    0 -0.10453068729E+02 -0.35308539063E+01 -0.34543502675E+02  0.36262751585E+02  0.51100000000E-03 0.  1.
         12    1    3    3    0    0 -0.49102235033E+01  0.43736512631E+01 -0.52536048812E+01  0.84166195394E+01  0.00000000000E+00 0. -1.
</event>
<event>
 7    1  0.2769403E-010  0.4778727E+02  0.7816164E-02  0.1312668E+00
        -11   -1    0    0    0    0  0.00000000000E+00  0.00000000000E+00  0.45593999997E+02  0.45594000000E+02  0.51100000000E-03 0.  1.
         11   -1    0    0    0    0 -0.00000000000E+00 -0.00000000000E+00 -0.45593999997E+02  0.45594000000E+02  0.51100000000E-03 0. -1.
    9900012    2    1    2    0    0  0.30932066486E+02  0.78944074115E+01  0.29402529870E+02  0.47787272262E+02  0.20000005550E+02 0.  0.
         12    1    1    2    0    0 -0.30932066486E+02 -0.78944074115E+01 -0.29402529870E+02  0.43400727738E+02  0.00000000000E+00 0. -1.
         11    1    3    3    0    0  0.14174641649E+02 -0.15991342893E+01  0.13047185112E+02  0.19331495957E+02  0.51100000000E-03 0. -1.
        -11    1    3    3    0    0  0.12648852965E+02  0.11575384135E+02  0.16570838782E+02  0.23844825380E+02  0.51100000000E-03 0.  1.
         12    1    3    3    0    0  0.41085718725E+01 -0.20818424340E+01 -0.21549402432E+00  0.46109509243E+01  0.00000000000E+00 0. -1.
</event>
<event>
 7    1  0.2769403E-010  0.4778727E+02  0.7816164E-02  0.1312668E+00
        -11   -1    0    0    0    0  0.00000000000E+00  0.00000000000E+00  0.45593999997E+02  0.45594000000E+02  0.51100000000E-03 0.  1.
         11   -1    0    0    0    0 -0.00000000000E+00 -0.00000000000E+00 -0.45593999997E+02  0.45594000000E+02  0.51100000000E-03 0. -1.
    9900012    2    1    2    0    0 -0.19073192008E+02  0.23278474500E+01  0.38915520631E+02  0.47787271053E+02  0.20000000040E+02 0.  0.
         12    1    1    2    0    0  0.19073192008E+02 -0.23278474500E+01 -0.38915520631E+02  0.43400728947E+02  0.00000000000E+00 0. -1.
         11    1    3    3    0    0 -0.16105452707E+01 -0.79388367108E+00 -0.72461682797E+00  0.19362792052E+01  0.51100000000E-03 0. -1.
        -11    1    3    3    0    0 -0.55906316811E+01 -0.30274661523E+01  0.33712676756E+01  0.71962601328E+01  0.51100000000E-03 0.  1.
         12    1    3    3    0    0 -0.11872015056E+02  0.61491972734E+01  0.36268869784E+02  0.38654731715E+02  0.00000000000E+00 0. -1.
</event>
<event>
 7    1  0.2769403E-010  0.4778727E+02  0.7816164E-02  0.1312668E+00
        -11   -1    0    0    0    0  0.00000000000E+00  0.00000000000E+00  0.45593999997E+02  0.45594000000E+02  0.51100000000E-03 0.  1.
         11   -1    0    0    0    0 -0.00000000000E+00 -0.00000000000E+00 -0.45593999997E+02  0.45594000000E+02  0.51100000000E-03 0. -1.
    9900012    2    1    2    0    0 -0.97405238427E+01  0.31964812534E+02  0.27694698638E+02  0.47787269848E+02  0.19999994545E+02 0.  0.
         12    1    1    2    0    0  0.97405238427E+01 -0.31964812534E+02 -0.27694698638E+02  0.43400730152E+02  0.00000000000E+00 0. -1.
         11    1    3    3    0    0 -0.18111317021E+01 -0.17614119650E+01  0.15163191801E+01  0.29465224028E+01  0.51100000000E-03 0. -1.
        -11    1    3    3    0    0 -0.51483215878E+01  0.82712587700E+01  0.12377986881E+02  0.15752253690E+02  0.51100000000E-03 0.  1.
         12    1    3    3    0    0 -0.27810705528E+01  0.25454965729E+02  0.13800392576E+02  0.29088493755E+02  0.00000000000E+00 0. -1.
</event>
<event>
 7    1  0.2769403E-010  0.4778727E+02  0.7816164E-02  0.1312668E+00
        -11   -1    0    0    0    0  0.00000000000E+00  0.00000000000E+00  0.45593999997E+02  0.45594000000E+02  0.51100000000E-03 0.  1.
         11   -1    0    0    0    0 -0.00000000000E+00 -0.00000000000E+00 -0.45593999997E+02  0.45594000000E+02  0.51100000000E-03 0. -1.
    9900012    2    1    2    0    0  0.26886080207E+02  0.23007659496E+02  0.25127865176E+02  0.47787270597E+02  0.19999997962E+02 0.  0.
         12    1    1    2    0    0 -0.26886080207E+02 -0.23007659496E+02 -0.25127865176E+02  0.43400729403E+02  0.00000000000E+00 0. -1.
         11    1    3    3    0    0  0.17529327304E+02  0.70817984505E+01  0.16845455726E+02  0.25321898900E+02  0.51100000000E-03 0. -1.
        -11    1    3    3    0    0  0.84256982532E+01  0.11334984130E+02  0.10181373930E+02  0.17410761949E+02  0.51100000000E-03 0.  1.
         12    1    3    3    0    0  0.93105465008E+00  0.45908769153E+01 -0.18989644803E+01  0.50546097486E+01  0.00000000000E+00 0. -1.
</event>
<event>
 7    1  0.2769403E-010  0.4778727E+02  0.7816164E-02  0.1312668E+00
        -11   -1    0    0    0    0  0.00000000000E+00  0.00000000000E+00  0.45593999997E+02  0.45594000000E+02  0.51100000000E-03 0.  1.
         11   -1    0    0    0    0 -0.00000000000E+00 -0.00000000000E+00 -0.45593999997E+02  0.45594000000E+02  0.51100000000E-03 0. -1.
    9900012    2    1    2    0    0  0.21271903065E+02 -0.36585585727E+02  0.96241524498E+01  0.47787271281E+02  0.20000001078E+02 0.  0.
         12    1    1    2    0    0 -0.21271903065E+02  0.36585585727E+02 -0.96241524498E+01  0.43400728719E+02  0.00000000000E+00 0. -1.
         11    1    3    3    0    0  0.11494622266E+02 -0.66873399667E+01  0.49612903438E+01  0.14193704908E+02  0.51100000000E-03 0. -1.
        -11    1    3    3    0    0  0.71514440966E+01 -0.12959499047E+02  0.68565531900E+01  0.16312697205E+02  0.51100000000E-03 0.  1.
        -12    1    3    3    0    0  0.26258367017E+01 -0.16938746714E+02 -0.21936910840E+01  0.17280869168E+02  0.00000000000E+00 0.  1.
</event>
<event>
 7    1  0.2769403E-010  0.4778727E+02  0.7816164E-02  0.1312668E+00
        -11   -1    0    0    0    0  0.00000000000E+00  0.00000000000E+00  0.45593999997E+02  0.45594000000E+02  0.51100000000E-03 0.  1.
         11   -1    0    0    0    0 -0.00000000000E+00 -0.00000000000E+00 -0.45593999997E+02  0.45594000000E+02  0.51100000000E-03 0. -1.
    9900012    2    1    2    0    0 -0.17398844143E+02  0.22254211019E+02  0.32949261893E+02  0.47787267922E+02  0.19999985765E+02 0.  0.
         12    1    1    2    0    0  0.17398844143E+02 -0.22254211019E+02 -0.32949261893E+02  0.43400732078E+02  0.00000000000E+00 0. -1.
         11    1    3    3    0    0 -0.93034949688E+01  0.95936224481E+00  0.14076830977E+02  0.16900667595E+02  0.51100000000E-03 0. -1.
        -11    1    3    3    0    0  0.15131624594E+01  0.12953088181E+01  0.43697443887E+00  0.20392235003E+01  0.51100000000E-03 0.  1.
        -12    1    3    3    0    0 -0.96085116336E+01  0.19999539956E+02  0.18435456477E+02  0.28847376827E+02  0.00000000000E+00 0.  1.
</event>
<event>
 7    1  0.2769403E-010  0.4778728E+02  0.7816164E-02  0.1312668E+00
        -11   -1    0    0    0    0  0.00000000000E+00  0.00000000000E+00  0.45593999997E+02  0.45594000000E+02  0.51100000000E-03 0.  1.
         11   -1    0    0    0    0 -0.00000000000E+00 -0.00000000000E+00 -0.45593999997E+02  0.45594000000E+02  0.51100000000E-03 0. -1.
    9900012    2    1    2    0    0  0.24139675670E+02  0.25143308004E+02  0.25859476141E+02  0.47787281283E+02  0.20000046680E+02 0.  0.
         12    1    1    2    0    0 -0.24139675670E+02 -0.25143308004E+02 -0.25859476141E+02  0.43400718717E+02  0.00000000000E+00 0. -1.
         11    1    3    3    0    0 -0.17933321018E+01  0.28554085780E+00  0.36676487071E+01  0.40925812037E+01  0.51100000000E-03 0. -1.
        -11    1    3    3    0    0  0.10419489953E+02  0.15981256552E+02  0.72875156731E+01  0.20422394982E+02  0.51100000000E-03 0.  1.
        -12    1    3    3    0    0  0.15513517819E+02  0.88765105951E+01  0.14904311761E+02  0.23272305097E+02  0.00000000000E+00 0.  1.
</event>
<event>
 7    1  0.2769403E-010  0.4778727E+02  0.7816164E-02  0.1312668E+00
        -11   -1    0    0    0    0  0.00000000000E+00  0.00000000000E+00  0.45593999997E+02  0.45594000000E+02  0.51100000000E-03 0. -1.
         11   -1    0    0    0    0 -0.00000000000E+00 -0.00000000000E+00 -0.45593999997E+02  0.45594000000E+02  0.51100000000E-03 0.  1.
    9900012    2    1    2    0    0 -0.15800649660E+02 -0.67041603905E+01 -0.39862476437E+02  0.47787270468E+02  0.19999997374E+02 0.  0.
         12    1    1    2    0    0  0.15800649660E+02  0.67041603905E+01  0.39862476437E+02  0.43400729532E+02  0.00000000000E+00 0. -1.
         11    1    3    3    0    0  0.24397743460E+01  0.14650325029E+01 -0.31482435981E+01  0.42438493268E+01  0.51100000000E-03 0. -1.
        -11    1    3    3    0    0 -0.42273403264E-01 -0.48594999979E+01 -0.64762919833E+01  0.80968441620E+01  0.51100000000E-03 0.  1.
         12    1    3    3    0    0 -0.18198150603E+02 -0.33096928955E+01 -0.30237940855E+02  0.35446576980E+02  0.00000000000E+00 0. -1.
</event>
<event>
 7    1  0.2769403E-010  0.4778727E+02  0.7816164E-02  0.1312668E+00
        -11   -1    0    0    0    0  0.00000000000E+00  0.00000000000E+00  0.45593999997E+02  0.45594000000E+02  0.51100000000E-03 0.  1.
         11   -1    0    0    0    0 -0.00000000000E+00 -0.00000000000E+00 -0.45593999997E+02  0.45594000000E+02  0.51100000000E-03 0. -1.
    9900012    2    1    2    0    0  0.35491102884E+01  0.43175425400E+02  0.26285961994E+01  0.47787273505E+02  0.20000011219E+02 0.  0.
         12    1    1    2    0    0 -0.35491102884E+01 -0.43175425400E+02 -0.26285961994E+01  0.43400726495E+02  0.00000000000E+00 0. -1.
         11    1    3    3    0    0  0.83586883883E+00  0.11950904889E+02 -0.61046056030E+01  0.13445780536E+02  0.51100000000E-03 0. -1.
        -11    1    3    3    0    0 -0.35004864835E+01  0.13265050768E+02  0.78284018962E+00  0.13741463405E+02  0.51100000000E-03 0.  1.
        -12    1    3    3    0    0  0.62137279331E+01  0.17959469743E+02  0.79503616128E+01  0.20600029564E+02  0.00000000000E+00 0.  1.
</event>
<event>
 7    1  0.2769403E-010  0.4778729E+02  0.7816164E-02  0.1312668E+00
        -11   -1    0    0    0    0  0.00000000000E+00  0.00000000000E+00  0.45593999997E+02  0.45594000000E+02  0.51100000000E-03 0.  1.
         11   -1    0    0    0    0 -0.00000000000E+00 -0.00000000000E+00 -0.45593999997E+02  0.45594000000E+02  0.51100000000E-03 0. -1.
    9900012    2    1    2    0    0 -0.32429588563E+02  0.28718855528E+02  0.26778696291E+01  0.47787287299E+02  0.20000074110E+02 0.  0.
         12    1    1    2    0    0  0.32429588563E+02 -0.28718855528E+02 -0.26778696291E+01  0.43400712701E+02  0.00000000000E+00 0. -1.
         11    1    3    3    0    0 -0.98015044095E+01  0.17034278363E+02  0.39437463677E+00  0.19656847653E+02  0.51100000000E-03 0. -1.
        -11    1    3    3    0    0 -0.20273340459E+02  0.14068204734E+02  0.17582057187E+01  0.24738916820E+02  0.51100000000E-03 0.  1.
        -12    1    3    3    0    0 -0.23547436947E+01 -0.23836275692E+01  0.52528927361E+00  0.33915228257E+01  0.00000000000E+00 0.  1.
</event>
<event>
 7    1  0.2769403E-010  0.4778727E+02  0.7816164E-02  0.1312668E+00
        -11   -1    0    0    0    0  0.00000000000E+00  0.00000000000E+00  0.45593999997E+02  0.45594000000E+02  0.51100000000E-03 0.  1.
         11   -1    0    0    0    0 -0.00000000000E+00 -0.00000000000E+00 -0.45593999997E+02  0.45594000000E+02  0.51100000000E-03 0. -1.
    9900012    2    1    2    0    0 -0.29418409329E+02 -0.21689529010E+02  0.23403949670E+02  0.47787270326E+02  0.19999996723E+02 0.  0.
         12    1    1    2    0    0  0.29418409329E+02  0.21689529010E+02 -0.23403949670E+02  0.43400729674E+02  0.00000000000E+00 0. -1.
         11    1    3    3    0    0 -0.15277509091E+02 -0.57699246425E+01  0.29376510053E+01  0.16592893301E+02  0.51100000000E-03 0. -1.
        -11    1    3    3    0    0 -0.44476564871E+01 -0.90916882157E+01  0.39540614119E+01  0.10866234157E+02  0.51100000000E-03 0.  1.
        -12    1    3    3    0    0 -0.96932437508E+01 -0.68279161522E+01  0.16512237253E+02  0.20328142868E+02  0.00000000000E+00 0.  1.
</event>
<event>
 7    1  0.2769403E-010  0.4778727E+02  0.7816164E-02  0.1312668E+00
        -11   -1    0    0    0    0  0.00000000000E+00  0.00000000000E+00  0.45593999997E+02  0.45594000000E+02  0.51100000000E-03 0.  1.
         11   -1    0    0    0    0 -0.00000000000E+00 -0.00000000000E+00 -0.45593999997E+02  0.45594000000E+02  0.51100000000E-03 0. -1.
    9900012    2    1    2    0    0  0.17866574251E+02 -0.16278525988E+02  0.36047444924E+02  0.47787272248E+02  0.20000005488E+02 0.  0.
         12    1    1    2    0    0 -0.17866574251E+02  0.16278525988E+02 -0.36047444924E+02  0.43400727752E+02  0.00000000000E+00 0. -1.
         11    1    3    3    0    0  0.20428171516E+01 -0.19234955736E+01  0.74974872886E+01  0.80053265418E+01  0.51100000000E-03 0. -1.
        -11    1    3    3    0    0  0.97162666412E+01 -0.11041873291E+02  0.54923103057E+01  0.15700136177E+02  0.51100000000E-03 0.  1.
        -12    1    3    3    0    0  0.61074904585E+01 -0.33131571236E+01  0.23057647330E+02  0.24081809530E+02  0.00000000000E+00 0.  1.
</event>
<event>
 7    1  0.2769403E-010  0.4778724E+02  0.7816164E-02  0.1312668E+00
        -11   -1    0    0    0    0  0.00000000000E+00  0.00000000000E+00  0.45593999997E+02  0.45594000000E+02  0.51100000000E-03 0.  1.
         11   -1    0    0    0    0 -0.00000000000E+00 -0.00000000000E+00 -0.45593999997E+02  0.45594000000E+02  0.51100000000E-03 0. -1.
    9900012    2    1    2    0    0  0.29060171702E+02  0.27001713023E+02 -0.17607938380E+02  0.47787244482E+02  0.19999878891E+02 0.  0.
         12    1    1    2    0    0 -0.29060171702E+02 -0.27001713023E+02  0.17607938380E+02  0.43400755518E+02  0.00000000000E+00 0. -1.
         11    1    3    3    0    0  0.90808031122E+01  0.60570400844E+01  0.47139807107E+00  0.10925700717E+02  0.51100000000E-03 0. -1.
        -11    1    3    3    0    0  0.21931579897E+02  0.17479894602E+02 -0.14823527559E+02  0.31721883324E+02  0.51100000000E-03 0.  1.
         12    1    3    3    0    0 -0.19522113073E+01  0.34647783369E+01 -0.32558088919E+01  0.51396604414E+01  0.00000000000E+00 0. -1.
</event>
<event>
 7    1  0.2932806E-010  0.4778727E+02  0.7816164E-02  0.1312668E+00
        -11   -1    0    0    0    0  0.00000000000E+00  0.00000000000E+00  0.45593999997E+02  0.45594000000E+02  0.51100000000E-03 0. -1.
         11   -1    0    0    0    0 -0.00000000000E+00 -0.00000000000E+00 -0.45593999997E+02  0.45594000000E+02  0.51100000000E-03 0.  1.
    9900012    2    1    2    0    0  0.28489343950E+02  0.27225486556E+02 -0.18186631250E+02  0.47787269671E+02  0.19999993736E+02 0.  0.
         12    1    1    2    0    0 -0.28489343950E+02 -0.27225486556E+02  0.18186631250E+02  0.43400730329E+02  0.00000000000E+00 0. -1.
         11    1    3    3    0    0  0.18884075105E+00  0.10608798720E+02 -0.48649902705E+01  0.11672634737E+02  0.51100000000E-03 0. -1.
        -11    1    3    3    0    0  0.11756597440E+02  0.10968228282E+02 -0.67693844677E+01  0.17445463059E+02  0.51100000000E-03 0.  1.
         12    1    3    3    0    0  0.16543905759E+02  0.56484595544E+01 -0.65522565119E+01  0.18669171875E+02  0.00000000000E+00 0. -1.
</event>
<event>
 7    1  0.2769403E-010  0.4778727E+02  0.7816164E-02  0.1312668E+00
        -11   -1    0    0    0    0  0.00000000000E+00  0.00000000000E+00  0.45593999997E+02  0.45594000000E+02  0.51100000000E-03 0.  1.
         11   -1    0    0    0    0 -0.00000000000E+00 -0.00000000000E+00 -0.45593999997E+02  0.45594000000E+02  0.51100000000E-03 0. -1.
    9900012    2    1    2    0    0  0.91984141785E+01 -0.39695037224E+02  0.14943771677E+02  0.47787272868E+02  0.20000008316E+02 0.  0.
         12    1    1    2    0    0 -0.91984141785E+01  0.39695037224E+02 -0.14943771677E+02  0.43400727132E+02  0.00000000000E+00 0. -1.
         11    1    3    3    0    0  0.18683731767E+01 -0.48940271846E+01  0.25420534618E+01  0.58227447544E+01  0.51100000000E-03 0. -1.
        -11    1    3    3    0    0  0.13475803759E+02 -0.25994925732E+02  0.10172508047E+02  0.30996989708E+02  0.51100000000E-03 0.  1.
         12    1    3    3    0    0 -0.61457627572E+01 -0.88060843079E+01  0.22292101680E+01  0.10967538406E+02  0.00000000000E+00 0. -1.
</event>
<event>
 7    1  0.2769403E-010  0.4778727E+02  0.7816164E-02  0.1312668E+00
        -11   -1    0    0    0    0  0.00000000000E+00  0.00000000000E+00  0.45593999997E+02  0.45594000000E+02  0.51100000000E-03 0. -1.
         11   -1    0    0    0    0 -0.00000000000E+00 -0.00000000000E+00 -0.45593999997E+02  0.45594000000E+02  0.51100000000E-03 0.  1.
    9900012    2    1    2    0    0 -0.43343176988E+02  0.19281265913E+01 -0.11290315285E+01  0.47787269870E+02  0.19999994647E+02 0.  0.
         12    1    1    2    0    0  0.43343176988E+02 -0.19281265913E+01  0.11290315285E+01  0.43400730130E+02  0.00000000000E+00 0. -1.
         11    1    3    3    0    0  0.54631694024E-01 -0.15745951782E+01 -0.96681789176E-01  0.15785063278E+01  0.51100000000E-03 0. -1.
        -11    1    3    3    0    0 -0.33660831436E+01  0.29360321303E+01  0.38235033379E+01  0.58796240046E+01  0.51100000000E-03 0.  1.
        -12    1    3    3    0    0 -0.40031725539E+02  0.56668963924E+00 -0.48558530773E+01  0.40329139538E+02  0.00000000000E+00 0.  1.
</event>
<event>
 7    1  0.3344031E-010  0.4778727E+02  0.7816164E-02  0.1312668E+00
        -11   -1    0    0    0    0  0.00000000000E+00  0.00000000000E+00  0.45593999997E+02  0.45594000000E+02  0.51100000000E-03 0.  1.
         11   -1    0    0    0    0 -0.00000000000E+00 -0.00000000000E+00 -0.45593999997E+02  0.45594000000E+02  0.51100000000E-03 0. -1.
    9900012    2    1    2    0    0 -0.39163541591E+02  0.95629767541E+01  0.16074513000E+02  0.47787268641E+02  0.19999989040E+02 0.  0.
         12    1    1    2    0    0  0.39163541591E+02 -0.95629767541E+01 -0.16074513000E+02  0.43400731359E+02  0.00000000000E+00 0. -1.
         11    1    3    3    0    0 -0.10754913761E+02  0.27791070944E+01  0.11629347206E+02  0.16082080802E+02  0.51100000000E-03 0. -1.
        -11    1    3    3    0    0 -0.16329387269E+02 -0.95056183611E+00  0.56647317132E+01  0.17310160081E+02  0.51100000000E-03 0.  1.
         12    1    3    3    0    0 -0.12079240561E+02  0.77344314958E+01 -0.12195659192E+01  0.14395027757E+02  0.00000000000E+00 0. -1.
</event>
<event>
 7    1  0.2769403E-010  0.4778727E+02  0.7816164E-02  0.1312668E+00
        -11   -1    0    0    0    0  0.00000000000E+00  0.00000000000E+00  0.45593999997E+02  0.45594000000E+02  0.51100000000E-03 0.  1.
         11   -1    0    0    0    0 -0.00000000000E+00 -0.00000000000E+00 -0.45593999997E+02  0.45594000000E+02  0.51100000000E-03 0. -1.
    9900012    2    1    2    0    0  0.83708888608E+01  0.28313024954E+02  0.31810754666E+02  0.47787271034E+02  0.19999999952E+02 0.  0.
         12    1    1    2    0    0 -0.83708888608E+01 -0.28313024954E+02 -0.31810754666E+02  0.43400728966E+02  0.00000000000E+00 0. -1.
         11    1    3    3    0    0  0.37327957977E+01  0.40111257679E+01  0.77192182756E+00  0.55334219035E+01  0.51100000000E-03 0. -1.
        -11    1    3    3    0    0  0.68409762166E+01  0.49152467073E+01  0.52879316454E+01  0.99458949892E+01  0.51100000000E-03 0.  1.
         12    1    3    3    0    0 -0.22028831535E+01  0.19386652479E+02  0.25750901193E+02  0.32307954141E+02  0.00000000000E+00 0. -1.
</event>
<event>
 7    1  0.2769403E-010  0.4778727E+02  0.7816164E-02  0.1312668E+00
        -11   -1    0    0    0    0  0.00000000000E+00  0.00000000000E+00  0.45593999997E+02  0.45594000000E+02  0.51100000000E-03 0. -1.
         11   -1    0    0    0    0 -0.00000000000E+00 -0.00000000000E+00 -0.45593999997E+02  0.45594000000E+02  0.51100000000E-03 0.  1.
    9900012    2    1    2    0    0  0.79538358893E+01 -0.41952984492E+02 -0.77657343352E+01  0.47787273705E+02  0.20000012131E+02 0.  0.
         12    1    1    2    0    0 -0.79538358893E+01  0.41952984492E+02  0.77657343352E+01  0.43400726295E+02  0.00000000000E+00 0. -1.
         11    1    3    3    0    0  0.63651638566E+01 -0.10447004611E+02 -0.41276361248E+01  0.12910948707E+02  0.51100000000E-03 0. -1.
        -11    1    3    3    0    0  0.36675986547E+01 -0.62352936416E+00 -0.90340529685E-01  0.37213210601E+01  0.51100000000E-03 0.  1.
         12    1    3    3    0    0 -0.20789266220E+01 -0.30882450517E+02 -0.35477576807E+01  0.31155003938E+02  0.00000000000E+00 0. -1.
</event>
<event>
 7    1  0.2769403E-010  0.4778726E+02  0.7816164E-02  0.1312668E+00
        -11   -1    0    0    0    0  0.00000000000E+00  0.00000000000E+00  0.45593999997E+02  0.45594000000E+02  0.51100000000E-03 0.  1.
         11   -1    0    0    0    0 -0.00000000000E+00 -0.00000000000E+00 -0.45593999997E+02  0.45594000000E+02  0.51100000000E-03 0. -1.
    9900012    2    1    2    0    0 -0.31429567015E+02  0.27310920299E+02 -0.12244205003E+02  0.47787255692E+02  0.19999930003E+02 0.  0.
         12    1    1    2    0    0  0.31429567015E+02 -0.27310920299E+02  0.12244205003E+02  0.43400744308E+02  0.00000000000E+00 0. -1.
         11    1    3    3    0    0 -0.95713860091E+01  0.69292191503E+01 -0.32158416881E+00  0.11820698998E+02  0.51100000000E-03 0. -1.
        -11    1    3    3    0    0 -0.21105559069E+02  0.17253913878E+02 -0.41761858908E+01  0.27578663793E+02  0.51100000000E-03 0.  1.
         12    1    3    3    0    0 -0.75262193656E+00  0.31277872709E+01 -0.77464349435E+01  0.83878929014E+01  0.00000000000E+00 0. -1.
</event>
<event>
 7    1  0.2769403E-010  0.4778727E+02  0.7816164E-02  0.1312668E+00
        -11   -1    0    0    0    0  0.00000000000E+00  0.00000000000E+00  0.45593999997E+02  0.45594000000E+02  0.51100000000E-03 0.  1.
         11   -1    0    0    0    0 -0.00000000000E+00 -0.00000000000E+00 -0.45593999997E+02  0.45594000000E+02  0.51100000000E-03 0. -1.
    9900012    2    1    2    0    0  0.36819297496E+01  0.12548903357E+02  0.41383468796E+02  0.47787273373E+02  0.20000010618E+02 0.  0.
         12    1    1    2    0    0 -0.36819297496E+01 -0.12548903357E+02 -0.41383468796E+02  0.43400726627E+02  0.00000000000E+00 0. -1.
         11    1    3    3    0    0 -0.16046490380E+01 -0.17428728107E+01  0.10046789722E+01  0.25733022107E+01  0.51100000000E-03 0. -1.
        -11    1    3    3    0    0  0.27624185372E+00  0.10027988720E+02  0.10125191424E+02  0.14253293268E+02  0.51100000000E-03 0.  1.
        -12    1    3    3    0    0  0.50103369339E+01  0.42637874478E+01  0.30253598400E+02  0.30960677895E+02  0.00000000000E+00 0.  1.
</event>
<event>
 7    1  0.2769403E-010  0.4778726E+02  0.7816164E-02  0.1312668E+00
        -11   -1    0    0    0    0  0.00000000000E+00  0.00000000000E+00  0.45593999997E+02  0.45594000000E+02  0.51100000000E-03 0. -1.
         11   -1    0    0    0    0 -0.00000000000E+00 -0.00000000000E+00 -0.45593999997E+02  0.45594000000E+02  0.51100000000E-03 0.  1.
    9900012    2    1    2    0    0  0.13085668596E+02  0.41152192339E+02  0.43458976703E+01  0.47787257109E+02  0.19999936463E+02 0.  0.
         12    1    1    2    0    0 -0.13085668596E+02 -0.41152192339E+02 -0.43458976703E+01  0.43400742891E+02  0.00000000000E+00 0. -1.
         11    1    3    3    0    0  0.37865988166E+01  0.86380238489E+01  0.29330914766E+00  0.94360911997E+01  0.51100000000E-03 0. -1.
        -11    1    3    3    0    0  0.14521260285E+02  0.25509835412E+02  0.23258094731E+01  0.29445340768E+02  0.51100000000E-03 0.  1.
         12    1    3    3    0    0 -0.52221905060E+01  0.70043330788E+01  0.17267790495E+01  0.89058251412E+01  0.00000000000E+00 0. -1.
</event>
<event>
 7    1  0.2769403E-010  0.4778727E+02  0.7816164E-02  0.1312668E+00
        -11   -1    0    0    0    0  0.00000000000E+00  0.00000000000E+00  0.45593999997E+02  0.45594000000E+02  0.51100000000E-03 0.  1.
         11   -1    0    0    0    0 -0.00000000000E+00 -0.00000000000E+00 -0.45593999997E+02  0.45594000000E+02  0.51100000000E-03 0. -1.
    9900012    2    1    2    0    0  0.42685839680E+02  0.21116196297E+00  0.78420509436E+01  0.47787271187E+02  0.20000000648E+02 0.  0.
         12    1    1    2    0    0 -0.42685839680E+02 -0.21116196297E+00 -0.78420509436E+01  0.43400728813E+02  0.00000000000E+00 0. -1.
         11    1    3    3    0    0  0.10061613049E+02  0.10463618844E+01 -0.42536858338E+01  0.10973822204E+02  0.51100000000E-03 0. -1.
        -11    1    3    3    0    0  0.16646999867E+02  0.54925173315E+01  0.50707256358E+01  0.18248359103E+02  0.51100000000E-03 0.  1.
        -12    1    3    3    0    0  0.15977226764E+02 -0.63277172529E+01  0.70250111417E+01  0.18565089880E+02  0.00000000000E+00 0.  1.
</event>
<event>
 7    1  0.2769403E-010  0.4778728E+02  0.7816164E-02  0.1312668E+00
        -11   -1    0    0    0    0  0.00000000000E+00  0.00000000000E+00  0.45593999997E+02  0.45594000000E+02  0.51100000000E-03 0.  1.
         11   -1    0    0    0    0 -0.00000000000E+00 -0.00000000000E+00 -0.45593999997E+02  0.45594000000E+02  0.51100000000E-03 0. -1.
    9900012    2    1    2    0    0  0.39750687020E+02  0.44508658134E+01  0.16843259671E+02  0.47787277409E+02  0.20000029020E+02 0.  0.
         12    1    1    2    0    0 -0.39750687020E+02 -0.44508658134E+01 -0.16843259671E+02  0.43400722591E+02  0.00000000000E+00 0. -1.
         11    1    3    3    0    0  0.28608848648E+02 -0.42932652830E+00  0.72283312694E+01  0.29511003294E+02  0.51100000000E-03 0. -1.
        -11    1    3    3    0    0  0.87114774284E+01 -0.11946395662E+01  0.40243402917E+01  0.96701767162E+01  0.51100000000E-03 0.  1.
        -12    1    3    3    0    0  0.24303609438E+01  0.60748319079E+01  0.55905881099E+01  0.86060973990E+01  0.00000000000E+00 0.  1.
</event>
<event>
 7    1  0.2769403E-010  0.4778727E+02  0.7816164E-02  0.1312668E+00
        -11   -1    0    0    0    0  0.00000000000E+00  0.00000000000E+00  0.45593999997E+02  0.45594000000E+02  0.51100000000E-03 0.  1.
         11   -1    0    0    0    0 -0.00000000000E+00 -0.00000000000E+00 -0.45593999997E+02  0.45594000000E+02  0.51100000000E-03 0. -1.
    9900012    2    1    2    0    0  0.27764601757E+02 -0.29088837598E+02 -0.16327580887E+02  0.47787268656E+02  0.19999989112E+02 0.  0.
         12    1    1    2    0    0 -0.27764601757E+02  0.29088837598E+02  0.16327580887E+02  0.43400731344E+02  0.00000000000E+00 0. -1.
         11    1    3    3    0    0  0.98278291467E+01 -0.80872146521E+01  0.17184428511E+01  0.12842986906E+02  0.51100000000E-03 0. -1.
        -11    1    3    3    0    0 -0.14143043396E+00  0.57705318083E+00  0.85191971401E+00  0.10386339112E+01  0.51100000000E-03 0.  1.
        -12    1    3    3    0    0  0.18078203044E+02 -0.21578676127E+02 -0.18897943452E+02  0.33905647839E+02  0.00000000000E+00 0.  1.
</event>
<event>
 7    1  0.2769403E-010  0.4778727E+02  0.7816164E-02  0.1312668E+00
        -11   -1    0    0    0    0  0.00000000000E+00  0.00000000000E+00  0.45593999997E+02  0.45594000000E+02  0.51100000000E-03 0.  1.
         11   -1    0    0    0    0 -0.00000000000E+00 -0.00000000000E+00 -0.45593999997E+02  0.45594000000E+02  0.51100000000E-03 0. -1.
    9900012    2    1    2    0    0 -0.20795050807E+02 -0.52907086959E+01  0.37725289698E+02  0.47787271673E+02  0.20000002865E+02 0.  0.
         12    1    1    2    0    0  0.20795050807E+02  0.52907086959E+01 -0.37725289698E+02  0.43400728327E+02  0.00000000000E+00 0. -1.
         11    1    3    3    0    0 -0.91499911937E+00 -0.42900223188E+01  0.32129802457E+01  0.54373483615E+01  0.51100000000E-03 0. -1.
        -11    1    3    3    0    0 -0.50324310479E+01 -0.32256483677E+01  0.22026228594E+02  0.22822903321E+02  0.51100000000E-03 0.  1.
        -12    1    3    3    0    0 -0.14847620640E+02  0.22249619906E+01  0.12486080858E+02  0.19527019990E+02  0.00000000000E+00 0.  1.
</event>
<event>
 7    1  0.2769403E-010  0.4778727E+02  0.7816164E-02  0.1312668E+00
        -11   -1    0    0    0    0  0.00000000000E+00  0.00000000000E+00  0.45593999997E+02  0.45594000000E+02  0.51100000000E-03 0.  1.
         11   -1    0    0    0    0 -0.00000000000E+00 -0.00000000000E+00 -0.45593999997E+02  0.45594000000E+02  0.51100000000E-03 0. -1.
    9900012    2    1    2    0    0  0.17141146736E+02 -0.24097770936E+02  0.31766362961E+02  0.47787270844E+02  0.19999999084E+02 0.  0.
         12    1    1    2    0    0 -0.17141146736E+02  0.24097770936E+02 -0.31766362961E+02  0.43400729156E+02  0.00000000000E+00 0. -1.
         11    1    3    3    0    0  0.50176727779E+01 -0.53518302359E+00  0.13503414487E+00  0.50479397239E+01  0.51100000000E-03 0. -1.
        -11    1    3    3    0    0  0.30652617522E+01 -0.92864808103E+01  0.44857711642E+01  0.10759028704E+02  0.51100000000E-03 0.  1.
        -12    1    3    3    0    0  0.90582122060E+01 -0.14276107102E+02  0.27145557652E+02  0.31980302416E+02  0.00000000000E+00 0.  1.
</event>
<event>
 7    1  0.2769403E-010  0.4778727E+02  0.7816164E-02  0.1312668E+00
        -11   -1    0    0    0    0  0.00000000000E+00  0.00000000000E+00  0.45593999997E+02  0.45594000000E+02  0.51100000000E-03 0. -1.
         11   -1    0    0    0    0 -0.00000000000E+00 -0.00000000000E+00 -0.45593999997E+02  0.45594000000E+02  0.51100000000E-03 0.  1.
    9900012    2    1    2    0    0 -0.41367177959E+02 -0.10727276378E+02  0.75700327789E+01  0.47787271123E+02  0.20000000360E+02 0.  0.
         12    1    1    2    0    0  0.41367177959E+02  0.10727276378E+02 -0.75700327789E+01  0.43400728877E+02  0.00000000000E+00 0. -1.
         11    1    3    3    0    0 -0.23684765866E+02  0.12866160629E+01  0.95417368777E+01  0.25566936812E+02  0.51100000000E-03 0. -1.
        -11    1    3    3    0    0 -0.81262248043E+00 -0.90745714350E-01 -0.13192213413E+01  0.15520745113E+01  0.51100000000E-03 0.  1.
         12    1    3    3    0    0 -0.16869789612E+02 -0.11923146727E+02 -0.65248275754E+00  0.20668259800E+02  0.00000000000E+00 0. -1.
</event>
<event>
 7    1  0.2769403E-010  0.4778728E+02  0.7816164E-02  0.1312668E+00
        -11   -1    0    0    0    0  0.00000000000E+00  0.00000000000E+00  0.45593999997E+02  0.45594000000E+02  0.51100000000E-03 0. -1.
         11   -1    0    0    0    0 -0.00000000000E+00 -0.00000000000E+00 -0.45593999997E+02  0.45594000000E+02  0.51100000000E-03 0.  1.
    9900012    2    1    2    0    0  0.42615200620E+02  0.81668661952E+01 -0.93249849177E+00  0.47787279029E+02  0.20000036407E+02 0.  0.
         12    1    1    2    0    0 -0.42615200620E+02 -0.81668661952E+01  0.93249849177E+00  0.43400720971E+02  0.00000000000E+00 0. -1.
         11    1    3    3    0    0  0.55485032649E+00  0.14052110104E+01 -0.30854006396E+01  0.34354292653E+01  0.51100000000E-03 0. -1.
        -11    1    3    3    0    0  0.50842132944E+01 -0.31886458989E+01  0.55440969016E+00  0.60269443218E+01  0.51100000000E-03 0.  1.
        -12    1    3    3    0    0  0.36976136999E+02  0.99503010837E+01  0.15984924577E+01  0.38324905442E+02  0.00000000000E+00 0.  1.
</event>
<event>
 7    1  0.2769403E-010  0.4778727E+02  0.7816164E-02  0.1312668E+00
        -11   -1    0    0    0    0  0.00000000000E+00  0.00000000000E+00  0.45593999997E+02  0.45594000000E+02  0.51100000000E-03 0. -1.
         11   -1    0    0    0    0 -0.00000000000E+00 -0.00000000000E+00 -0.45593999997E+02  0.45594000000E+02  0.51100000000E-03 0.  1.
    9900012    2    1    2    0    0  0.38989046507E+01 -0.32099804111E+02 -0.28948646539E+02  0.47787273993E+02  0.20000013445E+02 0.  0.
         12    1    1    2    0    0 -0.38989046507E+01  0.32099804111E+02  0.28948646539E+02  0.43400726007E+02  0.00000000000E+00 0. -1.
         11    1    3    3    0    0 -0.60080746336E+00 -0.60279716363E+01 -0.21362870096E+01  0.64234830197E+01  0.51100000000E-03 0. -1.
        -11    1    3    3    0    0 -0.17625496873E+01 -0.21463742902E+01 -0.12467839000E+02  0.12773429985E+02  0.51100000000E-03 0.  1.
        -12    1    3    3    0    0  0.62622618014E+01 -0.23925458185E+02 -0.14344520529E+02  0.28590360988E+02  0.00000000000E+00 0.  1.
</event>
<event>
 7    1  0.2769403E-010  0.4778727E+02  0.7816164E-02  0.1312668E+00
        -11   -1    0    0    0    0  0.00000000000E+00  0.00000000000E+00  0.45593999997E+02  0.45594000000E+02  0.51100000000E-03 0.  1.
         11   -1    0    0    0    0 -0.00000000000E+00 -0.00000000000E+00 -0.45593999997E+02  0.45594000000E+02  0.51100000000E-03 0. -1.
    9900012    2    1    2    0    0  0.13562149222E+02  0.26199238003E+02  0.31832235409E+02  0.47787272189E+02  0.20000005217E+02 0.  0.
         12    1    1    2    0    0 -0.13562149222E+02 -0.26199238003E+02 -0.31832235409E+02  0.43400727811E+02  0.00000000000E+00 0. -1.
         11    1    3    3    0    0  0.12735352319E+02  0.56172030913E+01  0.14867171753E+02  0.20366024783E+02  0.51100000000E-03 0. -1.
        -11    1    3    3    0    0  0.38937660774E+00  0.60236136509E+01  0.89536941540E+01  0.10798341300E+02  0.51100000000E-03 0.  1.
        -12    1    3    3    0    0  0.43742029485E+00  0.14558421260E+02  0.80113695015E+01  0.16622906106E+02  0.00000000000E+00 0.  1.
</event>
<event>
 7    1  0.2769403E-010  0.4778727E+02  0.7816164E-02  0.1312668E+00
        -11   -1    0    0    0    0  0.00000000000E+00  0.00000000000E+00  0.45593999997E+02  0.45594000000E+02  0.51100000000E-03 0.  1.
         11   -1    0    0    0    0 -0.00000000000E+00 -0.00000000000E+00 -0.45593999997E+02  0.45594000000E+02  0.51100000000E-03 0. -1.
    9900012    2    1    2    0    0 -0.29377391922E+02 -0.21418389510E+02  0.23703273182E+02  0.47787265848E+02  0.19999976309E+02 0.  0.
         12    1    1    2    0    0  0.29377391922E+02  0.21418389510E+02 -0.23703273182E+02  0.43400734152E+02  0.00000000000E+00 0. -1.
         11    1    3    3    0    0 -0.11667667431E+01  0.11847180381E+01  0.50449812407E+01  0.53119429065E+01  0.51100000000E-03 0. -1.
        -11    1    3    3    0    0 -0.15898617742E+02 -0.61408595492E+01  0.12084254176E+02  0.20892711680E+02  0.51100000000E-03 0.  1.
         12    1    3    3    0    0 -0.12312007437E+02 -0.16462247999E+02  0.65740377653E+01  0.21582611262E+02  0.00000000000E+00 0. -1.
</event>
<event>
 7    1  0.2769403E-010  0.4778726E+02  0.7816164E-02  0.1312668E+00
        -11   -1    0    0    0    0  0.00000000000E+00  0.00000000000E+00  0.45593999997E+02  0.45594000000E+02  0.51100000000E-03 0. -1.
         11   -1    0    0    0    0 -0.00000000000E+00 -0.00000000000E+00 -0.45593999997E+02  0.45594000000E+02  0.51100000000E-03 0.  1.
    9900012    2    1    2    0    0  0.25553945068E+02 -0.34478960271E+02 -0.64669327641E+01  0.47787262342E+02  0.19999960323E+02 0.  0.
         12    1    1    2    0    0 -0.25553945068E+02  0.34478960271E+02  0.64669327641E+01  0.43400737658E+02  0.00000000000E+00 0. -1.
         11    1    3    3    0    0  0.70895637636E-01 -0.55170644244E+01 -0.42981450199E+01  0.69940744154E+01  0.51100000000E-03 0. -1.
        -11    1    3    3    0    0 -0.14251956801E+01 -0.25761546676E+01  0.60234775288E+00  0.30050921242E+01  0.51100000000E-03 0.  1.
        -12    1    3    3    0    0  0.26908245110E+02 -0.26385741179E+02 -0.27711354971E+01  0.37788095803E+02  0.00000000000E+00 0.  1.
</event>
<event>
 7    1  0.2769403E-010  0.4778727E+02  0.7816164E-02  0.1312668E+00
        -11   -1    0    0    0    0  0.00000000000E+00  0.00000000000E+00  0.45593999997E+02  0.45594000000E+02  0.51100000000E-03 0.  1.
         11   -1    0    0    0    0 -0.00000000000E+00 -0.00000000000E+00 -0.45593999997E+02  0.45594000000E+02  0.51100000000E-03 0. -1.
    9900012    2    1    2    0    0  0.24325578393E+02  0.13806292196E+02  0.33185475650E+02  0.47787271176E+02  0.20000000599E+02 0.  0.
         12    1    1    2    0    0 -0.24325578393E+02 -0.13806292196E+02 -0.33185475650E+02  0.43400728824E+02  0.00000000000E+00 0. -1.
         11    1    3    3    0    0  0.57253927264E+01  0.45314886207E+01  0.82663500760E+01  0.11029372368E+02  0.51100000000E-03 0. -1.
        -11    1    3    3    0    0  0.85703513531E+01 -0.19175915159E+01  0.18375346206E+02  0.20366183442E+02  0.51100000000E-03 0.  1.
         12    1    3    3    0    0  0.10029834314E+02  0.11192395091E+02  0.65437793682E+01  0.16391715366E+02  0.00000000000E+00 0. -1.
</event>
<event>
 7    1  0.2769403E-010  0.4778727E+02  0.7816164E-02  0.1312668E+00
        -11   -1    0    0    0    0  0.00000000000E+00  0.00000000000E+00  0.45593999997E+02  0.45594000000E+02  0.51100000000E-03 0.  1.
         11   -1    0    0    0    0 -0.00000000000E+00 -0.00000000000E+00 -0.45593999997E+02  0.45594000000E+02  0.51100000000E-03 0. -1.
    9900012    2    1    2    0    0 -0.33921030966E+02 -0.26369426312E+01  0.26945003829E+02  0.47787273744E+02  0.20000012308E+02 0.  0.
         12    1    1    2    0    0  0.33921030966E+02  0.26369426312E+01 -0.26945003829E+02  0.43400726256E+02  0.00000000000E+00 0. -1.
         11    1    3    3    0    0 -0.14580886285E+02 -0.53865321997E+01  0.17030914521E+02  0.23057949251E+02  0.51100000000E-03 0. -1.
        -11    1    3    3    0    0 -0.11059179283E+02  0.37262629300E+01  0.11337310158E+02  0.16270374418E+02  0.51100000000E-03 0.  1.
         12    1    3    3    0    0 -0.82809653980E+01 -0.97667336157E+00 -0.14232208499E+01  0.84589500746E+01  0.00000000000E+00 0. -1.
</event>
<event>
 7    1  0.2769403E-010  0.4778727E+02  0.7816164E-02  0.1312668E+00
        -11   -1    0    0    0    0  0.00000000000E+00  0.00000000000E+00  0.45593999997E+02  0.45594000000E+02  0.51100000000E-03 0. -1.
         11   -1    0    0    0    0 -0.00000000000E+00 -0.00000000000E+00 -0.45593999997E+02  0.45594000000E+02  0.51100000000E-03 0.  1.
    9900012    2    1    2    0    0 -0.96922088189E+01  0.17742190988E+02 -0.38404416948E+02  0.47787268508E+02  0.19999988437E+02 0.  0.
         12    1    1    2    0    0  0.96922088189E+01 -0.17742190988E+02  0.38404416948E+02  0.43400731492E+02  0.00000000000E+00 0. -1.
         11    1    3    3    0    0 -0.34282604713E+01  0.72642725607E+00 -0.99766008654E-01  0.35057980454E+01  0.51100000000E-03 0. -1.
        -11    1    3    3    0    0 -0.93657895288E+01  0.11992187771E+02 -0.20544891271E+02  0.25566054421E+02  0.51100000000E-03 0.  1.
        -12    1    3    3    0    0  0.31018411812E+01  0.50235759615E+01 -0.17759759668E+02  0.18715416042E+02  0.00000000000E+00 0.  1.
</event>
<event>
 7    1  0.2769403E-010  0.4778727E+02  0.7816164E-02  0.1312668E+00
        -11   -1    0    0    0    0  0.00000000000E+00  0.00000000000E+00  0.45593999997E+02  0.45594000000E+02  0.51100000000E-03 0.  1.
         11   -1    0    0    0    0 -0.00000000000E+00 -0.00000000000E+00 -0.45593999997E+02  0.45594000000E+02  0.51100000000E-03 0. -1.
    9900012    2    1    2    0    0  0.36424865548E+02  0.32171673079E+01  0.23377385784E+02  0.47787272336E+02  0.20000005888E+02 0.  0.
         12    1    1    2    0    0 -0.36424865548E+02 -0.32171673079E+01 -0.23377385784E+02  0.43400727664E+02  0.00000000000E+00 0. -1.
         11    1    3    3    0    0 -0.25634760371E-01 -0.92864133410E+00  0.32876762141E+01  0.34164084970E+01  0.51100000000E-03 0. -1.
        -11    1    3    3    0    0  0.69903130677E+01 -0.12263832909E+01  0.10972580292E+02  0.13067746986E+02  0.51100000000E-03 0.  1.
        -12    1    3    3    0    0  0.29460187241E+02  0.53721919328E+01  0.91171292774E+01  0.31303116853E+02  0.00000000000E+00 0.  1.
</event>
<event>
 7    1  0.2769403E-010  0.4778727E+02  0.7816164E-02  0.1312668E+00
        -11   -1    0    0    0    0  0.00000000000E+00  0.00000000000E+00  0.45593999997E+02  0.45594000000E+02  0.51100000000E-03 0.  1.
         11   -1    0    0    0    0 -0.00000000000E+00 -0.00000000000E+00 -0.45593999997E+02  0.45594000000E+02  0.51100000000E-03 0. -1.
    9900012    2    1    2    0    0 -0.37309962537E+02  0.44758390084E+00  0.22167312699E+02  0.47787269728E+02  0.19999993998E+02 0.  0.
         12    1    1    2    0    0  0.37309962537E+02 -0.44758390084E+00 -0.22167312699E+02  0.43400730272E+02  0.00000000000E+00 0. -1.
         11    1    3    3    0    0 -0.21712692150E+02 -0.27623037996E+01  0.62660409862E+01  0.22766962744E+02  0.51100000000E-03 0. -1.
        -11    1    3    3    0    0 -0.82227671313E+01 -0.17333917820E+01  0.21873218876E+01  0.86834856865E+01  0.51100000000E-03 0.  1.
         12    1    3    3    0    0 -0.73745032557E+01  0.49432794825E+01  0.13713949825E+02  0.16336821298E+02  0.00000000000E+00 0. -1.
</event>
<event>
 7    1  0.2791937E-010  0.4778726E+02  0.7816164E-02  0.1312668E+00
        -11   -1    0    0    0    0  0.00000000000E+00  0.00000000000E+00  0.45593999997E+02  0.45594000000E+02  0.51100000000E-03 0.  1.
         11   -1    0    0    0    0 -0.00000000000E+00 -0.00000000000E+00 -0.45593999997E+02  0.45594000000E+02  0.51100000000E-03 0. -1.
    9900012    2    1    2    0    0  0.31618427650E+02  0.19648452286E+02  0.22312275354E+02  0.47787259502E+02  0.19999947375E+02 0.  0.
         12    1    1    2    0    0 -0.31618427650E+02 -0.19648452286E+02 -0.22312275354E+02  0.43400740498E+02  0.00000000000E+00 0. -1.
         11    1    3    3    0    0  0.12977836760E+02  0.81772527642E+01  0.29369876358E+01  0.15617861774E+02  0.51100000000E-03 0. -1.
        -11    1    3    3    0    0  0.39368559736E+01  0.10083312700E+02  0.69017782007E+01  0.12837701218E+02  0.51100000000E-03 0.  1.
         12    1    3    3    0    0  0.14703734916E+02  0.13878868216E+01  0.12473509518E+02  0.19331696511E+02  0.00000000000E+00 0. -1.
</event>
<event>
 7    1  0.2769403E-010  0.4778727E+02  0.7816164E-02  0.1312668E+00
        -11   -1    0    0    0    0  0.00000000000E+00  0.00000000000E+00  0.45593999997E+02  0.45594000000E+02  0.51100000000E-03 0.  1.
         11   -1    0    0    0    0 -0.00000000000E+00 -0.00000000000E+00 -0.45593999997E+02  0.45594000000E+02  0.51100000000E-03 0. -1.
    9900012    2    1    2    0    0 -0.24560122220E+02 -0.22677919697E+02  0.27679154126E+02  0.47787271684E+02  0.20000002916E+02 0.  0.
         12    1    1    2    0    0  0.24560122220E+02  0.22677919697E+02 -0.27679154126E+02  0.43400728316E+02  0.00000000000E+00 0. -1.
         11    1    3    3    0    0 -0.21564689180E+02 -0.18519561029E+02  0.12637232007E+02  0.31108031008E+02  0.51100000000E-03 0.  1.
        -11    1    3    3    0    0 -0.80794271281E-01  0.68223457412E+00  0.86997216740E-01  0.69248863185E+00  0.51100000000E-03 0. -1.
        -12    1    3    3    0    0 -0.29146387686E+01 -0.48405932420E+01  0.14954924902E+02  0.15986752044E+02  0.00000000000E+00 0.  1.
</event>
<event>
 7    1  0.2769403E-010  0.4778728E+02  0.7816164E-02  0.1312668E+00
        -11   -1    0    0    0    0  0.00000000000E+00  0.00000000000E+00  0.45593999997E+02  0.45594000000E+02  0.51100000000E-03 0. -1.
         11   -1    0    0    0    0 -0.00000000000E+00 -0.00000000000E+00 -0.45593999997E+02  0.45594000000E+02  0.51100000000E-03 0.  1.
    9900012    2    1    2    0    0  0.41301636821E+02  0.27515821009E+01 -0.13047062185E+02  0.47787282957E+02  0.20000054315E+02 0.  0.
         12    1    1    2    0    0 -0.41301636821E+02 -0.27515821009E+01  0.13047062185E+02  0.43400717043E+02  0.00000000000E+00 0. -1.
         11    1    3    3    0    0 -0.11279761129E+00 -0.63450826949E+00  0.54308324086E+00  0.84277144754E+00  0.51100000000E-03 0. -1.
        -11    1    3    3    0    0  0.16762902580E+02  0.81544525282E+01 -0.11141598100E+02  0.21716933656E+02  0.51100000000E-03 0.  1.
        -12    1    3    3    0    0  0.24651531852E+02 -0.47683621578E+01 -0.24485473251E+01  0.25227577853E+02  0.00000000000E+00 0.  1.
</event>
<event>
 7    1  0.2769403E-010  0.4778727E+02  0.7816164E-02  0.1312668E+00
        -11   -1    0    0    0    0  0.00000000000E+00  0.00000000000E+00  0.45593999997E+02  0.45594000000E+02  0.51100000000E-03 0.  1.
         11   -1    0    0    0    0 -0.00000000000E+00 -0.00000000000E+00 -0.45593999997E+02  0.45594000000E+02  0.51100000000E-03 0. -1.
    9900012    2    1    2    0    0  0.36617287551E+02  0.20266557597E+02  0.11491912218E+02  0.47787272462E+02  0.20000006462E+02 0.  0.
         12    1    1    2    0    0 -0.36617287551E+02 -0.20266557597E+02 -0.11491912218E+02  0.43400727538E+02  0.00000000000E+00 0. -1.
         11    1    3    3    0    0  0.10480084144E+02  0.52312079057E+01  0.31325811393E+01  0.12124799572E+02  0.51100000000E-03 0.  1.
        -11    1    3    3    0    0  0.11946267564E+02  0.16116486989E+02  0.22944937603E+01  0.20192056940E+02  0.51100000000E-03 0. -1.
         12    1    3    3    0    0  0.14190935842E+02 -0.10811372975E+01  0.60648373188E+01  0.15470415949E+02  0.00000000000E+00 0. -1.
</event>
<event>
 7    1  0.2769403E-010  0.4778727E+02  0.7816164E-02  0.1312668E+00
        -11   -1    0    0    0    0  0.00000000000E+00  0.00000000000E+00  0.45593999997E+02  0.45594000000E+02  0.51100000000E-03 0.  1.
         11   -1    0    0    0    0 -0.00000000000E+00 -0.00000000000E+00 -0.45593999997E+02  0.45594000000E+02  0.51100000000E-03 0. -1.
    9900012    2    1    2    0    0 -0.22183677345E+02  0.23221356453E+02  0.29193770602E+02  0.47787272148E+02  0.20000005032E+02 0.  0.
         12    1    1    2    0    0  0.22183677345E+02 -0.23221356453E+02 -0.29193770602E+02  0.43400727852E+02  0.00000000000E+00 0. -1.
         11    1    3    3    0    0 -0.97125989695E+00  0.19267203153E+01  0.41020695614E+01  0.46349295473E+01  0.51100000000E-03 0. -1.
        -11    1    3    3    0    0 -0.58626889216E+01  0.97050740138E+01  0.20424356414E+02  0.23360520503E+02  0.51100000000E-03 0.  1.
         12    1    3    3    0    0 -0.15349728527E+02  0.11589562124E+02  0.46673446275E+01  0.19791822098E+02  0.00000000000E+00 0. -1.
</event>
<event>
 7    1  0.2769403E-010  0.4778727E+02  0.7816164E-02  0.1312668E+00
        -11   -1    0    0    0    0  0.00000000000E+00  0.00000000000E+00  0.45593999997E+02  0.45594000000E+02  0.51100000000E-03 0. -1.
         11   -1    0    0    0    0 -0.00000000000E+00 -0.00000000000E+00 -0.45593999997E+02  0.45594000000E+02  0.51100000000E-03 0.  1.
    9900012    2    1    2    0    0 -0.40908966179E+02  0.13538094442E+02 -0.51768484847E+01  0.47787271029E+02  0.19999999931E+02 0.  0.
         12    1    1    2    0    0  0.40908966179E+02 -0.13538094442E+02  0.51768484847E+01  0.43400728971E+02  0.00000000000E+00 0. -1.
         11    1    3    3    0    0 -0.14690831409E+01 -0.25176355041E+01 -0.10558765747E+01  0.31002531201E+01  0.51100000000E-03 0. -1.
        -11    1    3    3    0    0 -0.10184827594E+02  0.75891294409E+01 -0.62524929010E+01  0.14156951174E+02  0.51100000000E-03 0.  1.
        -12    1    3    3    0    0 -0.29255055444E+02  0.84666005053E+01  0.21315209910E+01  0.30530066736E+02  0.00000000000E+00 0.  1.
</event>
<event>
 7    1  0.2769403E-010  0.4778727E+02  0.7816164E-02  0.1312668E+00
        -11   -1    0    0    0    0  0.00000000000E+00  0.00000000000E+00  0.45593999997E+02  0.45594000000E+02  0.51100000000E-03 0.  1.
         11   -1    0    0    0    0 -0.00000000000E+00 -0.00000000000E+00 -0.45593999997E+02  0.45594000000E+02  0.51100000000E-03 0. -1.
    9900012    2    1    2    0    0 -0.33947321434E+02 -0.26671646499E+02 -0.44526699342E+01  0.47787266953E+02  0.19999981344E+02 0.  0.
         12    1    1    2    0    0  0.33947321434E+02  0.26671646499E+02  0.44526699342E+01  0.43400733047E+02  0.00000000000E+00 0. -1.
         11    1    3    3    0    0 -0.28904131193E+01  0.51510778907E+00 -0.52353840243E+00  0.29822670495E+01  0.51100000000E-03 0. -1.
        -11    1    3    3    0    0 -0.31168441530E+02 -0.19171788589E+02 -0.37847974095E+01  0.36787958856E+02  0.51100000000E-03 0.  1.
         12    1    3    3    0    0  0.11153321549E+00 -0.80149656987E+01 -0.14433412223E+00  0.80170410469E+01  0.00000000000E+00 0. -1.
</event>
<event>
 7    1  0.2769403E-010  0.4778727E+02  0.7816164E-02  0.1312668E+00
        -11   -1    0    0    0    0  0.00000000000E+00  0.00000000000E+00  0.45593999997E+02  0.45594000000E+02  0.51100000000E-03 0.  1.
         11   -1    0    0    0    0 -0.00000000000E+00 -0.00000000000E+00 -0.45593999997E+02  0.45594000000E+02  0.51100000000E-03 0. -1.
    9900012    2    1    2    0    0 -0.78866843674E+01  0.34331310216E+02  0.25353195757E+02  0.47787272051E+02  0.20000004589E+02 0.  0.
         12    1    1    2    0    0  0.78866843674E+01 -0.34331310216E+02 -0.25353195757E+02  0.43400727949E+02  0.00000000000E+00 0. -1.
         11    1    3    3    0    0 -0.10497078036E+02  0.23228784806E+02  0.89520893599E+01  0.27016753969E+02  0.51100000000E-03 0. -1.
        -11    1    3    3    0    0  0.66359114813E+00  0.14111255407E+01 -0.69923067429E-01  0.15609349762E+01  0.51100000000E-03 0.  1.
         12    1    3    3    0    0  0.19468025206E+01  0.96913998685E+01  0.16471029464E+02  0.19209583105E+02  0.00000000000E+00 0. -1.
</event>
<event>
 7    1  0.2769403E-010  0.4778727E+02  0.7816164E-02  0.1312668E+00
        -11   -1    0    0    0    0  0.00000000000E+00  0.00000000000E+00  0.45593999997E+02  0.45594000000E+02  0.51100000000E-03 0. -1.
         11   -1    0    0    0    0 -0.00000000000E+00 -0.00000000000E+00 -0.45593999997E+02  0.45594000000E+02  0.51100000000E-03 0.  1.
    9900012    2    1    2    0    0  0.25103849039E+02  0.81019348643E-01 -0.35403578554E+02  0.47787272182E+02  0.20000005187E+02 0.  0.
         12    1    1    2    0    0 -0.25103849039E+02 -0.81019348643E-01  0.35403578554E+02  0.43400727818E+02  0.00000000000E+00 0. -1.
         11    1    3    3    0    0  0.13108232693E+02  0.58704937202E+01 -0.13562577833E+02  0.19754290131E+02  0.51100000000E-03 0. -1.
        -11    1    3    3    0    0  0.11525314691E+02 -0.12697252570E+01 -0.98647425976E+01  0.15223607580E+02  0.51100000000E-03 0.  1.
         12    1    3    3    0    0  0.47030165482E+00 -0.45197491146E+01 -0.11976258123E+02  0.12809374471E+02  0.00000000000E+00 0. -1.
</event>
<event>
 7    1  0.2769403E-010  0.4778727E+02  0.7816164E-02  0.1312668E+00
        -11   -1    0    0    0    0  0.00000000000E+00  0.00000000000E+00  0.45593999997E+02  0.45594000000E+02  0.51100000000E-03 0.  1.
         11   -1    0    0    0    0 -0.00000000000E+00 -0.00000000000E+00 -0.45593999997E+02  0.45594000000E+02  0.51100000000E-03 0. -1.
    9900012    2    1    2    0    0 -0.34840278628E+02  0.22475054669E+01  0.25782299932E+02  0.47787270910E+02  0.19999999389E+02 0.  0.
         12    1    1    2    0    0  0.34840278628E+02 -0.22475054669E+01 -0.25782299932E+02  0.43400729090E+02  0.00000000000E+00 0. -1.
         11    1    3    3    0    0 -0.13041065912E+02 -0.71261846578E+00  0.17126486467E+02  0.21538193149E+02  0.51100000000E-03 0. -1.
        -11    1    3    3    0    0 -0.80751595627E+01 -0.43593966685E+01  0.40231009514E+01  0.10019874391E+02  0.51100000000E-03 0.  1.
         12    1    3    3    0    0 -0.13724053154E+02  0.73195206012E+01  0.46327125138E+01  0.16229203370E+02  0.00000000000E+00 0. -1.
</event>
<event>
 7    1  0.2769403E-010  0.4778727E+02  0.7816164E-02  0.1312668E+00
        -11   -1    0    0    0    0  0.00000000000E+00  0.00000000000E+00  0.45593999997E+02  0.45594000000E+02  0.51100000000E-03 0.  1.
         11   -1    0    0    0    0 -0.00000000000E+00 -0.00000000000E+00 -0.45593999997E+02  0.45594000000E+02  0.51100000000E-03 0. -1.
    9900012    2    1    2    0    0  0.39413993427E+02 -0.15271323858E+02  0.98461732378E+01  0.47787270310E+02  0.19999996650E+02 0.  0.
         12    1    1    2    0    0 -0.39413993427E+02  0.15271323858E+02 -0.98461732378E+01  0.43400729690E+02  0.00000000000E+00 0. -1.
         11    1    3    3    0    0  0.26344576330E+00  0.13068402806E+01  0.72542006534E+00  0.15177185910E+01  0.51100000000E-03 0. -1.
        -11    1    3    3    0    0  0.36484136050E+02 -0.18621795720E+02  0.54983531625E+01  0.41329110163E+02  0.51100000000E-03 0.  1.
        -12    1    3    3    0    0  0.26664116135E+01  0.20436315807E+01  0.36224000100E+01  0.49404415555E+01  0.00000000000E+00 0.  1.
</event>
<event>
 7    1  0.2769403E-010  0.4778728E+02  0.7816164E-02  0.1312668E+00
        -11   -1    0    0    0    0  0.00000000000E+00  0.00000000000E+00  0.45593999997E+02  0.45594000000E+02  0.51100000000E-03 0.  1.
         11   -1    0    0    0    0 -0.00000000000E+00 -0.00000000000E+00 -0.45593999997E+02  0.45594000000E+02  0.51100000000E-03 0. -1.
    9900012    2    1    2    0    0 -0.11187954313E+02 -0.26450742864E+02  0.32539361938E+02  0.47787283472E+02  0.20000056663E+02 0.  0.
         12    1    1    2    0    0  0.11187954313E+02  0.26450742864E+02 -0.32539361938E+02  0.43400716528E+02  0.00000000000E+00 0. -1.
         11    1    3    3    0    0 -0.46795226183E+01 -0.42597298149E+01  0.82692508346E+01  0.10412672071E+02  0.51100000000E-03 0. -1.
        -11    1    3    3    0    0  0.26203174470E+01 -0.13260909938E+02  0.19532852932E+02  0.23753949983E+02  0.51100000000E-03 0.  1.
         12    1    3    3    0    0 -0.91287491413E+01 -0.89301031115E+01  0.47372581721E+01  0.13620661418E+02  0.00000000000E+00 0. -1.
</event>
<event>
 7    1  0.2769403E-010  0.4778727E+02  0.7816164E-02  0.1312668E+00
        -11   -1    0    0    0    0  0.00000000000E+00  0.00000000000E+00  0.45593999997E+02  0.45594000000E+02  0.51100000000E-03 0.  1.
         11   -1    0    0    0    0 -0.00000000000E+00 -0.00000000000E+00 -0.45593999997E+02  0.45594000000E+02  0.51100000000E-03 0. -1.
    9900012    2    1    2    0    0 -0.10365567120E+02 -0.39578201496E+02 -0.14482545886E+02  0.47787272463E+02  0.20000006469E+02 0.  0.
         12    1    1    2    0    0  0.10365567120E+02  0.39578201496E+02  0.14482545886E+02  0.43400727537E+02  0.00000000000E+00 0. -1.
         11    1    3    3    0    0 -0.29467363940E+01 -0.12430462850E+02  0.44562944153E+00  0.12782732412E+02  0.51100000000E-03 0. -1.
        -11    1    3    3    0    0 -0.65093337130E+01 -0.26083246140E+02 -0.81618762475E+01  0.28094899515E+02  0.51100000000E-03 0.  1.
         12    1    3    3    0    0 -0.90949701249E+00 -0.10644925059E+01 -0.67662990799E+01  0.69096405370E+01  0.00000000000E+00 0. -1.
</event>
<event>
 7    1  0.2769403E-010  0.4778727E+02  0.7816164E-02  0.1312668E+00
        -11   -1    0    0    0    0  0.00000000000E+00  0.00000000000E+00  0.45593999997E+02  0.45594000000E+02  0.51100000000E-03 0.  1.
         11   -1    0    0    0    0 -0.00000000000E+00 -0.00000000000E+00 -0.45593999997E+02  0.45594000000E+02  0.51100000000E-03 0. -1.
    9900012    2    1    2    0    0 -0.25860132973E+02 -0.27181571513E+02  0.21818319111E+02  0.47787270097E+02  0.19999995679E+02 0.  0.
         12    1    1    2    0    0  0.25860132973E+02  0.27181571513E+02 -0.21818319111E+02  0.43400729903E+02  0.00000000000E+00 0. -1.
         11    1    3    3    0    0 -0.41104058471E+01  0.21317007999E+01  0.48818831683E+01  0.67284744228E+01  0.51100000000E-03 0. -1.
        -11    1    3    3    0    0 -0.50068474442E+01 -0.13393581507E+02  0.63383111143E+01  0.15640675655E+02  0.51100000000E-03 0.  1.
        -12    1    3    3    0    0 -0.16742879682E+02 -0.15919690806E+02  0.10598124829E+02  0.25418120019E+02  0.00000000000E+00 0.  1.
</event>
<event>
 7    1  0.2769403E-010  0.4778726E+02  0.7816164E-02  0.1312668E+00
        -11   -1    0    0    0    0  0.00000000000E+00  0.00000000000E+00  0.45593999997E+02  0.45594000000E+02  0.51100000000E-03 0. -1.
         11   -1    0    0    0    0 -0.00000000000E+00 -0.00000000000E+00 -0.45593999997E+02  0.45594000000E+02  0.51100000000E-03 0.  1.
    9900012    2    1    2    0    0 -0.29348275358E+02  0.27100203782E+02 -0.16967079941E+02  0.47787261375E+02  0.19999955912E+02 0.  0.
         12    1    1    2    0    0  0.29348275358E+02 -0.27100203782E+02  0.16967079941E+02  0.43400738625E+02  0.00000000000E+00 0. -1.
         11    1    3    3    0    0 -0.12726854112E+02  0.14099972551E+02 -0.11829558808E+02  0.22376784920E+02  0.51100000000E-03 0. -1.
        -11    1    3    3    0    0 -0.67760908275E+01  0.17030854843E+01 -0.74887598027E+01  0.10241944674E+02  0.51100000000E-03 0.  1.
         12    1    3    3    0    0 -0.98453304182E+01  0.11297145747E+02  0.23512386704E+01  0.15168531780E+02  0.00000000000E+00 0. -1.
</event>
<event>
 7    1  0.2769403E-010  0.4778727E+02  0.7816164E-02  0.1312668E+00
        -11   -1    0    0    0    0  0.00000000000E+00  0.00000000000E+00  0.45593999997E+02  0.45594000000E+02  0.51100000000E-03 0.  1.
         11   -1    0    0    0    0 -0.00000000000E+00 -0.00000000000E+00 -0.45593999997E+02  0.45594000000E+02  0.51100000000E-03 0. -1.
    9900012    2    1    2    0    0 -0.39424220838E+02  0.16143357934E+02  0.82913244355E+01  0.47787271263E+02  0.20000000996E+02 0.  0.
         12    1    1    2    0    0  0.39424220838E+02 -0.16143357934E+02 -0.82913244355E+01  0.43400728737E+02  0.00000000000E+00 0. -1.
         11    1    3    3    0    0  0.18960273575E+01  0.32470829323E+01  0.80192866322E+00  0.38446790700E+01  0.51100000000E-03 0. -1.
        -11    1    3    3    0    0 -0.76846072034E+01  0.22935150965E+01  0.97212220590E+00  0.80782684539E+01  0.51100000000E-03 0.  1.
         12    1    3    3    0    0 -0.33635640992E+02  0.10602759905E+02  0.65172735664E+01  0.35864323739E+02  0.00000000000E+00 0. -1.
</event>
<event>
 7    1  0.2769403E-010  0.4778727E+02  0.7816164E-02  0.1312668E+00
        -11   -1    0    0    0    0  0.00000000000E+00  0.00000000000E+00  0.45593999997E+02  0.45594000000E+02  0.51100000000E-03 0. -1.
         11   -1    0    0    0    0 -0.00000000000E+00 -0.00000000000E+00 -0.45593999997E+02  0.45594000000E+02  0.51100000000E-03 0.  1.
    9900012    2    1    2    0    0  0.33369324302E+02  0.99860130533E+01 -0.25891905427E+02  0.47787273880E+02  0.20000012929E+02 0.  0.
         12    1    1    2    0    0 -0.33369324302E+02 -0.99860130533E+01  0.25891905427E+02  0.43400726120E+02  0.00000000000E+00 0. -1.
         11    1    3    3    0    0  0.94390262707E+01 -0.76039799454E+00 -0.50802819382E+01  0.10746287121E+02  0.51100000000E-03 0. -1.
        -11    1    3    3    0    0  0.24062076988E+02  0.12478977265E+02 -0.15008422297E+02  0.30983240029E+02  0.51100000000E-03 0.  1.
         12    1    3    3    0    0 -0.13177895625E+00 -0.17325662172E+01 -0.58032011911E+01  0.60577467308E+01  0.00000000000E+00 0. -1.
</event>
<event>
 7    1  0.2769403E-010  0.4778727E+02  0.7816164E-02  0.1312668E+00
        -11   -1    0    0    0    0  0.00000000000E+00  0.00000000000E+00  0.45593999997E+02  0.45594000000E+02  0.51100000000E-03 0.  1.
         11   -1    0    0    0    0 -0.00000000000E+00 -0.00000000000E+00 -0.45593999997E+02  0.45594000000E+02  0.51100000000E-03 0. -1.
    9900012    2    1    2    0    0  0.28307208592E+02  0.24970822004E+02  0.21419223141E+02  0.47787272705E+02  0.20000007569E+02 0.  0.
         12    1    1    2    0    0 -0.28307208592E+02 -0.24970822004E+02 -0.21419223141E+02  0.43400727295E+02  0.00000000000E+00 0. -1.
         11    1    3    3    0    0  0.15634320369E+02  0.64944168360E+01  0.37505745838E+01  0.17340018265E+02  0.51100000000E-03 0. -1.
        -11    1    3    3    0    0  0.79866623259E+01  0.77093279323E+01  0.27034127668E+01  0.11424926832E+02  0.51100000000E-03 0.  1.
        -12    1    3    3    0    0  0.46862258968E+01  0.10767077235E+02  0.14965235790E+02  0.19022327608E+02  0.00000000000E+00 0.  1.
</event>
<event>
 7    1  0.2769403E-010  0.4778727E+02  0.7816164E-02  0.1312668E+00
        -11   -1    0    0    0    0  0.00000000000E+00  0.00000000000E+00  0.45593999997E+02  0.45594000000E+02  0.51100000000E-03 0.  1.
         11   -1    0    0    0    0 -0.00000000000E+00 -0.00000000000E+00 -0.45593999997E+02  0.45594000000E+02  0.51100000000E-03 0. -1.
    9900012    2    1    2    0    0  0.28089494146E+01  0.33396558158E+02  0.27575403777E+02  0.47787272045E+02  0.20000004560E+02 0.  0.
         12    1    1    2    0    0 -0.28089494146E+01 -0.33396558158E+02 -0.27575403777E+02  0.43400727955E+02  0.00000000000E+00 0. -1.
         11    1    3    3    0    0 -0.39576123499E+01  0.15346928780E+01  0.15670715864E+01  0.45247863331E+01  0.51100000000E-03 0. -1.
        -11    1    3    3    0    0 -0.20387093193E+01  0.12461816905E+02  0.57917759685E+01  0.13892367883E+02  0.51100000000E-03 0.  1.
         12    1    3    3    0    0  0.88052710838E+01  0.19400048375E+02  0.20216556222E+02  0.29370117829E+02  0.00000000000E+00 0. -1.
</event>
<event>
 7    1  0.2769403E-010  0.4778727E+02  0.7816164E-02  0.1312668E+00
        -11   -1    0    0    0    0  0.00000000000E+00  0.00000000000E+00  0.45593999997E+02  0.45594000000E+02  0.51100000000E-03 0.  1.
         11   -1    0    0    0    0 -0.00000000000E+00 -0.00000000000E+00 -0.45593999997E+02  0.45594000000E+02  0.51100000000E-03 0. -1.
    9900012    2    1    2    0    0  0.32901124752E+02  0.27888379375E+02  0.48350339067E+01  0.47787271123E+02  0.20000000360E+02 0.  0.
         12    1    1    2    0    0 -0.32901124752E+02 -0.27888379375E+02 -0.48350339067E+01  0.43400728877E+02  0.00000000000E+00 0. -1.
         11    1    3    3    0    0 -0.16848466788E+01  0.26424305489E+01  0.13299462764E-01  0.31338992762E+01  0.51100000000E-03 0. -1.
        -11    1    3    3    0    0  0.29961250226E+01  0.70412219862E+00  0.34553320587E+01  0.46272965237E+01  0.51100000000E-03 0.  1.
        -12    1    3    3    0    0  0.31589846408E+02  0.24541826628E+02  0.13664023852E+01  0.40026075324E+02  0.00000000000E+00 0.  1.
</event>
<event>
 7    1  0.2769403E-010  0.4778728E+02  0.7816164E-02  0.1312668E+00
        -11   -1    0    0    0    0  0.00000000000E+00  0.00000000000E+00  0.45593999997E+02  0.45594000000E+02  0.51100000000E-03 0.  1.
         11   -1    0    0    0    0 -0.00000000000E+00 -0.00000000000E+00 -0.45593999997E+02  0.45594000000E+02  0.51100000000E-03 0. -1.
    9900012    2    1    2    0    0 -0.22270702262E+02  0.42351554409E+01  0.37009486761E+02  0.47787276145E+02  0.20000023254E+02 0.  0.
         12    1    1    2    0    0  0.22270702262E+02 -0.42351554409E+01 -0.37009486761E+02  0.43400723855E+02  0.00000000000E+00 0. -1.
         11    1    3    3    0    0 -0.11811652533E+02  0.46839908343E+01  0.12523409455E+02  0.17840703191E+02  0.51100000000E-03 0.  1.
        -11    1    3    3    0    0  0.25602681001E+01  0.10620661573E+01  0.81503664631E+00  0.28891594388E+01  0.51100000000E-03 0. -1.
         12    1    3    3    0    0 -0.13019317829E+02 -0.15109015507E+01  0.23671040659E+02  0.27057413515E+02  0.00000000000E+00 0. -1.
</event>
<event>
 7    1  0.2769403E-010  0.4778727E+02  0.7816164E-02  0.1312668E+00
        -11   -1    0    0    0    0  0.00000000000E+00  0.00000000000E+00  0.45593999997E+02  0.45594000000E+02  0.51100000000E-03 0.  1.
         11   -1    0    0    0    0 -0.00000000000E+00 -0.00000000000E+00 -0.45593999997E+02  0.45594000000E+02  0.51100000000E-03 0. -1.
    9900012    2    1    2    0    0  0.37960950986E+02  0.20390449098E+02  0.51787148109E+01  0.47787270729E+02  0.19999998561E+02 0.  0.
         12    1    1    2    0    0 -0.37960950986E+02 -0.20390449098E+02 -0.51787148109E+01  0.43400729271E+02  0.00000000000E+00 0. -1.
         11    1    3    3    0    0 -0.10543240322E+01  0.10483274319E+01 -0.88865992624E+00  0.17321392251E+01  0.51100000000E-03 0. -1.
        -11    1    3    3    0    0  0.24512067961E+02  0.15790532427E+02 -0.17317478942E+01  0.29209268068E+02  0.51100000000E-03 0.  1.
        -12    1    3    3    0    0  0.14503207057E+02  0.35515892393E+01  0.77991226314E+01  0.16845863435E+02  0.00000000000E+00 0.  1.
</event>
<event>
 7    1  0.2769403E-010  0.4778727E+02  0.7816164E-02  0.1312668E+00
        -11   -1    0    0    0    0  0.00000000000E+00  0.00000000000E+00  0.45593999997E+02  0.45594000000E+02  0.51100000000E-03 0.  1.
         11   -1    0    0    0    0 -0.00000000000E+00 -0.00000000000E+00 -0.45593999997E+02  0.45594000000E+02  0.51100000000E-03 0. -1.
    9900012    2    1    2    0    0 -0.34024235529E+02 -0.14418664724E+02  0.22761304944E+02  0.47787268456E+02  0.19999988199E+02 0.  0.
         12    1    1    2    0    0  0.34024235529E+02  0.14418664724E+02 -0.22761304944E+02  0.43400731544E+02  0.00000000000E+00 0. -1.
         11    1    3    3    0    0 -0.56201107779E+01  0.62106189471E+00  0.28799602648E+01  0.63455129359E+01  0.51100000000E-03 0. -1.
        -11    1    3    3    0    0 -0.29787092219E+02 -0.16723554798E+02  0.19020189891E+02  0.39098795016E+02  0.51100000000E-03 0.  1.
         12    1    3    3    0    0  0.13829674678E+01  0.16838281791E+01  0.86115478849E+00  0.23429605040E+01  0.00000000000E+00 0. -1.
</event>
<event>
 7    1  0.2769403E-010  0.4778727E+02  0.7816164E-02  0.1312668E+00
        -11   -1    0    0    0    0  0.00000000000E+00  0.00000000000E+00  0.45593999997E+02  0.45594000000E+02  0.51100000000E-03 0.  1.
         11   -1    0    0    0    0 -0.00000000000E+00 -0.00000000000E+00 -0.45593999997E+02  0.45594000000E+02  0.51100000000E-03 0. -1.
    9900012    2    1    2    0    0 -0.40670552931E+02  0.12577639443E+02  0.84458346127E+01  0.47787274061E+02  0.20000013755E+02 0.  0.
         12    1    1    2    0    0  0.40670552931E+02 -0.12577639443E+02 -0.84458346127E+01  0.43400725939E+02  0.00000000000E+00 0. -1.
         11    1    3    3    0    0 -0.33038902013E+02  0.99952699222E+01 -0.16846927950E+01  0.34558828932E+02  0.51100000000E-03 0. -1.
        -11    1    3    3    0    0 -0.31938408042E+00  0.91021425881E+00  0.16074439661E+01  0.18746659844E+01  0.51100000000E-03 0.  1.
         12    1    3    3    0    0 -0.73122668374E+01  0.16721552622E+01  0.85230834416E+01  0.11353779145E+02  0.00000000000E+00 0. -1.
</event>
<event>
 7    1  0.2769403E-010  0.4778727E+02  0.7816164E-02  0.1312668E+00
        -11   -1    0    0    0    0  0.00000000000E+00  0.00000000000E+00  0.45593999997E+02  0.45594000000E+02  0.51100000000E-03 0.  1.
         11   -1    0    0    0    0 -0.00000000000E+00 -0.00000000000E+00 -0.45593999997E+02  0.45594000000E+02  0.51100000000E-03 0. -1.
    9900012    2    1    2    0    0  0.16121052235E+02  0.17675044922E+02  0.36212260925E+02  0.47787269828E+02  0.19999994454E+02 0.  0.
         12    1    1    2    0    0 -0.16121052235E+02 -0.17675044922E+02 -0.36212260925E+02  0.43400730172E+02  0.00000000000E+00 0. -1.
         11    1    3    3    0    0  0.28297144284E+01  0.63030770110E+01  0.82739393822E+01  0.10779338417E+02  0.51100000000E-03 0.  1.
        -11    1    3    3    0    0  0.16800931040E+02  0.12066211838E+02  0.23484166248E+02  0.31294900807E+02  0.51100000000E-03 0. -1.
         12    1    3    3    0    0 -0.35095932327E+01 -0.69424392670E+00  0.44541552946E+01  0.57130306035E+01  0.00000000000E+00 0. -1.
</event>
<event>
 7    1  0.2769403E-010  0.4778725E+02  0.7816164E-02  0.1312668E+00
        -11   -1    0    0    0    0  0.00000000000E+00  0.00000000000E+00  0.45593999997E+02  0.45594000000E+02  0.51100000000E-03 0. -1.
         11   -1    0    0    0    0 -0.00000000000E+00 -0.00000000000E+00 -0.45593999997E+02  0.45594000000E+02  0.51100000000E-03 0.  1.
    9900012    2    1    2    0    0 -0.39129857707E+02  0.17792731603E+02  0.59915236639E+01  0.47787246344E+02  0.19999887381E+02 0.  0.
         12    1    1    2    0    0  0.39129857707E+02 -0.17792731603E+02 -0.59915236639E+01  0.43400753656E+02  0.00000000000E+00 0. -1.
         11    1    3    3    0    0 -0.14767765753E+02  0.12140481877E+02  0.53619333062E+01  0.19855189109E+02  0.51100000000E-03 0. -1.
        -11    1    3    3    0    0 -0.15849964745E+02 -0.21300874308E+01 -0.19580091967E+01  0.16111873111E+02  0.51100000000E-03 0.  1.
        -12    1    3    3    0    0 -0.85121272094E+01  0.77823371573E+01  0.25875995543E+01  0.11820184123E+02  0.00000000000E+00 0.  1.
</event>
<event>
 7    1  0.2769403E-010  0.4778730E+02  0.7816164E-02  0.1312668E+00
        -11   -1    0    0    0    0  0.00000000000E+00  0.00000000000E+00  0.45593999997E+02  0.45594000000E+02  0.51100000000E-03 0. -1.
         11   -1    0    0    0    0 -0.00000000000E+00 -0.00000000000E+00 -0.45593999997E+02  0.45594000000E+02  0.51100000000E-03 0.  1.
    9900012    2    1    2    0    0  0.41080343905E+01 -0.38811335408E+02 -0.18984855352E+02  0.47787303745E+02  0.20000149094E+02 0.  0.
         12    1    1    2    0    0 -0.41080343905E+01  0.38811335408E+02  0.18984855352E+02  0.43400696255E+02  0.00000000000E+00 0. -1.
         11    1    3    3    0    0  0.66095504084E+01 -0.14780163495E+02 -0.92709346189E+01  0.18657159979E+02  0.51100000000E-03 0. -1.
        -11    1    3    3    0    0  0.30483146819E+01 -0.33825446521E+00 -0.17207012557E+01  0.35167387670E+01  0.51100000000E-03 0.  1.
        -12    1    3    3    0    0 -0.55498306998E+01 -0.23692917448E+02 -0.79932194771E+01  0.25613404998E+02  0.00000000000E+00 0.  1.
</event>
<event>
 7    1  0.2769403E-010  0.4778727E+02  0.7816164E-02  0.1312668E+00
        -11   -1    0    0    0    0  0.00000000000E+00  0.00000000000E+00  0.45593999997E+02  0.45594000000E+02  0.51100000000E-03 0.  1.
         11   -1    0    0    0    0 -0.00000000000E+00 -0.00000000000E+00 -0.45593999997E+02  0.45594000000E+02  0.51100000000E-03 0. -1.
    9900012    2    1    2    0    0 -0.20200670027E+02  0.38411102947E+02 -0.37856167111E+00  0.47787271802E+02  0.20000003453E+02 0.  0.
         12    1    1    2    0    0  0.20200670027E+02 -0.38411102947E+02  0.37856167111E+00  0.43400728198E+02  0.00000000000E+00 0. -1.
         11    1    3    3    0    0 -0.75380896560E+01  0.18376218397E+02 -0.73405249396E+01  0.21175256903E+02  0.51100000000E-03 0. -1.
        -11    1    3    3    0    0 -0.10073069187E+02  0.17170672695E+02  0.15550176966E+01  0.19967894330E+02  0.51100000000E-03 0.  1.
         12    1    3    3    0    0 -0.25895111842E+01  0.28642118545E+01  0.54069455719E+01  0.66441205692E+01  0.00000000000E+00 0. -1.
</event>
<event>
 7    1  0.2769403E-010  0.4778727E+02  0.7816164E-02  0.1312668E+00
        -11   -1    0    0    0    0  0.00000000000E+00  0.00000000000E+00  0.45593999997E+02  0.45594000000E+02  0.51100000000E-03 0.  1.
         11   -1    0    0    0    0 -0.00000000000E+00 -0.00000000000E+00 -0.45593999997E+02  0.45594000000E+02  0.51100000000E-03 0. -1.
    9900012    2    1    2    0    0 -0.30167877592E+02  0.34637251598E+01  0.31008472258E+02  0.47787267493E+02  0.19999983809E+02 0.  0.
         12    1    1    2    0    0  0.30167877592E+02 -0.34637251598E+01 -0.31008472258E+02  0.43400732507E+02  0.00000000000E+00 0. -1.
         11    1    3    3    0    0 -0.95254137004E+01 -0.18794190947E+01  0.97783172182E+01  0.13779739119E+02  0.51100000000E-03 0. -1.
        -11    1    3    3    0    0 -0.18937193831E+02  0.60360563411E+01  0.23697448896E+02  0.30929280153E+02  0.51100000000E-03 0.  1.
         12    1    3    3    0    0 -0.17052700600E+01 -0.69291208656E+00 -0.24672938567E+01  0.30782482214E+01  0.00000000000E+00 0. -1.
</event>
<event>
 7    1  0.2769403E-010  0.4778727E+02  0.7816164E-02  0.1312668E+00
        -11   -1    0    0    0    0  0.00000000000E+00  0.00000000000E+00  0.45593999997E+02  0.45594000000E+02  0.51100000000E-03 0. -1.
         11   -1    0    0    0    0 -0.00000000000E+00 -0.00000000000E+00 -0.45593999997E+02  0.45594000000E+02  0.51100000000E-03 0.  1.
    9900012    2    1    2    0    0 -0.16812265989E+02 -0.29432222730E+02 -0.27105627344E+02  0.47787273552E+02  0.20000011431E+02 0.  0.
         12    1    1    2    0    0  0.16812265989E+02  0.29432222730E+02  0.27105627344E+02  0.43400726448E+02  0.00000000000E+00 0. -1.
         11    1    3    3    0    0 -0.52497656879E+01 -0.24935922811E+01  0.62442312304E+00  0.58453354686E+01  0.51100000000E-03 0. -1.
        -11    1    3    3    0    0 -0.53486925554E+01 -0.15302238315E+02 -0.76699042651E+01  0.17933054430E+02  0.51100000000E-03 0.  1.
        -12    1    3    3    0    0 -0.62138077459E+01 -0.11636392134E+02 -0.20060146202E+02  0.24008883653E+02  0.00000000000E+00 0.  1.
</event>
<event>
 7    1  0.2769403E-010  0.4778727E+02  0.7816164E-02  0.1312668E+00
        -11   -1    0    0    0    0  0.00000000000E+00  0.00000000000E+00  0.45593999997E+02  0.45594000000E+02  0.51100000000E-03 0.  1.
         11   -1    0    0    0    0 -0.00000000000E+00 -0.00000000000E+00 -0.45593999997E+02  0.45594000000E+02  0.51100000000E-03 0. -1.
    9900012    2    1    2    0    0  0.32667284884E+02 -0.20269739699E+02  0.20139747022E+02  0.47787271213E+02  0.20000000768E+02 0.  0.
         12    1    1    2    0    0 -0.32667284884E+02  0.20269739699E+02 -0.20139747022E+02  0.43400728787E+02  0.00000000000E+00 0. -1.
         11    1    3    3    0    0  0.58582883660E+01  0.22753977640E+01  0.31960486286E+01  0.70506527826E+01  0.51100000000E-03 0. -1.
        -11    1    3    3    0    0  0.15956182732E+02 -0.90230947746E+01  0.14188596731E+02  0.23180428904E+02  0.51100000000E-03 0.  1.
         12    1    3    3    0    0  0.10852813786E+02 -0.13522042688E+02  0.27551016623E+01  0.17556189527E+02  0.00000000000E+00 0. -1.
</event>
<event>
 7    1  0.2769403E-010  0.4778727E+02  0.7816164E-02  0.1312668E+00
        -11   -1    0    0    0    0  0.00000000000E+00  0.00000000000E+00  0.45593999997E+02  0.45594000000E+02  0.51100000000E-03 0. -1.
         11   -1    0    0    0    0 -0.00000000000E+00 -0.00000000000E+00 -0.45593999997E+02  0.45594000000E+02  0.51100000000E-03 0.  1.
    9900012    2    1    2    0    0 -0.33143537672E+02  0.11653725139E+02 -0.25481755590E+02  0.47787271124E+02  0.20000000361E+02 0.  0.
         12    1    1    2    0    0  0.33143537672E+02 -0.11653725139E+02  0.25481755590E+02  0.43400728876E+02  0.00000000000E+00 0. -1.
         11    1    3    3    0    0 -0.71987219628E+01  0.43898393998E+01 -0.12295135351E+02  0.14908475489E+02  0.51100000000E-03 0. -1.
        -11    1    3    3    0    0 -0.16261798128E+02  0.10861564009E+02 -0.10541120289E+02  0.22215644674E+02  0.51100000000E-03 0.  1.
         12    1    3    3    0    0 -0.96830175817E+01 -0.35976782703E+01 -0.26454999508E+01  0.10663150961E+02  0.00000000000E+00 0. -1.
</event>
<event>
 7    1  0.2769403E-010  0.4778727E+02  0.7816164E-02  0.1312668E+00
        -11   -1    0    0    0    0  0.00000000000E+00  0.00000000000E+00  0.45593999997E+02  0.45594000000E+02  0.51100000000E-03 0.  1.
         11   -1    0    0    0    0 -0.00000000000E+00 -0.00000000000E+00 -0.45593999997E+02  0.45594000000E+02  0.51100000000E-03 0. -1.
    9900012    2    1    2    0    0 -0.40494524176E+02 -0.12944603365E+02  0.87323393030E+01  0.47787274266E+02  0.20000014688E+02 0.  0.
         12    1    1    2    0    0  0.40494524176E+02  0.12944603365E+02 -0.87323393030E+01  0.43400725734E+02  0.00000000000E+00 0. -1.
         11    1    3    3    0    0 -0.31716406345E+01  0.22209796711E+01 -0.25301467311E+01  0.46253321779E+01  0.51100000000E-03 0. -1.
        -11    1    3    3    0    0 -0.18561619314E+01 -0.24518892599E+01  0.35631174883E+01  0.47066872166E+01  0.51100000000E-03 0.  1.
         12    1    3    3    0    0 -0.35466721610E+02 -0.12713693776E+02  0.76993685458E+01  0.38455254871E+02  0.00000000000E+00 0. -1.
</event>
<event>
 7    1  0.2769403E-010  0.4778727E+02  0.7816164E-02  0.1312668E+00
        -11   -1    0    0    0    0  0.00000000000E+00  0.00000000000E+00  0.45593999997E+02  0.45594000000E+02  0.51100000000E-03 0.  1.
         11   -1    0    0    0    0 -0.00000000000E+00 -0.00000000000E+00 -0.45593999997E+02  0.45594000000E+02  0.51100000000E-03 0. -1.
    9900012    2    1    2    0    0  0.24690942292E+02 -0.25089267165E+02  0.25387189569E+02  0.47787270140E+02  0.19999995876E+02 0.  0.
         12    1    1    2    0    0 -0.24690942292E+02  0.25089267165E+02 -0.25387189569E+02  0.43400729860E+02  0.00000000000E+00 0. -1.
         11    1    3    3    0    0 -0.13546224138E+01  0.15500878554E+01  0.36017179912E+01  0.41485114189E+01  0.51100000000E-03 0. -1.
        -11    1    3    3    0    0  0.47905932943E+01 -0.61420842344E+01  0.18350044600E+01  0.80026385950E+01  0.51100000000E-03 0.  1.
         12    1    3    3    0    0  0.21254971412E+02 -0.20497270786E+02  0.19950467118E+02  0.35636120126E+02  0.00000000000E+00 0. -1.
</event>
<event>
 7    1  0.2769403E-010  0.4778727E+02  0.7816164E-02  0.1312668E+00
        -11   -1    0    0    0    0  0.00000000000E+00  0.00000000000E+00  0.45593999997E+02  0.45594000000E+02  0.51100000000E-03 0. -1.
         11   -1    0    0    0    0 -0.00000000000E+00 -0.00000000000E+00 -0.45593999997E+02  0.45594000000E+02  0.51100000000E-03 0.  1.
    9900012    2    1    2    0    0 -0.18176551155E+02 -0.13524184118E+02 -0.37018005228E+02  0.47787270985E+02  0.19999999731E+02 0.  0.
         12    1    1    2    0    0  0.18176551155E+02  0.13524184118E+02  0.37018005228E+02  0.43400729015E+02  0.00000000000E+00 0. -1.
         11    1    3    3    0    0 -0.20100477667E+01 -0.62728066708E+01 -0.40989325953E+01  0.77581985174E+01  0.51100000000E-03 0. -1.
        -11    1    3    3    0    0 -0.35687116487E+01 -0.23119592994E+01  0.19534171222E+00  0.42566438986E+01  0.51100000000E-03 0.  1.
        -12    1    3    3    0    0 -0.12597791740E+02 -0.49394181479E+01 -0.33114414345E+02  0.35772428569E+02  0.00000000000E+00 0.  1.
</event>
<event>
 7    1  0.2769403E-010  0.4778727E+02  0.7816164E-02  0.1312668E+00
        -11   -1    0    0    0    0  0.00000000000E+00  0.00000000000E+00  0.45593999997E+02  0.45594000000E+02  0.51100000000E-03 0. -1.
         11   -1    0    0    0    0 -0.00000000000E+00 -0.00000000000E+00 -0.45593999997E+02  0.45594000000E+02  0.51100000000E-03 0.  1.
    9900012    2    1    2    0    0  0.28975790295E+01  0.17449176934E+02 -0.39632732652E+02  0.47787271465E+02  0.20000001920E+02 0.  0.
         12    1    1    2    0    0 -0.28975790295E+01 -0.17449176934E+02  0.39632732652E+02  0.43400728535E+02  0.00000000000E+00 0. -1.
         11    1    3    3    0    0 -0.20346083486E+01  0.50148218171E+01 -0.90378834045E+00  0.54867934729E+01  0.51100000000E-03 0. -1.
        -11    1    3    3    0    0 -0.81793179980E-02 -0.18171407700E+01 -0.28515246271E+01  0.33813104618E+01  0.51100000000E-03 0.  1.
        -12    1    3    3    0    0  0.49403666961E+01  0.14251495887E+02 -0.35877419684E+02  0.38919167531E+02  0.00000000000E+00 0.  1.
</event>
<event>
 7    1  0.2769403E-010  0.4778728E+02  0.7816164E-02  0.1312668E+00
        -11   -1    0    0    0    0  0.00000000000E+00  0.00000000000E+00  0.45593999997E+02  0.45594000000E+02  0.51100000000E-03 0. -1.
         11   -1    0    0    0    0 -0.00000000000E+00 -0.00000000000E+00 -0.45593999997E+02  0.45594000000E+02  0.51100000000E-03 0.  1.
    9900012    2    1    2    0    0 -0.56674750814E+01  0.42130872736E+02 -0.87459707102E+01  0.47787277483E+02  0.20000029356E+02 0.  0.
         12    1    1    2    0    0  0.56674750814E+01 -0.42130872736E+02  0.87459707102E+01  0.43400722517E+02  0.00000000000E+00 0. -1.
         11    1    3    3    0    0  0.26555635006E+01  0.11934499676E+02 -0.48693605817E+01  0.13160356103E+02  0.51100000000E-03 0. -1.
        -11    1    3    3    0    0 -0.59557464926E+00  0.15931087959E+02 -0.80722090589E+01  0.17869382532E+02  0.51100000000E-03 0.  1.
         12    1    3    3    0    0 -0.77274639327E+01  0.14265285102E+02  0.41955989304E+01  0.16757538848E+02  0.00000000000E+00 0. -1.
</event>
<event>
 7    1  0.2769403E-010  0.4778727E+02  0.7816164E-02  0.1312668E+00
        -11   -1    0    0    0    0  0.00000000000E+00  0.00000000000E+00  0.45593999997E+02  0.45594000000E+02  0.51100000000E-03 0.  1.
         11   -1    0    0    0    0 -0.00000000000E+00 -0.00000000000E+00 -0.45593999997E+02  0.45594000000E+02  0.51100000000E-03 0. -1.
    9900012    2    1    2    0    0  0.40787175550E+02  0.23463306322E+01  0.14646650711E+02  0.47787270354E+02  0.19999996850E+02 0.  0.
         12    1    1    2    0    0 -0.40787175550E+02 -0.23463306322E+01 -0.14646650711E+02  0.43400729646E+02  0.00000000000E+00 0. -1.
         11    1    3    3    0    0  0.14324894282E+02 -0.22730271649E+01  0.57535041832E+01  0.15603591231E+02  0.51100000000E-03 0.  1.
        -11    1    3    3    0    0  0.12059680586E+02  0.65286431461E+01 -0.22201235381E+01  0.13892013027E+02  0.51100000000E-03 0. -1.
         12    1    3    3    0    0  0.14402600683E+02 -0.19092853489E+01  0.11113270066E+02  0.18291666095E+02  0.00000000000E+00 0. -1.
</event>
<event>
 7    1  0.2769403E-010  0.4778728E+02  0.7816164E-02  0.1312668E+00
        -11   -1    0    0    0    0  0.00000000000E+00  0.00000000000E+00  0.45593999997E+02  0.45594000000E+02  0.51100000000E-03 0.  1.
         11   -1    0    0    0    0 -0.00000000000E+00 -0.00000000000E+00 -0.45593999997E+02  0.45594000000E+02  0.51100000000E-03 0. -1.
    9900012    2    1    2    0    0 -0.23842945073E+02 -0.66329073860E+01  0.35653069734E+02  0.47787275679E+02  0.20000021132E+02 0.  0.
         12    1    1    2    0    0  0.23842945073E+02  0.66329073860E+01 -0.35653069734E+02  0.43400724321E+02  0.00000000000E+00 0. -1.
         11    1    3    3    0    0 -0.75641879999E+01 -0.32408017656E+01  0.61034942374E+01  0.10245602879E+02  0.51100000000E-03 0. -1.
        -11    1    3    3    0    0 -0.14305658710E+02 -0.69706281557E+01  0.29425947688E+02  0.33453369421E+02  0.51100000000E-03 0.  1.
         12    1    3    3    0    0 -0.19730983633E+01  0.35785225353E+01  0.12362780795E+00  0.40883033794E+01  0.00000000000E+00 0. -1.
</event>
<event>
 7    1  0.2769403E-010  0.4778727E+02  0.7816164E-02  0.1312668E+00
        -11   -1    0    0    0    0  0.00000000000E+00  0.00000000000E+00  0.45593999997E+02  0.45594000000E+02  0.51100000000E-03 0.  1.
         11   -1    0    0    0    0 -0.00000000000E+00 -0.00000000000E+00 -0.45593999997E+02  0.45594000000E+02  0.51100000000E-03 0. -1.
    9900012    2    1    2    0    0  0.30690358721E+02  0.19863951343E+02  0.23391212099E+02  0.47787268613E+02  0.19999988916E+02 0.  0.
         12    1    1    2    0    0 -0.30690358721E+02 -0.19863951343E+02 -0.23391212099E+02  0.43400731387E+02  0.00000000000E+00 0. -1.
         11    1    3    3    0    0 -0.13576879289E+01  0.66469540223E+00 -0.69683292273E+00  0.16645458460E+01  0.51100000000E-03 0. -1.
        -11    1    3    3    0    0  0.58310022128E+01 -0.13529728324E+01  0.29906521048E+01  0.66914215653E+01  0.51100000000E-03 0.  1.
         12    1    3    3    0    0  0.26217044438E+02  0.20552228773E+02  0.21097392917E+02  0.39431301202E+02  0.00000000000E+00 0. -1.
</event>
<event>
 7    1  0.2769403E-010  0.4778727E+02  0.7816164E-02  0.1312668E+00
        -11   -1    0    0    0    0  0.00000000000E+00  0.00000000000E+00  0.45593999997E+02  0.45594000000E+02  0.51100000000E-03 0.  1.
         11   -1    0    0    0    0 -0.00000000000E+00 -0.00000000000E+00 -0.45593999997E+02  0.45594000000E+02  0.51100000000E-03 0. -1.
    9900012    2    1    2    0    0 -0.28325393378E+02  0.23204720712E+02  0.23298850554E+02  0.47787269471E+02  0.19999992826E+02 0.  0.
         12    1    1    2    0    0  0.28325393378E+02 -0.23204720712E+02 -0.23298850554E+02  0.43400730529E+02  0.00000000000E+00 0. -1.
         11    1    3    3    0    0 -0.46195567559E+01  0.10542975999E+02  0.36484539327E+01  0.12075009892E+02  0.51100000000E-03 0. -1.
        -11    1    3    3    0    0 -0.11733666025E+02  0.41292462528E+01  0.17706338386E+01  0.12564423482E+02  0.51100000000E-03 0.  1.
        -12    1    3    3    0    0 -0.11972170597E+02  0.85324984605E+01  0.17879762783E+02  0.23147836096E+02  0.00000000000E+00 0.  1.
</event>
<event>
 7    1  0.2769403E-010  0.4778725E+02  0.7816164E-02  0.1312668E+00
        -11   -1    0    0    0    0  0.00000000000E+00  0.00000000000E+00  0.45593999997E+02  0.45594000000E+02  0.51100000000E-03 0. -1.
         11   -1    0    0    0    0 -0.00000000000E+00 -0.00000000000E+00 -0.45593999997E+02  0.45594000000E+02  0.51100000000E-03 0.  1.
    9900012    2    1    2    0    0  0.31810995225E+02 -0.23070417940E+02 -0.18423940312E+02  0.47787249111E+02  0.19999899998E+02 0.  0.
         12    1    1    2    0    0 -0.31810995225E+02  0.23070417940E+02  0.18423940312E+02  0.43400750889E+02  0.00000000000E+00 0. -1.
         11    1    3    3    0    0  0.12173444599E+02 -0.12592637450E+02 -0.80040706179E+01  0.19257009583E+02  0.51100000000E-03 0. -1.
        -11    1    3    3    0    0  0.14192988174E+02 -0.90944606118E+01 -0.18810800536E+00  0.16857802704E+02  0.51100000000E-03 0.  1.
         12    1    3    3    0    0  0.54445624511E+01 -0.13833198782E+01 -0.10231761689E+02  0.11672436825E+02  0.00000000000E+00 0. -1.
</event>
<event>
 7    1  0.2769403E-010  0.4778727E+02  0.7816164E-02  0.1312668E+00
        -11   -1    0    0    0    0  0.00000000000E+00  0.00000000000E+00  0.45593999997E+02  0.45594000000E+02  0.51100000000E-03 0. -1.
         11   -1    0    0    0    0 -0.00000000000E+00 -0.00000000000E+00 -0.45593999997E+02  0.45594000000E+02  0.51100000000E-03 0.  1.
    9900012    2    1    2    0    0 -0.14771399215E+02  0.34345924093E+02 -0.22040565126E+02  0.47787271346E+02  0.20000001376E+02 0.  0.
         12    1    1    2    0    0  0.14771399215E+02 -0.34345924093E+02  0.22040565126E+02  0.43400728654E+02  0.00000000000E+00 0. -1.
         11    1    3    3    0    0 -0.36919731012E+01  0.81273499950E+01 -0.10710417220E+02  0.13942651132E+02  0.51100000000E-03 0.  1.
        -11    1    3    3    0    0 -0.49592787541E+00 -0.10647287230E+01 -0.32940118996E+01  0.34971568977E+01  0.51100000000E-03 0. -1.
         12    1    3    3    0    0 -0.10583498238E+02  0.27283302821E+02 -0.80361360067E+01  0.30347463316E+02  0.00000000000E+00 0. -1.
</event>
<event>
 7    1  0.2769403E-010  0.4778727E+02  0.7816164E-02  0.1312668E+00
        -11   -1    0    0    0    0  0.00000000000E+00  0.00000000000E+00  0.45593999997E+02  0.45594000000E+02  0.51100000000E-03 0.  1.
         11   -1    0    0    0    0 -0.00000000000E+00 -0.00000000000E+00 -0.45593999997E+02  0.45594000000E+02  0.51100000000E-03 0. -1.
    9900012    2    1    2    0    0 -0.31778603613E+02  0.54465774052E+00  0.29554140155E+02  0.47787268440E+02  0.19999988125E+02 0.  0.
         12    1    1    2    0    0  0.31778603613E+02 -0.54465774052E+00 -0.29554140155E+02  0.43400731560E+02  0.00000000000E+00 0. -1.
         11    1    3    3    0    0 -0.22549287267E+02  0.19294585683E+01  0.19472126782E+02  0.29855600618E+02  0.51100000000E-03 0. -1.
        -11    1    3    3    0    0 -0.86599210508E+01  0.21221225249E+01  0.20497366266E+01  0.91487188784E+01  0.51100000000E-03 0.  1.
         12    1    3    3    0    0 -0.56939529552E+00 -0.35069233526E+01  0.80322767470E+01  0.87829489435E+01  0.00000000000E+00 0. -1.
</event>
<event>
 7    1  0.2769403E-010  0.4778727E+02  0.7816164E-02  0.1312668E+00
        -11   -1    0    0    0    0  0.00000000000E+00  0.00000000000E+00  0.45593999997E+02  0.45594000000E+02  0.51100000000E-03 0.  1.
         11   -1    0    0    0    0 -0.00000000000E+00 -0.00000000000E+00 -0.45593999997E+02  0.45594000000E+02  0.51100000000E-03 0. -1.
    9900012    2    1    2    0    0 -0.84820960545E+01  0.63063474536E+01  0.42094031067E+02  0.47787269324E+02  0.19999992157E+02 0.  0.
         12    1    1    2    0    0  0.84820960545E+01 -0.63063474536E+01 -0.42094031067E+02  0.43400730676E+02  0.00000000000E+00 0. -1.
         11    1    3    3    0    0  0.12790122105E+01 -0.12093109342E+01  0.84149428408E+01  0.85970674329E+01  0.51100000000E-03 0. -1.
        -11    1    3    3    0    0  0.33610325000E+01 -0.17305716097E+01  0.88534375740E+01  0.96267738469E+01  0.51100000000E-03 0.  1.
        -12    1    3    3    0    0 -0.13122140765E+02  0.92462299975E+01  0.24825650653E+02  0.29563428045E+02  0.00000000000E+00 0.  1.
</event>
<event>
 7    1  0.2769403E-010  0.4778727E+02  0.7816164E-02  0.1312668E+00
        -11   -1    0    0    0    0  0.00000000000E+00  0.00000000000E+00  0.45593999997E+02  0.45594000000E+02  0.51100000000E-03 0.  1.
         11   -1    0    0    0    0 -0.00000000000E+00 -0.00000000000E+00 -0.45593999997E+02  0.45594000000E+02  0.51100000000E-03 0. -1.
    9900012    2    1    2    0    0  0.18094226556E+02 -0.22823012026E+01  0.39382908401E+02  0.47787269504E+02  0.19999992977E+02 0.  0.
         12    1    1    2    0    0 -0.18094226556E+02  0.22823012026E+01 -0.39382908401E+02  0.43400730496E+02  0.00000000000E+00 0. -1.
         11    1    3    3    0    0  0.40562296946E+01 -0.53475840408E+01  0.90294980128E+01  0.11250843925E+02  0.51100000000E-03 0. -1.
        -11    1    3    3    0    0 -0.30061530083E+01  0.82742301515E+00  0.39938199043E+01  0.50667723893E+01  0.51100000000E-03 0.  1.
        -12    1    3    3    0    0  0.17044149870E+02  0.22378598231E+01  0.26359590484E+02  0.31469653189E+02  0.00000000000E+00 0.  1.
</event>
<event>
 7    1  0.2769403E-010  0.4778726E+02  0.7816164E-02  0.1312668E+00
        -11   -1    0    0    0    0  0.00000000000E+00  0.00000000000E+00  0.45593999997E+02  0.45594000000E+02  0.51100000000E-03 0. -1.
         11   -1    0    0    0    0 -0.00000000000E+00 -0.00000000000E+00 -0.45593999997E+02  0.45594000000E+02  0.51100000000E-03 0.  1.
    9900012    2    1    2    0    0 -0.12487398589E+02  0.19950079304E+02 -0.36464825607E+02  0.47787259288E+02  0.19999946399E+02 0.  0.
         12    1    1    2    0    0  0.12487398589E+02 -0.19950079304E+02  0.36464825607E+02  0.43400740712E+02  0.00000000000E+00 0. -1.
         11    1    3    3    0    0 -0.10642869567E+02  0.15510778127E+01 -0.17977099408E+02  0.20948809475E+02  0.51100000000E-03 0. -1.
        -11    1    3    3    0    0 -0.24751711573E+01  0.72135423393E+01 -0.10917204520E+02  0.13317170125E+02  0.51100000000E-03 0.  1.
         12    1    3    3    0    0  0.63064213545E+00  0.11185459152E+02 -0.75705216790E+01  0.13521279689E+02  0.00000000000E+00 0. -1.
</event>
<event>
 7    1  0.2769403E-010  0.4778728E+02  0.7816164E-02  0.1312668E+00
        -11   -1    0    0    0    0  0.00000000000E+00  0.00000000000E+00  0.45593999997E+02  0.45594000000E+02  0.51100000000E-03 0.  1.
         11   -1    0    0    0    0 -0.00000000000E+00 -0.00000000000E+00 -0.45593999997E+02  0.45594000000E+02  0.51100000000E-03 0. -1.
    9900012    2    1    2    0    0  0.33711846966E+02  0.15731908243E+01  0.27288445423E+02  0.47787276402E+02  0.20000024427E+02 0.  0.
         12    1    1    2    0    0 -0.33711846966E+02 -0.15731908243E+01 -0.27288445423E+02  0.43400723598E+02  0.00000000000E+00 0. -1.
         11    1    3    3    0    0  0.52812922562E+00 -0.25165166005E+01  0.54905761539E+01  0.60628543643E+01  0.51100000000E-03 0. -1.
        -11    1    3    3    0    0  0.55664434430E+01  0.42908227826E+01  0.86243767910E+01  0.11125481026E+02  0.51100000000E-03 0.  1.
         12    1    3    3    0    0  0.27617274297E+02 -0.20111535776E+00  0.13173492478E+02  0.30598941012E+02  0.00000000000E+00 0. -1.
</event>
<event>
 7    1  0.2769403E-010  0.4778727E+02  0.7816164E-02  0.1312668E+00
        -11   -1    0    0    0    0  0.00000000000E+00  0.00000000000E+00  0.45593999997E+02  0.45594000000E+02  0.51100000000E-03 0.  1.
         11   -1    0    0    0    0 -0.00000000000E+00 -0.00000000000E+00 -0.45593999997E+02  0.45594000000E+02  0.51100000000E-03 0. -1.
    9900012    2    1    2    0    0 -0.23389405145E+02 -0.32011524311E+02  0.17658471744E+02  0.47787267447E+02  0.19999983600E+02 0.  0.
         12    1    1    2    0    0  0.23389405145E+02  0.32011524311E+02 -0.17658471744E+02  0.43400732553E+02  0.00000000000E+00 0. -1.
         11    1    3    3    0    0  0.43186682696E+00 -0.68160734885E+01  0.70390452383E+00  0.68659193555E+01  0.51100000000E-03 0. -1.
        -11    1    3    3    0    0 -0.11538994226E+02 -0.20940245338E+02  0.13561072709E+02  0.27487178026E+02  0.51100000000E-03 0.  1.
        -12    1    3    3    0    0 -0.12282277746E+02 -0.42552054842E+01  0.33934945114E+01  0.13434170066E+02  0.00000000000E+00 0.  1.
</event>
<event>
 7    1  0.2769403E-010  0.4778727E+02  0.7816164E-02  0.1312668E+00
        -11   -1    0    0    0    0  0.00000000000E+00  0.00000000000E+00  0.45593999997E+02  0.45594000000E+02  0.51100000000E-03 0.  1.
         11   -1    0    0    0    0 -0.00000000000E+00 -0.00000000000E+00 -0.45593999997E+02  0.45594000000E+02  0.51100000000E-03 0. -1.
    9900012    2    1    2    0    0  0.28375913493E+02  0.32583878300E+02  0.40892183431E+01  0.47787270763E+02  0.19999998718E+02 0.  0.
         12    1    1    2    0    0 -0.28375913493E+02 -0.32583878300E+02 -0.40892183431E+01  0.43400729237E+02  0.00000000000E+00 0. -1.
         11    1    3    3    0    0  0.12103309632E+01  0.24031154413E+01  0.20992062106E+01  0.34127015457E+01  0.51100000000E-03 0. -1.
        -11    1    3    3    0    0  0.85413488240E+01  0.41491308879E+01 -0.61934603215E+01  0.11337057726E+02  0.51100000000E-03 0.  1.
        -12    1    3    3    0    0  0.18624233706E+02  0.26031631970E+02  0.81834724540E+01  0.33037511492E+02  0.00000000000E+00 0.  1.
</event>
<event>
 7    1  0.2769403E-010  0.4778727E+02  0.7816164E-02  0.1312668E+00
        -11   -1    0    0    0    0  0.00000000000E+00  0.00000000000E+00  0.45593999997E+02  0.45594000000E+02  0.51100000000E-03 0. -1.
         11   -1    0    0    0    0 -0.00000000000E+00 -0.00000000000E+00 -0.45593999997E+02  0.45594000000E+02  0.51100000000E-03 0.  1.
    9900012    2    1    2    0    0 -0.26681200111E+02  0.33066370932E+02 -0.88516634351E+01  0.47787271071E+02  0.20000000122E+02 0.  0.
         12    1    1    2    0    0  0.26681200111E+02 -0.33066370932E+02  0.88516634351E+01  0.43400728929E+02  0.00000000000E+00 0. -1.
         11    1    3    3    0    0 -0.46157289091E+01  0.38074838603E+01  0.15453748803E+01  0.61798115255E+01  0.51100000000E-03 0. -1.
        -11    1    3    3    0    0 -0.32784326710E+01  0.40795984284E+01 -0.86912955799E+01  0.10145435586E+02  0.51100000000E-03 0.  1.
        -12    1    3    3    0    0 -0.18787038531E+02  0.25179288643E+02 -0.17057427355E+01  0.31462023959E+02  0.00000000000E+00 0.  1.
</event>
<event>
 7    1  0.2769403E-010  0.4778727E+02  0.7816164E-02  0.1312668E+00
        -11   -1    0    0    0    0  0.00000000000E+00  0.00000000000E+00  0.45593999997E+02  0.45594000000E+02  0.51100000000E-03 0. -1.
         11   -1    0    0    0    0 -0.00000000000E+00 -0.00000000000E+00 -0.45593999997E+02  0.45594000000E+02  0.51100000000E-03 0.  1.
    9900012    2    1    2    0    0 -0.37021675787E+02 -0.11380269882E+02 -0.19583365298E+02  0.47787271699E+02  0.20000002986E+02 0.  0.
         12    1    1    2    0    0  0.37021675787E+02  0.11380269882E+02  0.19583365298E+02  0.43400728301E+02  0.00000000000E+00 0. -1.
         11    1    3    3    0    0 -0.90312168867E+00 -0.52394671256E+01 -0.32254128722E+01  0.62185957420E+01  0.51100000000E-03 0. -1.
        -11    1    3    3    0    0 -0.54678196958E+01  0.27537517792E+01 -0.12078131597E+01  0.62401132984E+01  0.51100000000E-03 0.  1.
        -12    1    3    3    0    0 -0.30650734402E+02 -0.88945545357E+01 -0.15150139266E+02  0.35328562659E+02  0.00000000000E+00 0.  1.
</event>
<event>
 7    1  0.2769403E-010  0.4778728E+02  0.7816164E-02  0.1312668E+00
        -11   -1    0    0    0    0  0.00000000000E+00  0.00000000000E+00  0.45593999997E+02  0.45594000000E+02  0.51100000000E-03 0.  1.
         11   -1    0    0    0    0 -0.00000000000E+00 -0.00000000000E+00 -0.45593999997E+02  0.45594000000E+02  0.51100000000E-03 0. -1.
    9900012    2    1    2    0    0  0.16929533122E+02 -0.29380504028E+02  0.27088732105E+02  0.47787279779E+02  0.20000039823E+02 0.  0.
         12    1    1    2    0    0 -0.16929533122E+02  0.29380504028E+02 -0.27088732105E+02  0.43400720221E+02  0.00000000000E+00 0. -1.
         11    1    3    3    0    0  0.34047139982E+01 -0.24283983100E+01  0.88083264559E+01  0.97506825903E+01  0.51100000000E-03 0. -1.
        -11    1    3    3    0    0  0.14124913693E+02 -0.12485405856E+02  0.11062196926E+02  0.21857967593E+02  0.51100000000E-03 0.  1.
         12    1    3    3    0    0 -0.60009456994E+00 -0.14466699863E+02  0.72182087232E+01  0.16178629595E+02  0.00000000000E+00 0. -1.
</event>
<event>
 7    1  0.2769403E-010  0.4778727E+02  0.7816164E-02  0.1312668E+00
        -11   -1    0    0    0    0  0.00000000000E+00  0.00000000000E+00  0.45593999997E+02  0.45594000000E+02  0.51100000000E-03 0.  1.
         11   -1    0    0    0    0 -0.00000000000E+00 -0.00000000000E+00 -0.45593999997E+02  0.45594000000E+02  0.51100000000E-03 0. -1.
    9900012    2    1    2    0    0 -0.28458066966E+00 -0.77391121989E+01  0.42704195194E+02  0.47787272691E+02  0.20000007509E+02 0.  0.
         12    1    1    2    0    0  0.28458066966E+00  0.77391121989E+01 -0.42704195194E+02  0.43400727309E+02  0.00000000000E+00 0. -1.
         11    1    3    3    0    0 -0.37653389162E+01  0.42787715718E+01  0.16645563344E+02  0.17594329843E+02  0.51100000000E-03 0.  1.
        -11    1    3    3    0    0 -0.28909357886E+01 -0.49499951789E+01  0.95822657348E+01  0.11166009980E+02  0.51100000000E-03 0. -1.
        -12    1    3    3    0    0  0.63716940352E+01 -0.70678885918E+01  0.16476366115E+02  0.19026932868E+02  0.00000000000E+00 0.  1.
</event>
<event>
 7    1  0.2769403E-010  0.4778727E+02  0.7816164E-02  0.1312668E+00
        -11   -1    0    0    0    0  0.00000000000E+00  0.00000000000E+00  0.45593999997E+02  0.45594000000E+02  0.51100000000E-03 0. -1.
         11   -1    0    0    0    0 -0.00000000000E+00 -0.00000000000E+00 -0.45593999997E+02  0.45594000000E+02  0.51100000000E-03 0.  1.
    9900012    2    1    2    0    0 -0.22280936495E+02 -0.16576701805E+02 -0.33352605958E+02  0.47787268462E+02  0.19999988226E+02 0.  0.
         12    1    1    2    0    0  0.22280936495E+02  0.16576701805E+02  0.33352605958E+02  0.43400731538E+02  0.00000000000E+00 0. -1.
         11    1    3    3    0    0 -0.73489348454E+01 -0.21114044989E+01 -0.35039779790E+01  0.84108700060E+01  0.51100000000E-03 0. -1.
        -11    1    3    3    0    0 -0.12659698729E+02 -0.31109449119E+01 -0.10131134046E+02  0.16510173454E+02  0.51100000000E-03 0.  1.
        -12    1    3    3    0    0 -0.22723029210E+01 -0.11354352395E+02 -0.19717493933E+02  0.22866225002E+02  0.00000000000E+00 0.  1.
</event>
<event>
 7    1  0.2769403E-010  0.4778727E+02  0.7816164E-02  0.1312668E+00
        -11   -1    0    0    0    0  0.00000000000E+00  0.00000000000E+00  0.45593999997E+02  0.45594000000E+02  0.51100000000E-03 0.  1.
         11   -1    0    0    0    0 -0.00000000000E+00 -0.00000000000E+00 -0.45593999997E+02  0.45594000000E+02  0.51100000000E-03 0. -1.
    9900012    2    1    2    0    0  0.26071120522E+02 -0.34649498856E+02 -0.18255136717E+01  0.47787267329E+02  0.19999983061E+02 0.  0.
         12    1    1    2    0    0 -0.26071120522E+02  0.34649498856E+02  0.18255136717E+01  0.43400732671E+02  0.00000000000E+00 0. -1.
         11    1    3    3    0    0  0.18990149293E+01 -0.56735860230E+01 -0.62243217912E+01  0.86335402984E+01  0.51100000000E-03 0. -1.
        -11    1    3    3    0    0  0.11436116596E+02 -0.70909702417E+01  0.30460363028E+01  0.13796556063E+02  0.51100000000E-03 0.  1.
        -12    1    3    3    0    0  0.12735988996E+02 -0.21884942591E+02  0.13527718167E+01  0.25357170968E+02  0.00000000000E+00 0.  1.
</event>
<event>
 7    1  0.2769403E-010  0.4778727E+02  0.7816164E-02  0.1312668E+00
        -11   -1    0    0    0    0  0.00000000000E+00  0.00000000000E+00  0.45593999997E+02  0.45594000000E+02  0.51100000000E-03 0. -1.
         11   -1    0    0    0    0 -0.00000000000E+00 -0.00000000000E+00 -0.45593999997E+02  0.45594000000E+02  0.51100000000E-03 0.  1.
    9900012    2    1    2    0    0  0.84223989135E+01 -0.18526725337E+02 -0.38333363334E+02  0.47787273051E+02  0.20000009149E+02 0.  0.
         12    1    1    2    0    0 -0.84223989135E+01  0.18526725337E+02  0.38333363334E+02  0.43400726949E+02  0.00000000000E+00 0. -1.
         11    1    3    3    0    0  0.20751670273E+01 -0.12457951510E+02 -0.21680229728E+02  0.25090620465E+02  0.51100000000E-03 0. -1.
        -11    1    3    3    0    0  0.77098571475E+01 -0.83345632520E+01 -0.86654211795E+01  0.14282729652E+02  0.51100000000E-03 0.  1.
        -12    1    3    3    0    0 -0.13626252614E+01  0.22657894249E+01 -0.79877124268E+01  0.84139229337E+01  0.00000000000E+00 0.  1.
</event>
<event>
 7    1  0.2769403E-010  0.4778727E+02  0.7816164E-02  0.1312668E+00
        -11   -1    0    0    0    0  0.00000000000E+00  0.00000000000E+00  0.45593999997E+02  0.45594000000E+02  0.51100000000E-03 0. -1.
         11   -1    0    0    0    0 -0.00000000000E+00 -0.00000000000E+00 -0.45593999997E+02  0.45594000000E+02  0.51100000000E-03 0.  1.
    9900012    2    1    2    0    0 -0.35956072886E+02  0.20354956184E+02 -0.13283820260E+02  0.47787270751E+02  0.19999998661E+02 0.  0.
         12    1    1    2    0    0  0.35956072886E+02 -0.20354956184E+02  0.13283820260E+02  0.43400729249E+02  0.00000000000E+00 0. -1.
         11    1    3    3    0    0 -0.55032898950E+01  0.24946531692E+01  0.34939342859E+01  0.69797615402E+01  0.51100000000E-03 0. -1.
        -11    1    3    3    0    0 -0.23479120238E+02  0.11535819316E+02 -0.66748638716E+01  0.26998111460E+02  0.51100000000E-03 0.  1.
        -12    1    3    3    0    0 -0.69736627528E+01  0.63244836992E+01 -0.10102890674E+02  0.13809397750E+02  0.00000000000E+00 0.  1.
</event>
<event>
 7    1  0.2769403E-010  0.4778727E+02  0.7816164E-02  0.1312668E+00
        -11   -1    0    0    0    0  0.00000000000E+00  0.00000000000E+00  0.45593999997E+02  0.45594000000E+02  0.51100000000E-03 0.  1.
         11   -1    0    0    0    0 -0.00000000000E+00 -0.00000000000E+00 -0.45593999997E+02  0.45594000000E+02  0.51100000000E-03 0. -1.
    9900012    2    1    2    0    0  0.72689317496E+01  0.35684153340E+02  0.23609893799E+02  0.47787271278E+02  0.20000001065E+02 0.  0.
         12    1    1    2    0    0 -0.72689317496E+01 -0.35684153340E+02 -0.23609893799E+02  0.43400728722E+02  0.00000000000E+00 0. -1.
         11    1    3    3    0    0 -0.15886910399E+01  0.64533943202E+01  0.83809170489E+01  0.10696261418E+02  0.51100000000E-03 0. -1.
        -11    1    3    3    0    0  0.50414183696E+01  0.55070704833E+01  0.10034319176E+02  0.12507249341E+02  0.51100000000E-03 0.  1.
        -12    1    3    3    0    0  0.38162044200E+01  0.23723688537E+02  0.51946575742E+01  0.24583760520E+02  0.00000000000E+00 0.  1.
</event>
<event>
 7    1  0.2769403E-010  0.4778727E+02  0.7816164E-02  0.1312668E+00
        -11   -1    0    0    0    0  0.00000000000E+00  0.00000000000E+00  0.45593999997E+02  0.45594000000E+02  0.51100000000E-03 0. -1.
         11   -1    0    0    0    0 -0.00000000000E+00 -0.00000000000E+00 -0.45593999997E+02  0.45594000000E+02  0.51100000000E-03 0.  1.
    9900012    2    1    2    0    0 -0.37508258028E+02  0.18439427499E+02 -0.11693663960E+02  0.47787266324E+02  0.19999978478E+02 0.  0.
         12    1    1    2    0    0  0.37508258028E+02 -0.18439427499E+02  0.11693663960E+02  0.43400733676E+02  0.00000000000E+00 0. -1.
         11    1    3    3    0    0 -0.19862437125E+02  0.91411365220E+01 -0.33860705177E+01  0.22125601897E+02  0.51100000000E-03 0. -1.
        -11    1    3    3    0    0 -0.15455404749E+02  0.56574716580E+01 -0.11726010298E+02  0.20208311144E+02  0.51100000000E-03 0.  1.
         12    1    3    3    0    0 -0.21904161537E+01  0.36408193188E+01  0.34184168553E+01  0.54533532836E+01  0.00000000000E+00 0. -1.
</event>
<event>
 7    1  0.2769403E-010  0.4778727E+02  0.7816164E-02  0.1312668E+00
        -11   -1    0    0    0    0  0.00000000000E+00  0.00000000000E+00  0.45593999997E+02  0.45594000000E+02  0.51100000000E-03 0.  1.
         11   -1    0    0    0    0 -0.00000000000E+00 -0.00000000000E+00 -0.45593999997E+02  0.45594000000E+02  0.51100000000E-03 0. -1.
    9900012    2    1    2    0    0  0.32365533723E+02 -0.21681719603E+02  0.19131090180E+02  0.47787270172E+02  0.19999996021E+02 0.  0.
         12    1    1    2    0    0 -0.32365533723E+02  0.21681719603E+02 -0.19131090180E+02  0.43400729828E+02  0.00000000000E+00 0. -1.
         11    1    3    3    0    0  0.50721249113E+01 -0.65143838158E+01  0.48071124409E+01  0.95536368936E+01  0.51100000000E-03 0. -1.
        -11    1    3    3    0    0  0.15540710251E+02 -0.13182180911E+02  0.16371096597E+02  0.26139938269E+02  0.51100000000E-03 0.  1.
         12    1    3    3    0    0  0.11752698561E+02 -0.19851548766E+01 -0.20471188576E+01  0.12093695009E+02  0.00000000000E+00 0. -1.
</event>
<event>
 7    1  0.2769403E-010  0.4778727E+02  0.7816164E-02  0.1312668E+00
        -11   -1    0    0    0    0  0.00000000000E+00  0.00000000000E+00  0.45593999997E+02  0.45594000000E+02  0.51100000000E-03 0. -1.
         11   -1    0    0    0    0 -0.00000000000E+00 -0.00000000000E+00 -0.45593999997E+02  0.45594000000E+02  0.51100000000E-03 0.  1.
    9900012    2    1    2    0    0  0.28044405745E+02 -0.26977186148E+02 -0.19218894095E+02  0.47787272399E+02  0.20000006178E+02 0.  0.
         12    1    1    2    0    0 -0.28044405745E+02  0.26977186148E+02  0.19218894095E+02  0.43400727601E+02  0.00000000000E+00 0. -1.
         11    1    3    3    0    0  0.15737170703E+02 -0.10775914742E+02 -0.18346629636E+02  0.26464649998E+02  0.51100000000E-03 0. -1.
        -11    1    3    3    0    0  0.59488779061E+00 -0.16507917667E+01 -0.19369271923E+01  0.26135592876E+01  0.51100000000E-03 0.  1.
        -12    1    3    3    0    0  0.11712347252E+02 -0.14550479639E+02  0.10646627333E+01  0.18709063114E+02  0.00000000000E+00 0.  1.
</event>
<event>
 7    1  0.2769403E-010  0.4778727E+02  0.7816164E-02  0.1312668E+00
        -11   -1    0    0    0    0  0.00000000000E+00  0.00000000000E+00  0.45593999997E+02  0.45594000000E+02  0.51100000000E-03 0.  1.
         11   -1    0    0    0    0 -0.00000000000E+00 -0.00000000000E+00 -0.45593999997E+02  0.45594000000E+02  0.51100000000E-03 0. -1.
    9900012    2    1    2    0    0  0.19972103957E+02  0.14219990634E+02  0.35812434439E+02  0.47787268087E+02  0.19999986517E+02 0.  0.
         12    1    1    2    0    0 -0.19972103957E+02 -0.14219990634E+02 -0.35812434439E+02  0.43400731913E+02  0.00000000000E+00 0. -1.
         11    1    3    3    0    0  0.62554402560E+00  0.13161500596E+01 -0.27978482762E+00  0.14838585237E+01  0.51100000000E-03 0. -1.
        -11    1    3    3    0    0  0.97828989566E+01  0.15717225733E+02  0.19078927058E+02  0.26584615000E+02  0.51100000000E-03 0.  1.
         12    1    3    3    0    0  0.95636609753E+01 -0.28133851579E+01  0.17013292208E+02  0.19718794564E+02  0.00000000000E+00 0. -1.
</event>
<event>
 7    1  0.2769403E-010  0.4778727E+02  0.7816164E-02  0.1312668E+00
        -11   -1    0    0    0    0  0.00000000000E+00  0.00000000000E+00  0.45593999997E+02  0.45594000000E+02  0.51100000000E-03 0. -1.
         11   -1    0    0    0    0 -0.00000000000E+00 -0.00000000000E+00 -0.45593999997E+02  0.45594000000E+02  0.51100000000E-03 0.  1.
    9900012    2    1    2    0    0 -0.10223009298E+02  0.30318634064E+02 -0.29323940920E+02  0.47787274180E+02  0.20000014295E+02 0.  0.
         12    1    1    2    0    0  0.10223009298E+02 -0.30318634064E+02  0.29323940920E+02  0.43400725820E+02  0.00000000000E+00 0. -1.
         11    1    3    3    0    0 -0.11723094611E+01 -0.23826212838E+01 -0.10095664546E+01  0.28408481730E+01  0.51100000000E-03 0. -1.
        -11    1    3    3    0    0 -0.49475279672E+01  0.69438697090E+01 -0.96321141292E+01  0.12863630218E+02  0.51100000000E-03 0.  1.
        -12    1    3    3    0    0 -0.41031718701E+01  0.25757385639E+02 -0.18682260336E+02  0.32082795789E+02  0.00000000000E+00 0.  1.
</event>
<event>
 7    1  0.2769403E-010  0.4778727E+02  0.7816164E-02  0.1312668E+00
        -11   -1    0    0    0    0  0.00000000000E+00  0.00000000000E+00  0.45593999997E+02  0.45594000000E+02  0.51100000000E-03 0. -1.
         11   -1    0    0    0    0 -0.00000000000E+00 -0.00000000000E+00 -0.45593999997E+02  0.45594000000E+02  0.51100000000E-03 0.  1.
    9900012    2    1    2    0    0 -0.16097830565E+02  0.29975085245E+02 -0.26943966295E+02  0.47787271849E+02  0.20000003667E+02 0.  0.
         12    1    1    2    0    0  0.16097830565E+02 -0.29975085245E+02  0.26943966295E+02  0.43400728151E+02  0.00000000000E+00 0. -1.
         11    1    3    3    0    0 -0.64020025992E+01  0.66086728155E+01 -0.11635733813E+02  0.14834099073E+02  0.51100000000E-03 0. -1.
        -11    1    3    3    0    0 -0.71033751745E+01  0.10548826891E+02 -0.15274806660E+02  0.19876000765E+02  0.51100000000E-03 0.  1.
         12    1    3    3    0    0 -0.25924527914E+01  0.12817585539E+02 -0.33425821921E-01  0.13077172011E+02  0.00000000000E+00 0. -1.
</event>
<event>
 7    1  0.2769403E-010  0.4778726E+02  0.7816164E-02  0.1312668E+00
        -11   -1    0    0    0    0  0.00000000000E+00  0.00000000000E+00  0.45593999997E+02  0.45594000000E+02  0.51100000000E-03 0.  1.
         11   -1    0    0    0    0 -0.00000000000E+00 -0.00000000000E+00 -0.45593999997E+02  0.45594000000E+02  0.51100000000E-03 0. -1.
    9900012    2    1    2    0    0  0.11581160786E+01 -0.39169267639E+02 -0.18656140384E+02  0.47787258829E+02  0.19999944303E+02 0.  0.
         12    1    1    2    0    0 -0.11581160786E+01  0.39169267639E+02  0.18656140384E+02  0.43400741171E+02  0.00000000000E+00 0. -1.
         11    1    3    3    0    0 -0.17444140805E+01 -0.10316997534E+02 -0.13243497172E+02  0.16878200028E+02  0.51100000000E-03 0. -1.
        -11    1    3    3    0    0  0.50136686700E+00  0.65470891869E+00 -0.20888966777E+00  0.85067482504E+00  0.51100000000E-03 0.  1.
        -12    1    3    3    0    0  0.24011632921E+01 -0.29506979024E+02 -0.52037535446E+01  0.30058383975E+02  0.00000000000E+00 0.  1.
</event>
<event>
 7    1  0.2769403E-010  0.4778727E+02  0.7816164E-02  0.1312668E+00
        -11   -1    0    0    0    0  0.00000000000E+00  0.00000000000E+00  0.45593999997E+02  0.45594000000E+02  0.51100000000E-03 0. -1.
         11   -1    0    0    0    0 -0.00000000000E+00 -0.00000000000E+00 -0.45593999997E+02  0.45594000000E+02  0.51100000000E-03 0.  1.
    9900012    2    1    2    0    0  0.43373552803E+02 -0.14921864494E+00 -0.15283562826E+01  0.47787271644E+02  0.20000002733E+02 0.  0.
         12    1    1    2    0    0 -0.43373552803E+02  0.14921864494E+00  0.15283562826E+01  0.43400728356E+02  0.00000000000E+00 0. -1.
         11    1    3    3    0    0  0.37678708163E+01 -0.53487195337E+00  0.21277397505E+01  0.43600705501E+01  0.51100000000E-03 0. -1.
        -11    1    3    3    0    0  0.21192102796E+02  0.58538931973E+01  0.46958435084E+01  0.22481642133E+02  0.51100000000E-03 0.  1.
         12    1    3    3    0    0  0.18413579191E+02 -0.54682398888E+01 -0.83519395414E+01  0.20945558961E+02  0.00000000000E+00 0. -1.
</event>
<event>
 7    1  0.2769403E-010  0.4778727E+02  0.7816164E-02  0.1312668E+00
        -11   -1    0    0    0    0  0.00000000000E+00  0.00000000000E+00  0.45593999997E+02  0.45594000000E+02  0.51100000000E-03 0.  1.
         11   -1    0    0    0    0 -0.00000000000E+00 -0.00000000000E+00 -0.45593999997E+02  0.45594000000E+02  0.51100000000E-03 0. -1.
    9900012    2    1    2    0    0  0.42254447263E+02  0.37307633443E+01  0.91796823428E+01  0.47787268710E+02  0.19999989356E+02 0.  0.
         12    1    1    2    0    0 -0.42254447263E+02 -0.37307633443E+01 -0.91796823428E+01  0.43400731290E+02  0.00000000000E+00 0. -1.
         11    1    3    3    0    0  0.19923906744E+02 -0.13797678960E+01  0.41736435664E+01  0.20403066443E+02  0.51100000000E-03 0.  1.
        -11    1    3    3    0    0  0.21911949699E+02  0.76494736494E+01  0.18074958648E+01  0.23279068458E+02  0.51100000000E-03 0. -1.
         12    1    3    3    0    0  0.41859081993E+00 -0.25389424092E+01  0.31985429116E+01  0.41051338089E+01  0.00000000000E+00 0. -1.
</event>
<event>
 7    1  0.2769403E-010  0.4778727E+02  0.7816164E-02  0.1312668E+00
        -11   -1    0    0    0    0  0.00000000000E+00  0.00000000000E+00  0.45593999997E+02  0.45594000000E+02  0.51100000000E-03 0.  1.
         11   -1    0    0    0    0 -0.00000000000E+00 -0.00000000000E+00 -0.45593999997E+02  0.45594000000E+02  0.51100000000E-03 0. -1.
    9900012    2    1    2    0    0  0.48159864173E+01  0.32137710130E+02  0.28767990852E+02  0.47787269186E+02  0.19999991525E+02 0.  0.
         12    1    1    2    0    0 -0.48159864173E+01 -0.32137710130E+02 -0.28767990852E+02  0.43400730814E+02  0.00000000000E+00 0. -1.
         11    1    3    3    0    0 -0.15375250678E+01  0.11929799424E+02  0.13454187970E+02  0.18047140267E+02  0.51100000000E-03 0. -1.
        -11    1    3    3    0    0  0.16221020520E+01  0.20251771245E+02  0.10063877960E+02  0.22672606676E+02  0.51100000000E-03 0.  1.
         12    1    3    3    0    0  0.47314094331E+01 -0.43860538318E-01  0.52499249221E+01  0.70675222432E+01  0.00000000000E+00 0. -1.
</event>
<event>
 7    1  0.2769403E-010  0.4778727E+02  0.7816164E-02  0.1312668E+00
        -11   -1    0    0    0    0  0.00000000000E+00  0.00000000000E+00  0.45593999997E+02  0.45594000000E+02  0.51100000000E-03 0. -1.
         11   -1    0    0    0    0 -0.00000000000E+00 -0.00000000000E+00 -0.45593999997E+02  0.45594000000E+02  0.51100000000E-03 0.  1.
    9900012    2    1    2    0    0 -0.86892589387E+01 -0.40396737164E+02 -0.13274928502E+02  0.47787270500E+02  0.19999997517E+02 0.  0.
         12    1    1    2    0    0  0.86892589387E+01  0.40396737164E+02  0.13274928502E+02  0.43400729500E+02  0.00000000000E+00 0. -1.
         11    1    3    3    0    0  0.77185913471E-01 -0.76637619711E+01 -0.10416641102E+01  0.77346150256E+01  0.51100000000E-03 0. -1.
        -11    1    3    3    0    0 -0.10724040919E+02 -0.19131325691E+02 -0.14262779574E+02  0.26161795767E+02  0.51100000000E-03 0.  1.
        -12    1    3    3    0    0  0.19575960668E+01 -0.13601649502E+02  0.20295151818E+01  0.13890859707E+02  0.00000000000E+00 0.  1.
</event>
<event>
 7    1  0.2769403E-010  0.4778727E+02  0.7816164E-02  0.1312668E+00
        -11   -1    0    0    0    0  0.00000000000E+00  0.00000000000E+00  0.45593999997E+02  0.45594000000E+02  0.51100000000E-03 0.  1.
         11   -1    0    0    0    0 -0.00000000000E+00 -0.00000000000E+00 -0.45593999997E+02  0.45594000000E+02  0.51100000000E-03 0. -1.
    9900012    2    1    2    0    0 -0.29101184868E+02  0.17853261470E+01  0.32148979271E+02  0.47787271684E+02  0.20000002916E+02 0.  0.
         12    1    1    2    0    0  0.29101184868E+02 -0.17853261470E+01 -0.32148979271E+02  0.43400728316E+02  0.00000000000E+00 0. -1.
         11    1    3    3    0    0 -0.15893231467E+02 -0.50858589825E+01  0.16830820343E+02  0.23700997484E+02  0.51100000000E-03 0. -1.
        -11    1    3    3    0    0 -0.60667233638E+01 -0.12576255512E+01  0.10609310323E+02  0.12285935869E+02  0.51100000000E-03 0.  1.
         12    1    3    3    0    0 -0.71412300376E+01  0.81288106808E+01  0.47088486052E+01  0.11800338331E+02  0.00000000000E+00 0. -1.
</event>
<event>
 7    1  0.2769403E-010  0.4778727E+02  0.7816164E-02  0.1312668E+00
        -11   -1    0    0    0    0  0.00000000000E+00  0.00000000000E+00  0.45593999997E+02  0.45594000000E+02  0.51100000000E-03 0. -1.
         11   -1    0    0    0    0 -0.00000000000E+00 -0.00000000000E+00 -0.45593999997E+02  0.45594000000E+02  0.51100000000E-03 0.  1.
    9900012    2    1    2    0    0 -0.50941580943E+00  0.23069554376E+02 -0.36758119415E+02  0.47787272051E+02  0.20000004589E+02 0.  0.
         12    1    1    2    0    0  0.50941580943E+00 -0.23069554376E+02  0.36758119415E+02  0.43400727949E+02  0.00000000000E+00 0. -1.
         11    1    3    3    0    0 -0.38240299923E+01  0.44780726904E+01 -0.14285340952E+02  0.15451449989E+02  0.51100000000E-03 0. -1.
        -11    1    3    3    0    0  0.80173793579E+01  0.14716845870E+02 -0.18949541102E+02  0.25297213926E+02  0.51100000000E-03 0.  1.
        -12    1    3    3    0    0 -0.47027651751E+01  0.38746358154E+01 -0.35232373609E+01  0.70386081362E+01  0.00000000000E+00 0.  1.
</event>
